 -0.750000000       0.00000000    
 -0.689999998       0.00000000    
 -0.629999995       0.00000000    
 -0.569999993       0.00000000    
 -0.509999990       0.00000000    
 -0.449999988       0.00000000    
 -0.389999986      -2.19735072E-22
 -0.330000013      -1.35460784E-22
 -0.270000011       8.75878286E-21
 -0.209999993       5.56538296E-20
 -0.150000006       1.78385725E-19
  -9.00000036E-02   3.28395666E-19
  -2.99999993E-02   1.90572254E-19
   2.99999993E-02  -8.87386333E-19
   9.00000036E-02  -3.45985062E-18
  0.150000006      -6.80903771E-18
  0.209999993      -7.61684617E-18
  0.270000011      -1.87000682E-19
  0.330000013       1.98942397E-17
  0.389999986       4.88660620E-17
  0.449999988       6.90269251E-17
  0.509999990       5.16592888E-17
  0.569999993      -2.61166661E-17
  0.629999995      -1.55339278E-16
  0.689999998      -2.77911722E-16
  0.750000000      -3.00634148E-16
  0.810000002      -1.48813339E-16
  0.870000005       1.64313579E-16
  0.930000007       5.05619271E-16
  0.990000010       6.77546843E-16
   1.04999995       5.57993013E-16
   1.11000001       2.39979786E-16
   1.16999996       3.64897426E-17
   1.23000002       2.62782310E-16
   1.28999996       8.65309007E-16
   1.35000002       1.15416318E-15
   1.40999997      -3.38927958E-17
   1.47000003      -3.58815227E-15
   1.52999997      -9.04161254E-15
   1.59000003      -1.38271767E-14
   1.64999998      -1.36689044E-14
   1.71000004      -4.48844199E-15
   1.76999998       1.46863197E-14
   1.83000004       3.92600313E-14
   1.88999999       5.88568026E-14
   1.95000005       6.04662465E-14
   2.00999999       3.44154603E-14
   2.06999993      -1.92328724E-14
   2.13000011      -8.72588406E-14
   2.19000006      -1.45542459E-13
   2.25000000      -1.67285131E-13
   2.30999994      -1.34358778E-13
   2.36999989      -4.67517125E-14
   2.43000007       7.47783183E-14
   2.49000001       1.94947262E-13
   2.54999995       2.76899326E-13
   2.60999990       2.96069592E-13
   2.67000008       2.48287908E-13
   2.73000002       1.48158395E-13
   2.78999996       1.88958380E-14
   2.84999990      -1.20262903E-13
   2.91000009      -2.61108057E-13
   2.97000003      -4.02738227E-13
   3.02999997      -5.38213734E-13
   3.08999991      -6.39533944E-13
   3.15000010      -6.52190921E-13
   3.21000004      -5.07752748E-13
   3.26999998      -1.54442716E-13
   3.32999992       4.04849087E-13
   3.39000010       1.08491482E-12
   3.45000005       1.71822008E-12
   3.50999999       2.09054128E-12
   3.56999993       2.00548866E-12
   3.63000011       1.35734837E-12
   3.69000006       1.85370965E-13
   3.75000000      -1.31265441E-12
   3.80999994      -2.81556571E-12
   3.86999989      -3.95321449E-12
   3.93000007      -4.39723952E-12
   3.99000001      -3.94178006E-12
   4.05000019      -2.55437230E-12
   4.11000013      -3.89775533E-13
   4.17000008       2.22904009E-12
   4.23000002       4.85352210E-12
   4.28999996       6.96881441E-12
   4.34999990       8.06815639E-12
   4.40999985       7.74302497E-12
   4.46999979       5.78417913E-12
   4.53000021       2.27645203E-12
   4.59000015      -2.34233770E-12
   4.65000010      -7.29193008E-12
   4.71000004      -1.15521924E-11
   4.76999998      -1.40553064E-11
   4.82999992      -1.39338020E-11
   4.88999987      -1.07657598E-11
   4.94999981      -4.75040970E-12
   5.01000023       3.23920730E-12
   5.07000017       1.17488684E-11
   5.13000011       1.89651975E-11
   5.19000006       2.30187223E-11
   5.25000000       2.23022763E-11
   5.30999994       1.57413995E-11
   5.36999989       2.97216158E-12
   5.42999983      -1.55913060E-11
   5.48999977      -3.87924484E-11
   5.55000019      -6.48500351E-11
   5.61000013      -9.15354736E-11
   5.67000008      -1.16394387E-10
   5.73000002      -1.37001452E-10
   5.78999996      -1.51231930E-10
   5.84999990      -1.57517416E-10
   5.90999985      -1.55036262E-10
   5.96999979      -1.43788342E-10
   6.03000021      -1.24531122E-10
   6.09000015      -9.86032575E-11
   6.15000010      -6.77136749E-11
   6.21000004      -3.37933674E-11
   6.26999998       1.02521203E-12
   6.32999992       3.43147143E-11
   6.38999987       6.32472200E-11
   6.44999981       8.46280754E-11
   6.51000023       9.51918891E-11
   6.57000017       9.21777099E-11
   6.63000011       7.40624159E-11
   6.69000006       4.12215019E-11
   6.75000000      -3.73417269E-12
   6.80999994      -5.61194875E-11
   6.86999989      -1.09856853E-10
   6.92999983      -1.58537891E-10
   6.98999977      -1.96607189E-10
   7.05000019      -2.20376759E-10
   7.11000013      -2.28629796E-10
   7.17000008      -2.22684010E-10
   7.23000002      -2.05922820E-10
   7.28999996      -1.82928436E-10
   7.34999990      -1.58447200E-10
   7.40999985      -1.36447145E-10
   7.46999979      -1.19490653E-10
   7.53000021      -1.08546491E-10
   7.59000015      -1.03231583E-10
   7.65000010      -1.02353681E-10
   7.71000004      -1.04552075E-10
   7.76999998      -1.08837189E-10
   7.82999992      -1.14890139E-10
   7.88999987      -1.23067515E-10
   7.94999981      -1.34137715E-10
   8.01000023      -1.48834514E-10
   8.06999969      -1.67350980E-10
   8.13000011      -1.88923960E-10
   8.18999958      -2.11659537E-10
   8.25000000      -2.32715167E-10
   8.31000042      -2.48852355E-10
   8.36999989      -2.57230542E-10
   8.43000031      -2.56179689E-10
   8.48999977      -2.45638954E-10
   8.55000019      -2.27038777E-10
   8.60999966      -2.02612468E-10
   8.67000008      -1.74370587E-10
   8.72999954      -1.43130327E-10
   8.78999996      -1.07992865E-10
   8.85000038      -6.64813343E-11
   8.90999985      -1.52910757E-11
   8.97000027       4.86229425E-11
   9.02999973       1.26992319E-10
   9.09000015       2.19506829E-10
   9.14999962       3.23529259E-10
   9.21000004       4.34165204E-10
   9.27000046       5.44484513E-10
   9.32999992       6.45687226E-10
   9.39000034       7.27123695E-10
   9.44999981       7.76259834E-10
   9.51000023       7.78823728E-10
   9.56999969       7.19417637E-10
   9.63000011       5.82751458E-10
   9.68999958       3.55389856E-10
   9.75000000       2.75950009E-11
   9.81000042      -4.05334127E-10
   9.86999989      -9.42755318E-10
   9.93000031      -1.57958313E-09
   9.98999977      -2.30806418E-09
   10.0500002      -3.11969139E-09
   10.1099997      -4.00643385E-09
   10.1700001      -4.96078156E-09
   10.2299995      -5.97464656E-09
   10.2900000      -7.03768599E-09
   10.3500004      -8.13582179E-09
   10.4099998      -9.25057098E-09
   10.4700003      -1.03593667E-08
   10.5299997      -1.14366623E-08
   10.5900002      -1.24553869E-08
   10.6499996      -1.33884095E-08
   10.7100000      -1.42097836E-08
   10.7700005      -1.48957620E-08
   10.8299999      -1.54255577E-08
   10.8900003      -1.57818274E-08
   10.9499998      -1.59509170E-08
   11.0100002      -1.59229341E-08
   11.0699997      -1.56919171E-08
   11.1300001      -1.52562638E-08
   11.1899996      -1.46194195E-08
   11.2500000      -1.37906069E-08
   11.3100004      -1.27851303E-08
   11.3699999      -1.16240066E-08
   11.4300003      -1.03328750E-08
   11.4899998      -8.94050611E-09
   11.5500002      -7.47727391E-09
   11.6099997      -5.97379834E-09
   11.6700001      -4.45965975E-09
   11.7299995      -2.96196823E-09
   11.7900000      -1.50369839E-09
   11.8500004      -1.02108891E-10
   11.9099998       1.23217547E-09
   11.9700003       2.49489873E-09
   12.0299997       3.68665454E-09
   12.0900002       4.81065499E-09
   12.1499996       5.87065907E-09
   12.2100000       6.86983270E-09
   12.2700005       7.81077958E-09
   12.3299999       8.69637606E-09
   12.3900003       9.53069801E-09
   12.4499998       1.03194200E-08
   12.5100002       1.10694716E-08
   12.5699997       1.17880834E-08
   12.6300001       1.24815660E-08
   12.6899996       1.31540778E-08
   12.7500000       1.38065479E-08
   12.8100004       1.44358614E-08
   12.8699999       1.50345461E-08
   12.9300003       1.55912208E-08
   12.9899998       1.60919988E-08
   13.0500002       1.65226073E-08
   13.1099997       1.68705903E-08
   13.1700001       1.71268066E-08
   13.2299995       1.72855561E-08
   13.2900000       1.73432682E-08
   13.3500004       1.72963546E-08
   13.4099998       1.71391985E-08
   13.4700003       1.68633072E-08
   13.5299997       1.64582161E-08
   13.5900002       1.59141127E-08
   13.6499996       1.52255595E-08
   13.7100000       1.43953258E-08
   13.7700005       1.34372176E-08
   13.8299999       1.23770549E-08
   13.8900003       1.12513696E-08
   13.9499998       1.01039292E-08
   14.0100002       8.98076458E-09
   14.0699997       7.92467514E-09
   14.1300001       6.97027902E-09
   14.1899996       6.14044104E-09
   14.2500000       5.44450884E-09
   14.3100004       4.87837903E-09
   14.3699999       4.42610082E-09
   14.4300003       4.06259160E-09
   14.4899998       3.75701603E-09
   14.5500002       3.47642137E-09
   14.6099997       3.18926685E-09
   14.6700001       2.86856805E-09
   14.7299995       2.49442644E-09
   14.7900000       2.05576844E-09
   14.8500004       1.55114543E-09
   14.9099998       9.88426674E-10
   14.9700003       3.83247378E-10
   15.0299997      -2.43769782E-10
   15.0900002      -8.70712891E-10
   15.1499996      -1.47836465E-09
   15.2100000      -2.05363615E-09
   15.2700005      -2.59171173E-09
   15.3299999      -3.09653791E-09
   15.3900003      -3.57978491E-09
   15.4499998      -4.05877776E-09
   15.5100002      -4.55397320E-09
   15.5699997      -5.08640818E-09
   15.6300001      -5.67528380E-09
   15.6899996      -6.33574881E-09
   15.7500000      -7.07697767E-09
   15.8100004      -7.90076893E-09
   15.8699999      -8.80096174E-09
   15.9300003      -9.76385461E-09
   15.9899998      -1.07696785E-08
   16.0499992      -1.17949943E-08
   16.1100006      -1.28158515E-08
   16.1700001      -1.38114551E-08
   16.2299995      -1.47679549E-08
   16.2900009      -1.56816409E-08
   16.3500004      -1.65606036E-08
   16.4099998      -1.74239645E-08
   16.4699993      -1.82983531E-08
   16.5300007      -1.92121981E-08
   16.5900002      -2.01892831E-08
   16.6499996      -2.12433626E-08
   16.7099991      -2.23753052E-08
   16.7700005      -2.35732092E-08
   16.8299999      -2.48149910E-08
   16.8899994      -2.60723017E-08
   16.9500008      -2.73145737E-08
   17.0100002      -2.85124155E-08
   17.0699997      -2.96400007E-08
   17.1299992      -3.06763859E-08
   17.1900005      -3.16056976E-08
   17.2500000      -3.24163061E-08
   17.3099995      -3.30993437E-08
   17.3700008      -3.36473001E-08
   17.4300003      -3.40535884E-08
   17.4899998      -3.43136826E-08
   17.5499992      -3.44275399E-08
   17.6100006      -3.44022588E-08
   17.6700001      -3.42534250E-08
   17.7299995      -3.40040884E-08
   17.7900009      -3.36812853E-08
   17.8500004      -3.33111032E-08
   17.9099998      -3.29140022E-08
   17.9699993      -3.25018235E-08
   18.0300007      -3.20771214E-08
   18.0900002      -3.16346629E-08
   18.1499996      -3.11643120E-08
   18.2099991      -3.06545047E-08
   18.2700005      -3.00956948E-08
   18.3299999      -2.94833349E-08
   18.3899994      -2.88197803E-08
   18.4500008      -2.81146804E-08
   18.5100002      -2.73833844E-08
   18.5699997      -2.66436349E-08
   18.6299992      -2.59115183E-08
   18.6900005      -2.51980055E-08
   18.7500000      -2.45073544E-08
   18.8099995      -2.38378401E-08
   18.8700008      -2.31843575E-08
   18.9300003      -2.25418333E-08
   18.9899998      -2.19082494E-08
   19.0499992      -2.12865459E-08
   19.1100006      -2.06851283E-08
   19.1700001      -2.01170778E-08
   19.2299995      -1.95981080E-08
   19.2900009      -1.91434371E-08
   19.3500004      -1.87639984E-08
   19.4099998      -1.84628206E-08
   19.4699993      -1.82328925E-08
   19.5300007      -1.80576247E-08
   19.5900002      -1.79143100E-08
   19.6499996      -1.77797528E-08
   19.7099991      -1.76363066E-08
   19.7700005      -1.74763208E-08
   19.8299999      -1.73036199E-08
   19.8899994      -1.71318906E-08
   19.9500008      -1.69809979E-08
   20.0100002      -1.68727716E-08
   20.0699997      -1.68276113E-08
   20.1299992      -1.68626126E-08
   20.1900005      -1.69910965E-08
   20.2500000      -1.72229289E-08
   20.3099995      -1.75648722E-08
   20.3700008      -1.80202928E-08
   20.4300003      -1.85879045E-08
   20.4899998      -1.92595753E-08
   20.5499992      -2.00178434E-08
   20.6100006      -2.08341486E-08
   20.6700001      -2.16689990E-08
   20.7299995      -2.24748877E-08
   20.7900009      -2.32018902E-08
   20.8500004      -2.38048337E-08
   20.9099998      -2.42500793E-08
   20.9699993      -2.45200198E-08
   21.0300007      -2.46140832E-08
   21.0900002      -2.45462619E-08
   21.1499996      -2.43403253E-08
   21.2099991      -2.40244589E-08
   21.2700005      -2.36268729E-08
   21.3299999      -2.31734063E-08
   21.3899994      -2.26872956E-08
   21.4500008      -2.21905907E-08
   21.5100002      -2.17062599E-08
   21.5699997      -2.12597140E-08
   21.6299992      -2.08785895E-08
   21.6900005      -2.05900079E-08
   21.7500000      -2.04154009E-08
   21.8099995      -2.03641353E-08
   21.8700008      -2.04281179E-08
   21.9300003      -2.05797903E-08
   21.9899998      -2.07752677E-08
   22.0499992      -2.09626290E-08
   22.1100006      -2.10935518E-08
   22.1700001      -2.11349978E-08
   22.2299995      -2.10773887E-08
   22.2900009      -2.09367474E-08
   22.3500004      -2.07500737E-08
   22.4099998      -2.05652881E-08
   22.4699993      -2.04285353E-08
   22.5300007      -2.03721680E-08
   22.5900002      -2.04063362E-08
   22.6499996      -2.05160742E-08
   22.7099991      -2.06643040E-08
   22.7700005      -2.07998259E-08
   22.8299999      -2.08681801E-08
   22.8899994      -2.08226147E-08
   22.9500008      -2.06324469E-08
   23.0100002      -2.02868566E-08
   23.0699997      -1.97936743E-08
   23.1299992      -1.91742568E-08
   23.1900005      -1.84567917E-08
   23.2500000      -1.76707644E-08
   23.3099995      -1.68444263E-08
   23.3700008      -1.60057265E-08
   23.4300003      -1.51854529E-08
   23.4899998      -1.44203343E-08
   23.5499992      -1.37538647E-08
   23.6100006      -1.32335067E-08
   23.6700001      -1.29043736E-08
   23.7299995      -1.28007258E-08
   23.7900009      -1.29373960E-08
   23.8500004      -1.33033140E-08
   23.9099998      -1.38589371E-08
   23.9699993      -1.45386414E-08
   24.0300007      -1.52582764E-08
   24.0900002      -1.59269593E-08
   24.1499996      -1.64610956E-08
   24.2099991      -1.67976815E-08
   24.2700005      -1.69036607E-08
   24.3299999      -1.67788361E-08
   24.3899994      -1.64515139E-08
   24.4500008      -1.59681210E-08
   24.5100002      -1.53798982E-08
   24.5699997      -1.47303885E-08
   24.6299992      -1.40469751E-08
   24.6900005      -1.33380711E-08
   24.7500000      -1.25958088E-08
   24.8099995      -1.18026104E-08
   24.8700008      -1.09393845E-08
   24.9300003      -9.99315652E-09
   24.9899998      -8.96240770E-09
   25.0499992      -7.85906096E-09
   25.1100006      -6.70677425E-09
   25.1700001      -5.53603252E-09
   25.2299995      -4.37742420E-09
   25.2900009      -3.25517169E-09
   25.3500004      -2.18312390E-09
   25.4099998      -1.16478027E-09
   25.4699993      -1.97462977E-10
   25.5300007       7.20859428E-10
   25.5900002       1.58484093E-09
   25.6499996       2.37805509E-09
   25.7099991       3.07428172E-09
   25.7700005       3.64392183E-09
   25.8299999       4.06371470E-09
   25.8899994       4.32656622E-09
   25.9500008       4.44802106E-09
   26.0100002       4.46688420E-09
   26.0699997       4.43928627E-09
   26.1299992       4.42761250E-09
   26.1900005       4.48736381E-09
   26.2500000       4.65576599E-09
   26.3099995       4.94542540E-09
   26.3700008       5.34478417E-09
   26.4300003       5.82503645E-09
   26.4899998       6.35116004E-09
   26.5499992       6.89358259E-09
   26.6100006       7.43690842E-09
   26.6700001       7.98325850E-09
   26.7299995       8.54948556E-09
   26.7900009       9.15941101E-09
   26.8500004       9.83361126E-09
   26.9099998       1.05798632E-08
   26.9699993       1.13870344E-08
   27.0300007       1.22241595E-08
   27.0900002       1.30449864E-08
   27.1499996       1.37967540E-08
   27.2099991       1.44307846E-08
   27.2700005       1.49119668E-08
   27.3299999       1.52244937E-08
   27.3899994       1.53722333E-08
   27.4500008       1.53737165E-08
   27.5100002       1.52532031E-08
   27.5699997       1.50303912E-08
   27.6299992       1.47116381E-08
   27.6900005       1.42849341E-08
   27.7500000       1.37198519E-08
   27.8099995       1.29722997E-08
   27.8700008       1.19928538E-08
   27.9300003       1.07367635E-08
   27.9899998       9.17349663E-09
   28.0499992       7.29390726E-09
   28.1100006       5.11357134E-09
   28.1700001       2.67158806E-09
   28.2299995       2.50576261E-11
   28.2900009      -2.75958345E-09
   28.3500004      -5.61641489E-09
   28.4099998      -8.48881054E-09
   28.4699993      -1.13352110E-08
   28.5300007      -1.41308520E-08
   28.5900002      -1.68656022E-08
   28.6499996      -1.95390566E-08
   28.7099991      -2.21544596E-08
   28.7700005      -2.47129961E-08
   28.8299999      -2.72093885E-08
   28.8899994      -2.96292217E-08
   28.9500008      -3.19481188E-08
   29.0100002      -3.41328281E-08
   29.0699997      -3.61443036E-08
   29.1299992      -3.79427547E-08
   29.1900005      -3.94941786E-08
   29.2500000      -4.07771843E-08
   29.3099995      -4.17885104E-08
   29.3700008      -4.25455333E-08
   29.4300003      -4.30846576E-08
   29.4899998      -4.34555432E-08
   29.5499992      -4.37123653E-08
   29.6100006      -4.39040484E-08
   29.6700001      -4.40658603E-08
   29.7299995      -4.42143211E-08
   29.7900009      -4.43465069E-08
   29.8500004      -4.44437980E-08
   29.9099998      -4.44789769E-08
   29.9699993      -4.44248442E-08
   30.0300007      -4.42621371E-08
   30.0900002      -4.39848478E-08
   30.1499996      -4.36015455E-08
   30.2099991      -4.31325873E-08
   30.2700005      -4.26041957E-08
   30.3299999      -4.20412434E-08
   30.3899994      -4.14611847E-08
   30.4500008      -4.08709262E-08
   30.5100002      -4.02676221E-08
   30.5699997      -3.96428668E-08
   30.6299992      -3.89884640E-08
   30.6900005      -3.83014793E-08
   30.7500000      -3.75863962E-08
   30.8099995      -3.68534998E-08
   30.8700008      -3.61140451E-08
   30.9300003      -3.53742990E-08
   30.9899998      -3.46309825E-08
   31.0499992      -3.38703607E-08
   31.1100006      -3.30718564E-08
   31.1700001      -3.22153753E-08
   31.2299995      -3.12900319E-08
   31.2900009      -3.03013579E-08
   31.3500004      -2.92743074E-08
   31.4099998      -2.82505805E-08
   31.4699993      -2.72805600E-08
   31.5300007      -2.64118700E-08
   31.5900002      -2.56779540E-08
   31.6499996      -2.50902392E-08
   31.7099991      -2.46367140E-08
   31.7700005      -2.42877505E-08
   31.8299999      -2.40075924E-08
   31.8899994      -2.37678410E-08
   31.9500008      -2.35583553E-08
   32.0099983      -2.33917277E-08
   32.0699997      -2.32996893E-08
   32.1300011      -2.33226700E-08
   32.1899986      -2.34961490E-08
   32.2500000      -2.38383961E-08
   32.3100014      -2.43436489E-08
   32.3699989      -2.49827306E-08
   32.4300003      -2.57107029E-08
   32.4900017      -2.64790661E-08
   32.5499992      -2.72488716E-08
   32.6100006      -2.80010006E-08
   32.6699982      -2.87407431E-08
   32.7299995      -2.94953892E-08
   32.7900009      -3.03054364E-08
   32.8499985      -3.12118367E-08
   32.9099998      -3.22431326E-08
   32.9700012      -3.34063870E-08
   33.0299988      -3.46848879E-08
   33.0900002      -3.60432537E-08
   33.1500015      -3.74381592E-08
   33.2099991      -3.88309154E-08
   33.2700005      -4.01977296E-08
   33.3300018      -4.15343671E-08
   33.3899994      -4.28541398E-08
   33.4500008      -4.41804602E-08
   33.5099983      -4.55365488E-08
   33.5699997      -4.69355399E-08
   33.6300011      -4.83735789E-08
   33.6899986      -4.98275483E-08
   33.7500000      -5.12577287E-08
   33.8100014      -5.26146273E-08
   33.8699989      -5.38484741E-08
   33.9300003      -5.49189743E-08
   33.9900017      -5.58030067E-08
   34.0499992      -5.64980027E-08
   34.1100006      -5.70199674E-08
   34.1699982      -5.73964805E-08
   34.2299995      -5.76565604E-08
   34.2900009      -5.78203618E-08
   34.3499985      -5.78918069E-08
   34.4099998      -5.78564148E-08
   34.4700012      -5.76850248E-08
   34.5299988      -5.73423655E-08
   34.5900002      -5.67978340E-08
   34.6500015      -5.60352156E-08
   34.7099991      -5.50581909E-08
   34.7700005      -5.38898099E-08
   34.8300018      -5.25658592E-08
   34.8899994      -5.11241645E-08
   34.9500008      -4.95931474E-08
   35.0099983      -4.79833346E-08
   35.0699997      -4.62847183E-08
   35.1300011      -4.44707062E-08
   35.1899986      -4.25074411E-08
   35.2500000      -4.03654283E-08
   35.3100014      -3.80296896E-08
   35.3699989      -3.55053764E-08
   35.4300003      -3.28171268E-08
   35.4900017      -3.00024325E-08
   35.5499992      -2.71011391E-08
   35.6100006      -2.41442475E-08
   35.6699982      -2.11456648E-08
   35.7299995      -1.80997013E-08
   35.7900009      -1.49856358E-08
   35.8499985      -1.17784369E-08
   35.9099998      -8.46267767E-09
   35.9700012      -5.04526199E-09
   36.0299988      -1.56272129E-09
   36.0900002       1.91970417E-09
   36.1500015       5.31728483E-09
   36.2099991       8.54071924E-09
   36.2700005       1.15122791E-08
   36.3300018       1.41785153E-08
   36.3899994       1.65161627E-08
   36.4500008       1.85302582E-08
   36.5099983       2.02457873E-08
   36.5699997       2.16958078E-08
   36.6300011       2.29095125E-08
   36.6899986       2.39031639E-08
   36.7500000       2.46758276E-08
   36.8100014       2.52104595E-08
   36.8699989       2.54797410E-08
   36.9300003       2.54549128E-08
   36.9900017       2.51151349E-08
   37.0499992       2.44547032E-08
   37.1100006       2.34858923E-08
   37.1699982       2.22365308E-08
   37.2299995       2.07431192E-08
   37.2900009       1.90418703E-08
   37.3499985       1.71609038E-08
   37.4099998       1.51163526E-08
   37.4700012       1.29136923E-08
   37.5299988       1.05535989E-08
   37.5900002       8.03993139E-09
   37.6500015       5.38676970E-09
   37.7099991       2.62192623E-09
   37.7700005      -2.14297941E-10
   37.8300018      -3.07464920E-09
   37.8899994      -5.91304605E-09
   37.9500008      -8.69303296E-09
   38.0099983      -1.13944623E-08
   38.0699997      -1.40169600E-08
   38.1300011      -1.65795555E-08
   38.1899986      -1.91165714E-08
   38.2500000      -2.16705640E-08
   38.3100014      -2.42836098E-08
   38.3699989      -2.69886158E-08
   38.4300003      -2.98023792E-08
   38.4900017      -3.27218359E-08
   38.5499992      -3.57241916E-08
   38.6100006      -3.87707040E-08
   38.6699982      -4.18129353E-08
   38.7299995      -4.47999291E-08
   38.7900009      -4.76846296E-08
   38.8499985      -5.04284827E-08
   38.9099998      -5.30035962E-08
   38.9700012      -5.53925474E-08
   39.0299988      -5.75861421E-08
   39.0900002      -5.95797367E-08
   39.1500015      -6.13689437E-08
   39.2099991      -6.29457304E-08
   39.2700005      -6.42960671E-08
   39.3300018      -6.54002008E-08
   39.3899994      -6.62358488E-08
   39.4500008      -6.67838336E-08
   39.5099983      -6.70346267E-08
   39.5699997      -6.69935147E-08
   39.6300011      -6.66824960E-08
   39.6899986      -6.61376518E-08
   39.7500000      -6.54024674E-08
   39.8100014      -6.45187654E-08
   39.8699989      -6.35180726E-08
   39.9300003      -6.24160350E-08
   39.9900017      -6.12116722E-08
   40.0499992      -5.98915975E-08
   40.1100006      -5.84377418E-08
   40.1699982      -5.68359404E-08
   40.2299995      -5.50826549E-08
   40.2900009      -5.31879252E-08
   40.3499985      -5.11740446E-08
   40.4099998      -4.90709198E-08
   40.4700012      -4.69100314E-08
   40.5299988      -4.47189272E-08
   40.5900002      -4.25174491E-08
   40.6500015      -4.03161664E-08
   40.7099991      -3.81165428E-08
   40.7700005      -3.59123682E-08
   40.8300018      -3.36920714E-08
   40.8899994      -3.14416511E-08
   40.9500008      -2.91480102E-08
   41.0099983      -2.68022333E-08
   41.0699997      -2.44019471E-08
   41.1300011      -2.19521414E-08
   41.1899986      -1.94642258E-08
   41.2500000      -1.69539760E-08
   41.3100014      -1.44393901E-08
   41.3699989      -1.19394485E-08
   41.4300003      -9.47409884E-09
   41.4900017      -7.06487135E-09
   41.5499992      -4.73514072E-09
   41.6100006      -2.50919108E-09
   41.6699982      -4.10091600E-10
   41.7299995       1.54280633E-09
   41.7900009       3.33550632E-09
   41.8499985       4.95923347E-09
   41.9099998       6.40844355E-09
   41.9700012       7.67776687E-09
   42.0299988       8.75913919E-09
   42.0900002       9.64023794E-09
   42.1500015       1.03048086E-08
   42.2099991       1.07347580E-08
   42.2700005       1.09134159E-08
   42.3300018       1.08290337E-08
   42.3899994       1.04776037E-08
   42.4500008       9.86416193E-09
   42.5099983       9.00210306E-09
   42.5699997       7.91048826E-09
   42.6300011       6.60999389E-09
   42.6899986       5.11861264E-09
   42.7500000       3.44850482E-09
   42.8100014       1.60508118E-09
   42.8699989      -4.11213313E-10
   42.9300003      -2.60081268E-09
   42.9900017      -4.95974506E-09
   43.0499992      -7.47473639E-09
   43.1100006      -1.01202664E-08
   43.1699982      -1.28588074E-08
   43.2299995      -1.56446642E-08
   43.2900009      -1.84308160E-08
   43.3499985      -2.11770086E-08
   43.4099998      -2.38566393E-08
   43.4700012      -2.64600306E-08
   43.5299988      -2.89927033E-08
   43.5900002      -3.14690958E-08
   43.6500015      -3.39039445E-08
   43.7099991      -3.63044421E-08
   43.7700005      -3.86659487E-08
   43.8300018      -4.09723135E-08
   43.8899994      -4.32000569E-08
   43.9500008      -4.53241427E-08
   44.0099983      -4.73230095E-08
   44.0699997      -4.91815300E-08
   44.1300011      -5.08918845E-08
   44.1899986      -5.24532453E-08
   44.2500000      -5.38713714E-08
   44.3100014      -5.51584307E-08
   44.3699989      -5.63327944E-08
   44.4300003      -5.74179815E-08
   44.4900017      -5.84403672E-08
   44.5499992      -5.94257052E-08
   44.6100006      -6.03951875E-08
   44.6699982      -6.13620159E-08
   44.7299995      -6.23291996E-08
   44.7900009      -6.32892920E-08
   44.8499985      -6.42261497E-08
   44.9099998      -6.51184919E-08
   44.9700012      -6.59449384E-08
   45.0299988      -6.66893172E-08
   45.0900002      -6.73452050E-08
   45.1500015      -6.79183074E-08
   45.2099991      -6.84259192E-08
   45.2700005      -6.88933781E-08
   45.3300018      -6.93483457E-08
   45.3899994      -6.98145044E-08
   45.4500008      -7.03062426E-08
   45.5099983      -7.08261041E-08
   45.5699997      -7.13653918E-08
   45.6300011      -7.19080830E-08
   45.6899986      -7.24365989E-08
   45.7500000      -7.29376950E-08
   45.8100014      -7.34064614E-08
   45.8699989      -7.38470902E-08
   45.9300003      -7.42702042E-08
   45.9900017      -7.46880389E-08
   46.0499992      -7.51093978E-08
   46.1100006      -7.55362706E-08
   46.1699982      -7.59633423E-08
   46.2299995      -7.63798269E-08
   46.2900009      -7.67727286E-08
   46.3499985      -7.71298971E-08
   46.4099998      -7.74420883E-08
   46.4700012      -7.77037528E-08
   46.5299988      -7.79129294E-08
   46.5900002      -7.80705136E-08
   46.6500015      -7.81790135E-08
   46.7099991      -7.82408662E-08
   46.7700005      -7.82565834E-08
   46.8300018      -7.82233087E-08
   46.8899994      -7.81347396E-08
   46.9500008      -7.79825129E-08
   47.0099983      -7.77586990E-08
   47.0699997      -7.74581181E-08
   47.1300011      -7.70794628E-08
   47.1899986      -7.66245307E-08
   47.2500000      -7.60962635E-08
   47.3100014      -7.54966578E-08
   47.3699989      -7.48257563E-08
   47.4300003      -7.40820667E-08
   47.4900017      -7.32640686E-08
   47.5499992      -7.23718188E-08
   47.6100006      -7.14079889E-08
   47.6699982      -7.03779079E-08
   47.7299995      -6.92887099E-08
   47.7900009      -6.81477346E-08
   47.8499985      -6.69604816E-08
   47.9099998      -6.57286492E-08
   47.9700012      -6.44490612E-08
   48.0299988      -6.31146477E-08
   48.0900002      -6.17180760E-08
   48.1500015      -6.02575554E-08
   48.2099991      -5.87430335E-08
   48.2700005      -5.72000900E-08
   48.3300018      -5.56695596E-08
   48.3899994      -5.42023884E-08
   48.4500008      -5.28515187E-08
   48.5099983      -5.16637471E-08
   48.5699997      -5.06747639E-08
   48.6300011      -4.99088593E-08
   48.6899986      -4.93835017E-08
   48.7500000      -4.91169594E-08
   48.8100014      -4.91369789E-08
   48.8699989      -4.94883210E-08
   48.9300003      -5.02374604E-08
   48.9900017      -5.14734921E-08
   49.0499992      -5.33049693E-08
   49.1100006      -5.58539135E-08
   49.1699982      -5.92492988E-08
   49.2299995      -6.36232329E-08
   49.2900009      -6.91123816E-08
   49.3499985      -7.58654721E-08
   49.4099998      -8.40552161E-08
   49.4700012      -9.38916997E-08
   49.5299988      -1.05633916E-07
   49.5900002      -1.19597971E-07
   49.6500015      -1.36162029E-07
   49.7099991      -1.55769641E-07
   49.7700005      -1.78932865E-07
   49.8300018      -2.06236223E-07
   49.8899994      -2.38341926E-07
   49.9500008      -2.75997195E-07
   50.0099983      -3.20044762E-07
   50.0699997      -3.71437750E-07
   50.1300011      -4.31258343E-07
   50.1899986      -5.00738167E-07
   50.2500000      -5.81277391E-07
   50.3100014      -6.74460352E-07
   50.3699989      -7.82066877E-07
   50.4300003      -9.06084381E-07
   50.4900017      -1.04872265E-06
   50.5499992      -1.21243500E-06
   50.6100006      -1.39994381E-06