 -0.750000000       0.00000000    
 -0.689999998       0.00000000    
 -0.629999995       0.00000000    
 -0.569999993       0.00000000    
 -0.509999990       0.00000000    
 -0.449999988       0.00000000    
 -0.389999986      -4.02983048E-21
 -0.330000013      -1.97064456E-20
 -0.270000011       1.44014215E-21
 -0.209999993       3.27049792E-19
 -0.150000006       1.51931810E-18
  -9.00000036E-02   3.85702780E-18
  -2.99999993E-02   5.66549733E-18
   2.99999993E-02   1.50857664E-18
   9.00000036E-02  -1.65755216E-17
  0.150000006      -5.11480680E-17
  0.209999993      -8.57970326E-17
  0.270000011      -7.68145063E-17
  0.330000013       3.12516578E-17
  0.389999986       2.54679514E-16
  0.449999988       5.02417487E-16
  0.509999990       5.49354494E-16
  0.569999993       1.25942616E-16
  0.629999995      -8.49743770E-16
  0.689999998      -1.99352296E-15
  0.750000000      -2.36232089E-15
  0.810000002      -8.08527306E-16
  0.870000005       3.14830584E-15
  0.930000007       8.27103702E-15
  0.990000010       1.11422415E-14
   1.04999995       7.14903261E-15
   1.11000001      -6.77684888E-15
   1.16999996      -2.85378410E-14
   1.23000002      -4.85253080E-14
   1.28999996      -5.11614134E-14
   1.35000002      -2.17217805E-14
   1.40999997       4.31233316E-14
   1.47000003       1.26129345E-13
   1.52999997       1.88609667E-13
   1.59000003       1.82885391E-13
   1.64999998       7.67367398E-14
   1.71000004      -1.19950518E-13
   1.76999998      -3.42097363E-13
   1.83000004      -4.83962805E-13
   1.88999999      -4.43844966E-13
   1.95000005      -1.83626768E-13
   2.00999999       2.27384030E-13
   2.06999993       6.16616404E-13
   2.13000011       7.74811096E-13
   2.19000006       5.66127820E-13
   2.25000000       2.97850666E-14
   2.30999994      -5.90895876E-13
   2.36999989      -9.32808410E-13
   2.43000007      -6.95692961E-13
   2.49000001       1.56025664E-13
   2.54999995       1.28701206E-12
   2.60999990       2.07255263E-12
   2.67000008       1.87587229E-12
   2.73000002       4.16789379E-13
   2.78999996      -1.95473520E-12
   2.84999990      -4.26223466E-12
   2.91000009      -5.25590595E-12
   2.97000003      -4.01015202E-12
   3.02999997      -5.00208273E-13
   3.08999991       4.15655704E-12
   3.15000010       7.99679420E-12
   3.21000004       9.00296677E-12
   3.26999998       6.08159486E-12
   3.32999992      -2.32295438E-13
   3.39000010      -7.73991288E-12
   3.45000005      -1.33288545E-11
   3.50999999      -1.42481140E-11
   3.56999993      -9.35715828E-12
   3.63000011       2.44267903E-13
   3.69000006       1.15450115E-11
   3.75000000       2.08016816E-11
   3.80999994       2.50331023E-11
   3.86999989       2.31142900E-11
   3.93000007       1.59341429E-11
   3.99000001       5.55593462E-12
   4.05000019      -6.13931215E-12
   4.11000013      -1.85240087E-11
   4.17000008      -3.22978415E-11
   4.23000002      -4.83503446E-11
   4.28999996      -6.58817792E-11
   4.34999990      -8.07806877E-11
   4.40999985      -8.53372234E-11
   4.46999979      -6.99092381E-11
   4.53000021      -2.63227773E-11
   4.59000015       4.80562673E-11
   4.65000010       1.47102150E-10
   4.71000004       2.54921945E-10
   4.76999998       3.47680940E-10
   4.82999992       3.97863353E-10
   4.88999987       3.79708986E-10
   4.94999981       2.74217593E-10
   5.01000023       7.24015570E-11
   5.07000017      -2.23766089E-10
   5.13000011      -6.02376538E-10
   5.19000006      -1.04364062E-09
   5.25000000      -1.52193191E-09
   5.30999994      -2.00718842E-09
   5.36999989      -2.46571608E-09
   5.42999983      -2.86103563E-09
   5.48999977      -3.15563553E-09
   5.55000019      -3.31419403E-09
   5.61000013      -3.30816752E-09
   5.67000008      -3.12084203E-09
   5.73000002      -2.75138734E-09
   5.78999996      -2.21641505E-09
   5.84999990      -1.54807067E-09
   5.90999985      -7.88694499E-10
   5.96999979       1.67943923E-11
   6.03000021       8.28806357E-10
   6.09000015       1.61909164E-09
   6.15000010       2.37323450E-09
   6.21000004       3.08920178E-09
   6.26999998       3.77289799E-09
   6.32999992       4.43274040E-09
   6.38999987       5.07549913E-09
   6.44999981       5.70496494E-09
   6.51000023       6.32361630E-09
   6.57000017       6.93598157E-09
   6.63000011       7.55150520E-09
   6.69000006       8.18488566E-09
   6.75000000       8.85305962E-09
   6.80999994       9.56970858E-09
   6.86999989       1.03395976E-08
   6.92999983       1.11553815E-08
   6.98999977       1.19986341E-08
   7.05000019       1.28449198E-08
   7.11000013       1.36708849E-08
   7.17000008       1.44602526E-08
   7.23000002       1.52061546E-08
   7.28999996       1.59089382E-08
   7.34999990       1.65708958E-08
   7.40999985       1.71909740E-08
   7.46999979       1.77626021E-08
   7.53000021       1.82762250E-08
   7.59000015       1.87256717E-08
   7.65000010       1.91152481E-08
   7.71000004       1.94636520E-08
   7.76999998       1.98019059E-08
   7.82999992       2.01651034E-08
   7.88999987       2.05805897E-08
   7.94999981       2.10570441E-08
   8.01000023       2.15789413E-08
   8.06999969       2.21088303E-08
   8.13000011       2.25969288E-08
   8.18999958       2.29948043E-08
   8.25000000       2.32684751E-08
   8.31000042       2.34068427E-08
   8.36999989       2.34232171E-08
   8.43000031       2.33503545E-08
   8.48999977       2.32314168E-08
   8.55000019       2.31102462E-08
   8.60999966       2.30238619E-08
   8.67000008       2.29987656E-08
   8.72999954       2.30510313E-08
   8.78999996       2.31889121E-08
   8.85000038       2.34161419E-08
   8.90999985       2.37344402E-08
   8.97000027       2.41443150E-08
   9.02999973       2.46443044E-08
   9.09000015       2.52294932E-08
   9.14999962       2.58904080E-08
   9.21000004       2.66133569E-08
   9.27000046       2.73825478E-08
   9.32999992       2.81835479E-08
   9.39000034       2.90068449E-08
   9.44999981       2.98499003E-08
   9.51000023       3.07164711E-08
   9.56999969       3.16129523E-08
   9.63000011       3.25427685E-08
   9.68999958       3.35010988E-08
   9.75000000       3.44722615E-08
   9.81000042       3.54315084E-08
   9.86999989       3.63510608E-08
   9.93000031       3.72082987E-08
   9.98999977       3.79927521E-08
   10.0500002       3.87086665E-08
   10.1099997       3.93716277E-08
   10.1700001       4.00002804E-08
   10.2299995       4.06065439E-08
   10.2900000       4.11884358E-08
   10.3500004       4.17286614E-08
   10.4099998       4.21991793E-08
   10.4700003       4.25692050E-08
   10.5299997       4.28124345E-08
   10.5900002       4.29097682E-08
   10.6499996       4.28465157E-08
   10.7100000       4.26063060E-08
   10.7700005       4.21660893E-08
   10.8299999       4.14961967E-08
   10.8900003       4.05669418E-08
   10.9499998       3.93593247E-08
   11.0100002       3.78748588E-08
   11.0699997       3.61393369E-08
   11.1300001       3.41980133E-08
   11.1899996       3.21038449E-08
   11.2500000       2.99037488E-08
   11.3100004       2.76288166E-08
   11.3699999       2.52922234E-08
   11.4300003       2.28948114E-08
   11.4899998       2.04346300E-08
   11.5500002       1.79153723E-08
   11.6099997       1.53498796E-08
   11.6700001       1.27580986E-08
   11.7299995       1.01619149E-08
   11.7900000       7.58074492E-09
   11.8500004       5.03068653E-09
   11.9099998       2.52747023E-09
   11.9700003       9.08091796E-11
   12.0299997      -2.25337082E-09
   12.0900002      -4.47529258E-09
   12.1499996      -6.54821397E-09
   12.2100000      -8.45709103E-09
   12.2700005      -1.02049311E-08
   12.3299999      -1.18134036E-08
   12.3900003      -1.33166447E-08
   12.4499998      -1.47500838E-08
   12.5100002      -1.61382054E-08
   12.5699997      -1.74855987E-08
   12.6300001      -1.87742994E-08
   12.6899996      -1.99680503E-08
   12.7500000      -2.10217088E-08
   12.8100004      -2.18926175E-08
   12.8699999      -2.25505783E-08
   12.9300003      -2.29841248E-08
   12.9899998      -2.32022348E-08
   13.0500002      -2.32319675E-08
   13.1099997      -2.31131931E-08
   13.1700001      -2.28918111E-08
   13.2299995      -2.26125607E-08
   13.2900000      -2.23124115E-08
   13.3500004      -2.20154526E-08
   13.4099998      -2.17301022E-08
   13.4700003      -2.14493046E-08
   13.5299997      -2.11536513E-08
   13.5900002      -2.08168025E-08
   13.6499996      -2.04118056E-08
   13.7100000      -1.99168841E-08
   13.7700005      -1.93196730E-08
   13.8299999      -1.86195805E-08
   13.8900003      -1.78285564E-08
   13.9499998      -1.69706826E-08
   14.0100002      -1.60805360E-08
   14.0699997      -1.51998822E-08
   14.1300001      -1.43722669E-08
   14.1899996      -1.36358365E-08
   14.2500000      -1.30159572E-08
   14.3100004      -1.25201369E-08
   14.3699999      -1.21376384E-08
   14.4300003      -1.18446666E-08
   14.4899998      -1.16135945E-08
   14.5500002      -1.14226610E-08
   14.6099997      -1.12619931E-08
   14.6700001      -1.11333911E-08
   14.7299995      -1.10442766E-08
   14.7900000      -1.09992406E-08
   14.8500004      -1.09938885E-08
   14.9099998      -1.10144835E-08
   14.9700003      -1.10436389E-08
   15.0299997      -1.10688134E-08
   15.0900002      -1.10885372E-08
   15.1499996      -1.11122942E-08
   15.2100000      -1.11533671E-08
   15.2700005      -1.12179439E-08
   15.3299999      -1.12961649E-08
   15.3900003      -1.13602141E-08
   15.4499998      -1.13712249E-08
   15.5100002      -1.12923839E-08
   15.5699997      -1.11025447E-08
   15.6300001      -1.08043343E-08
   15.6899996      -1.04233742E-08
   15.7500000      -9.99931959E-09
   15.8100004      -9.57292645E-09
   15.8699999      -9.17459442E-09
   15.9300003      -8.81847839E-09
   15.9899998      -8.50322834E-09
   16.0499992      -8.21734147E-09
   16.1100006      -7.94552069E-09
   16.1700001      -7.67284991E-09
   16.2299995      -7.38552108E-09
   16.2900009      -7.06915193E-09
   16.3500004      -6.70712508E-09
   16.4099998      -6.28126884E-09
   16.4699993      -5.77570436E-09
   16.5300007      -5.18263255E-09
   16.5900002      -4.50737270E-09
   16.6499996      -3.76980447E-09
   16.7099991      -3.00073966E-09
   16.7700005      -2.23403673E-09
   16.8299999      -1.49740287E-09
   16.8899994      -8.05702005E-10
   16.9500008      -1.59713881E-10
   17.0100002       4.49068366E-10
   17.0699997       1.02979247E-09
   17.1299992       1.58376245E-09
   17.1900005       2.10009943E-09
   17.2500000       2.55762678E-09
   17.3099995       2.93213742E-09
   17.3700008       3.20573545E-09
   17.4300003       3.37407813E-09
   17.4899998       3.44841644E-09
   17.5499992       3.45174889E-09
   17.6100006       3.41094264E-09
   17.6700001       3.34814998E-09
   17.7299995       3.27478311E-09
   17.7900009       3.18992477E-09
   17.8500004       3.08319614E-09
   17.9099998       2.94055580E-09
   17.9699993       2.75082868E-09
   18.0300007       2.51093302E-09
   18.0900002       2.22852381E-09
   18.1499996       1.92172189E-09
   18.2099991       1.61645619E-09
   18.2700005       1.34251699E-09
   18.3299999       1.12958876E-09
   18.3899994       1.00419983E-09
   18.4500008       9.87836923E-10
   18.5100002       1.09569842E-09
   18.5699997       1.33521350E-09
   18.6299992       1.70381398E-09
   18.6900005       2.18646901E-09
   18.7500000       2.75457812E-09
   18.8099995       3.36819439E-09
   18.8700008       3.98263733E-09
   18.9300003       4.55853932E-09
   18.9899998       5.07218267E-09
   19.0499992       5.52190693E-09
   19.1100006       5.92721872E-09
   19.1700001       6.31996588E-09
   19.2299995       6.73035006E-09
   19.2900009       7.17299642E-09
   19.3500004       7.63855201E-09
   19.4099998       8.09410761E-09
   19.4699993       8.49216164E-09
   19.5300007       8.78454465E-09
   19.5900002       8.93612917E-09
   19.6499996       8.93379593E-09
   19.7099991       8.78854856E-09
   19.7700005       8.53150972E-09
   19.8299999       8.20657320E-09
   19.8899994       7.86300536E-09
   19.9500008       7.55035412E-09
   20.0100002       7.31629157E-09
   20.0699997       7.20637994E-09
   20.1299992       7.26386729E-09
   20.1900005       7.52775442E-09
   20.2500000       8.02841349E-09
   20.3099995       8.78148043E-09
   20.3700008       9.78204273E-09
   20.4300003       1.10017000E-08
   20.4899998       1.23905419E-08
   20.5499992       1.38845513E-08
   20.6100006       1.54168784E-08
   20.6700001       1.69297021E-08
   20.7299995       1.83828455E-08
   20.7900009       1.97563228E-08
   20.8500004       2.10463913E-08
   20.9099998       2.22571988E-08
   20.9699993       2.33919888E-08
   21.0300007       2.44476634E-08
   21.0900002       2.54146659E-08
   21.1499996       2.62812794E-08
   21.2099991       2.70391816E-08
   21.2700005       2.76864185E-08
   21.3299999       2.82255570E-08
   21.3899994       2.86576540E-08
   21.4500008       2.89753785E-08
   21.5100002       2.91596898E-08
   21.5699997       2.91830595E-08
   21.6299992       2.90190059E-08
   21.6900005       2.86542541E-08
   21.7500000       2.80979382E-08
   21.8099995       2.73832281E-08
   21.8700008       2.65600359E-08
   21.9300003       2.56818105E-08
   21.9899998       2.47922394E-08
   22.0499992       2.39179130E-08
   22.1100006       2.30699069E-08
   22.1700001       2.22528289E-08
   22.2299995       2.14758877E-08
   22.2900009       2.07595061E-08
   22.3500004       2.01332373E-08
   22.4099998       1.96253520E-08
   22.4699993       1.92490379E-08
   22.5300007       1.89924609E-08
   22.5900002       1.88184845E-08
   22.6499996       1.86755926E-08
   22.7099991       1.85161664E-08
   22.7700005       1.83146316E-08
   22.8299999       1.80777278E-08
   22.8899994       1.78423427E-08
   22.9500008       1.76616233E-08
   23.0100002       1.75847994E-08
   23.0699997       1.76384347E-08
   23.1299992       1.78158039E-08
   23.1900005       1.80773831E-08
   23.2500000       1.83611650E-08
   23.3099995       1.85982163E-08
   23.3700008       1.87278868E-08
   23.4300003       1.87084215E-08
   23.4899998       1.85210070E-08
   23.5499992       1.81679116E-08
   23.6100006       1.76667161E-08
   23.6700001       1.70432362E-08
   23.7299995       1.63252700E-08
   23.7900009       1.55386743E-08
   23.8500004       1.47064219E-08
   23.9099998       1.38504648E-08
   23.9699993       1.29952324E-08
   24.0300007       1.21708741E-08
   24.0900002       1.14141452E-08
   24.1499996       1.07656231E-08
   24.2099991       1.02636344E-08
   24.2700005       9.93702010E-09
   24.3299999       9.79988268E-09
   24.3899994       9.85069448E-09
   24.4500008       1.00760227E-08
   24.5100002       1.04565334E-08
   24.5699997       1.09714824E-08
   24.6299992       1.15987353E-08
   24.6900005       1.23101476E-08
   24.7500000       1.30655833E-08
   24.8099995       1.38106069E-08
   24.8700008       1.44817136E-08
   24.9300003       1.50190065E-08
   24.9899998       1.53814810E-08
   25.0499992       1.55573723E-08
   25.1100006       1.55632502E-08
   25.1700001       1.54306790E-08
   25.2299995       1.51858579E-08
   25.2900009       1.48321257E-08
   25.3500004       1.43449101E-08
   25.4099998       1.36832341E-08
   25.4699993       1.28136799E-08
   25.5300007       1.17360237E-08
   25.5900002       1.04980238E-08
   25.6499996       9.19144583E-09
   25.7099991       7.93006905E-09
   25.7700005       6.81895473E-09
   25.8299999       5.92831562E-09
   25.8899994       5.28291322E-09
   25.9500008       4.87021490E-09
   26.0100002       4.66162087E-09
   26.0699997       4.63536054E-09
   26.1299992       4.78995910E-09
   26.1900005       5.14294340E-09
   26.2500000       5.71754732E-09
   26.3099995       6.52613164E-09
   26.3700008       7.55999885E-09
   26.4300003       8.79097062E-09
   26.4899998       1.01831539E-08
   26.5499992       1.17076402E-08
   26.6100006       1.33514773E-08
   26.6700001       1.51156261E-08
   26.7299995       1.70027707E-08
   26.7900009       1.90013640E-08
   26.8500004       2.10742428E-08
   26.9099998       2.31577122E-08
   26.9699993       2.51717829E-08
   27.0300007       2.70369735E-08
   27.0900002       2.86905681E-08
   27.1499996       3.00961567E-08
   27.2099991       3.12439248E-08
   27.2700005       3.21432658E-08
   27.3299999       3.28116947E-08
   27.3899994       3.32644348E-08
   27.4500008       3.35073551E-08
   27.5100002       3.35342385E-08
   27.5699997       3.33280497E-08
   27.6299992       3.28655112E-08
   27.6900005       3.21242410E-08
   27.7500000       3.10911439E-08
   27.8099995       2.97697831E-08
   27.8700008       2.81837060E-08
   27.9300003       2.63734616E-08
   27.9899998       2.43872869E-08
   28.0499992       2.22686776E-08
   28.1100006       2.00463557E-08
   28.1700001       1.77318942E-08
   28.2299995       1.53269770E-08
   28.2900009       1.28373907E-08
   28.3500004       1.02867661E-08
   28.4099998       7.72251507E-09
   28.4699993       5.20978638E-09
   28.5300007       2.81526535E-09
   28.5900002       5.88140203E-10
   28.6499996      -1.45260659E-09
   28.7099991      -3.31831873E-09
   28.7700005      -5.03824493E-09
   28.8299999      -6.64098909E-09
   28.8899994      -8.13922441E-09
   28.9500008      -9.52504209E-09
   29.0100002      -1.07773550E-08
   29.0699997      -1.18762049E-08
   29.1299992      -1.28152564E-08
   29.1900005      -1.36051579E-08
   29.2500000      -1.42659733E-08
   29.3099995      -1.48134687E-08
   29.3700008      -1.52478687E-08
   29.4300003      -1.55525672E-08
   29.4899998      -1.57047779E-08
   29.5499992      -1.56931623E-08
   29.6100006      -1.55329030E-08
   29.6700001      -1.52692632E-08
   29.7299995      -1.49660107E-08
   29.7900009      -1.46828079E-08
   29.8500004      -1.44515200E-08
   29.9099998      -1.42625005E-08
   29.9699993      -1.40676271E-08
   30.0300007      -1.37991707E-08
   30.0900002      -1.33964289E-08
   30.1499996      -1.28286519E-08
   30.2099991      -1.21047474E-08
   30.2700005      -1.12663141E-08
   30.3299999      -1.03679358E-08
   30.3899994      -9.45373380E-09
   30.4500008      -8.54018012E-09
   30.5100002      -7.61180630E-09
   30.5699997      -6.63064226E-09
   30.6299992      -5.55459945E-09
   30.6900005      -4.35684644E-09
   30.7500000      -3.03841863E-09
   30.8099995      -1.62954072E-09
   30.8700008      -1.79765897E-10
   30.9300003       1.25871225E-09
   30.9899998       2.64786459E-09
   31.0499992       3.97430622E-09
   31.1100006       5.24966781E-09
   31.1700001       6.50110721E-09
   31.2299995       7.75608022E-09
   31.2900009       9.02773145E-09
   31.3500004       1.03069455E-08
   31.4099998       1.15642003E-08
   31.4699993       1.27601956E-08
   31.5300007       1.38604257E-08
   31.5900002       1.48472594E-08
   31.6499996       1.57244830E-08
   31.7099991       1.65128906E-08
   31.7700005       1.72397367E-08
   31.8299999       1.79275172E-08
   31.8899994       1.85872775E-08
   31.9500008       1.92188310E-08
   32.0099983       1.98163939E-08
   32.0699997       2.03754826E-08
   32.1300011       2.08967474E-08
   32.1899986       2.13849116E-08
   32.2500000       2.18442509E-08
   32.3100014       2.22743619E-08
   32.3699989       2.26696137E-08
   32.4300003       2.30231798E-08
   32.4900017       2.33332820E-08
   32.5499992       2.36074502E-08
   32.6100006       2.38613467E-08
   32.6699982       2.41117935E-08
   32.7299995       2.43670115E-08
   32.7900009       2.46190233E-08
   32.8499985       2.48423184E-08
   32.9099998       2.49997409E-08
   32.9700012       2.50530459E-08
   33.0299988       2.49735095E-08
   33.0900002       2.47483332E-08
   33.1500015       2.43810501E-08
   33.2099991       2.38869315E-08
   33.2700005       2.32860984E-08
   33.3300018       2.25970034E-08
   33.3899994       2.18317542E-08
   33.4500008       2.09934683E-08
   33.5099983       2.00756212E-08
   33.5699997       1.90638314E-08
   33.6300011       1.79409643E-08
   33.6899986       1.66956831E-08
   33.7500000       1.53327502E-08
   33.8100014       1.38810989E-08
   33.8699989       1.23950246E-08
   33.9300003       1.09456550E-08
   33.9900017       9.60399404E-09
   34.0499992       8.42134007E-09
   34.1100006       7.41526351E-09
   34.1699982       6.56778765E-09
   34.2299995       5.83725424E-09
   34.2900009       5.17890975E-09
   34.3499985       4.56486493E-09
   34.4099998       3.99418854E-09
   34.4700012       3.48870666E-09
   34.5299988       3.07722225E-09
   34.5900002       2.77661649E-09
   34.6500015       2.57959987E-09
   34.7099991       2.45507437E-09
   34.7700005       2.36019848E-09
   34.8300018       2.25714269E-09
   34.8899994       2.12546092E-09
   34.9500008       1.96408911E-09
   35.0099983       1.78330073E-09
   35.0699997       1.59278990E-09
   35.1300011       1.39404799E-09
   35.1899986       1.18214794E-09
   35.2500000       9.55868940E-10
   35.3100014       7.29470817E-10
   35.3699989       5.37861311E-10
   35.4300003       4.30419755E-10
   35.4900017       4.55361748E-10
   35.5499992       6.42322084E-10
   35.6100006       9.92271598E-10
   35.6699982       1.48000290E-09
   35.7299995       2.06739870E-09
   35.7900009       2.71966827E-09
   35.8499985       3.41524542E-09
   35.9099998       4.14398427E-09
   35.9700012       4.89528462E-09
   36.0299988       5.64372815E-09
   36.0900002       6.34112940E-09
   36.1500015       6.92003344E-09
   36.2099991       7.30697147E-09
   36.2700005       7.43834860E-09
   36.3300018       7.27088789E-09
   36.3899994       6.78241063E-09
   36.4500008       5.96486105E-09
   36.5099983       4.81602136E-09
   36.5699997       3.33646999E-09
   36.6300011       1.53424784E-09
   36.6899986      -5.65962610E-10
   36.7500000      -2.91579183E-09
   36.8100014      -5.44393686E-09
   36.8699989      -8.06560152E-09
   36.9300003      -1.06959712E-08
   36.9900017      -1.32604159E-08
   37.0499992      -1.56961235E-08
   37.1100006      -1.79454549E-08
   37.1699982      -1.99469685E-08
   37.2299995      -2.16322160E-08
   37.2900009      -2.29332233E-08
   37.3499985      -2.37989166E-08
   37.4099998      -2.42123122E-08
   37.4700012      -2.41981741E-08
   37.5299988      -2.38148079E-08
   37.5900002      -2.31318449E-08
   37.6500015      -2.22039152E-08
   37.7099991      -2.10532694E-08
   37.7700005      -1.96707184E-08
   37.8300018      -1.80350170E-08
   37.8899994      -1.61411187E-08
   37.9500008      -1.40226142E-08
   38.0099983      -1.17561845E-08
   38.0699997      -9.44489464E-09
   38.1300011      -7.18804838E-09
   38.1899986      -5.05224040E-09
   38.2500000      -3.05758197E-09
   38.3100014      -1.18535504E-09
   38.3699989       5.97470629E-10
   38.4300003       2.30942376E-09
   38.4900017       3.93528188E-09
   38.5499992       5.42456080E-09
   38.6100006       6.70669031E-09
   38.6699982       7.71419284E-09
   38.7299995       8.40279046E-09
   38.7900009       8.76076722E-09
   38.8499985       8.80637963E-09
   38.9099998       8.57763460E-09
   38.9700012       8.12063305E-09
   39.0299988       7.48073248E-09
   39.0900002       6.69735378E-09
   39.1500015       5.80090953E-09
   39.2099991       4.81066875E-09
   39.2700005       3.73430709E-09
   39.3300018       2.57134780E-09
   39.3899994       1.32176681E-09
   39.4500008      -2.13799182E-12
   39.5099983      -1.36591871E-09
   39.5699997      -2.71139533E-09
   39.6300011      -3.96657240E-09
   39.6899986      -5.06459941E-09
   39.7500000      -5.96398886E-09
   39.8100014      -6.66062983E-09
   39.8699989      -7.18552462E-09
   39.9300003      -7.58904850E-09
   39.9900017      -7.91925103E-09
   40.0499992      -8.20453483E-09
   40.1100006      -8.44838599E-09
   40.1699982      -8.63724381E-09
   40.2299995      -8.75570638E-09
   40.2900009      -8.79993411E-09
   40.3499985      -8.78194761E-09
   40.4099998      -8.72323014E-09
   40.4700012      -8.64220784E-09
   40.5299988      -8.54330029E-09
   40.5900002      -8.41369285E-09
   40.6500015      -8.22904500E-09
   40.7099991      -7.96404009E-09
   40.7700005      -7.60122099E-09
   40.8300018      -7.13325354E-09
   40.8899994      -6.55831522E-09
   40.9500008      -5.87292037E-09
   41.0099983      -5.06823916E-09
   41.0699997      -4.13379331E-09
   41.1300011      -3.06760151E-09
   41.1899986      -1.88738292E-09
   41.2500000      -6.35912045E-10
   41.3100014       6.23833984E-10
   41.3699989       1.82290361E-09
   41.4300003       2.90413271E-09
   41.4900017       3.83555276E-09
   41.5499992       4.61354066E-09
   41.6100006       5.25475885E-09
   41.6699982       5.78117820E-09
   41.7299995       6.20539664E-09
   41.7900009       6.52274013E-09
   41.8499985       6.71296974E-09
   41.9099998       6.74984868E-09
   41.9700012       6.61369715E-09
   42.0299988       6.30153751E-09
   42.0900002       5.83136606E-09
   42.1500015       5.24001598E-09
   42.2099991       4.57650362E-09
   42.2700005       3.89373600E-09
   42.3300018       3.24109872E-09
   42.3899994       2.65945577E-09
   42.4500008       2.17918550E-09
   42.5099983       1.82128868E-09
   42.5699997       1.60104963E-09
   42.6300011       1.53300606E-09
   42.6899986       1.63505731E-09
   42.7500000       1.92922056E-09
   42.8100014       2.43739695E-09
   42.8699989       3.17272675E-09
   42.9300003       4.12988621E-09
   42.9900017       5.27934407E-09
   43.0499992       6.56984600E-09
   43.1100006       7.93990118E-09
   43.1699982       9.33429867E-09
   43.2299995       1.07182379E-08
   43.2900009       1.20817054E-08
   43.3499985       1.34309550E-08
   43.4099998       1.47704915E-08
   43.4700012       1.60843712E-08
   43.5299988       1.73268901E-08
   43.5900002       1.84285405E-08
   43.6500015       1.93155127E-08
   43.7099991       1.99339318E-08
   43.7700005       2.02671924E-08
   43.8300018       2.03381418E-08
   43.8899994       2.01954116E-08
   43.9500008       1.98911110E-08
   44.0099983       1.94610035E-08
   44.0699997       1.89161717E-08
   44.1300011       1.82485493E-08
   44.1899986       1.74452044E-08
   44.2500000       1.65021987E-08
   44.3100014       1.54301798E-08
   44.3699989       1.42493750E-08
   44.4300003       1.29780497E-08
   44.4900017       1.16219914E-08
   44.5499992       1.01714148E-08
   44.6100006       8.60697735E-09
   44.6699982       6.91126045E-09
   44.7299995       5.07928721E-09
   44.7900009       3.12278536E-09
   44.8499985       1.06684284E-09
   44.9099998      -1.05816922E-09
   44.9700012      -3.22459770E-09
   45.0299988      -5.41178347E-09
   45.0900002      -7.60609087E-09
   45.1500015      -9.79897852E-09
   45.2099991      -1.19860299E-08
   45.2700005      -1.41681049E-08
   45.3300018      -1.63531126E-08
   45.3899994      -1.85554061E-08
   45.4500008      -2.07908695E-08
   45.5099983      -2.30686812E-08
   45.5699997      -2.53838266E-08
   45.6300011      -2.77150640E-08
   45.6899986      -3.00306162E-08
   45.7500000      -3.22994929E-08
   45.8100014      -3.45025235E-08
   45.8699989      -3.66367203E-08
   45.9300003      -3.87100023E-08
   45.9900017      -4.07290202E-08
   46.0499992      -4.26872546E-08
   46.1100006      -4.45611974E-08
   46.1699982      -4.63181102E-08
   46.2299995      -4.79320619E-08
   46.2900009      -4.93994996E-08
   46.3499985      -5.07449158E-08
   46.4099998      -5.20120196E-08
   46.4700012      -5.32436495E-08
   46.5299988      -5.44603296E-08
   46.5900002      -5.56486484E-08
   46.6500015      -5.67659519E-08
   46.7099991      -5.77593333E-08
   46.7700005      -5.85893289E-08
   46.8300018      -5.92462861E-08
   46.8899994      -5.97514074E-08
   46.9500008      -6.01426819E-08
   47.0099983      -6.04538286E-08
   47.0699997      -6.06977792E-08
   47.1300011      -6.08631225E-08
   47.1899986      -6.09247053E-08
   47.2500000      -6.08619217E-08
   47.3100014      -6.06746227E-08
   47.3699989      -6.03883805E-08
   47.4300003      -6.00472632E-08
   47.4900017      -5.96985572E-08
   47.5499992      -5.93776690E-08
   47.6100006      -5.91000102E-08
   47.6699982      -5.88620779E-08
   47.7299995      -5.86486628E-08
   47.7900009      -5.84405804E-08
   47.8499985      -5.82185464E-08
   47.9099998      -5.79621897E-08
   47.9700012      -5.76467620E-08
   48.0299988      -5.72411807E-08
   48.0900002      -5.67091867E-08
   48.1500015      -5.60126310E-08
   48.2099991      -5.51135813E-08
   48.2700005      -5.39725953E-08
   48.3300018      -5.25428732E-08
   48.3899994      -5.07630666E-08
   48.4500008      -4.85527103E-08
   48.5099983      -4.58125982E-08
   48.5699997      -4.24292388E-08
   48.6300011      -3.82795804E-08
   48.6899986      -3.32313803E-08
   48.7500000      -2.71366218E-08
   48.8100014      -1.98190175E-08
   48.8699989      -1.10595133E-08
   48.9300003      -5.84363724E-10
   48.9900017       1.19417347E-08
   49.0499992       2.69183573E-08
   49.1100006       4.48117348E-08
   49.1699982       6.61613981E-08
   49.2299995       9.15941385E-08
   49.2900009       1.21845460E-07
   49.3499985       1.57785820E-07
   49.4099998       2.00447914E-07
   49.4700012       2.51051745E-07
   49.5299988       3.11026383E-07
   49.5900002       3.82030919E-07
   49.6500015       4.65977280E-07
   49.7099991       5.65059679E-07
   49.7700005       6.81792812E-07
   49.8300018       8.19057789E-07
   49.8899994       9.80154368E-07
   49.9500008       1.16885587E-06
   50.0099983       1.38946518E-06
   50.0699997       1.64687390E-06
   50.1300011       1.94662721E-06
   50.1899986       2.29499892E-06
   50.2500000       2.69907650E-06
   50.3100014       3.16685305E-06
   50.3699989       3.70732187E-06
   50.4300003       4.33056766E-06
   50.4900017       5.04785885E-06
   50.5499992       5.87173781E-06
   50.6100006       6.81612482E-06