  -2.400000      0.0000000E+00
  -2.340000      0.0000000E+00
  -2.280000      0.0000000E+00
  -2.220000      0.0000000E+00
  -2.160000      0.0000000E+00
  -2.100000      0.0000000E+00
  -2.040000     -4.5298846E-21
  -1.980000     -3.4930380E-20
  -1.920000     -1.2060421E-19
  -1.860000     -1.9717304E-19
  -1.800000      1.0028533E-19
  -1.740000      1.4823279E-18
  -1.680000      4.2792609E-18
  -1.620000      6.5285838E-18
  -1.560000      1.8759460E-18
  -1.500000     -1.9342141E-17
  -1.440000     -6.1363891E-17
  -1.380000     -1.0591373E-16
  -1.320000     -9.6499380E-17
  -1.260000      5.3617520E-17
  -1.200000      4.0554670E-16
  -1.140000      8.9029272E-16
  -1.080000      1.2065872E-15
  -1.020000      8.2703556E-16
 -0.9600000     -7.7482371E-16
 -0.9000000     -3.6581625E-15
 -0.8400000     -6.8887572E-15
 -0.7800000     -8.3449127E-15
 -0.7200000     -5.3006627E-15
 -0.6600000      4.0419578E-15
 -0.6000000      1.8517033E-14
 -0.5400000      3.2610132E-14
 -0.4800000      3.7188477E-14
 -0.4200000      2.3221440E-14
 -0.3600000     -1.2233511E-14
 -0.3000000     -6.0541721E-14
 -0.2400000     -1.0050953E-13
 -0.1800000     -1.0505132E-13
 -0.1200000     -5.5143830E-14
 -5.9999999E-02  4.4357767E-14
  0.0000000E+00  1.5639737E-13
  5.9999999E-02  2.1983688E-13
  0.1200000      1.7647498E-13
  0.1800000      8.4057940E-15
  0.2400000     -2.3316399E-13
  0.3000000     -4.2918994E-13
  0.3600000     -4.3591335E-13
  0.4200000     -1.6062184E-13
  0.4800000      3.6246440E-13
  0.5400000      9.4083010E-13
  0.6000000      1.2711684E-12
  0.6600000      1.0660170E-12
  0.7200000      2.1458496E-13
  0.7800000     -1.1003609E-12
  0.8400000     -2.4060335E-12
  0.9000000     -3.0948549E-12
  0.9600000     -2.6881581E-12
   1.020000     -1.0961700E-12
   1.080000      1.2612871E-12
   1.140000      3.5633473E-12
   1.200000      4.9118079E-12
   1.260000      4.7389644E-12
   1.320000      3.1008273E-12
   1.380000      6.8522553E-13
   1.440000     -1.5093586E-12
   1.500000     -2.6956488E-12
   1.560000     -2.7592011E-12
   1.620000     -2.3866117E-12
   1.680000     -2.7229382E-12
   1.740000     -4.6572559E-12
   1.800000     -8.0625593E-12
   1.860000     -1.1411930E-11
   1.920000     -1.2084425E-11
   1.980000     -7.3833968E-12
   2.040000      4.0646696E-12
   2.100000      2.1114889E-11
   2.160000      3.9709475E-11
   2.220000      5.3619238E-11
   2.280000      5.6211518E-11
   2.340000      4.2693713E-11
   2.400000      1.2042556E-11
   2.460000     -3.2090979E-11
   2.520000     -8.1836683E-11
   2.580000     -1.2674657E-10
   2.640000     -1.5602954E-10
   2.700000     -1.6064045E-10
   2.760000     -1.3467054E-10
   2.820000     -7.5902062E-11
   2.880000      1.4172363E-11
   2.940000      1.3032989E-10
   3.000000      2.6315136E-10
   3.060000      3.9804596E-10
   3.120000      5.1419830E-10
   3.180000      5.8422422E-10
   3.240000      5.7534311E-10
   3.300000      4.5249765E-10
   3.360000      1.8320385E-10
   3.420000     -2.5676739E-10
   3.480000     -8.7820534E-10
   3.540000     -1.6751021E-09
   3.600000     -2.6239986E-09
   3.660000     -3.6861645E-09
   3.720000     -4.8119730E-09
   3.780000     -5.9462981E-09
   3.840000     -7.0337078E-09
   3.900000     -8.0225453E-09
   3.960000     -8.8676488E-09
   4.020000     -9.5320809E-09
   4.080000     -9.9886064E-09
   4.140000     -1.0221581E-08
   4.200000     -1.0229440E-08
   4.260000     -1.0027280E-08
   4.320000     -9.6484083E-09
   4.380000     -9.1435624E-09
   4.440000     -8.5768646E-09
   4.500000     -8.0184401E-09
   4.560000     -7.5347497E-09
   4.620000     -7.1786359E-09
   4.680000     -6.9814323E-09
   4.740000     -6.9491302E-09
   4.800000     -7.0635195E-09
   4.860000     -7.2878219E-09
   4.920000     -7.5750801E-09
   4.980000     -7.8769204E-09
   5.040000     -8.1505096E-09
   5.100000     -8.3624325E-09
   5.160000     -8.4895273E-09
   5.220000     -8.5177909E-09
   5.280000     -8.4409386E-09
   5.340000     -8.2598719E-09
   5.400000     -7.9833891E-09
   5.460000     -7.6293416E-09
   5.520000     -7.2248092E-09
   5.580000     -6.8038686E-09
   5.640000     -6.4024435E-09
   5.700000     -6.0509855E-09
   5.760000     -5.7669194E-09
   5.820000     -5.5492775E-09
   5.880000     -5.3775304E-09
   5.940000     -5.2153677E-09
   6.000000     -5.0186069E-09
   6.060000     -4.7450999E-09
   6.120000     -4.3639266E-09
   6.180000     -3.8615364E-09
   6.240000     -3.2435681E-09
   6.300000     -2.5324154E-09
   6.360000     -1.7617207E-09
   6.420000     -9.6946817E-10
   6.480000     -1.9124642E-10
   6.540000      5.4532084E-10
   6.600000      1.2245808E-09
   6.660000      1.8452884E-09
   6.720000      2.4214888E-09
   6.780000      2.9816556E-09
   6.840000      3.5657115E-09
   6.900000      4.2197015E-09
   6.960000      4.9884155E-09
   7.020000      5.9070575E-09
   7.080000      6.9937882E-09
   7.140000      8.2452010E-09
   7.200000      9.6363335E-09
   7.260000      1.1125657E-08
   7.320000      1.2663993E-08
   7.380000      1.4205000E-08
   7.440000      1.5714262E-08
   7.500000      1.7174383E-08
   7.560000      1.8584743E-08
   7.620000      1.9956332E-08
   7.680000      2.1303665E-08
   7.740000      2.2636701E-08
   7.800000      2.3955602E-08
   7.860000      2.5249989E-08
   7.920000      2.6502736E-08
   7.980000      2.7696588E-08
   8.040000      2.8820853E-08
   8.100000      2.9875405E-08
   8.160000      3.0870151E-08
   8.220000      3.1820012E-08
   8.280000      3.2737024E-08
   8.340000      3.3622602E-08
   8.400000      3.4462978E-08
   8.460000      3.5229817E-08
   8.520000      3.5886217E-08
   8.580000      3.6396308E-08
   8.640000      3.6735234E-08
   8.700000      3.6896150E-08
   8.760000      3.6891958E-08
   8.820000      3.6751349E-08
   8.880000      3.6510858E-08
   8.940000      3.6205957E-08
   9.000000      3.5864296E-08
   9.060000      3.5503209E-08
   9.120000      3.5131695E-08
   9.180000      3.4755395E-08
   9.240000      3.4382015E-08
   9.300000      3.4024911E-08
   9.360000      3.3703525E-08
   9.420000      3.3440827E-08
   9.480000      3.3259084E-08
   9.540000      3.3175571E-08
   9.600000      3.3199470E-08
   9.660000      3.3330501E-08
   9.720000      3.3559161E-08
   9.780000      3.3868069E-08
   9.840000      3.4234251E-08
   9.900000      3.4632205E-08
   9.960000      3.5037672E-08
   10.02000      3.5431629E-08
   10.08000      3.5803470E-08
   10.14000      3.6152212E-08
   10.20000      3.6484774E-08
   10.26000      3.6811446E-08
   10.32000      3.7139785E-08
   10.38000      3.7469043E-08
   10.44000      3.7787306E-08
   10.50000      3.8072514E-08
   10.56000      3.8297173E-08
   10.62000      3.8435179E-08
   10.68000      3.8468304E-08
   10.74000      3.8390262E-08
   10.80000      3.8207059E-08
   10.86000      3.7933841E-08
   10.92000      3.7589380E-08
   10.98000      3.7190055E-08
   11.04000      3.6744897E-08
   11.10000      3.6252867E-08
   11.16000      3.5702634E-08
   11.22000      3.5074557E-08
   11.28000      3.4344126E-08
   11.34000      3.3486156E-08
   11.40000      3.2479022E-08
   11.46000      3.1308595E-08
   11.52000      2.9971503E-08
   11.58000      2.8477414E-08
   11.64000      2.6849873E-08
   11.70000      2.5125031E-08
   11.76000      2.3347857E-08
   11.82000      2.1565894E-08
   11.88000      1.9821460E-08
   11.94000      1.8144025E-08
   12.00000      1.6544968E-08
   12.06000      1.5016605E-08
   12.12000      1.3536189E-08
   12.18000      1.2074090E-08
   12.24000      1.0603798E-08
   12.30000      9.1106864E-09
   12.36000      7.5968245E-09
   12.42000      6.0804179E-09
   12.48000      4.5902722E-09
   12.54000      3.1572491E-09
   12.60000      1.8055083E-09
   12.66000      5.4613514E-10
   12.72000     -6.2524480E-10
   12.78000     -1.7266499E-09
   12.84000     -2.7847433E-09
   12.90000     -3.8284003E-09
   12.96000     -4.8826450E-09
   13.02000     -5.9643157E-09
   13.08000     -7.0800690E-09
   13.14000     -8.2266256E-09
   13.20000     -9.3927071E-09
   13.26000     -1.0561900E-08
   13.32000     -1.1715803E-08
   13.38000     -1.2836994E-08
   13.44000     -1.3911539E-08
   13.50000     -1.4930873E-08
   13.56000     -1.5892875E-08
   13.62000     -1.6801982E-08
   13.68000     -1.7668233E-08
   13.74000     -1.8505267E-08
   13.80000     -1.9327565E-08
   13.86000     -2.0147422E-08
   13.92000     -2.0972236E-08
   13.98000     -2.1802729E-08
   14.04000     -2.2632484E-08
   14.10000     -2.3448953E-08
   14.16000     -2.4235726E-08
   14.22000     -2.4975641E-08
   14.28000     -2.5654034E-08
   14.34000     -2.6261475E-08
   14.40000     -2.6795345E-08
   14.46000     -2.7259901E-08
   14.52000     -2.7664838E-08
   14.58000     -2.8022633E-08
   14.64000     -2.8345310E-08
   14.70000     -2.8641367E-08
   14.76000     -2.8913519E-08
   14.82000     -2.9157762E-08
   14.88000     -2.9363939E-08
   14.94000     -2.9517722E-08
   15.00000     -2.9603646E-08
   15.06000     -2.9608728E-08
   15.12000     -2.9525918E-08
   15.18000     -2.9356711E-08
   15.24000     -2.9112156E-08
   15.30000     -2.8811785E-08
   15.36000     -2.8480446E-08
   15.42000     -2.8143555E-08
   15.48000     -2.7821946E-08
   15.54000     -2.7527697E-08
   15.60000     -2.7262210E-08
   15.66000     -2.7017094E-08
   15.72000     -2.6777512E-08
   15.78000     -2.6526841E-08
   15.84000     -2.6251145E-08
   15.90000     -2.5942303E-08
   15.96000     -2.5599268E-08
   16.02000     -2.5227838E-08
   16.08000     -2.4839531E-08
   16.14000     -2.4450186E-08
   16.20000     -2.4078304E-08
   16.26000     -2.3742830E-08
   16.32000     -2.3460084E-08
   16.38000     -2.3240068E-08
   16.44000     -2.3083095E-08
   16.50000     -2.2978146E-08
   16.56000     -2.2903972E-08
   16.62000     -2.2833133E-08
   16.68000     -2.2737881E-08
   16.74000     -2.2596113E-08
   16.80000     -2.2395513E-08
   16.86000     -2.2134834E-08
   16.92000     -2.1822395E-08
   16.98000     -2.1472777E-08
   17.04000     -2.1103025E-08
   17.10000     -2.0729306E-08
   17.16000     -2.0364483E-08
   17.22000     -2.0016399E-08
   17.28000     -1.9686736E-08
   17.34000     -1.9370342E-08
   17.40000     -1.9055191E-08
   17.46000     -1.8723142E-08
   17.52000     -1.8351448E-08
   17.58000     -1.7914640E-08
   17.64000     -1.7386336E-08
   17.70000     -1.6740637E-08
   17.76000     -1.5953219E-08
   17.82000     -1.5002442E-08
   17.88000     -1.3870973E-08
   17.94000     -1.2548159E-08
   18.00000     -1.1033004E-08
   18.06000     -9.3372678E-09
   18.12000     -7.4880084E-09
   18.18000     -5.5288707E-09
   18.24000     -3.5194316E-09
   18.30000     -1.5320762E-09
   18.36000      3.5386899E-10
   18.42000      2.0604118E-09
   18.48000      3.5204111E-09
   18.54000      4.6863611E-09
   18.60000      5.5361493E-09
   18.66000      6.0740577E-09
   18.72000      6.3266450E-09
   18.78000      6.3348433E-09
   18.84000      6.1448220E-09
   18.90000      5.8002976E-09
   18.96000      5.3379621E-09
   19.02000      4.7861928E-09
   19.08000      4.1659871E-09
   19.14000      3.4929131E-09
   19.20000      2.7794957E-09
   19.26000      2.0384361E-09
   19.32000      1.2872386E-09
   19.38000      5.5399346E-10
   19.44000     -1.1747055E-10
   19.50000     -6.6599004E-10
   19.56000     -1.0176713E-09
   19.62000     -1.0973089E-09
   19.68000     -8.4420276E-10
   19.74000     -2.2743701E-10
   19.80000      7.4493095E-10
   19.86000      2.0264259E-09
   19.92000      3.5424892E-09
   19.98000      5.2068860E-09
   20.04000      6.9383597E-09
   20.10000      8.6721528E-09
   20.16000      1.0363631E-08
   20.22000      1.1984728E-08
   20.28000      1.3516597E-08
   20.34000      1.4942673E-08
   20.40000      1.6245233E-08
   20.46000      1.7406364E-08
   20.52000      1.8412191E-08
   20.58000      1.9258078E-08
   20.64000      1.9952557E-08
   20.70000      2.0518527E-08
   20.76000      2.0991154E-08
   20.82000      2.1412575E-08
   20.88000      2.1824095E-08
   20.94000      2.2257010E-08
   21.00000      2.2723945E-08
   21.06000      2.3213172E-08
   21.12000      2.3688365E-08
   21.18000      2.4095165E-08
   21.24000      2.4373877E-08
   21.30000      2.4475302E-08
   21.36000      2.4375048E-08
   21.42000      2.4081695E-08
   21.48000      2.3636119E-08
   21.54000      2.3102167E-08
   21.60000      2.2551939E-08
   21.66000      2.2050436E-08
   21.72000      2.1644084E-08
   21.78000      2.1355710E-08
   21.84000      2.1186047E-08
   21.90000      2.1119781E-08
   21.96000      2.1133365E-08
   22.02000      2.1202270E-08
   22.08000      2.1306350E-08
   22.14000      2.1433031E-08
   22.20000      2.1578437E-08
   22.26000      2.1746573E-08
   22.32000      2.1946576E-08
   22.38000      2.2188219E-08
   22.44000      2.2476588E-08
   22.50000      2.2807528E-08
   22.56000      2.3165683E-08
   22.62000      2.3526258E-08
   22.68000      2.3860196E-08
   22.74000      2.4140734E-08
   22.80000      2.4348635E-08
   22.86000      2.4473707E-08
   22.92000      2.4512158E-08
   22.98000      2.4461331E-08
   23.04000      2.4314778E-08
   23.10000      2.4060405E-08
   23.16000      2.3682560E-08
   23.22000      2.3166683E-08
   23.28000      2.2503469E-08
   23.34000      2.1689806E-08
   23.40000      2.0725539E-08
   23.46000      1.9607825E-08
   23.52000      1.8326554E-08
   23.58000      1.6864213E-08
   23.64000      1.5201543E-08
   23.70000      1.3327343E-08
   23.76000      1.1248494E-08
   23.82000      8.9958556E-09
   23.88000      6.6232646E-09
   23.94000      4.1996242E-09
   24.00000      1.7966648E-09
   24.06000     -5.2381671E-10
   24.12000     -2.7198173E-09
   24.18000     -4.7742281E-09
   24.24000     -6.6950445E-09
   24.30000     -8.5116882E-09
   24.36000     -1.0268769E-08
   24.42000     -1.2018419E-08
   24.48000     -1.3812125E-08
   24.54000     -1.5693063E-08
   24.60000     -1.7690168E-08
   24.66000     -1.9815225E-08
   24.72000     -2.2063750E-08
   24.78000     -2.4419421E-08
   24.84000     -2.6860684E-08
   24.90000     -2.9367554E-08
   24.96000     -3.1926753E-08
   25.02000     -3.4534327E-08
   25.08000     -3.7195768E-08
   25.14000     -3.9924572E-08
   25.20000     -4.2739799E-08
   25.26000     -4.5662890E-08
   25.32000     -4.8713446E-08
   25.38000     -5.1903701E-08
   25.44000     -5.5232583E-08
   25.50000     -5.8680914E-08
   25.56000     -6.2210034E-08
   25.62000     -6.5765107E-08
   25.68000     -6.9282763E-08
   25.74000     -7.2700864E-08
   25.80000     -7.5966994E-08
   25.86000     -7.9043240E-08
   25.92000     -8.1906450E-08
   25.98000     -8.4545391E-08
   26.04000     -8.6957172E-08
   26.10000     -8.9144997E-08
   26.16000     -9.1117258E-08
   26.22000     -9.2886765E-08
   26.28000     -9.4468092E-08
   26.34000     -9.5872352E-08
   26.40000     -9.7100958E-08
   26.46000     -9.8141093E-08
   26.52000     -9.8965735E-08
   26.58000     -9.9539150E-08
   26.64000     -9.9825712E-08
   26.70000     -9.9798598E-08
   26.76000     -9.9444385E-08
   26.82000     -9.8762243E-08
   26.88000     -9.7759049E-08
   26.94000     -9.6443941E-08
   27.00000     -9.4825801E-08
   27.06000     -9.2915307E-08
   27.12000     -9.0730310E-08
   27.18000     -8.8301270E-08
   27.24000     -8.5673321E-08
   27.30000     -8.2903242E-08
   27.36000     -8.0052082E-08
   27.42000     -7.7176246E-08
   27.48000     -7.4320162E-08
   27.54000     -7.1512794E-08
   27.60000     -6.8768287E-08
   27.66000     -6.6089498E-08
   27.72000     -6.3472697E-08
   27.78000     -6.0912114E-08
   27.84000     -5.8403739E-08
   27.90000     -5.5948444E-08
   27.96000     -5.3554476E-08
   28.02000     -5.1238789E-08
   28.08000     -4.9026557E-08
   28.14000     -4.6948283E-08
   28.20000     -4.5034955E-08
   28.26000     -4.3312451E-08
   28.32000     -4.1797119E-08
   28.38000     -4.0493919E-08
   28.44000     -3.9397626E-08
   28.50000     -3.8496164E-08
   28.56000     -3.7774580E-08
   28.62000     -3.7218118E-08
   28.68000     -3.6813827E-08
   28.74000     -3.6550858E-08
   28.80000     -3.6420374E-08
   28.86000     -3.6415585E-08
   28.92000     -3.6532057E-08
   28.98000     -3.6767702E-08
   29.04000     -3.7121907E-08
   29.10000     -3.7593754E-08
   29.16000     -3.8179920E-08
   29.22000     -3.8873164E-08
   29.28000     -3.9662190E-08
   29.34000     -4.0532687E-08
   29.40000     -4.1468713E-08
   29.46000     -4.2453312E-08
   29.52000     -4.3467633E-08
   29.58000     -4.4488893E-08
   29.64000     -4.5488491E-08
   29.70000     -4.6431918E-08
   29.76000     -4.7281535E-08
   29.82000     -4.8002189E-08
   29.88000     -4.8568339E-08
   29.94000     -4.8970541E-08
   30.00000     -4.9219050E-08
   30.06000     -4.9342990E-08
   30.12000     -4.9384798E-08
   30.18000     -4.9390753E-08
   30.24000     -4.9399752E-08
   30.30000     -4.9433069E-08
   30.36000     -4.9487909E-08
   30.42000     -4.9536919E-08
   30.48000     -4.9534339E-08
   30.54000     -4.9427417E-08
   30.60000     -4.9169895E-08
   30.66000     -4.8733355E-08
   30.72000     -4.8112788E-08
   30.78000     -4.7324509E-08
   30.84000     -4.6397560E-08
   30.90000     -4.5362039E-08
   30.96000     -4.4238877E-08
   31.02000     -4.3034738E-08
   31.08000     -4.1743576E-08
   31.14000     -4.0353587E-08
   31.20000     -3.8856619E-08
   31.26000     -3.7256623E-08
   31.32000     -3.5574697E-08
   31.38000     -3.3849826E-08
   31.44000     -3.2135492E-08
   31.50000     -3.0493091E-08
   31.56000     -2.8982964E-08
   31.62000     -2.7654176E-08
   31.68000     -2.6534716E-08
   31.74000     -2.5624610E-08
   31.80000     -2.4894710E-08
   31.86000     -2.4292950E-08
   31.92000     -2.3757433E-08
   31.98000     -2.3232769E-08
   32.04000     -2.2684013E-08
   32.10000     -2.2102794E-08
   32.16000     -2.1503029E-08
   32.22000     -2.0907905E-08
   32.28000     -2.0333704E-08
   32.34000     -1.9777547E-08
   32.40000     -1.9214269E-08
   32.46000     -1.8603661E-08
   32.52000     -1.7904638E-08
   32.58000     -1.7090294E-08
   32.64000     -1.6157857E-08
   32.70000     -1.5130329E-08
   32.76000     -1.4050133E-08
   32.82000     -1.2967869E-08
   32.88000     -1.1930123E-08
   32.94000     -1.0969487E-08
   33.00000     -1.0098423E-08
   33.06000     -9.3076116E-09
   33.12000     -8.5688612E-09
   33.18000     -7.8425311E-09
   33.24000     -7.0886612E-09
   33.30000     -6.2795480E-09
   33.36000     -5.4099973E-09
   33.42000     -4.5010782E-09
   33.48000     -3.5948258E-09
   33.54000     -2.7407872E-09
   33.60000     -1.9790585E-09
   33.66000     -1.3265696E-09
   33.72000     -7.7239193E-10
   33.78000     -2.8399549E-10
   33.84000      1.7851209E-10
   33.90000      6.4659073E-10
   33.96000      1.1325525E-09
   34.02000      1.6275425E-09
   34.08000      2.1073641E-09
   34.14000      2.5418716E-09
   34.20000      2.9030465E-09
   34.26000      3.1690053E-09
   34.32000      3.3244048E-09
   34.38000      3.3597389E-09
   34.44000      3.2716483E-09
   34.50000      3.0640606E-09
   34.56000      2.7477167E-09
   34.62000      2.3353750E-09
   34.68000      1.8323800E-09
   34.74000      1.2259915E-09
   34.80000      4.7935445E-10
   34.86000     -4.6479987E-10
   34.92000     -1.6699104E-09
   34.98000     -3.1856096E-09
   35.04000     -5.0305018E-09
   35.10000     -7.1856081E-09
   35.16000     -9.6014201E-09
   35.22000     -1.2214895E-08
   35.28000     -1.4968030E-08
   35.34000     -1.7819668E-08
   35.40000     -2.0746556E-08
   35.46000     -2.3735979E-08
   35.52000     -2.6776290E-08
   35.58000     -2.9851563E-08
   35.64000     -3.2942349E-08
   35.70000     -3.6029483E-08
   35.76000     -3.9095557E-08
   35.82000     -4.2120558E-08
   35.88000     -4.5073175E-08
   35.94000     -4.7903821E-08
   36.00000     -5.0546188E-08
   36.06000     -5.2929906E-08
   36.12000     -5.5000182E-08
   36.18000     -5.6735207E-08
   36.24000     -5.8151915E-08
   36.30000     -5.9296209E-08
   36.36000     -6.0221794E-08
   36.42000     -6.0967771E-08
   36.48000     -6.1545521E-08
   36.54000     -6.1940270E-08
   36.60000     -6.2124506E-08
   36.66000     -6.2075152E-08
   36.72000     -6.1785208E-08
   36.78000     -6.1265546E-08
   36.84000     -6.0538561E-08
   36.90000     -5.9629713E-08
   36.96000     -5.8562549E-08
   37.02000     -5.7358911E-08
   37.08000     -5.6041490E-08
   37.14000     -5.4634189E-08
   37.20000     -5.3158029E-08
   37.26000     -5.1624806E-08
   37.32000     -5.0033751E-08
   37.38000     -4.8375753E-08
   37.44000     -4.6645127E-08
   37.50000     -4.4853259E-08
   37.56000     -4.3035737E-08
   37.62000     -4.1246903E-08
   37.68000     -3.9542503E-08
   37.74000     -3.7958131E-08
   37.80000     -3.6494484E-08
   37.86000     -3.5117480E-08
   37.92000     -3.3773556E-08
   37.98000     -3.2412409E-08
   38.04000     -3.1005488E-08
   38.10000     -2.9551252E-08
   38.16000     -2.8065850E-08
   38.22000     -2.6565859E-08
   38.28000     -2.5053561E-08
   38.34000     -2.3512719E-08
   38.40000     -2.1915861E-08
   38.46000     -2.0237087E-08
   38.52000     -1.8461863E-08
   38.58000     -1.6588251E-08
   38.64000     -1.4620493E-08
   38.70000     -1.2561283E-08
   38.76000     -1.0409560E-08
   38.82000     -8.1663565E-09
   38.88000     -5.8446297E-09
   38.94000     -3.4752476E-09
   39.00000     -1.1028978E-09
   39.06000      1.2279229E-09
   39.12000      3.4896159E-09
   39.18000      5.6807976E-09
   39.24000      7.8216154E-09
   39.30000      9.9365698E-09
   39.36000      1.2034111E-08
   39.42000      1.4094776E-08
   39.48000      1.6075120E-08
   39.54000      1.7925695E-08
   39.60000      1.9613198E-08
   39.66000      2.1134538E-08
   39.72000      2.2515177E-08
   39.78000      2.3793033E-08
   39.84000      2.4996737E-08
   39.90000      2.6129410E-08
   39.96000      2.7164896E-08
   40.02000      2.8055904E-08
   40.08000      2.8747349E-08
   40.14000      2.9186886E-08
   40.20000      2.9328390E-08
   40.26000      2.9130076E-08
   40.32000      2.8552746E-08
   40.38000      2.7563152E-08
   40.44000      2.6143049E-08
   40.50000      2.4299380E-08
   40.56000      2.2068839E-08
   40.62000      1.9512338E-08
   40.68000      1.6700451E-08
   40.74000      1.3696069E-08
   40.80000      1.0542325E-08
   40.86000      7.2607862E-09
   40.92000      3.8592018E-09
   40.98000      3.4289607E-10
   41.04000     -3.2774319E-09
   41.10000     -6.9856210E-09
   41.16000     -1.0766322E-08
   41.22000     -1.4611944E-08
   41.28000     -1.8524123E-08
   41.34000     -2.2507257E-08
   41.40000     -2.6557011E-08
   41.46000     -3.0650305E-08
   41.52000     -3.4742808E-08
   41.58000     -3.8775696E-08
   41.64000     -4.2688022E-08
   41.70000     -4.6428028E-08
   41.76000     -4.9957855E-08
   41.82000     -5.3250616E-08
   41.88000     -5.6283628E-08
   41.94000     -5.9033876E-08
   42.00000     -6.1479561E-08
   42.06000     -6.3607175E-08
   42.12000     -6.5418810E-08
   42.18000     -6.6933815E-08
   42.24000     -6.8181784E-08
   42.30000     -6.9189248E-08
   42.36000     -6.9966738E-08
   42.42000     -7.0503248E-08
   42.48000     -7.0771264E-08
   42.54000     -7.0740029E-08
   42.60000     -7.0390513E-08
   42.66000     -6.9724820E-08
   42.72000     -6.8766468E-08
   42.78000     -6.7553010E-08
   42.84000     -6.6125914E-08
   42.90000     -6.4523043E-08
   42.96000     -6.2776458E-08
   43.02000     -6.0914061E-08
   43.08000     -5.8962090E-08
   43.14000     -5.6945421E-08
   43.20000     -5.4885700E-08
   43.26000     -5.2799503E-08
   43.32000     -5.0699267E-08
   43.38000     -4.8597478E-08
   43.44000     -4.6511762E-08
   43.50000     -4.4466631E-08
   43.56000     -4.2488988E-08
   43.62000     -4.0598223E-08
   43.68000     -3.8795847E-08
   43.74000     -3.7061213E-08
   43.80000     -3.5357626E-08
   43.86000     -3.3647773E-08
   43.92000     -3.1912023E-08
   43.98000     -3.0160791E-08
   44.04000     -2.8434606E-08
   44.10000     -2.6791305E-08
   44.16000     -2.5286370E-08
   44.22000     -2.3955364E-08
   44.28000     -2.2805919E-08
   44.34000     -2.1821350E-08
   44.40000     -2.0972015E-08
   44.46000     -2.0227549E-08
   44.52000     -1.9564215E-08
   44.58000     -1.8965855E-08
   44.64000     -1.8421254E-08
   44.70000     -1.7922185E-08
   44.76000     -1.7464535E-08
   44.82000     -1.7051050E-08
   44.88000     -1.6691745E-08
   44.94000     -1.6398655E-08
   45.00000     -1.6175537E-08
   45.06000     -1.6007517E-08
   45.12000     -1.5857569E-08
   45.18000     -1.5674109E-08
   45.24000     -1.5408199E-08
   45.30000     -1.5033017E-08
   45.36000     -1.4556112E-08
   45.42000     -1.4018065E-08
   45.48000     -1.3477847E-08
   45.54000     -1.2991789E-08
   45.60000     -1.2595796E-08
   45.66000     -1.2297883E-08
   45.72000     -1.2082133E-08
   45.78000     -1.1919415E-08
   45.84000     -1.1778067E-08
   45.90000     -1.1630051E-08
   45.96000     -1.1452708E-08
   46.02000     -1.1229920E-08
   46.08000     -1.0956388E-08
   46.14000     -1.0645272E-08
   46.20000     -1.0334972E-08
   46.26000     -1.0088882E-08
   46.32000     -9.9844382E-09
   46.38000     -1.0093459E-08
   46.44000     -1.0461463E-08
   46.50000     -1.1095541E-08
   46.56000     -1.1967056E-08
   46.62000     -1.3028234E-08
   46.68000     -1.4234958E-08
   46.74000     -1.5565153E-08
   46.80000     -1.7025124E-08
   46.86000     -1.8642966E-08
   46.92000     -2.0455008E-08
   46.98000     -2.2494136E-08
   47.04000     -2.4786596E-08
   47.10000     -2.7357942E-08
   47.16000     -3.0243314E-08
   47.22000     -3.3495301E-08
   47.28000     -3.7185355E-08
   47.34000     -4.1399794E-08
   47.40000     -4.6235638E-08
   47.46000     -5.1801656E-08
   47.52000     -5.8226366E-08
   47.58000     -6.5669710E-08
   47.64000     -7.4332306E-08
   47.70000     -8.4457682E-08
   47.76000     -9.6327703E-08
   47.82000     -1.1025646E-07
   47.88000     -1.2658992E-07
   47.94000     -1.4571593E-07
   48.00000     -1.6808357E-07
   48.06000     -1.9422590E-07
   48.12000     -2.2477894E-07
   48.18000     -2.6049253E-07
   48.24000     -3.0223455E-07
   48.30000     -3.5099345E-07
   48.36000     -4.0788532E-07
   48.42000     -4.7416825E-07
   48.48000     -5.5126151E-07
   48.54000     -6.4076715E-07
   48.60000     -7.4448872E-07
   48.66000     -8.6444828E-07
   48.72000     -1.0029046E-06
   48.78000     -1.1623758E-06
   48.84000     -1.3456697E-06
   48.90000     -1.5559193E-06
   48.96000     -1.7966197E-06
   49.02000     -2.0716598E-06
   49.08000     -2.3853488E-06
   49.14000     -2.7424394E-06
   49.20000     -3.1481500E-06
   49.26000     -3.6081965E-06
   49.32000     -4.1288281E-06
   49.38000     -4.7168701E-06
   49.44000     -5.3797608E-06
   49.50000     -6.1255851E-06
   49.56000     -6.9630896E-06
   49.62000     -7.9016918E-06
   49.68000     -8.9514851E-06
   49.74000     -1.0123240E-05
   49.80000     -1.1428428E-05
   49.86000     -1.2879235E-05
   49.92000     -1.4488586E-05
   49.98000     -1.6270149E-05
   50.04000     -1.8238328E-05
   50.10000     -2.0408243E-05
   50.16000     -2.2795684E-05
   50.22000     -2.5417072E-05
   50.28000     -2.8289398E-05
   50.34000     -3.1430165E-05
   50.40000     -3.4857316E-05
   50.46000     -3.8589144E-05
   50.52000     -4.2644217E-05
   50.58000     -4.7041260E-05
   50.64000     -5.1799052E-05
   50.70000     -5.6936329E-05
   50.76000     -6.2471641E-05
   50.82000     -6.8423215E-05
   50.88000     -7.4808799E-05
   50.94000     -8.1645449E-05
   51.00000     -8.8949389E-05
   51.06000     -9.6735770E-05
   51.12000     -1.0501856E-04
   51.18000     -1.1381029E-04
   51.24000     -1.2312194E-04
   51.30000     -1.3296268E-04
   51.36000     -1.4333983E-04
   51.42000     -1.5425851E-04
   51.48000     -1.6572156E-04
   51.54000     -1.7772935E-04
   51.60000     -1.9027964E-04
   51.66000     -2.0336742E-04
   51.72000     -2.1698477E-04
   51.78000     -2.3112078E-04
   51.84000     -2.4576148E-04
   51.90000     -2.6088991E-04
   51.96000     -2.7648589E-04
   52.02000     -2.9252635E-04
   52.08000     -3.0898515E-04
   52.14000     -3.2583319E-04
   52.20000     -3.4303861E-04
   52.26000     -3.6056677E-04
   52.32000     -3.7838053E-04
   52.38000     -3.9644048E-04
   52.44000     -4.1470514E-04
   52.50000     -4.3313118E-04
   52.56000     -4.5167381E-04
   52.62000     -4.7028685E-04
   52.68000     -4.8892340E-04
   52.74000     -5.0753611E-04
   52.80000     -5.2607752E-04
   52.86000     -5.4450083E-04
   52.92000     -5.6276011E-04
   52.98000     -5.8081036E-04
   53.04000     -5.9860846E-04
   53.10000     -6.1611290E-04
   53.16000     -6.3328474E-04
   53.22000     -6.5008766E-04
   53.28000     -6.6648854E-04
   53.34000     -6.8245782E-04
   53.40000     -6.9796987E-04
   53.46000     -7.1300281E-04
   53.52000     -7.2753947E-04
   53.58000     -7.4156694E-04
   53.64000     -7.5507682E-04
   53.70000     -7.6806563E-04
   53.76000     -7.8053464E-04
   53.82000     -7.9248997E-04
   53.88000     -8.0394256E-04
   53.94000     -8.1490760E-04
   54.00000     -8.2540483E-04
   54.06000     -8.3545805E-04
   54.12000     -8.4509485E-04
   54.18000     -8.5434678E-04
   54.24000     -8.6324872E-04
   54.30000     -8.7183859E-04
   54.36000     -8.8015688E-04
   54.42000     -8.8824553E-04
   54.48000     -8.9614786E-04
   54.54000     -9.0390799E-04
   54.60000     -9.1157050E-04
   54.66000     -9.1917987E-04
   54.72000     -9.2678034E-04
   54.78000     -9.3441468E-04
   54.84000     -9.4212411E-04
   54.90000     -9.4994734E-04
   54.96000     -9.5792027E-04
   55.02000     -9.6607569E-04
   55.08000     -9.7444310E-04
   55.14000     -9.8304765E-04
   55.20000     -9.9191046E-04
   55.26000     -1.0010476E-03
   55.32000     -1.0104703E-03
   55.38000     -1.0201845E-03
   55.44000     -1.0301906E-03
   55.50000     -1.0404842E-03
   55.56000     -1.0510558E-03