 -0.750000000       0.00000000    
 -0.689999998       0.00000000    
 -0.629999995       0.00000000    
 -0.569999993       0.00000000    
 -0.509999990       0.00000000    
 -0.449999988       0.00000000    
 -0.389999986      -4.43045004E-21
 -0.330000013      -3.41136361E-20
 -0.270000011      -1.17566495E-19
 -0.209999993      -1.91564134E-19
 -0.150000006       9.95019695E-20
  -9.00000036E-02   1.44432166E-18
  -2.99999993E-02   4.15272295E-18
   2.99999993E-02   6.29196050E-18
   9.00000036E-02   1.65463781E-18
  0.150000006      -1.91545284E-17
  0.209999993      -6.01604224E-17
  0.270000011      -1.03312853E-16
  0.330000013      -9.31501455E-17
  0.389999986       5.53733363E-17
  0.449999988       4.02106101E-16
  0.509999990       8.79058522E-16
  0.569999993       1.18954067E-15
  0.629999995       8.13170952E-16
  0.689999998      -7.71665808E-16
  0.750000000      -3.62780993E-15
  0.810000002      -6.83639360E-15
  0.870000005      -8.29721288E-15
  0.930000007      -5.29658172E-15
  0.990000010       3.97774507E-15
   1.04999995       1.84047418E-14
   1.11000001       3.25230396E-14
   1.16999996       3.72153412E-14
   1.23000002       2.33874979E-14
   1.28999996      -1.20400101E-14
   1.35000002      -6.05623814E-14
   1.40999997      -1.00974825E-13
   1.47000003      -1.05936988E-13
   1.52999997      -5.59684677E-14
   1.59000003       4.44877933E-14
   1.64999998       1.58360494E-13
   1.71000004       2.23774449E-13
   1.76999998       1.81145382E-13
   1.83000004       1.11407652E-14
   1.88999999      -2.35528312E-13
   1.95000005      -4.38532294E-13
   2.00999999      -4.50963187E-13
   2.06999993      -1.76173542E-13
   2.13000011       3.54314831E-13
   2.19000006       9.47397976E-13
   2.25000000       1.29506269E-12
   2.30999994       1.10229436E-12
   2.36999989       2.51118082E-13
   2.43000007      -1.07872814E-12
   2.49000001      -2.41099653E-12
   2.54999995      -3.12886045E-12
   2.60999990      -2.74242391E-12
   2.67000008      -1.15389989E-12
   2.73000002       1.21785318E-12
   2.78999996       3.54563926E-12
   2.84999990       4.92126825E-12
   2.91000009       4.76888754E-12
   2.97000003       3.14228656E-12
   3.02999997       7.33086606E-13
   3.08999991      -1.45449625E-12
   3.15000010      -2.63122618E-12
   3.21000004      -2.68801886E-12
   3.26999998      -2.32278454E-12
   3.32999992      -2.69174548E-12
   3.39000010      -4.68734556E-12
   3.45000005      -8.17332400E-12
   3.50999999      -1.16018497E-11
   3.56999993      -1.23259155E-11
   3.63000011      -7.62647237E-12
   3.69000006       3.88171700E-12
   3.75000000       2.10520577E-11
   3.80999994       3.98125977E-11
   3.86999989       5.39096962E-11
   3.93000007       5.66770138E-11
   3.99000001       4.32793662E-11
   4.05000019       1.26449467E-11
   4.11000013      -3.16201926E-11
   4.17000008      -8.16696502E-11
   4.23000002      -1.27036812E-10
   4.28999996      -1.56853711E-10
   4.34999990      -1.61941197E-10
   4.40999985      -1.36224351E-10
   4.46999979      -7.73349856E-11
   4.53000021       1.33107969E-11
   4.59000015       1.30444197E-10
   4.65000010       2.64460093E-10
   4.71000004       4.00469768E-10
   4.76999998       5.17320187E-10
   4.82999992       5.87349391E-10
   4.88999987       5.77653370E-10
   4.94999981       4.53263149E-10
   5.01000023       1.81989313E-10
   5.07000017      -2.59965272E-10
   5.13000011      -8.82932283E-10
   5.19000006      -1.68053682E-09
   5.25000000      -2.62912536E-09
   5.30999994      -3.68996855E-09
   5.36999989      -4.81360107E-09
   5.42999983      -5.94516170E-09
   5.48999977      -7.02952585E-09
   5.55000019      -8.01536704E-09
   5.61000013      -8.85788420E-09
   5.67000008      -9.52053902E-09
   5.73000002      -9.97651828E-09
   5.78999996      -1.02105471E-08
   5.84999990      -1.02212638E-08
   5.90999985      -1.00236734E-08
   5.96999979      -9.65061808E-09
   6.03000021      -9.15200715E-09
   6.09000015      -8.59087645E-09
   6.15000010      -8.03618860E-09
   6.21000004      -7.55337748E-09
   6.26999998      -7.19455873E-09
   6.32999992      -6.99074798E-09
   6.38999987      -6.94805413E-09
   6.44999981      -7.04879000E-09
   6.51000023      -7.25705540E-09
   6.57000017      -7.52706519E-09
   6.63000011      -7.81185161E-09
   6.69000006      -8.07013922E-09
   6.75000000      -8.27010282E-09
   6.80999994      -8.39003444E-09
   6.86999989      -8.41702885E-09
   6.92999983      -8.34532266E-09
   6.98999977      -8.17560153E-09
   7.05000019      -7.91564769E-09
   7.11000013      -7.58159491E-09
   7.17000008      -7.19834459E-09
   7.23000002      -6.79768464E-09
   7.28999996      -6.41351727E-09
   7.34999990      -6.07486816E-09
   7.40999985      -5.79851589E-09
   7.46999979      -5.58366064E-09
   7.53000021      -5.41062306E-09
   7.59000015      -5.24439736E-09
   7.65000010      -5.04229325E-09
   7.71000004      -4.76359219E-09
   7.76999998      -4.37855663E-09
   7.82999992      -3.87445587E-09
   7.88999987      -3.25734040E-09
   7.94999981      -2.54961741E-09
   8.01000023      -1.78459680E-09
   8.06999969      -9.99660577E-10
   8.13000011      -2.29605418E-10
   8.18999958       4.98854180E-10
   8.25000000       1.17103105E-09
   8.31000042       1.78663673E-09
   8.36999989       2.36056974E-09
   8.43000031       2.92191382E-09
   8.48999977       3.51079921E-09
   8.55000019       4.17295043E-09
   8.60999966       4.95229058E-09
   8.67000008       5.88275650E-09
   8.72999954       6.98111835E-09
   8.78999996       8.24278334E-09
   8.85000038       9.64207025E-09
   8.90999985       1.11372955E-08
   8.97000027       1.26796094E-08
   9.02999973       1.42233150E-08
   9.09000015       1.57347753E-08
   9.14999962       1.71974115E-08
   9.21000004       1.86114324E-08
   9.27000046       1.99885974E-08
   9.32999992       2.13440128E-08
   9.39000034       2.26878285E-08
   9.44999981       2.40197746E-08
   9.51000023       2.53283474E-08
   9.56999969       2.65947371E-08
   9.63000011       2.77997927E-08
   9.68999958       2.89311455E-08
   9.75000000       2.99875822E-08
   9.81000042       3.09787076E-08
   9.86999989       3.19199067E-08
   9.93000031       3.28243210E-08
   9.98999977       3.36948922E-08
   10.0500002       3.45195232E-08
   10.1099997       3.52714054E-08
   10.1700001       3.59147236E-08
   10.2299995       3.64139865E-08
   10.2900000       3.67439021E-08
   10.3500004       3.68965338E-08
   10.4099998       3.68833604E-08
   10.4700003       3.67318052E-08
   10.5299997       3.64776902E-08
   10.5900002       3.61564716E-08
   10.6499996       3.57964858E-08
   10.7100000       3.54162282E-08
   10.7700005       3.50260976E-08
   10.8299999       3.46330964E-08
   10.8900003       3.42460531E-08
   10.9499998       3.38789654E-08
   11.0100002       3.35512631E-08
   11.0699997       3.32852501E-08
   11.1300001       3.31020829E-08
   11.1899996       3.30179120E-08
   11.2500000       3.30413172E-08
   11.3100004       3.31722454E-08
   11.3699999       3.34021557E-08
   11.4300003       3.37148833E-08
   11.4899998       3.40882629E-08
   11.5500002       3.44967326E-08
   11.6099997       3.49150291E-08
   11.6700001       3.53226532E-08
   11.7299995       3.57077248E-08
   11.7900000       3.60687338E-08
   11.8500004       3.64129455E-08
   11.9099998       3.67515476E-08
   11.9700003       3.70929243E-08
   12.0299997       3.74365925E-08
   12.0900002       3.77700715E-08
   12.1499996       3.80700982E-08
   12.2100000       3.83077747E-08
   12.2700005       3.84558447E-08
   12.3299999       3.84955108E-08
   12.3900003       3.84205521E-08
   12.4499998       3.82375589E-08
   12.5100002       3.79624723E-08
   12.5699997       3.76148250E-08
   12.6300001       3.72115068E-08
   12.6899996       3.67617616E-08
   12.7500000       3.62645523E-08
   12.8100004       3.57085064E-08
   12.8699999       3.50740486E-08
   12.9300003       3.43369067E-08
   12.9899998       3.34722046E-08
   13.0500002       3.24585088E-08
   13.1099997       3.12815658E-08
   13.1700001       2.99375493E-08
   13.2299995       2.84355224E-08
   13.2900000       2.67985989E-08
   13.3500004       2.50629970E-08
   13.4099998       2.32743957E-08
   13.4700003       2.14815614E-08
   13.5299997       1.97281746E-08
   13.5900002       1.80447994E-08
   13.6499996       1.64433498E-08
   13.7100000       1.49160577E-08
   13.7700005       1.34396565E-08
   13.8299999       1.19838317E-08
   13.8900003       1.05214362E-08
   13.9499998       9.03732733E-09
   14.0100002       7.53311280E-09
   14.0699997       6.02650108E-09
   14.1300001       4.54573179E-09
   14.1899996       3.12113535E-09
   14.2500000       1.77653103E-09
   14.3100004       5.22973054E-10
   14.3699999      -6.43653297E-10
   14.4300003      -1.74098291E-09
   14.4899998      -2.79541434E-09
   14.5500002      -3.83586229E-09
   14.6099997      -4.88773910E-09
   14.6700001      -5.96849592E-09
   14.7299995      -7.08540648E-09
   14.7900000      -8.23559532E-09
   14.8500004      -9.40781320E-09
   14.9099998      -1.05852589E-08
   14.9700003      -1.17487593E-08
   15.0299997      -1.28798581E-08
   15.0900002      -1.39635210E-08
   15.1499996      -1.49902810E-08
   15.2100000      -1.59575926E-08
   15.2700005      -1.68701231E-08
   15.3299999      -1.77387616E-08
   15.3900003      -1.85783460E-08
   15.4499998      -1.94044620E-08
   15.5100002      -2.02299884E-08
   15.5699997      -2.10622080E-08
   15.6300001      -2.19011351E-08
   15.6899996      -2.27394086E-08
   15.7500000      -2.35636719E-08
   15.8100004      -2.43570657E-08
   15.8699999      -2.51022936E-08
   15.9300003      -2.57846864E-08
   15.9899998      -2.63947673E-08
   16.0499992      -2.69298130E-08
   16.1100006      -2.73940692E-08
   16.1700001      -2.77974586E-08
   16.2299995      -2.81529893E-08
   16.2900009      -2.84733730E-08
   16.3500004      -2.87677029E-08
   16.4099998      -2.90389828E-08
   16.4699993      -2.92831164E-08
   16.5300007      -2.94895752E-08
   16.5900002      -2.96435374E-08
   16.6499996      -2.97290637E-08
   16.7099991      -2.97327123E-08
   16.7700005      -2.96469338E-08
   16.8299999      -2.94726554E-08
   16.8899994      -2.92204021E-08
   16.9500008      -2.89094331E-08
   17.0100002      -2.85647630E-08
   17.0699997      -2.82125239E-08
   17.1299992      -2.78746697E-08
   17.1900005      -2.75645320E-08
   17.2500000      -2.72845551E-08
   17.3099995      -2.70269638E-08
   17.3700008      -2.67770535E-08
   17.4300003      -2.65179825E-08
   17.4899998      -2.62354440E-08
   17.5499992      -2.59209827E-08
   17.6100006      -2.55733568E-08
   17.6700001      -2.51982915E-08
   17.7299995      -2.48073064E-08
   17.7900009      -2.44162788E-08
   17.8500004      -2.40438212E-08
   17.9099998      -2.37091058E-08
   17.9699993      -2.34288269E-08
   18.0300007      -2.32134401E-08
   18.0900002      -2.30636612E-08
   18.1499996      -2.29686226E-08
   18.2099991      -2.29068657E-08
   18.2700005      -2.28503776E-08
   18.3299999      -2.27706742E-08
   18.3899994      -2.26449508E-08
   18.4500008      -2.24604424E-08
   18.5100002      -2.22157492E-08
   18.5699997      -2.19192806E-08
   18.6299992      -2.15858194E-08
   18.6900005      -2.12326050E-08
   18.7500000      -2.08759889E-08
   18.8099995      -2.05289510E-08
   18.8700008      -2.01993782E-08
   18.9300003      -1.98887875E-08
   18.9899998      -1.95915035E-08
   19.0499992      -1.92945411E-08
   19.1100006      -1.89784473E-08
   19.1700001      -1.86190672E-08
   19.2299995      -1.81897963E-08
   19.2900009      -1.76637176E-08
   19.3500004      -1.70151679E-08
   19.4099998      -1.62207616E-08
   19.4699993      -1.52602908E-08
   19.5300007      -1.41180463E-08
   19.5900002      -1.27848923E-08
   19.6499996      -1.12609726E-08
   19.7099991      -9.55859836E-09
   19.7700005      -7.70468045E-09
   19.8299999      -5.74200776E-09
   19.8899994      -3.72875597E-09
   19.9500008      -1.73565529E-09
   20.0100002       1.59515803E-10
   20.0699997       1.87988114E-09
   20.1299992       3.35877792E-09
   20.1900005       4.54847537E-09
   20.2500000       5.42599210E-09
   20.3099995       5.99424110E-09
   20.3700008       6.27811891E-09
   20.4300003       6.31688923E-09
   20.4899998       6.15537621E-09
   20.5499992       5.83656856E-09
   20.6100006       5.39720091E-09
   20.6700001       4.86636953E-09
   20.7299995       4.26613012E-09
   20.7900009       3.61298214E-09
   20.8500004       2.91988678E-09
   20.9099998       2.19934937E-09
   20.9699993       1.46820678E-09
   21.0300007       7.53747009E-10
   21.0900002       9.91840013E-11
   21.1499996      -4.34585673E-10
   21.2099991      -7.73619668E-10
   21.2700005      -8.42475589E-10
   21.3299999      -5.80123449E-10
   21.3899994       4.47752495E-11
   21.4500008       1.02470876E-09
   21.5100002       2.31382558E-09
   21.5699997       3.83806098E-09
   21.6299992       5.51121859E-09
   21.6900005       7.25135463E-09
   21.7500000       8.99226738E-09
   21.8099995       1.06874092E-08
   21.8700008       1.23068737E-08
   21.9300003       1.38305838E-08
   21.9899998       1.52416888E-08
   22.0499992       1.65230798E-08
   22.1100006       1.76580652E-08
   22.1700001       1.86341929E-08
   22.2299995       1.94481498E-08
   22.2900009       2.01096100E-08
   22.3500004       2.06424744E-08
   22.4099998       2.10828262E-08
   22.4699993       2.14736211E-08
   22.5300007       2.18567386E-08
   22.5900002       2.22636896E-08
   22.6499996       2.27069208E-08
   22.7099991       2.31742501E-08
   22.7700005       2.36288056E-08
   22.8299999       2.40157778E-08
   22.8899994       2.42751970E-08
   22.9500008       2.43577727E-08
   23.0100002       2.42391813E-08
   23.0699997       2.39282851E-08
   23.1299992       2.34664750E-08
   23.1900005       2.29183570E-08
   23.2500000       2.23568790E-08
   23.3099995       2.18477183E-08
   23.3700008       2.14375504E-08
   23.4300003       2.11489048E-08
   23.4899998       2.09818154E-08
   23.5499992       2.09201865E-08
   23.6100006       2.09399644E-08
   23.6700001       2.10165840E-08
   23.7299995       2.11302709E-08
   23.7900009       2.12689617E-08
   23.8500004       2.14291447E-08
   23.9099998       2.16148308E-08
   23.9699993       2.18347669E-08
   24.0300007       2.20980230E-08
   24.0900002       2.24087788E-08
   24.1499996       2.27618724E-08
   24.2099991       2.31409292E-08
   24.2700005       2.35203075E-08
   24.3299999       2.38704700E-08
   24.3899994       2.41647484E-08
   24.4500008       2.43846028E-08
   24.5100002       2.45209879E-08
   24.5699997       2.45713174E-08
   24.6299992       2.45337812E-08
   24.6900005       2.44021017E-08
   24.7500000       2.41635973E-08
   24.8099995       2.38014533E-08
   24.8700008       2.32997106E-08
   24.9300003       2.26478445E-08
   24.9899998       2.18420304E-08
   25.0499992       2.08820943E-08
   25.1100006       1.97658867E-08
   25.1700001       1.84844691E-08
   25.2299995       1.70216250E-08
   25.2900009       1.53590758E-08
   25.3500004       1.34859581E-08
   25.4099998       1.14088108E-08
   25.4699993       9.15772702E-09
   25.5300007       6.78580658E-09
   25.5900002       4.36166259E-09
   25.6499996       1.95731964E-09
   25.7099991      -3.64772795E-10
   25.7700005      -2.56208499E-09
   25.8299999      -4.61756455E-09
   25.8899994      -6.54000587E-09
   25.9500008      -8.36012948E-09
   26.0100002      -1.01238049E-08
   26.0699997      -1.18838370E-08
   26.1299992      -1.36915101E-08
   26.1900005      -1.55890234E-08
   26.2500000      -1.76039983E-08
   26.3099995      -1.97471053E-08
   26.3700008      -2.20133494E-08
   26.4300003      -2.43865834E-08
   26.4899998      -2.68459139E-08
   26.5499992      -2.93720994E-08
   26.6100006      -3.19523252E-08
   26.6700001      -3.45825946E-08
   26.7299995      -3.72679381E-08
   26.7900009      -4.00211881E-08
   26.8500004      -4.28609184E-08
   26.9099998      -4.58084770E-08
   26.9699993      -4.88837344E-08
   27.0300007      -5.20993133E-08
   27.0900002      -5.54542439E-08
   27.1499996      -5.89288653E-08
   27.2099991      -6.24833731E-08
   27.2700005      -6.60613679E-08
   27.3299999      -6.95979452E-08
   27.3899994      -7.30298950E-08
   27.4500008      -7.63044881E-08
   27.5100002      -7.93841934E-08
   27.5699997      -8.22467570E-08
   27.6299992      -8.48820179E-08
   27.6900005      -8.72880932E-08
   27.7500000      -8.94689052E-08
   27.8099995      -9.14332858E-08
   27.8700008      -9.31940320E-08
   27.9300003      -9.47653476E-08
   27.9899998      -9.61576916E-08
   28.0499992      -9.73717462E-08
   28.1100006      -9.83941675E-08
   28.1700001      -9.91979263E-08
   28.2299995      -9.97478864E-08
   28.2900009      -1.00009622E-07
   28.3500004      -9.99577665E-08
   28.4099998      -9.95802836E-08
   28.4699993      -9.88773436E-08
   28.5300007      -9.78562440E-08
   28.5900002      -9.65258948E-08
   28.6499996      -9.48944461E-08
   28.7099991      -9.29714687E-08
   28.7700005      -9.07736037E-08
   28.8299999      -8.83302747E-08
   28.8899994      -8.56860396E-08
   28.9500008      -8.28978415E-08
   29.0100002      -8.00276254E-08
   29.0699997      -7.71332296E-08
   29.1299992      -7.42606900E-08
   29.1900005      -7.14402901E-08
   29.2500000      -6.86868447E-08
   29.3099995      -6.60030679E-08
   29.3700008      -6.33844053E-08
   29.4300003      -6.08236945E-08
   29.4899998      -5.83153188E-08
   29.5499992      -5.58586137E-08
   29.6100006      -5.34607061E-08
   29.6700001      -5.11381799E-08
   29.7299995      -4.89168208E-08
   29.7900009      -4.68287737E-08
   29.8500004      -4.49073028E-08
   29.9099998      -4.31805205E-08
   29.9699993      -4.16661159E-08
   30.0300007      -4.03688887E-08
   30.0900002      -3.92818187E-08
   30.1499996      -3.83899490E-08
   30.2099991      -3.76753597E-08
   30.2700005      -3.71212856E-08
   30.3299999      -3.67143649E-08
   30.3899994      -3.64449271E-08
   30.4500008      -3.63062505E-08
   30.5100002      -3.62937271E-08
   30.5699997      -3.64044155E-08
   30.6299992      -3.66366564E-08
   30.6900005      -3.69893804E-08
   30.7500000      -3.74606799E-08
   30.8099995      -3.80460570E-08
   30.8700008      -3.87371912E-08
   30.9300003      -3.95218294E-08
   30.9899998      -4.03848901E-08
   31.0499992      -4.13099634E-08
   31.1100006      -4.22800568E-08
   31.1700001      -4.32767635E-08
   31.2299995      -4.42781030E-08
   31.2900009      -4.52563143E-08
   31.3500004      -4.61774192E-08
   31.4099998      -4.70038657E-08
   31.4699993      -4.77003468E-08
   31.5300007      -4.82413398E-08
   31.5900002      -4.86179701E-08
   31.6499996      -4.88416951E-08
   31.7099991      -4.89432033E-08
   31.7700005      -4.89663243E-08
   31.8299999      -4.89580962E-08
   31.8899994      -4.89574177E-08
   31.9500008      -4.89849477E-08
   32.0099983      -4.90370766E-08
   32.0699997      -4.90857275E-08
   32.1300011      -4.90846652E-08
   32.1899986      -4.89808656E-08
   32.2500000      -4.87279301E-08
   32.3100014      -4.82974869E-08
   32.3699989      -4.76847823E-08
   32.4300003      -4.69066350E-08
   32.4900017      -4.59926461E-08
   32.5499992      -4.49731843E-08
   32.6100006      -4.38688232E-08
   32.6699982      -4.26851905E-08
   32.7299995      -4.14147721E-08
   32.7900009      -4.00443803E-08
   32.8499985      -3.85650161E-08
   32.9099998      -3.69804738E-08
   32.9700012      -3.53122367E-08
   33.0299988      -3.35998251E-08
   33.0900002      -3.18971694E-08
   33.1500015      -3.02660013E-08
   33.2099991      -2.87670794E-08
   33.2700005      -2.74502518E-08
   33.3300018      -2.63446918E-08
   33.3899994      -2.54517758E-08
   33.4500008      -2.47435317E-08
   33.5099983      -2.41685658E-08
   33.5699997      -2.36650557E-08
   33.6300011      -2.31771704E-08
   33.6899986      -2.26691608E-08
   33.7500000      -2.21315375E-08
   33.8100014      -2.15766960E-08
   33.8699989      -2.10258264E-08
   33.9300003      -2.04928678E-08
   33.9900017      -1.99726369E-08
   34.0499992      -1.94382768E-08
   34.1100006      -1.88489331E-08
   34.1699982      -1.81640285E-08
   34.2299995      -1.73579675E-08
   34.2900009      -1.64294995E-08
   34.3499985      -1.54028044E-08
   34.4099998      -1.43209045E-08
   34.4700012      -1.32345539E-08
   34.5299988      -1.21904016E-08
   34.5900002      -1.12213030E-08
   34.6500015      -1.03402984E-08
   34.7099991      -9.53880264E-09
   34.7700005      -8.78932660E-09
   34.8300018      -8.05281086E-09
   34.8899994      -7.28982474E-09
   34.9500008      -6.47324772E-09
   35.0099983      -5.59850477E-09
   35.0699997      -4.68709027E-09
   35.1300011      -3.78096043E-09
   35.1899986      -2.92891533E-09
   35.2500000      -2.16983675E-09
   35.3100014      -1.51950086E-09
   35.3699989      -9.66480340E-10
   35.4300003      -4.78682372E-10
   35.4900017      -1.73281181E-11
   35.5499992       4.47969356E-10
   35.6100006       9.29272770E-10
   35.6699982       1.41869660E-09
   35.7299995       1.89398541E-09
   35.7900009       2.32714403E-09
   35.8499985       2.69164468E-09
   35.9099998       2.96592617E-09
   35.9700012       3.13386117E-09
   36.0299988       3.18457261E-09
   36.0900002       3.11335735E-09
   36.1500015       2.92319347E-09
   36.2099991       2.62426747E-09
   36.2700005       2.22896013E-09
   36.3300018       1.74223214E-09
   36.3899994       1.15097654E-09
   36.4500008       4.18180574E-10
   36.5099983      -5.13208476E-10
   36.5699997      -1.70608383E-09
   36.6300011      -3.20946492E-09
   36.6899986      -5.04160891E-09
   36.7500000      -7.18363147E-09
   36.8100014      -9.58647650E-09
   36.8699989      -1.21876234E-08
   36.9300003      -1.49293840E-08
   36.9900017      -1.77706116E-08
   37.0499992      -2.06879278E-08
   37.1100006      -2.36685871E-08
   37.1699982      -2.67012457E-08
   37.2299995      -2.97706393E-08
   37.2900009      -3.28582033E-08
   37.3499985      -3.59457424E-08
   37.4099998      -3.90167401E-08
   37.4700012      -4.20518838E-08
   37.5299988      -4.50202542E-08
   37.5900002      -4.78721738E-08
   37.6500015      -5.05405993E-08
   37.7099991      -5.29537765E-08
   37.7700005      -5.50551391E-08
   37.8300018      -5.68211505E-08
   37.8899994      -5.82675170E-08
   37.9500008      -5.94396248E-08
   38.0099983      -6.03912511E-08
   38.0699997      -6.11617352E-08
   38.1300011      -6.17624636E-08
   38.1899986      -6.21781950E-08
   38.2500000      -6.23806997E-08
   38.3100014      -6.23460963E-08
   38.3699989      -6.20667748E-08
   38.4300003      -6.15531732E-08
   38.4900017      -6.08272614E-08
   38.5499992      -5.99140080E-08
   38.6100006      -5.88366085E-08
   38.6699982      -5.76170507E-08
   38.7299995      -5.62789744E-08
   38.7900009      -5.48479768E-08
   38.8499985      -5.33470228E-08
   38.9099998      -5.17893355E-08
   38.9700012      -5.01745099E-08
   39.0299988      -4.84928044E-08
   39.0900002      -4.67375294E-08
   39.1500015      -4.49195596E-08
   39.2099991      -4.30749942E-08
   39.2700005      -4.12597032E-08
   39.3300018      -3.95312902E-08
   39.3899994      -3.79267391E-08
   39.4500008      -3.64471013E-08
   39.5099983      -3.50575249E-08
   39.5699997      -3.37029533E-08
   39.6300011      -3.23313714E-08
   39.6899986      -3.09127479E-08
   39.7500000      -2.94445996E-08
   39.8100014      -2.79428196E-08
   39.8699989      -2.64245372E-08
   39.9300003      -2.48933425E-08
   39.9900017      -2.33347635E-08
   40.0499992      -2.17229292E-08
   40.1100006      -2.00327150E-08
   40.1699982      -1.82491231E-08
   40.2299995      -1.63686575E-08
   40.2900009      -1.43936125E-08
   40.3499985      -1.23251844E-08
   40.4099998      -1.01618287E-08
   40.4700012      -7.90502863E-09
   40.5299988      -5.56857982E-09
   40.5900002      -3.18392601E-09
   40.6500015      -7.95779609E-10
   40.7099991       1.55166957E-09
   40.7700005       3.83095822E-09
   40.8300018       6.04026829E-09
   40.8899994       8.19872792E-09
   40.9500008       1.03295772E-08
   41.0099983       1.24401689E-08
   41.0699997       1.45103085E-08
   41.1300011       1.64960845E-08
   41.1899986       1.83476079E-08
   41.2500000       2.00310364E-08
   41.3100014       2.15427622E-08
   41.3699989       2.29080719E-08
   41.4300003       2.41652813E-08
   41.4900017       2.53440700E-08
   41.5499992       2.64491096E-08
   41.6100006       2.74560286E-08
   41.6699982       2.83192456E-08
   41.7299995       2.89849922E-08
   41.7900009       2.94015070E-08
   41.8499985       2.95222620E-08
   41.9099998       2.93039992E-08
   41.9700012       2.87053403E-08
   42.0299988       2.76909304E-08
   42.0900002       2.62414108E-08
   42.1500015       2.43642564E-08
   42.2099991       2.20983338E-08
   42.2700005       1.95076701E-08
   42.3300018       1.66658083E-08
   42.3899994       1.36375338E-08
   42.4500008       1.04663744E-08
   42.5099983       7.17295601E-09
   42.5699997       3.76320530E-09
   42.6300011       2.40204912E-10
   42.6899986      -3.38769413E-09
   42.7500000      -7.10654069E-09
   42.8100014      -1.09027125E-08
   42.8699989      -1.47693830E-08
   42.9300003      -1.87075972E-08
   42.9900017      -2.27197692E-08
   43.0499992      -2.67987090E-08
   43.1100006      -3.09185104E-08
   43.1699982      -3.50329614E-08
   43.2299995      -3.90827957E-08
   43.2900009      -4.30079261E-08
   43.3499985      -4.67582169E-08
   43.4099998      -5.02974693E-08
   43.4700012      -5.35999334E-08
   43.5299988      -5.66433584E-08
   43.5900002      -5.94044423E-08
   43.6500015      -6.18605895E-08
   43.7099991      -6.39971276E-08
   43.7700005      -6.58149304E-08
   43.8300018      -6.73323441E-08
   43.8899994      -6.85784514E-08
   43.9500008      -6.95800040E-08
   44.0099983      -7.03483565E-08
   44.0699997      -7.08736678E-08
   44.1300011      -7.11295343E-08
   44.1899986      -7.10859993E-08
   44.2500000      -7.07242762E-08
   44.3100014      -7.00461698E-08
   44.3699989      -6.90745310E-08
   44.4300003      -6.78460310E-08
   44.4900017      -6.64013342E-08
   44.5499992      -6.47779927E-08
   44.6100006      -6.30084642E-08
   44.6699982      -6.11220088E-08
   44.7299995      -5.91468243E-08
   44.7900009      -5.71098440E-08
   44.8499985      -5.50341213E-08
   44.9099998      -5.29365174E-08
   44.9700012      -5.08285716E-08
   45.0299988      -4.87211267E-08
   45.0900002      -4.66300492E-08
   45.1500015      -4.45784814E-08
   45.2099991      -4.25925961E-08
   45.2700005      -4.06916243E-08
   45.3300018      -3.88773742E-08
   45.3899994      -3.71298299E-08
   45.4500008      -3.54132759E-08
   45.5099983      -3.36916486E-08
   45.5699997      -3.19466125E-08
   45.6300011      -3.01895220E-08
   45.6899986      -2.84610877E-08
   45.7500000      -2.68184515E-08
   45.8100014      -2.53156660E-08
   45.8699989      -2.39865852E-08
   45.9300003      -2.28373587E-08
   45.9900017      -2.18503917E-08
   46.0499992      -2.09958237E-08
   46.1100006      -2.02436130E-08
   46.1699982      -1.95706082E-08
   46.2299995      -1.89611971E-08
   46.2900009      -1.84043962E-08
   46.3499985      -1.78918089E-08
   46.4099998      -1.74188504E-08
   46.4700012      -1.69878192E-08
   46.5299988      -1.66086522E-08
   46.5900002      -1.62938818E-08
   46.6500015      -1.60481903E-08
   46.7099991      -1.58576228E-08
   46.7700005      -1.56855524E-08
   46.8300018      -1.54801061E-08
   46.8899994      -1.51916293E-08
   46.9500008      -1.47927803E-08
   47.0099983      -1.42912722E-08
   47.0699997      -1.37285419E-08
   47.1300011      -1.31645486E-08
   47.1899986      -1.26560096E-08
   47.2500000      -1.22382451E-08
   47.3100014      -1.19180523E-08
   47.3699989      -1.16785497E-08
   47.4300003      -1.14907497E-08
   47.4900017      -1.13244623E-08
   47.5499992      -1.11538103E-08
   47.6100006      -1.09579137E-08
   47.6699982      -1.07211822E-08
   47.7299995      -1.04375042E-08
   47.7900009      -1.01185318E-08
   47.8499985      -9.80133485E-09
   47.9099998      -9.54869517E-09
   47.9700012      -9.43806899E-09
   48.0299988      -9.54148582E-09
   48.0900002      -9.90453675E-09
   48.1500015      -1.05343823E-08
   48.2099991      -1.14028715E-08
   48.2700005      -1.24634374E-08
   48.3300018      -1.36736693E-08
   48.3899994      -1.50130202E-08
   48.4500008      -1.64884195E-08
   48.5099983      -1.81274871E-08
   48.5699997      -1.99653911E-08
   48.6300011      -2.20339178E-08
   48.6899986      -2.43587408E-08
   48.7500000      -2.69652691E-08
   48.8100014      -2.98884260E-08
   48.8699989      -3.31800898E-08
   48.9300003      -3.69106026E-08
   48.9900017      -4.11653680E-08
   49.0499992      -4.60412366E-08
   49.1100006      -5.16476035E-08
   49.1699982      -5.81138160E-08
   49.2299995      -6.56001404E-08
   49.2900009      -7.43066764E-08
   49.3499985      -8.44759214E-08
   49.4099998      -9.63888880E-08
   49.4700012      -1.10359380E-07
   49.5299988      -1.26733397E-07
   49.5900002      -1.45898426E-07
   49.6500015      -1.68302392E-07
   49.7099991      -1.94476826E-07
   49.7700005      -2.25056851E-07
   49.8300018      -2.60792859E-07
   49.8899994      -3.02554582E-07
   49.9500008      -3.51332375E-07
   50.0099983      -4.08242926E-07
   50.0699997      -4.74542816E-07
   50.1300011      -5.51649464E-07
   50.1899986      -6.41163695E-07
   50.2500000      -7.44890315E-07
   50.3100014      -8.64854087E-07
   50.3699989      -1.00331624E-06
   50.4300003      -1.16279500E-06
   50.4900017      -1.34609593E-06
   50.5499992      -1.55634893E-06
   50.6100006      -1.79704659E-06