  -2.400000      0.0000000E+00
  -2.340000      0.0000000E+00
  -2.280000      0.0000000E+00
  -2.220000      0.0000000E+00
  -2.160000      0.0000000E+00
  -2.100000      0.0000000E+00
  -2.040000     -4.1139266E-21
  -1.980000     -2.0131083E-20
  -1.920000      1.2868910E-21
  -1.860000      3.3267514E-19
  -1.800000      1.5459786E-18
  -1.740000      3.9223213E-18
  -1.680000      5.7497742E-18
  -1.620000      1.4857350E-18
  -1.560000     -1.6969342E-17
  -1.500000     -5.2175248E-17
  -1.440000     -8.7318913E-17
  -1.380000     -7.7786483E-17
  -1.320000      3.2862036E-17
  -1.260000      2.6086031E-16
  -1.200000      5.1277564E-16
  -1.140000      5.5857736E-16
  -1.080000      1.2358266E-16
  -1.020000     -8.7453150E-16
 -0.9600000     -2.0421837E-15
 -0.9000000     -2.4167686E-15
 -0.8400000     -8.2964034E-16
 -0.7800000      3.2054909E-15
 -0.7200000      8.4262304E-15
 -0.6600000      1.1357844E-14
 -0.6000000      7.3221653E-15
 -0.5400000     -6.7784269E-15
 -0.4800000     -2.8800838E-14
 -0.4200000     -4.9015327E-14
 -0.3600000     -5.1702769E-14
 -0.3000000     -2.2068380E-14
 -0.2400000      4.3149322E-14
 -0.1800000      1.2651857E-13
 -0.1200000      1.8916952E-13
 -5.9999999E-02  1.8340214E-13
  0.0000000E+00  7.7201517E-14
  5.9999999E-02 -1.1924942E-13
  0.1200000     -3.4078670E-13
  0.1800000     -4.8207407E-13
  0.2400000     -4.4228006E-13
  0.3000000     -1.8414285E-13
  0.3600000      2.2297069E-13
  0.4200000      6.0782775E-13
  0.4800000      7.6376096E-13
  0.5400000      5.5764166E-13
  0.6000000      2.9782346E-14
  0.6600000     -5.7840028E-13
  0.7200000     -9.0868074E-13
  0.7800000     -6.6681903E-13
  0.8400000      1.7859382E-13
  0.9000000      1.2924901E-12
  0.9600000      2.0554222E-12
   1.020000      1.8388290E-12
   1.080000      3.6998020E-13
   1.140000     -1.9977663E-12
   1.200000     -4.2895696E-12
   1.260000     -5.2604887E-12
   1.320000     -3.9899555E-12
   1.380000     -4.5645882E-13
   1.440000      4.2204139E-12
   1.500000      8.0734091E-12
   1.560000      9.0775217E-12
   1.620000      6.1301949E-12
   1.680000     -2.3781945E-13
   1.740000     -7.8194846E-12
   1.800000     -1.3478333E-11
   1.860000     -1.4429394E-11
   1.920000     -9.5034319E-12
   1.980000      2.0506290E-13
   2.040000      1.1655722E-11
   2.100000      2.1046265E-11
   2.160000      2.5329051E-11
   2.220000      2.3336378E-11
   2.280000      1.5964088E-11
   2.340000      5.3384432E-12
   2.400000     -6.5597159E-12
   2.460000     -1.9004966E-11
   2.520000     -3.2643600E-11
   2.580000     -4.8383693E-11
   2.640000     -6.5516051E-11
   2.700000     -8.0063706E-11
   2.760000     -8.4449663E-11
   2.820000     -6.9117490E-11
   2.880000     -2.5902152E-11
   2.940000      4.7903456E-11
   3.000000      1.4630973E-10
   3.060000      2.5358857E-10
   3.120000      3.4605938E-10
   3.180000      3.9631468E-10
   3.240000      3.7863165E-10
   3.300000      2.7396410E-10
   3.360000      7.3195339E-11
   3.420000     -2.2189943E-10
   3.480000     -5.9964961E-10
   3.540000     -1.0405011E-09
   3.600000     -1.5190078E-09
   3.660000     -2.0051787E-09
   3.720000     -2.4652425E-09
   3.780000     -2.8624854E-09
   3.840000     -3.1590304E-09
   3.900000     -3.3191279E-09
   3.960000     -3.3138321E-09
   4.020000     -3.1261382E-09
   4.080000     -2.7550942E-09
   4.140000     -2.2173678E-09
   4.200000     -1.5453082E-09
   4.260000     -7.8155549E-10
   4.320000      2.8618817E-11
   4.380000      8.4522944E-10
   4.440000      1.6395640E-09
   4.500000      2.3966453E-09
   4.560000      3.1137766E-09
   4.620000      3.7961656E-09
   4.680000      4.4516373E-09
   4.740000      5.0866609E-09
   4.800000      5.7051803E-09
   4.860000      6.3103576E-09
   4.920000      6.9078649E-09
   4.980000      7.5085538E-09
   5.040000      8.1285156E-09
   5.100000      8.7858210E-09
   5.160000      9.4948929E-09
   5.220000      1.0260847E-08
   5.280000      1.1076445E-08
   5.340000      1.1923253E-08
   5.400000      1.2776817E-08
   5.460000      1.3613680E-08
   5.520000      1.4417228E-08
   5.580000      1.5179827E-08
   5.640000      1.5900543E-08
   5.700000      1.6580001E-08
   5.760000      1.7215388E-08
   5.820000      1.7798707E-08
   5.880000      1.8319669E-08
   5.940000      1.8772235E-08
   6.000000      1.9161586E-08
   6.060000      1.9507706E-08
   6.120000      1.9842872E-08
   6.180000      2.0203037E-08
   6.240000      2.0615843E-08
   6.300000      2.1089800E-08
   6.360000      2.1609020E-08
   6.420000      2.2135801E-08
   6.480000      2.2620425E-08
   6.540000      2.3014856E-08
   6.600000      2.3285676E-08
   6.660000      2.3422253E-08
   6.720000      2.3438085E-08
   6.780000      2.3365777E-08
   6.840000      2.3248147E-08
   6.900000      2.3128722E-08
   6.960000      2.3044423E-08
   7.020000      2.3021926E-08
   7.080000      2.3077584E-08
   7.140000      2.3219764E-08
   7.200000      2.3451884E-08
   7.260000      2.3774776E-08
   7.320000      2.4187619E-08
   7.380000      2.4687553E-08
   7.440000      2.5268601E-08
   7.500000      2.5920960E-08
   7.560000      2.6631458E-08
   7.620000      2.7385566E-08
   7.680000      2.8170478E-08
   7.740000      2.8978246E-08
   7.800000      2.9807495E-08
   7.860000      3.0662598E-08
   7.920000      3.1550108E-08
   7.980000      3.2473444E-08
   8.040000      3.3427817E-08
   8.100000      3.4397818E-08
   8.160000      3.5359115E-08
   8.220000      3.6284227E-08
   8.280000      3.7150436E-08
   8.340000      3.7946556E-08
   8.400000      3.8675605E-08
   8.460000      3.9351718E-08
   8.520000      3.9992372E-08
   8.580000      4.0609045E-08
   8.640000      4.1200224E-08
   8.700000      4.1749775E-08
   8.760000      4.2230987E-08
   8.820000      4.2613998E-08
   8.880000      4.2872543E-08
   8.940000      4.2986677E-08
   9.000000      4.2940389E-08
   9.060000      4.2716060E-08
   9.120000      4.2289958E-08
   9.180000      4.1632426E-08
   9.240000      4.0714191E-08
   9.300000      3.9516571E-08
   9.360000      3.8040920E-08
   9.420000      3.6312251E-08
   9.480000      3.4374747E-08
   9.540000      3.2280475E-08
   9.600000      3.0076066E-08
   9.660000      2.7792991E-08
   9.720000      2.5445237E-08
   9.780000      2.3034467E-08
   9.840000      2.0559245E-08
   9.900000      1.8023412E-08
   9.960000      1.5439786E-08
   10.02000      1.2828406E-08
   10.08000      1.0211533E-08
   10.14000      7.6092066E-09
   10.20000      5.0382294E-09
   10.26000      2.5149856E-09
   10.32000      5.9779584E-11
   10.38000     -2.3008164E-09
   10.44000     -4.5362269E-09
   10.50000     -6.6188108E-09
   10.56000     -8.5327665E-09
   10.62000     -1.0280787E-08
   10.68000     -1.1884841E-08
   10.74000     -1.3379903E-08
   10.80000     -1.4802460E-08
   10.86000     -1.6177925E-08
   10.92000     -1.7511482E-08
   10.98000     -1.8785469E-08
   11.04000     -1.9963860E-08
   11.10000     -2.1001894E-08
   11.16000     -2.1857462E-08
   11.22000     -2.2500950E-08
   11.28000     -2.2921263E-08
   11.34000     -2.3127400E-08
   11.40000     -2.3146168E-08
   11.46000     -2.3017169E-08
   11.52000     -2.2786287E-08
   11.58000     -2.2498604E-08
   11.64000     -2.2191676E-08
   11.70000     -2.1890147E-08
   11.76000     -2.1602709E-08
   11.82000     -2.1322172E-08
   11.88000     -2.1028731E-08
   11.94000     -2.0695635E-08
   12.00000     -2.0295767E-08
   12.06000     -1.9807548E-08
   12.12000     -1.9219049E-08
   12.18000     -1.8530088E-08
   12.24000     -1.7752704E-08
   12.30000     -1.6910569E-08
   12.36000     -1.6037374E-08
   12.42000     -1.5173807E-08
   12.48000     -1.4362540E-08
   12.54000     -1.3641362E-08
   12.60000     -1.3035888E-08
   12.66000     -1.2554233E-08
   12.72000     -1.2186158E-08
   12.78000     -1.1907766E-08
   12.84000     -1.1690524E-08
   12.90000     -1.1511167E-08
   12.96000     -1.1358311E-08
   13.02000     -1.1232896E-08
   13.08000     -1.1142517E-08
   13.14000     -1.1092846E-08
   13.20000     -1.1080868E-08
   13.26000     -1.1093769E-08
   13.32000     -1.1114146E-08
   13.38000     -1.1128575E-08
   13.44000     -1.1134437E-08
   13.50000     -1.1140590E-08
   13.56000     -1.1160756E-08
   13.62000     -1.1202632E-08
   13.68000     -1.1258427E-08
   13.74000     -1.1302244E-08
   13.80000     -1.1296464E-08
   13.86000     -1.1204774E-08
   13.92000     -1.1006074E-08
   13.98000     -1.0702991E-08
   14.04000     -1.0321302E-08
   14.10000     -9.9008721E-09
   14.16000     -9.4824140E-09
   14.22000     -9.0958059E-09
   14.28000     -8.7542675E-09
   14.34000     -8.4554230E-09
   14.40000     -8.1870608E-09
   14.46000     -7.9336600E-09
   14.52000     -7.6803754E-09
   14.58000     -7.4133140E-09
   14.64000     -7.1174515E-09
   14.70000     -6.7749024E-09
   14.76000     -6.3659686E-09
   14.82000     -5.8736047E-09
   14.88000     -5.2897287E-09
   14.94000     -4.6203712E-09
   15.00000     -3.8867305E-09
   15.06000     -3.1208884E-09
   15.12000     -2.3573474E-09
   15.18000     -1.6236453E-09
   15.24000     -9.3393848E-10
   15.30000     -2.8828212E-10
   15.36000      3.2213462E-10
   15.42000      9.0623548E-10
   15.48000      1.4648136E-09
   15.54000      1.9865862E-09
   15.60000      2.4503353E-09
   15.66000      2.8321343E-09
   15.72000      3.1144134E-09
   15.78000      3.2928944E-09
   15.84000      3.3785279E-09
   15.90000      3.3938092E-09
   15.96000      3.3651966E-09
   16.02000      3.3147129E-09
   16.08000      3.2538374E-09
   16.14000      3.1815963E-09
   16.20000      3.0870972E-09
   16.26000      2.9552447E-09
   16.32000      2.7735640E-09
   16.38000      2.5379825E-09
   16.44000      2.2559932E-09
   16.50000      1.9465674E-09
   16.56000      1.6372191E-09
   16.62000      1.3594569E-09
   16.68000      1.1441880E-09
   16.74000      1.0183207E-09
   16.80000      1.0029365E-09
   16.86000      1.1124268E-09
   16.92000      1.3534737E-09
   16.98000      1.7231218E-09
   17.04000      2.2063356E-09
   17.10000      2.7746938E-09
   17.16000      3.3883507E-09
   17.22000      4.0024966E-09
   17.28000      4.5774500E-09
   17.34000      5.0892122E-09
   17.40000      5.5361200E-09
   17.46000      5.9380985E-09
   17.52000      6.3277623E-09
   17.58000      6.7361556E-09
   17.64000      7.1784654E-09
   17.70000      7.6453519E-09
   17.76000      8.1033420E-09
   17.82000      8.5040437E-09
   17.88000      8.7984855E-09
   17.94000      8.9511980E-09
   18.00000      8.9493009E-09
   18.06000      8.8044505E-09
   18.12000      8.5484562E-09
   18.18000      8.2255971E-09
   18.24000      7.8851059E-09
   18.30000      7.5761877E-09
   18.36000      7.3460931E-09
   18.42000      7.2400099E-09
   18.48000      7.3008031E-09
   18.54000      7.5669293E-09
   18.60000      8.0680129E-09
   18.66000      8.8189642E-09
   18.72000      9.8146016E-09
   18.78000      1.1027093E-08
   18.84000      1.2407956E-08
   18.90000      1.3895009E-08
   18.96000      1.5422902E-08
   19.02000      1.6934379E-08
   19.08000      1.8388766E-08
   19.14000      1.9764991E-08
   19.20000      2.1058325E-08
   19.26000      2.2272557E-08
   19.32000      2.3411159E-08
   19.38000      2.4471330E-08
   19.44000      2.5443251E-08
   19.50000      2.6314176E-08
   19.56000      2.7074345E-08
   19.62000      2.7720723E-08
   19.68000      2.8255807E-08
   19.74000      2.8681686E-08
   19.80000      2.8992607E-08
   19.86000      2.9170799E-08
   19.92000      2.9189088E-08
   19.98000      2.9020432E-08
   20.04000      2.8650678E-08
   20.10000      2.8088543E-08
   20.16000      2.7367618E-08
   20.22000      2.6538878E-08
   20.28000      2.5656750E-08
   20.34000      2.4765102E-08
   20.40000      2.3889628E-08
   20.46000      2.3039808E-08
   20.52000      2.2218710E-08
   20.58000      2.1434809E-08
   20.64000      2.0708882E-08
   20.70000      2.0071653E-08
   20.76000      1.9552759E-08
   20.82000      1.9166377E-08
   20.88000      1.8900996E-08
   20.94000      1.8719279E-08
   21.00000      1.8569320E-08
   21.06000      1.8403247E-08
   21.12000      1.8195493E-08
   21.18000      1.7953033E-08
   21.24000      1.7713115E-08
   21.30000      1.7529324E-08
   21.36000      1.7451448E-08
   21.42000      1.7506762E-08
   21.48000      1.7689249E-08
   21.54000      1.7959795E-08
   21.60000      1.8256108E-08
   21.66000      1.8507995E-08
   21.72000      1.8652676E-08
   21.78000      1.8645883E-08
   21.84000      1.8466716E-08
   21.90000      1.8116483E-08
   21.96000      1.7613351E-08
   22.02000      1.6985059E-08
   22.08000      1.6262010E-08
   22.14000      1.5472462E-08
   22.20000      1.4640884E-08
   22.26000      1.3789560E-08
   22.32000      1.2942325E-08
   22.38000      1.2128352E-08
   22.44000      1.1383544E-08
   22.50000      1.0748002E-08
   22.56000      1.0259845E-08
   22.62000      9.9476747E-09
   22.68000      9.8250696E-09
   22.74000      9.8896855E-09
   22.80000      1.0127244E-08
   22.86000      1.0517897E-08
   22.92000      1.1040956E-08
   22.98000      1.1674871E-08
   23.04000      1.2392317E-08
   23.10000      1.3153819E-08
   23.16000      1.3905193E-08
   23.22000      1.4582733E-08
   23.28000      1.5126076E-08
   23.34000      1.5493718E-08
   23.40000      1.5673509E-08
   23.46000      1.5681733E-08
   23.52000      1.5549714E-08
   23.58000      1.5303392E-08
   23.64000      1.4945897E-08
   23.70000      1.4452712E-08
   23.76000      1.3783348E-08
   23.82000      1.2905367E-08
   23.88000      1.1819828E-08
   23.94000      1.0575725E-08
   24.00000      9.2656141E-09
   24.06000      8.0033562E-09
   24.12000      6.8933730E-09
   24.18000      6.0047771E-09
   24.24000      5.3611564E-09
   24.30000      4.9491278E-09
   24.36000      4.7397863E-09
   24.42000      4.7116204E-09
   24.48000      4.8637960E-09
   24.54000      5.2146105E-09
   24.60000      5.7879452E-09
   24.66000      6.5965193E-09
   24.72000      7.6315985E-09
   24.78000      8.8645100E-09
   24.84000      1.0258397E-08
   24.90000      1.1782993E-08
   24.96000      1.3423838E-08
   25.02000      1.5180625E-08
   25.08000      1.7055495E-08
   25.14000      1.9037429E-08
   25.20000      2.1090845E-08
   25.26000      2.3154255E-08
   25.32000      2.5149763E-08
   25.38000      2.6999139E-08
   25.44000      2.8639723E-08
   25.50000      3.0034197E-08
   25.56000      3.1171552E-08
   25.62000      3.2060445E-08
   25.68000      3.2718539E-08
   25.74000      3.3161957E-08
   25.80000      3.3397626E-08
   25.86000      3.3419859E-08
   25.92000      3.3211279E-08
   25.98000      3.2747607E-08
   26.04000      3.2005399E-08
   26.10000      3.0971083E-08
   26.16000      2.9648522E-08
   26.22000      2.8062066E-08
   26.28000      2.6252900E-08
   26.34000      2.4269129E-08
   26.40000      2.2153191E-08
   26.46000      1.9932244E-08
   26.52000      1.7616541E-08
   26.58000      1.5207359E-08
   26.64000      1.2711163E-08
   26.70000      1.0152973E-08
   26.76000      7.5815860E-09
   26.82000      5.0628666E-09
   26.88000      2.6633176E-09
   26.94000      4.3135712E-10
   27.00000     -1.6147952E-09
   27.06000     -3.4866872E-09
   27.12000     -5.2130233E-09
   27.18000     -6.8213697E-09
   27.24000     -8.3233811E-09
   27.30000     -9.7106128E-09
   27.36000     -1.0962093E-08
   27.42000     -1.2058448E-08
   27.48000     -1.2994029E-08
   27.54000     -1.3779932E-08
   27.60000     -1.4436308E-08
   27.66000     -1.4978715E-08
   27.72000     -1.5407009E-08
   27.78000     -1.5704151E-08
   27.84000     -1.5846846E-08
   27.90000     -1.5823176E-08
   27.96000     -1.5647805E-08
   28.02000     -1.5365810E-08
   28.08000     -1.5041399E-08
   28.14000     -1.4735399E-08
   28.20000     -1.4481293E-08
   28.26000     -1.4270929E-08
   28.32000     -1.4056916E-08
   28.38000     -1.3771167E-08
   28.44000     -1.3351754E-08
   28.50000     -1.2766523E-08
   28.56000     -1.2023615E-08
   28.62000     -1.1165029E-08
   28.68000     -1.0246795E-08
   28.74000     -9.3148538E-09
   28.80000     -8.3869738E-09
   28.86000     -7.4478166E-09
   28.92000     -6.4583507E-09
   28.98000     -5.3748423E-09
   29.04000     -4.1691322E-09
   29.10000     -2.8420220E-09
   29.16000     -1.4248358E-09
   29.22000      3.0839102E-11
   29.28000      1.4706882E-09
   29.34000      2.8553850E-09
   29.40000      4.1716590E-09
   29.46000      5.4326961E-09
   29.52000      6.6681372E-09
   29.58000      7.9080289E-09
   29.64000      9.1674277E-09
   29.70000      1.0437978E-08
   29.76000      1.1689770E-08
   29.82000      1.2882368E-08
   29.88000      1.3979959E-08
   29.94000      1.4963938E-08
   30.00000      1.5837658E-08
   30.06000      1.6621975E-08
   30.12000      1.7344462E-08
   30.18000      1.8027954E-08
   30.24000      1.8683750E-08
   30.30000      1.9311816E-08
   30.36000      1.9906462E-08
   30.42000      2.0463190E-08
   30.48000      2.0982460E-08
   30.54000      2.1468567E-08
   30.60000      2.1925196E-08
   30.66000      2.2351367E-08
   30.72000      2.2741121E-08
   30.78000      2.3087606E-08
   30.84000      2.3389191E-08
   30.90000      2.3653424E-08
   30.96000      2.3895657E-08
   31.02000      2.4132094E-08
   31.08000      2.4370369E-08
   31.14000      2.4602432E-08
   31.20000      2.4803494E-08
   31.26000      2.4937828E-08
   31.32000      2.4968838E-08
   31.38000      2.4869037E-08
   31.44000      2.4626043E-08
   31.50000      2.4243004E-08
   31.56000      2.3734396E-08
   31.62000      2.3119668E-08
   31.68000      2.2417080E-08
   31.74000      2.1638954E-08
   31.80000      2.0788764E-08
   31.86000      1.9860138E-08
   31.92000      1.8838529E-08
   31.98000      1.7706443E-08
   32.04000      1.6452276E-08
   32.10000      1.5080778E-08
   32.16000      1.3621077E-08
   32.22000      1.2127650E-08
   32.28000      1.0671560E-08
   32.34000      9.3234283E-09
   32.40000      8.1340303E-09
   32.46000      7.1205584E-09
   32.52000      6.2650449E-09
   32.58000      5.5262830E-09
   32.64000      4.8602775E-09
   32.70000      4.2399626E-09
   32.76000      3.6650729E-09
   32.82000      3.1578262E-09
   32.88000      2.7471250E-09
   32.94000      2.4497111E-09
   33.00000      2.2580093E-09
   33.06000      2.1405979E-09
   33.12000      2.0544002E-09
   33.18000      1.9615285E-09
   33.24000      1.8416670E-09
   33.30000      1.6939645E-09
   33.36000      1.5287872E-09
   33.42000      1.3556147E-09
   33.48000      1.1753375E-09
   33.54000      9.8214126E-10
   33.60000      7.7386525E-10
   33.66000      5.6404448E-10
   33.72000      3.8726328E-10
   33.78000      2.9303585E-10
   33.84000      3.3010542E-10
   33.90000      5.2888927E-10
   33.96000      8.9120850E-10
   34.02000      1.3925485E-09
   34.08000      1.9950934E-09
   34.14000      2.6638023E-09
   34.20000      3.3763341E-09
   34.26000      4.1215240E-09
   34.32000      4.8879802E-09
   34.38000      5.6501430E-09
   34.44000      6.3604553E-09
   34.50000      6.9525208E-09
   34.56000      7.3536794E-09
   34.62000      7.5002538E-09
   34.68000      7.3477731E-09
   34.74000      6.8721522E-09
   34.80000      6.0635692E-09
   34.86000      4.9190105E-09
   34.92000      3.4395993E-09
   34.98000      1.6349410E-09
   35.04000     -4.6849069E-10
   35.10000     -2.8211091E-09
   35.16000     -5.3513420E-09
   35.22000     -7.9748448E-09
   35.28000     -1.0607383E-08
   35.34000     -1.3174477E-08
   35.40000     -1.5612832E-08
   35.46000     -1.7863920E-08
   35.52000     -1.9865436E-08
   35.58000     -2.1548425E-08
   35.64000     -2.2844871E-08
   35.70000     -2.3704011E-08
   35.76000     -2.4109397E-08
   35.82000     -2.4086534E-08
   35.88000     -2.3694712E-08
   35.94000     -2.3004780E-08
   36.00000     -2.2072580E-08
   36.06000     -2.0921195E-08
   36.12000     -1.9541545E-08
   36.18000     -1.7911754E-08
   36.24000     -1.6025764E-08
   36.30000     -1.3916350E-08
   36.36000     -1.1660022E-08
   36.42000     -9.3603409E-09
   36.48000     -7.1173121E-09
   36.54000     -4.9977635E-09
   36.60000     -3.0211071E-09
   36.66000     -1.1670503E-09
   36.72000      5.9929894E-10
   36.78000      2.2977653E-09
   36.84000      3.9132311E-09
   36.90000      5.3940501E-09
   36.96000      6.6678076E-09
   37.02000      7.6654532E-09
   37.08000      8.3422842E-09
   37.14000      8.6876897E-09
   37.20000      8.7222585E-09
   37.26000      8.4866896E-09
   37.32000      8.0291009E-09
   37.38000      7.3954438E-09
   37.44000      6.6241674E-09
   37.50000      5.7436713E-09
   37.56000      4.7710915E-09
   37.62000      3.7127299E-09
   37.68000      2.5678926E-09
   37.74000      1.3372408E-09
   37.80000      3.3880572E-11
   37.86000     -1.3076824E-09
   37.92000     -2.6304439E-09
   37.98000     -3.8646122E-09
   38.04000     -4.9457496E-09
   38.10000     -5.8339462E-09
   38.16000     -6.5251062E-09
   38.22000     -7.0486390E-09
   38.28000     -7.4523934E-09
   38.34000     -7.7820186E-09
   38.40000     -8.0645570E-09
   38.46000     -8.3035276E-09
   38.52000     -8.4864737E-09
   38.58000     -8.5993728E-09
   38.64000     -8.6392218E-09
   38.70000     -8.6178984E-09
   38.76000     -8.5558458E-09
   38.82000     -8.4700540E-09
   38.88000     -8.3637159E-09
   38.94000     -8.2233997E-09
   39.00000     -8.0247959E-09
   39.06000     -7.7430453E-09
   39.12000     -7.3612689E-09
   39.18000     -6.8726340E-09
   39.24000     -6.2757413E-09
   39.30000     -5.5675717E-09
   39.36000     -4.7399227E-09
   39.42000     -3.7830912E-09
   39.48000     -2.6959184E-09
   39.54000     -1.4968563E-09
   39.60000     -2.2929622E-10
   39.66000      1.0431821E-09
   39.72000      2.2508797E-09
   39.78000      3.3356757E-09
   39.84000      4.2645611E-09
   39.90000      5.0331117E-09
   39.96000      5.6577845E-09
   40.02000      6.1611378E-09
   40.08000      6.5570549E-09
   40.14000      6.8424724E-09
   40.20000      6.9986141E-09
   40.26000      7.0002333E-09
   40.32000      6.8281283E-09
   40.38000      6.4795356E-09
   40.44000      5.9727423E-09
   40.50000      5.3451519E-09
   40.56000      4.6465742E-09
   40.62000      3.9306447E-09
   40.68000      3.2470944E-09
   40.74000      2.6366185E-09
   40.80000      2.1290505E-09
   40.86000      1.7448031E-09
   40.92000      1.4988574E-09
   40.98000      1.4058396E-09
   41.04000      1.4840090E-09
   41.10000      1.7557633E-09
   41.16000      2.2432300E-09
   41.22000      2.9596647E-09
   41.28000      3.8999595E-09
   41.34000      5.0351137E-09
   41.40000      6.3147088E-09
   41.46000      7.6780937E-09
   41.52000      9.0704484E-09
   41.58000      1.0456540E-08
   41.64000      1.1825081E-08
   41.70000      1.3180603E-08
   41.76000      1.4526053E-08
   41.82000      1.5844687E-08
   41.88000      1.7090992E-08
   41.94000      1.8196435E-08
   42.00000      1.9088478E-08
   42.06000      1.9714228E-08
   42.12000      2.0057412E-08
   42.18000      2.0140506E-08
   42.24000      2.0011326E-08
   42.30000      1.9721091E-08
   42.36000      1.9304922E-08
   42.42000      1.8773635E-08
   42.48000      1.8119163E-08
   42.54000      1.7328583E-08
   42.60000      1.6397731E-08
   42.66000      1.5336688E-08
   42.72000      1.4164934E-08
   42.78000      1.2900133E-08
   42.84000      1.1547950E-08
   42.90000      1.0099079E-08
   42.96000      8.5350269E-09
   43.02000      6.8391053E-09
   43.08000      5.0064592E-09
   43.14000      3.0481522E-09
   43.20000      9.8810438E-10
   43.26000     -1.1443425E-09
   43.32000     -3.3217977E-09
   43.38000     -5.5228466E-09
   43.44000     -7.7323747E-09
   43.50000     -9.9403135E-09
   43.56000     -1.2141327E-08
   43.62000     -1.4336248E-08
   43.68000     -1.6533621E-08
   43.74000     -1.8748553E-08
   43.80000     -2.0997284E-08
   43.86000     -2.3288779E-08
   43.92000     -2.5617384E-08
   43.98000     -2.7961120E-08
   44.04000     -3.0287641E-08
   44.10000     -3.2565605E-08
   44.16000     -3.4775649E-08
   44.22000     -3.6914695E-08
   44.28000     -3.8990724E-08
   44.34000     -4.1010651E-08
   44.40000     -4.2968466E-08
   44.46000     -4.4841283E-08
   44.52000     -4.6596849E-08
   44.58000     -4.8209436E-08
   44.64000     -4.9675421E-08
   44.70000     -5.1019050E-08
   44.76000     -5.2283802E-08
   44.82000     -5.3512299E-08
   44.88000     -5.4724783E-08
   44.94000     -5.5907439E-08
   45.00000     -5.7017196E-08
   45.06000     -5.8000992E-08
   45.12000     -5.8819712E-08
   45.18000     -5.9464636E-08
   45.24000     -5.9958190E-08
   45.30000     -6.0339453E-08
   45.36000     -6.0642691E-08
   45.42000     -6.0880758E-08
   45.48000     -6.1041632E-08
   45.54000     -6.1099300E-08
   45.60000     -6.1032210E-08
   45.66000     -6.0839277E-08
   45.72000     -6.0545297E-08
   45.78000     -6.0193926E-08
   45.84000     -5.9832757E-08
   45.90000     -5.9498326E-08
   45.96000     -5.9207725E-08
   46.02000     -5.8958960E-08
   46.08000     -5.8737353E-08
   46.14000     -5.8522939E-08
   46.20000     -5.8294731E-08
   46.26000     -5.8030697E-08
   46.32000     -5.7705449E-08
   46.38000     -5.7288567E-08
   46.44000     -5.6745264E-08
   46.50000     -5.6038623E-08
   46.56000     -5.5130879E-08
   46.62000     -5.3981616E-08
   46.68000     -5.2542536E-08
   46.74000     -5.0751190E-08
   46.80000     -4.8526875E-08
   46.86000     -4.5770847E-08
   46.92000     -4.2370235E-08
   46.98000     -3.8202320E-08
   47.04000     -3.3134913E-08
   47.10000     -2.7020208E-08
   47.16000     -1.9682528E-08
   47.22000     -1.0903703E-08
   47.28000     -4.1057441E-10
   47.34000      1.2132332E-08
   47.40000      2.7125420E-08
   47.46000      4.5035758E-08
   47.52000      6.6403004E-08
   47.58000      9.1853245E-08
   47.64000      1.2212104E-07
   47.70000      1.5807659E-07
   47.76000      2.0075333E-07
   47.82000      2.5137226E-07
   47.88000      3.1136264E-07
   47.94000      3.8238178E-07
   48.00000      4.6633852E-07
   48.06000      5.6542444E-07
   48.12000      6.8215331E-07
   48.18000      8.1940817E-07
   48.24000      9.8049213E-07
   48.30000      1.1691811E-06
   48.36000      1.3897790E-06
   48.42000      1.6471762E-06
   48.48000      1.9469171E-06
   48.54000      2.2952761E-06
   48.60000      2.6993428E-06
   48.66000      3.1671129E-06
   48.72000      3.7075799E-06
   48.78000      4.3308260E-06
   48.84000      5.0481158E-06
   48.90000      5.8719888E-06
   48.96000      6.8163654E-06
   49.02000      7.8966596E-06
   49.08000      9.1299080E-06
   49.14000      1.0534897E-05
   49.20000      1.2132302E-05
   49.26000      1.3944818E-05
   49.32000      1.5997290E-05
   49.38000      1.8316830E-05
   49.44000      2.0932926E-05
   49.50000      2.3877541E-05
   49.56000      2.7185222E-05
   49.62000      3.0893189E-05
   49.68000      3.5041408E-05
   49.74000      3.9672708E-05
   49.80000      4.4832788E-05
   49.86000      5.0570296E-05
   49.92000      5.6936828E-05
   49.98000      6.3986881E-05
   50.04000      7.1777853E-05
   50.10000      8.0369886E-05
   50.16000      8.9825829E-05
   50.22000      1.0021098E-04
   50.28000      1.1159295E-04
   50.34000      1.2404141E-04
   50.40000      1.3762788E-04
   50.46000      1.5242529E-04
   50.52000      1.6850773E-04
   50.58000      1.8595000E-04
   50.64000      2.0482714E-04
   50.70000      2.2521394E-04
   50.76000      2.4718425E-04
   50.82000      2.7081050E-04
   50.88000      2.9616291E-04
   50.94000      3.2330901E-04
   51.00000      3.5231264E-04
   51.06000      3.8323354E-04
   51.12000      4.1612628E-04
   51.18000      4.5103978E-04
   51.24000      4.8801635E-04
   51.30000      5.2709086E-04
   51.36000      5.6829007E-04
   51.42000      6.1163190E-04
   51.48000      6.5712439E-04
   51.54000      7.0476538E-04
   51.60000      7.5454172E-04
   51.66000      8.0642855E-04
   51.72000      8.6038921E-04
   51.78000      9.1637438E-04
   51.84000      9.7432226E-04
   51.90000      1.0341579E-03
   51.96000      1.0957937E-03
   52.02000      1.1591285E-03
   52.08000      1.2240487E-03
   52.14000      1.2904280E-03
   52.20000      1.3581277E-03
   52.26000      1.4269974E-03
   52.32000      1.4968759E-03
   52.38000      1.5675919E-03
   52.44000      1.6389652E-03
   52.50000      1.7108074E-03
   52.56000      1.7829238E-03
   52.62000      1.8551138E-03
   52.68000      1.9271731E-03
   52.74000      1.9988946E-03
   52.80000      2.0700707E-03
   52.86000      2.1404943E-03
   52.92000      2.2099609E-03
   52.98000      2.2782707E-03
   53.04000      2.3452295E-03
   53.10000      2.4106512E-03
   53.16000      2.4743585E-03
   53.22000      2.5361856E-03
   53.28000      2.5959790E-03
   53.34000      2.6535995E-03
   53.40000      2.7089221E-03
   53.46000      2.7618399E-03
   53.52000      2.8122622E-03
   53.58000      2.8601172E-03
   53.64000      2.9053523E-03
   53.70000      2.9479333E-03
   53.76000      2.9878467E-03
   53.82000      3.0250980E-03
   53.88000      3.0597118E-03
   53.94000      3.0917330E-03
   54.00000      3.1212242E-03
   54.06000      3.1482652E-03
   54.12000      3.1729529E-03
   54.18000      3.1953999E-03
   54.24000      3.2157323E-03
   54.30000      3.2340882E-03
   54.36000      3.2506175E-03
   54.42000      3.2654779E-03
   54.48000      3.2788345E-03
   54.54000      3.2908570E-03
   54.60000      3.3017183E-03
   54.66000      3.3115922E-03
   54.72000      3.3206507E-03
   54.78000      3.3290626E-03
   54.84000      3.3369912E-03
   54.90000      3.3445917E-03
   54.96000      3.3520104E-03
   55.02000      3.3593834E-03
   55.08000      3.3668338E-03
   55.14000      3.3744711E-03
   55.20000      3.3823899E-03
   55.26000      3.3906680E-03
   55.32000      3.3993658E-03
   55.38000      3.4085263E-03
   55.44000      3.4181741E-03
   55.50000      3.4283169E-03
   55.56000      3.4389438E-03