  -2.400000      0.0000000E+00
  -2.340000      0.0000000E+00
  -2.280000      0.0000000E+00
  -2.220000      0.0000000E+00
  -2.160000      0.0000000E+00
  -2.100000      0.0000000E+00
  -2.040000     -2.7147152E-22
  -1.980000     -4.4742040E-22
  -1.920000      7.9842954E-21
  -1.860000      5.4691237E-20
  -1.800000      1.7655497E-19
  -1.740000      3.1699094E-19
  -1.680000      1.4527553E-19
  -1.620000     -9.8472233E-19
  -1.560000     -3.5236389E-18
  -1.500000     -6.4835169E-18
  -1.440000     -6.2137977E-18
  -1.380000      2.9102241E-18
  -1.320000      2.4066856E-17
  -1.260000      5.0674557E-17
  -1.200000      6.1654072E-17
  -1.140000      2.7585324E-17
  -1.080000     -6.7970549E-17
  -1.020000     -2.0024341E-16
 -0.9600000     -2.9072299E-16
 -0.9000000     -2.3519058E-16
 -0.8400000      2.4085987E-17
 -0.7800000      4.1847327E-16
 -0.7200000      7.3391869E-16
 -0.6600000      7.0884937E-16
 -0.6000000      2.3213674E-16
 -0.5400000     -4.7801733E-16
 -0.4800000     -8.8815936E-16
 -0.4200000     -4.6084188E-16
 -0.3600000      8.3499317E-16
 -0.3000000      2.1444697E-15
 -0.2400000      1.8885752E-15
 -0.1800000     -1.3380160E-15
 -0.1200000     -7.4247639E-15
 -5.9999999E-02 -1.3756211E-14
  0.0000000E+00 -1.5522358E-14
  5.9999999E-02 -7.7989915E-15
  0.1200000      1.1152764E-14
  0.1800000      3.6990390E-14
  0.2400000      5.8836650E-14
  0.3000000      6.2563385E-14
  0.3600000      3.7291981E-14
  0.4200000     -1.7495176E-14
  0.4800000     -8.8002414E-14
  0.5400000     -1.4840055E-13
  0.6000000     -1.6979006E-13
  0.6600000     -1.3280868E-13
  0.7200000     -3.8267888E-14
  0.7800000      8.9832188E-14
  0.8400000      2.1155621E-13
  0.9000000      2.8627586E-13
  0.9600000      2.8917496E-13
   1.020000      2.2086601E-13
   1.080000      1.0483482E-13
   1.140000     -2.6361927E-14
   1.200000     -1.4870195E-13
   1.260000     -2.5755965E-13
   1.320000     -3.6400380E-13
   1.380000     -4.7668987E-13
   1.440000     -5.7897843E-13
   1.500000     -6.1650061E-13
   1.560000     -5.0796341E-13
   1.620000     -1.8127005E-13
   1.680000      3.7749906E-13
   1.740000      1.0855707E-12
   1.800000      1.7592049E-12
   1.860000      2.1553820E-12
   1.920000      2.0509571E-12
   1.980000      1.3317166E-12
   2.040000      5.5564897E-14
   2.100000     -1.5382694E-12
   2.160000     -3.0813301E-12
   2.220000     -4.1722233E-12
   2.280000     -4.4834197E-12
   2.340000     -3.8436910E-12
   2.400000     -2.2750636E-12
   2.460000      1.6271127E-14
   2.520000      2.6794287E-12
   2.580000      5.2692182E-12
   2.640000      7.2968073E-12
   2.700000      8.2840982E-12
   2.760000      7.8336556E-12
   2.820000      5.7213266E-12
   2.880000      2.0009864E-12
   2.940000     -2.9107652E-12
   3.000000     -8.2148689E-12
   3.060000     -1.2813549E-11
   3.120000     -1.5508567E-11
   3.180000     -1.5284905E-11
   3.240000     -1.1612976E-11
   3.300000     -4.6830079E-12
   3.360000      4.5064590E-12
   3.420000      1.4248347E-11
   3.480000      2.2405012E-11
   3.540000      2.6802421E-11
   3.600000      2.5645238E-11
   3.660000      1.7853866E-11
   3.720000      3.2524862E-12
   3.780000     -1.7415219E-11
   3.840000     -4.2616126E-11
   3.900000     -7.0245948E-11
   3.960000     -9.7875257E-11
   4.020000     -1.2298493E-10
   4.080000     -1.4318352E-10
   4.140000     -1.5641724E-10
   4.200000     -1.6117710E-10
   4.260000     -1.5668221E-10
   4.320000     -1.4299373E-10
   4.380000     -1.2101245E-10
   4.440000     -9.2347185E-11
   4.500000     -5.9095479E-11
   4.560000     -2.3622493E-11
   4.620000      1.1576182E-11
   4.680000      4.3894804E-11
   4.740000      7.0573658E-11
   4.800000      8.8713994E-11
   4.860000      9.5482962E-11
   4.920000      8.8568618E-11
   4.980000      6.6817218E-11
   5.040000      3.0861241E-11
   5.100000     -1.6513228E-11
   5.160000     -7.0468506E-11
   5.220000     -1.2476059E-10
   5.280000     -1.7282456E-10
   5.340000     -2.0904306E-10
   5.400000     -2.2986613E-10
   5.460000     -2.3447999E-10
   5.520000     -2.2484370E-10
   5.580000     -2.0508738E-10
   5.640000     -1.8044408E-10
   5.700000     -1.5601520E-10
   5.760000     -1.3570745E-10
   5.820000     -1.2161537E-10
   5.880000     -1.1397339E-10
   5.940000     -1.1161511E-10
   6.000000     -1.1272631E-10
   6.060000     -1.1561155E-10
   6.120000     -1.1923487E-10
   6.180000     -1.2341464E-10
   6.240000     -1.2868630E-10
   6.300000     -1.3594313E-10
   6.360000     -1.4599021E-10
   6.420000     -1.5913167E-10
   6.480000     -1.7487727E-10
   6.540000     -1.9183602E-10
   6.600000     -2.0785278E-10
   6.660000     -2.2040274E-10
   6.720000     -2.2717503E-10
   6.780000     -2.2667382E-10
   6.840000     -2.1859727E-10
   6.900000     -2.0379257E-10
   6.960000     -1.8373944E-10
   7.020000     -1.5972162E-10
   7.080000     -1.3201289E-10
   7.140000     -9.9426870E-11
   7.200000     -5.9442680E-11
   7.260000     -8.8856552E-12
   7.320000      5.5069255E-11
   7.380000      1.3389664E-10
   7.440000      2.2699556E-10
   7.500000      3.3136091E-10
   7.560000      4.4160819E-10
   7.620000      5.5020510E-10
   7.680000      6.4774996E-10
   7.740000      7.2320439E-10
   7.800000      7.6409606E-10
   7.860000      7.5681855E-10
   7.920000      6.8720363E-10
   7.980000      5.4149757E-10
   8.040000      3.0771088E-10
   8.100000     -2.2922256E-11
   8.160000     -4.5482132E-10
   8.220000     -9.8772845E-10
   8.280000     -1.6173859E-09
   8.340000     -2.3370184E-09
   8.400000     -3.1390222E-09
   8.460000     -4.0161101E-09
   8.520000     -4.9613806E-09
   8.580000     -5.9672769E-09
   8.640000     -7.0239126E-09
   8.700000     -8.1175209E-09
   8.760000     -9.2296757E-09
   8.820000     -1.0337540E-08
   8.880000     -1.1414993E-08
   8.940000     -1.2434214E-08
   9.000000     -1.3367319E-08
   9.060000     -1.4187813E-08
   9.120000     -1.4871721E-08
   9.180000     -1.5398390E-08
   9.240000     -1.5750910E-08
   9.300000     -1.5916196E-08
   9.360000     -1.5884932E-08
   9.420000     -1.5651620E-08
   9.480000     -1.5214962E-08
   9.540000     -1.4578609E-08
   9.600000     -1.3751930E-08
   9.660000     -1.2750357E-08
   9.720000     -1.1594945E-08
   9.780000     -1.0311173E-08
   9.840000     -8.9273442E-09
   9.900000     -7.4730488E-09
   9.960000     -5.9779466E-09
   10.02000     -4.4707358E-09
   10.08000     -2.9779827E-09
   10.14000     -1.5226469E-09
   10.20000     -1.2251572E-10
   10.26000      1.2108791E-09
   10.32000      2.4722748E-09
   10.38000      3.6614816E-09
   10.44000      4.7813815E-09
   10.50000      5.8359459E-09
   10.56000      6.8289845E-09
   10.62000      7.7639193E-09
   10.68000      8.6443004E-09
   10.74000      9.4745074E-09
   10.80000      1.0260115E-08
   10.86000      1.1007722E-08
   10.92000      1.1724295E-08
   10.98000      1.2416175E-08
   11.04000      1.3087885E-08
   11.10000      1.3740870E-08
   11.16000      1.4372397E-08
   11.22000      1.4975029E-08
   11.28000      1.5537063E-08
   11.34000      1.6044110E-08
   11.40000      1.6481440E-08
   11.46000      1.6836344E-08
   11.52000      1.7099593E-08
   11.58000      1.7265458E-08
   11.64000      1.7330329E-08
   11.70000      1.7290578E-08
   11.76000      1.7140646E-08
   11.82000      1.6872242E-08
   11.88000      1.6475147E-08
   11.94000      1.5939623E-08
   12.00000      1.5259964E-08
   12.06000      1.4438291E-08
   12.12000      1.3487588E-08
   12.18000      1.2432995E-08
   12.24000      1.1310729E-08
   12.30000      1.0164644E-08
   12.36000      9.0410888E-09
   12.42000      7.9831928E-09
   12.48000      7.0258008E-09
   12.54000      6.1919097E-09
   12.60000      5.4909912E-09
   12.66000      4.9190945E-09
   12.72000      4.4604018E-09
   12.78000      4.0898716E-09
   12.84000      3.7766386E-09
   12.90000      3.4878029E-09
   12.96000      3.1921661E-09
   13.02000      2.8634624E-09
   13.08000      2.4827451E-09
   13.14000      2.0397974E-09
   13.20000      1.5335854E-09
   13.26000      9.7178909E-10
   13.32000      3.6934955E-10
   13.38000     -2.5404712E-10
   13.44000     -8.7742430E-10
   13.50000     -1.4824043E-09
   13.56000     -2.0566830E-09
   13.62000     -2.5962175E-09
   13.68000     -3.1056264E-09
   13.74000     -3.5969221E-09
   13.80000     -4.0871910E-09
   13.86000     -4.5959556E-09
   13.92000     -5.1427307E-09
   13.98000     -5.7448770E-09
   14.04000     -6.4156866E-09
   14.10000     -7.1626847E-09
   14.16000     -7.9863742E-09
   14.22000     -8.8797885E-09
   14.28000     -9.8290904E-09
   14.34000     -1.0815210E-08
   14.40000     -1.1816286E-08
   14.46000     -1.2810599E-08
   14.52000     -1.3779797E-08
   14.58000     -1.4712135E-08
   14.64000     -1.5605270E-08
   14.70000     -1.6467807E-08
   14.76000     -1.7318692E-08
   14.82000     -1.8184000E-08
   14.88000     -1.9091482E-08
   14.94000     -2.0064240E-08
   15.00000     -2.1115346E-08
   15.06000     -2.2244915E-08
   15.12000     -2.3440256E-08
   15.18000     -2.4678524E-08
   15.24000     -2.5930756E-08
   15.30000     -2.7166001E-08
   15.36000     -2.8354737E-08
   15.42000     -2.9471289E-08
   15.48000     -3.0495116E-08
   15.54000     -3.1411002E-08
   15.60000     -3.2208241E-08
   15.66000     -3.2879072E-08
   15.72000     -3.3417155E-08
   15.78000     -3.3816974E-08
   15.84000     -3.4074777E-08
   15.90000     -3.4190855E-08
   15.96000     -3.4172125E-08
   16.02000     -3.4033498E-08
   16.08000     -3.3796994E-08
   16.14000     -3.3488508E-08
   16.20000     -3.3133176E-08
   16.26000     -3.2750879E-08
   16.32000     -3.2353309E-08
   16.38000     -3.1943120E-08
   16.44000     -3.1515196E-08
   16.50000     -3.1059326E-08
   16.56000     -3.0563744E-08
   16.62000     -3.0018828E-08
   16.68000     -2.9420354E-08
   16.74000     -2.8771533E-08
   16.80000     -2.8083075E-08
   16.86000     -2.7371051E-08
   16.92000     -2.6652991E-08
   16.98000     -2.5943569E-08
   17.04000     -2.5251452E-08
   17.10000     -2.4578462E-08
   17.16000     -2.3921162E-08
   17.22000     -2.3274026E-08
   17.28000     -2.2632818E-08
   17.34000     -2.1997121E-08
   17.40000     -2.1371527E-08
   17.46000     -2.0765638E-08
   17.52000     -2.0193108E-08
   17.58000     -1.9669796E-08
   17.64000     -1.9210951E-08
   17.70000     -1.8827579E-08
   17.76000     -1.8522821E-08
   17.82000     -1.8289654E-08
   17.88000     -1.8111276E-08
   17.94000     -1.7964640E-08
   18.00000     -1.7826334E-08
   18.06000     -1.7678861E-08
   18.12000     -1.7515200E-08
   18.18000     -1.7340163E-08
   18.24000     -1.7168533E-08
   18.30000     -1.7021062E-08
   18.36000     -1.6920049E-08
   18.42000     -1.6885881E-08
   18.48000     -1.6935218E-08
   18.54000     -1.7080612E-08
   18.60000     -1.7330953E-08
   18.66000     -1.7691882E-08
   18.72000     -1.8165611E-08
   18.78000     -1.8749747E-08
   18.84000     -1.9435198E-08
   18.90000     -2.0203768E-08
   18.96000     -2.1026414E-08
   19.02000     -2.1863420E-08
   19.08000     -2.2667294E-08
   19.14000     -2.3388345E-08
   19.20000     -2.3981848E-08
   19.26000     -2.4414815E-08
   19.32000     -2.4670486E-08
   19.38000     -2.4749307E-08
   19.44000     -2.4666429E-08
   19.50000     -2.4446884E-08
   19.56000     -2.4120121E-08
   19.62000     -2.3715490E-08
   19.68000     -2.3259659E-08
   19.74000     -2.2776192E-08
   19.80000     -2.2286862E-08
   19.86000     -2.1813751E-08
   19.92000     -2.1380908E-08
   19.98000     -2.1014335E-08
   20.04000     -2.0739444E-08
   20.10000     -2.0576065E-08
   20.16000     -2.0532200E-08
   20.22000     -2.0598753E-08
   20.28000     -2.0747706E-08
   20.34000     -2.0935413E-08
   20.40000     -2.1110978E-08
   20.46000     -2.1227798E-08
   20.52000     -2.1254955E-08
   20.58000     -2.1184944E-08
   20.64000     -2.1035360E-08
   20.70000     -2.0843972E-08
   20.76000     -2.0658600E-08
   20.82000     -2.0524558E-08
   20.88000     -2.0472964E-08
   20.94000     -2.0512628E-08
   21.00000     -2.0627395E-08
   21.06000     -2.0779309E-08
   21.12000     -2.0916678E-08
   21.18000     -2.0984949E-08
   21.24000     -2.0937636E-08
   21.30000     -2.0744571E-08
   21.36000     -2.0395520E-08
   21.42000     -1.9898721E-08
   21.48000     -1.9275548E-08
   21.54000     -1.8553756E-08
   21.60000     -1.7762021E-08
   21.66000     -1.6927729E-08
   21.72000     -1.6078287E-08
   21.78000     -1.5244595E-08
   21.84000     -1.4464262E-08
   21.90000     -1.3782237E-08
   21.96000     -1.3247595E-08
   22.02000     -1.2906695E-08
   22.08000     -1.2794259E-08
   22.14000     -1.2924623E-08
   22.20000     -1.3285376E-08
   22.26000     -1.3835130E-08
   22.32000     -1.4506334E-08
   22.38000     -1.5213217E-08
   22.44000     -1.5863908E-08
   22.50000     -1.6374653E-08
   22.56000     -1.6683243E-08
   22.62000     -1.6758332E-08
   22.68000     -1.6602144E-08
   22.74000     -1.6245673E-08
   22.80000     -1.5737738E-08
   22.86000     -1.5131082E-08
   22.92000     -1.4469518E-08
   22.98000     -1.3779439E-08
   23.04000     -1.3067408E-08
   23.10000     -1.2323458E-08
   23.16000     -1.1528324E-08
   23.22000     -1.0662103E-08
   23.28000     -9.7120338E-09
   23.34000     -8.6776542E-09
   23.40000     -7.5723774E-09
   23.46000     -6.4212804E-09
   23.52000     -5.2557514E-09
   23.58000     -4.1064898E-09
   23.64000     -2.9970271E-09
   23.70000     -1.9400030E-09
   23.76000     -9.3766506E-10
   23.82000      1.3428575E-11
   23.88000      9.1523411E-10
   23.94000      1.7614781E-09
   24.00000      2.5343170E-09
   24.06000      3.2062231E-09
   24.12000      3.7469925E-09
   24.18000      4.1338040E-09
   24.24000      4.3610098E-09
   24.30000      4.4462647E-09
   24.36000      4.4306461E-09
   24.42000      4.3722768E-09
   24.48000      4.3349568E-09
   24.54000      4.3748920E-09
   24.60000      4.5292565E-09
   24.66000      4.8098494E-09
   24.72000      5.2036162E-09
   24.78000      5.6797385E-09
   24.84000      6.2010206E-09
   24.90000      6.7360273E-09
   24.96000      7.2683131E-09
   25.02000      7.8000717E-09
   25.08000      8.3493541E-09
   25.14000      8.9419547E-09
   25.20000      9.6005950E-09
   25.26000      1.0334710E-08
   25.32000      1.1133878E-08
   25.38000      1.1966788E-08
   25.44000      1.2786051E-08
   25.50000      1.3537487E-08
   25.56000      1.4171263E-08
   25.62000      1.4651712E-08
   25.68000      1.4963069E-08
   25.74000      1.5109592E-08
   25.80000      1.5110199E-08
   25.86000      1.4989315E-08
   25.92000      1.4766631E-08
   25.98000      1.4448537E-08
   26.04000      1.4023334E-08
   26.10000      1.3461205E-08
   26.16000      1.2718731E-08
   26.22000      1.1746878E-08
   26.28000      1.0500758E-08
   26.34000      8.9492582E-09
   26.40000      7.0825830E-09
   26.46000      4.9160374E-09
   26.52000      2.4890505E-09
   26.58000     -1.4053052E-10
   26.64000     -2.9056100E-09
   26.70000     -5.7402167E-09
   26.76000     -8.5884997E-09
   26.82000     -1.1410252E-08
   26.88000     -1.4182102E-08
   26.94000     -1.6894806E-08
   27.00000     -1.9548118E-08
   27.06000     -2.2144905E-08
   27.12000     -2.4685832E-08
   27.18000     -2.7165314E-08
   27.24000     -2.9568911E-08
   27.30000     -3.1872350E-08
   27.36000     -3.4042397E-08
   27.42000     -3.6039914E-08
   27.48000     -3.7825082E-08
   27.54000     -3.9364203E-08
   27.60000     -4.0636586E-08
   27.66000     -4.1639822E-08
   27.72000     -4.2391822E-08
   27.78000     -4.2928811E-08
   27.84000     -4.3299565E-08
   27.90000     -4.3557087E-08
   27.96000     -4.3749480E-08
   28.02000     -4.3912067E-08
   28.08000     -4.4062276E-08
   28.14000     -4.4198440E-08
   28.20000     -4.4302787E-08
   28.26000     -4.4347964E-08
   28.32000     -4.4305597E-08
   28.38000     -4.4154724E-08
   28.44000     -4.3887834E-08
   28.50000     -4.3512820E-08
   28.56000     -4.3050370E-08
   28.62000     -4.2527674E-08
   28.68000     -4.1970658E-08
   28.74000     -4.1397413E-08
   28.80000     -4.0814875E-08
   28.86000     -4.0219813E-08
   28.92000     -3.9603400E-08
   28.98000     -3.8957296E-08
   29.04000     -3.8278824E-08
   29.10000     -3.7573013E-08
   29.16000     -3.6850722E-08
   29.22000     -3.6123563E-08
   29.28000     -3.5397761E-08
   29.34000     -3.4669533E-08
   29.40000     -3.3924263E-08
   29.46000     -3.3140264E-08
   29.52000     -3.2296427E-08
   29.58000     -3.1381333E-08
   29.64000     -3.0400791E-08
   29.70000     -2.9380942E-08
   29.76000     -2.8365260E-08
   29.82000     -2.7405823E-08
   29.88000     -2.6551087E-08
   29.94000     -2.5833906E-08
   30.00000     -2.5263740E-08
   30.06000     -2.4825892E-08
   30.12000     -2.4488376E-08
   30.18000     -2.4214330E-08
   30.24000     -2.3975890E-08
   30.30000     -2.3764748E-08
   30.36000     -2.3595758E-08
   30.42000     -2.3502379E-08
   30.48000     -2.3525642E-08
   30.54000     -2.3700462E-08
   30.60000     -2.4043819E-08
   30.66000     -2.4548546E-08
   30.72000     -2.5184434E-08
   30.78000     -2.5906116E-08
   30.84000     -2.6665262E-08
   30.90000     -2.7423555E-08
   30.96000     -2.8162805E-08
   31.02000     -2.8889316E-08
   31.08000     -2.9631247E-08
   31.14000     -3.0429572E-08
   31.20000     -3.1325239E-08
   31.26000     -3.2346374E-08
   31.32000     -3.3499532E-08
   31.38000     -3.4767776E-08
   31.44000     -3.6116028E-08
   31.50000     -3.7501746E-08
   31.56000     -3.8887212E-08
   31.62000     -4.0249351E-08
   31.68000     -4.1584155E-08
   31.74000     -4.2904713E-08
   31.80000     -4.4233964E-08
   31.86000     -4.5594639E-08
   31.92000     -4.6999453E-08
   31.98000     -4.8444118E-08
   32.04000     -4.9904916E-08
   32.10000     -5.1341324E-08
   32.16000     -5.2703093E-08
   32.22000     -5.3940042E-08
   32.28000     -5.5012105E-08
   32.34000     -5.5897022E-08
   32.40000     -5.6593457E-08
   32.46000     -5.7118555E-08
   32.52000     -5.7500561E-08
   32.58000     -5.7768450E-08
   32.64000     -5.7941687E-08
   32.70000     -5.8023044E-08
   32.76000     -5.7996726E-08
   32.82000     -5.7832342E-08
   32.88000     -5.7493764E-08
   32.94000     -5.6950114E-08
   33.00000     -5.6185563E-08
   33.06000     -5.5204818E-08
   33.12000     -5.4032313E-08
   33.18000     -5.2705182E-08
   33.24000     -5.1262091E-08
   33.30000     -4.9731501E-08
   33.36000     -4.8123169E-08
   33.42000     -4.6425747E-08
   33.48000     -4.4611156E-08
   33.54000     -4.2644388E-08
   33.60000     -4.0495390E-08
   33.66000     -3.8149345E-08
   33.72000     -3.5612135E-08
   33.78000     -3.2909387E-08
   33.84000     -3.0079459E-08
   33.90000     -2.7162606E-08
   33.96000     -2.4189635E-08
   34.02000     -2.1173735E-08
   34.08000     -1.8108315E-08
   34.14000     -1.4972011E-08
   34.20000     -1.1739821E-08
   34.26000     -8.3971452E-09
   34.32000     -4.9523718E-09
   34.38000     -1.4436934E-09
   34.44000      2.0623392E-09
   34.50000      5.4804477E-09
   34.56000      8.7216465E-09
   34.62000      1.1709184E-08
   34.68000      1.4390818E-08
   34.74000      1.6744309E-08
   34.80000      1.8775237E-08
   34.86000      2.0508622E-08
   34.92000      2.1977174E-08
   34.98000      2.3209575E-08
   35.04000      2.4221569E-08
   35.10000      2.5011714E-08
   35.16000      2.5562402E-08
   35.22000      2.5845575E-08
   35.28000      2.5831525E-08
   35.34000      2.5498370E-08
   35.40000      2.4839492E-08
   35.46000      2.3866642E-08
   35.52000      2.2607706E-08
   35.58000      2.1099869E-08
   35.64000      1.9380570E-08
   35.70000      1.7479493E-08
   35.76000      1.5414448E-08
   35.82000      1.3192444E-08
   35.88000      1.0815293E-08
   35.94000      8.2873584E-09
   36.00000      5.6224292E-09
   36.06000      2.8472384E-09
   36.12000      5.1560096E-13
   36.18000     -2.8720373E-09
   36.24000     -5.7252785E-09
   36.30000     -8.5226786E-09
   36.36000     -1.1243004E-08
   36.42000     -1.3884236E-08
   36.48000     -1.6463900E-08
   36.54000     -1.9015593E-08
   36.60000     -2.1582183E-08
   36.66000     -2.4206889E-08
   36.72000     -2.6924024E-08
   36.78000     -2.9751488E-08
   36.84000     -3.2686668E-08
   36.90000     -3.5706559E-08
   36.96000     -3.8771773E-08
   37.02000     -4.1833097E-08
   37.08000     -4.4838835E-08
   37.14000     -4.7741334E-08
   37.20000     -5.0501644E-08
   37.26000     -5.3091778E-08
   37.32000     -5.5494649E-08
   37.38000     -5.7701847E-08
   37.44000     -5.9709784E-08
   37.50000     -6.1514982E-08
   37.56000     -6.3109717E-08
   37.62000     -6.4479416E-08
   37.68000     -6.5602990E-08
   37.74000     -6.6456430E-08
   37.80000     -6.7019002E-08
   37.86000     -6.7280112E-08
   37.92000     -6.7244635E-08
   37.98000     -6.6934597E-08
   38.04000     -6.6386313E-08
   38.10000     -6.5643512E-08
   38.16000     -6.4748320E-08
   38.22000     -6.3732749E-08
   38.28000     -6.2613182E-08
   38.34000     -6.1389578E-08
   38.40000     -6.0049459E-08
   38.46000     -5.8575363E-08
   38.52000     -5.6953311E-08
   38.58000     -5.5179605E-08
   38.64000     -5.3263985E-08
   38.70000     -5.1228511E-08
   38.76000     -4.9103114E-08
   38.82000     -4.6919546E-08
   38.88000     -4.4705736E-08
   38.94000     -4.2481954E-08
   39.00000     -4.0259145E-08
   39.06000     -3.8039126E-08
   39.12000     -3.5816058E-08
   39.18000     -3.3578726E-08
   39.24000     -3.1313430E-08
   39.30000     -2.9007323E-08
   39.36000     -2.6651668E-08
   39.42000     -2.4244288E-08
   39.48000     -2.1790433E-08
   39.54000     -1.9301835E-08
   39.60000     -1.6794498E-08
   39.66000     -1.4286312E-08
   39.72000     -1.1795610E-08
   39.78000     -9.3411590E-09
   39.84000     -6.9430257E-09
   39.90000     -4.6232853E-09
   39.96000     -2.4055333E-09
   40.02000     -3.1295436E-10
   40.08000      1.6343372E-09
   40.14000      3.4213887E-09
   40.20000      5.0387943E-09
   40.26000      6.4810313E-09
   40.32000      7.7433810E-09
   40.38000      8.8187315E-09
   40.44000      9.6955741E-09
   40.50000      1.0357991E-08
   40.56000      1.0787655E-08
   40.62000      1.0967201E-08
   40.68000      1.0883956E-08
   40.74000      1.0532979E-08
   40.80000      9.9185611E-09
   40.86000      9.0536894E-09
   40.92000      7.9574907E-09
   40.98000      6.6511983E-09
   41.04000      5.1537161E-09
   41.10000      3.4781331E-09
   41.16000      1.6304031E-09
   41.22000     -3.8912970E-10
   41.28000     -2.5815674E-09
   41.34000     -4.9437827E-09
   41.40000     -7.4630053E-09
   41.46000     -1.0113555E-08
   41.52000     -1.2857166E-08
   41.58000     -1.5647259E-08
   41.64000     -1.8436284E-08
   41.70000     -2.1184070E-08
   41.76000     -2.3864573E-08
   41.82000     -2.6468740E-08
   41.88000     -2.9002425E-08
   41.94000     -3.1480024E-08
   42.00000     -3.3916077E-08
   42.06000     -3.6317712E-08
   42.12000     -3.8680476E-08
   42.18000     -4.0988521E-08
   42.24000     -4.3218488E-08
   42.30000     -4.5345139E-08
   42.36000     -4.7346614E-08
   42.42000     -4.9207706E-08
   42.48000     -5.0921006E-08
   42.54000     -5.2486481E-08
   42.60000     -5.3910583E-08
   42.66000     -5.5205497E-08
   42.72000     -5.6388661E-08
   42.78000     -5.7481948E-08
   42.84000     -5.8510029E-08
   42.90000     -5.9497570E-08
   42.96000     -6.0465680E-08
   43.02000     -6.1428331E-08
   43.08000     -6.2389809E-08
   43.14000     -6.3343897E-08
   43.20000     -6.4275312E-08
   43.26000     -6.5163192E-08
   43.32000     -6.5986029E-08
   43.38000     -6.6727026E-08
   43.44000     -6.7378593E-08
   43.50000     -6.7945017E-08
   43.56000     -6.8442226E-08
   43.62000     -6.8894757E-08
   43.68000     -6.9330305E-08
   43.74000     -6.9773286E-08
   43.80000     -7.0239267E-08
   43.86000     -7.0731808E-08
   43.92000     -7.1242972E-08
   43.98000     -7.1757306E-08
   44.04000     -7.2257819E-08
   44.10000     -7.2732071E-08
   44.16000     -7.3175968E-08
   44.22000     -7.3594137E-08
   44.28000     -7.3996993E-08
   44.34000     -7.4396006E-08
   44.40000     -7.4799019E-08
   44.46000     -7.5207481E-08
   44.52000     -7.5616271E-08
   44.58000     -7.6015510E-08
   44.64000     -7.6393455E-08
   44.70000     -7.6739155E-08
   44.76000     -7.7044206E-08
   44.82000     -7.7303461E-08
   44.88000     -7.7514891E-08
   44.94000     -7.7678855E-08
   45.00000     -7.7796884E-08
   45.06000     -7.7870226E-08
   45.12000     -7.7898441E-08
   45.18000     -7.7878525E-08
   45.24000     -7.7805019E-08
   45.30000     -7.7671082E-08
   45.36000     -7.7470268E-08
   45.42000     -7.7198074E-08
   45.48000     -7.6852579E-08
   45.54000     -7.6434041E-08
   45.60000     -7.5943611E-08
   45.66000     -7.5382076E-08
   45.72000     -7.4749146E-08
   45.78000     -7.4043783E-08
   45.84000     -7.3265184E-08
   45.90000     -7.2414025E-08
   45.96000     -7.1493247E-08
   46.02000     -7.0508086E-08
   46.08000     -6.9465187E-08
   46.14000     -6.8370916E-08
   46.20000     -6.7229422E-08
   46.26000     -6.6040954E-08
   46.32000     -6.4801334E-08
   46.38000     -6.3503407E-08
   46.44000     -6.2140543E-08
   46.50000     -6.0711798E-08
   46.56000     -5.9227272E-08
   46.62000     -5.7711535E-08
   46.68000     -5.6203675E-08
   46.74000     -5.4753087E-08
   46.80000     -5.3412307E-08
   46.86000     -5.2229087E-08
   46.92000     -5.1240718E-08
   46.98000     -5.0472824E-08
   47.04000     -4.9943250E-08
   47.10000     -4.9669911E-08
   47.16000     -4.9680207E-08
   47.22000     -5.0019018E-08
   47.28000     -5.0753286E-08
   47.34000     -5.1972169E-08
   47.40000     -5.3783417E-08
   47.46000     -5.6307726E-08
   47.52000     -5.9673354E-08
   47.58000     -6.4013314E-08
   47.64000     -6.9466793E-08
   47.70000     -7.6185373E-08
   47.76000     -8.4343370E-08
   47.82000     -9.4150366E-08
   47.88000     -1.0586347E-07
   47.94000     -1.1979722E-07
   48.00000     -1.3632986E-07
   48.06000     -1.5590643E-07
   48.12000     -1.7904030E-07
   48.18000     -2.0631543E-07
   48.24000     -2.3839151E-07
   48.30000     -2.7601314E-07
   48.36000     -3.2002274E-07
   48.42000     -3.7137636E-07
   48.48000     -4.3116094E-07
   48.54000     -5.0061180E-07
   48.60000     -5.8112937E-07
   48.66000     -6.7429460E-07
   48.72000     -7.8188401E-07
   48.78000     -9.0588361E-07
   48.84000     -1.0485057E-06
   48.90000     -1.2122073E-06
   48.96000     -1.3997129E-06
   49.02000     -1.6140409E-06
   49.08000     -1.8585314E-06
   49.14000     -2.1368726E-06
   49.20000     -2.4531271E-06
   49.26000     -2.8117499E-06
   49.32000     -3.2176058E-06
   49.38000     -3.6759857E-06
   49.44000     -4.1926223E-06
   49.50000     -4.7737094E-06
   49.56000     -5.4259194E-06
   49.62000     -6.1564256E-06
   49.68000     -6.9729172E-06
   49.74000     -7.8836129E-06
   49.80000     -8.8972711E-06
   49.86000     -1.0023194E-05
   49.92000     -1.1271229E-05
   49.98000     -1.2651757E-05
   50.04000     -1.4175685E-05
   50.10000     -1.5854419E-05
   50.16000     -1.7699827E-05
   50.22000     -1.9724212E-05
   50.28000     -2.1940246E-05
   50.34000     -2.4360941E-05
   50.40000     -2.6999583E-05
   50.46000     -2.9869669E-05
   50.52000     -3.2984819E-05
   50.58000     -3.6358695E-05
   50.64000     -4.0004918E-05
   50.70000     -4.3936951E-05
   50.76000     -4.8167989E-05
   50.82000     -5.2710831E-05
   50.88000     -5.7577756E-05
   50.94000     -6.2780382E-05
   51.00000     -6.8329522E-05
   51.06000     -7.4235038E-05
   51.12000     -8.0505699E-05
   51.18000     -8.7149027E-05
   51.24000     -9.4171162E-05
   51.30000     -1.0157672E-04
   51.36000     -1.0936864E-04
   51.42000     -1.1754800E-04
   51.48000     -1.2611393E-04
   51.54000     -1.3506341E-04
   51.60000     -1.4439125E-04
   51.66000     -1.5408994E-04
   51.72000     -1.6414955E-04
   51.78000     -1.7455775E-04
   51.84000     -1.8529962E-04
   51.90000     -1.9635778E-04
   51.96000     -2.0771235E-04
   52.02000     -2.1934100E-04
   52.08000     -2.3121893E-04
   52.14000     -2.4331898E-04
   52.20000     -2.5561167E-04
   52.26000     -2.6806549E-04
   52.32000     -2.8064684E-04
   52.38000     -2.9332039E-04
   52.44000     -3.0604927E-04
   52.50000     -3.1879518E-04
   52.56000     -3.3151871E-04
   52.62000     -3.4417969E-04
   52.68000     -3.5673738E-04
   52.74000     -3.6915098E-04
   52.80000     -3.8137982E-04
   52.86000     -3.9338379E-04
   52.92000     -4.0512363E-04
   52.98000     -4.1656129E-04
   53.04000     -4.2766030E-04
   53.10000     -4.3838588E-04
   53.16000     -4.4870554E-04
   53.22000     -4.5858926E-04
   53.28000     -4.6800997E-04
   53.34000     -4.7694368E-04
   53.40000     -4.8536973E-04
   53.46000     -4.9327116E-04
   53.52000     -5.0063466E-04
   53.58000     -5.0745095E-04
   53.64000     -5.1371480E-04
   53.70000     -5.1942503E-04
   53.76000     -5.2458461E-04
   53.82000     -5.2920071E-04
   53.88000     -5.3328439E-04
   53.94000     -5.3685077E-04
   54.00000     -5.3991866E-04
   54.06000     -5.4251059E-04
   54.12000     -5.4465228E-04
   54.18000     -5.4637255E-04
   54.24000     -5.4770289E-04
   54.30000     -5.4867723E-04
   54.36000     -5.4933160E-04
   54.42000     -5.4970360E-04
   54.48000     -5.4983201E-04
   54.54000     -5.4975634E-04
   54.60000     -5.4951652E-04
   54.66000     -5.4915214E-04
   54.72000     -5.4870220E-04
   54.78000     -5.4820458E-04
   54.84000     -5.4769573E-04
   54.90000     -5.4721022E-04
   54.96000     -5.4678018E-04
   55.02000     -5.4643524E-04
   55.08000     -5.4620218E-04
   55.14000     -5.4610416E-04
   55.20000     -5.4616109E-04
   55.26000     -5.4638897E-04
   55.32000     -5.4679962E-04
   55.38000     -5.4740108E-04
   55.44000     -5.4819707E-04
   55.50000     -5.4918707E-04
   55.56000     -5.5036688E-04