  -2.400000      0.0000000E+00
  -2.340000      0.0000000E+00
  -2.280000      0.0000000E+00
  -2.220000      0.0000000E+00
  -2.160000      0.0000000E+00
  -2.100000      0.0000000E+00
  -2.040000      0.0000000E+00
  -1.980000      0.0000000E+00
  -1.920000      0.0000000E+00
  -1.860000      0.0000000E+00
  -1.800000      5.6866967E-32
  -1.740000      2.6994594E-30
  -1.680000      3.1823227E-29
  -1.620000      1.9538489E-28
  -1.560000      7.2936681E-28
  -1.500000      1.5385742E-27
  -1.440000      9.5967452E-29
  -1.380000     -1.2696102E-26
  -1.320000     -5.3323084E-26
  -1.260000     -1.2574920E-25
  -1.200000     -1.5759961E-25
  -1.140000      9.5352637E-26
  -1.080000      1.0528659E-24
  -1.020000      2.9531963E-24
 -0.9600000      4.8953604E-24
 -0.9000000      3.5756880E-24
 -0.8400000     -6.8349867E-24
 -0.7800000     -3.1156528E-23
 -0.7200000     -6.4279706E-23
 -0.6600000     -7.9716780E-23
 -0.6000000     -2.6439773E-23
 -0.5400000      1.4930638E-22
 -0.4800000      4.4686186E-22
 -0.4200000      7.3489913E-22
 -0.3600000      7.1321402E-22
 -0.3000000     -3.1368255E-24
 -0.2400000     -1.6221669E-21
 -0.1800000     -3.7921332E-21
 -0.1200000     -5.3173650E-21
 -5.9999999E-02 -4.3039185E-21
  0.0000000E+00  1.0108561E-21
  5.9999999E-02  1.0826394E-20
  0.1200000      2.2324736E-20
  0.1800000      2.9164224E-20
  0.2400000      2.2857214E-20
  0.3000000     -3.6326194E-21
  0.3600000     -5.0737278E-20
  0.4200000     -1.0725040E-19
  0.4800000     -1.4778516E-19
  0.5400000     -1.3541968E-19
  0.6000000     -3.2165241E-20
  0.6600000      1.8109107E-19
  0.7200000      4.7682723E-19
  0.7800000      7.5402564E-19
  0.8400000      8.3084580E-19
  0.9000000      4.8253514E-19
  0.9600000     -4.5585929E-19
   1.020000     -1.9312635E-18
   1.080000     -3.5181923E-18
   1.140000     -4.3773968E-18
   1.200000     -3.4466393E-18
   1.260000      8.6124856E-20
   1.320000      6.1303253E-18
   1.380000      1.3148538E-17
   1.440000      1.8113470E-17
   1.500000      1.7270641E-17
   1.560000      7.6877273E-18
   1.620000     -1.0887456E-17
   1.680000     -3.4700369E-17
   1.740000     -5.6042069E-17
   1.800000     -6.5066748E-17
   1.860000     -5.2986990E-17
   1.920000     -1.5572021E-17
   1.980000      4.4302698E-17
   2.040000      1.1582978E-16
   2.100000      1.8113614E-16
   2.160000      2.1732434E-16
   2.220000      1.9952641E-16
   2.280000      1.0583908E-16
   2.340000     -7.4311087E-17
   2.400000     -3.2789974E-16
   2.460000     -6.0516735E-16
   2.520000     -8.1344147E-16
   2.580000     -8.2866742E-16
   2.640000     -5.3256111E-16
   2.700000      1.2730970E-16
   2.760000      1.0732366E-15
   2.820000      2.0616001E-15
   2.880000      2.7103449E-15
   2.940000      2.6071623E-15
   3.000000      1.4806390E-15
   3.060000     -6.2392082E-16
   3.120000     -3.2474945E-15
   3.180000     -5.5729821E-15
   3.240000     -6.6561183E-15
   3.300000     -5.7757580E-15
   3.360000     -2.7751982E-15
   3.420000      1.7607414E-15
   3.480000      6.6041926E-15
   3.540000      1.0261163E-14
   3.600000      1.1499146E-14
   3.660000      9.8081867E-15
   3.720000      5.5841299E-15
   3.780000     -6.2306248E-17
   3.840000     -5.7867571E-15
   3.900000     -1.0540780E-14
   3.960000     -1.3863692E-14
   4.020000     -1.5764925E-14
   4.080000     -1.6260098E-14
   4.140000     -1.4863914E-14
   4.200000     -1.0444104E-14
   4.260000     -1.7088775E-15
   4.320000      1.1743322E-14
   4.380000      2.8286437E-14
   4.440000      4.3754439E-14
   4.500000      5.2151239E-14
   4.560000      4.7678936E-14
   4.620000      2.7471923E-14
   4.680000     -6.1503312E-15
   4.740000     -4.5188615E-14
   4.800000     -7.7937141E-14
   4.860000     -9.3056490E-14
   4.920000     -8.4242529E-14
   4.980000     -5.3378244E-14
   5.040000     -1.0401990E-14
   5.100000      3.0556124E-14
   5.160000      5.7417599E-14
   5.220000      6.5979774E-14
   5.280000      6.2240970E-14
   5.340000      5.9397806E-14
   5.400000      7.0123154E-14
   5.460000      9.7346908E-14
   5.520000      1.2827162E-13
   5.580000      1.3579150E-13
   5.640000      8.8709347E-14
   5.700000     -3.1940826E-14
   5.760000     -2.1688113E-13
   5.820000     -4.2084725E-13
   5.880000     -5.6928610E-13
   5.940000     -5.8065586E-13
   6.000000     -3.9881978E-13
   6.060000     -2.4252500E-14
   6.120000      4.6942577E-13
   6.180000      9.4404833E-13
   6.240000      1.2330527E-12
   6.300000      1.1968974E-12
   6.360000      7.8001104E-13
   6.420000      4.7482671E-14
   6.480000     -8.1630547E-13
   6.540000     -1.5530773E-12
   6.600000     -1.9099182E-12
   6.660000     -1.7276249E-12
   6.720000     -1.0065203E-12
   6.780000      7.7197153E-14
   6.840000      1.2156592E-12
   6.900000      2.0632736E-12
   6.960000      2.3498059E-12
   7.020000      1.9724890E-12
   7.080000      1.0325565E-12
   7.140000     -1.9892208E-13
   7.200000     -1.3744414E-12
   7.260000     -2.1878849E-12
   7.320000     -2.4716184E-12
   7.380000     -2.2353612E-12
   7.440000     -1.6328592E-12
   7.500000     -8.7270864E-13
   7.560000     -1.1426633E-13
   7.620000      6.0263654E-13
   7.680000      1.3590112E-12
   7.740000      2.2843910E-12
   7.800000      3.4412731E-12
   7.860000      4.7208574E-12
   7.920000      5.8057357E-12
   7.980000      6.2305226E-12
   8.040000      5.5295664E-12
   8.100000      3.4193611E-12
   8.160000     -5.8842722E-14
   8.220000     -4.5012050E-12
   8.280000     -9.2331342E-12
   8.340000     -1.3500087E-11
   8.400000     -1.6679267E-11
   8.460000     -1.8417240E-11
   8.520000     -1.8623081E-11
   8.580000     -1.7305530E-11
   8.640000     -1.4313802E-11
   8.700000     -9.0944361E-12
   8.760000     -5.8708051E-13
   8.820000      1.2659348E-11
   8.880000      3.2149252E-11
   8.940000      5.8971335E-11
   9.000000      9.3352714E-11
   9.060000      1.3440193E-10
   9.120000      1.8015585E-10
   9.180000      2.2794602E-10
   9.240000      2.7498848E-10
   9.300000      3.1901562E-10
   9.360000      3.5874584E-10
   9.420000      3.9403467E-10
   9.480000      4.2565737E-10
   9.540000      4.5479986E-10
   9.600000      4.8243148E-10
   9.660000      5.0876880E-10
   9.720000      5.3299326E-10
   9.780000      5.5328553E-10
   9.840000      5.6711619E-10
   9.900000      5.7165317E-10
   9.960000      5.6413396E-10
   10.02000      5.4211879E-10
   10.08000      5.0365401E-10
   10.14000      4.4748161E-10
   10.20000      3.7346962E-10
   10.26000      2.8338082E-10
   10.32000      1.8195524E-10
   10.38000      7.8097993E-11
   10.44000     -1.4179375E-11
   10.50000     -7.5465294E-11
   10.56000     -8.1618830E-11
   10.62000     -5.5266074E-12
   10.68000      1.8018324E-10
   10.74000      4.9982535E-10
   10.80000      9.7123054E-10
   10.86000      1.6027094E-09
   10.92000      2.3908049E-09
   10.98000      3.3190648E-09
   11.04000      4.3578967E-09
   11.10000      5.4654499E-09
   11.16000      6.5894210E-09
   11.22000      7.6697013E-09
   11.28000      8.6418028E-09
   11.34000      9.4409973E-09
   11.40000      1.0007035E-08
   11.46000      1.0289136E-08
   11.52000      1.0250812E-08
   11.58000      9.8738830E-09
   11.64000      9.1610532E-09
   11.70000      8.1364870E-09
   11.76000      6.8441368E-09
   11.82000      5.3438995E-09
   11.88000      3.7060897E-09
   11.94000      2.0050150E-09
   12.00000      3.1255520E-10
   12.06000     -1.3073977E-09
   12.12000     -2.8030116E-09
   12.18000     -4.1367780E-09
   12.24000     -5.2859535E-09
   12.30000     -6.2413918E-09
   12.36000     -7.0051227E-09
   12.42000     -7.5870892E-09
   12.48000     -8.0014644E-09
   12.54000     -8.2629814E-09
   12.60000     -8.3837355E-09
   12.66000     -8.3708835E-09
   12.72000     -8.2256211E-09
   12.78000     -7.9436600E-09
   12.84000     -7.5171709E-09
   12.90000     -6.9379200E-09
   12.96000     -6.2010503E-09
   13.02000     -5.3088649E-09
   13.08000     -4.2739252E-09
   13.14000     -3.1209419E-09
   13.20000     -1.8871302E-09
   13.26000     -6.2094202E-10
   13.32000      6.2071276E-10
   13.38000      1.7764941E-09
   13.44000      2.7855671E-09
   13.50000      3.5930503E-09
   13.56000      4.1555568E-09
   13.62000      4.4463642E-09
   13.68000      4.4597086E-09
   13.74000      4.2136237E-09
   13.80000      3.7507326E-09
   13.86000      3.1364091E-09
   13.92000      2.4538966E-09
   13.98000      1.7963250E-09
   14.04000      1.2561192E-09
   14.10000      9.1300073E-10
   14.16000      8.2245682E-10
   14.22000      1.0069677E-09
   14.28000      1.4521923E-09
   14.34000      2.1095761E-09
   14.40000      2.9055476E-09
   14.46000      3.7558694E-09
   14.52000      4.5822985E-09
   14.58000      5.3279097E-09
   14.64000      5.9675900E-09
   14.70000      6.5113390E-09
   14.76000      6.9997745E-09
   14.82000      7.4932309E-09
   14.88000      8.0573566E-09
   14.94000      8.7488692E-09
   15.00000      9.6048378E-09
   15.06000      1.0637734E-08
   15.12000      1.1836839E-08
   15.18000      1.3174854E-08
   15.24000      1.4617316E-08
   15.30000      1.6131722E-08
   15.36000      1.7693631E-08
   15.42000      1.9288008E-08
   15.48000      2.0905688E-08
   15.54000      2.2536502E-08
   15.60000      2.4161848E-08
   15.66000      2.5749866E-08
   15.72000      2.7255771E-08
   15.78000      2.8628156E-08
   15.84000      2.9820065E-08
   15.90000      3.0801672E-08
   15.96000      3.1570483E-08
   16.02000      3.2155288E-08
   16.08000      3.2611890E-08
   16.14000      3.3011123E-08
   16.20000      3.3422275E-08
   16.26000      3.3896541E-08
   16.32000      3.4455368E-08
   16.38000      3.5086988E-08
   16.44000      3.5752013E-08
   16.50000      3.6396113E-08
   16.56000      3.6965904E-08
   16.62000      3.7423355E-08
   16.68000      3.7754802E-08
   16.74000      3.7972576E-08
   16.80000      3.8109349E-08
   16.86000      3.8207492E-08
   16.92000      3.8306545E-08
   16.98000      3.8432329E-08
   17.04000      3.8590176E-08
   17.10000      3.8763510E-08
   17.16000      3.8917626E-08
   17.22000      3.9007109E-08
   17.28000      3.8984687E-08
   17.34000      3.8809201E-08
   17.40000      3.8450704E-08
   17.46000      3.7891837E-08
   17.52000      3.7125748E-08
   17.58000      3.6151874E-08
   17.64000      3.4971624E-08
   17.70000      3.3585717E-08
   17.76000      3.1994297E-08
   17.82000      3.0199519E-08
   17.88000      2.8209277E-08
   17.94000      2.6040000E-08
   18.00000      2.3716806E-08
   18.06000      2.1270244E-08
   18.12000      1.8730482E-08
   18.18000      1.6120961E-08
   18.24000      1.3454222E-08
   18.30000      1.0732061E-08
   18.36000      7.9507911E-09
   18.42000      5.1105919E-09
   18.48000      2.2262745E-09
   18.54000     -6.6404787E-10
   18.60000     -3.4956054E-09
   18.66000     -6.1808785E-09
   18.72000     -8.6207015E-09
   18.78000     -1.0720418E-08
   18.84000     -1.2407300E-08
   18.90000     -1.3644761E-08
   18.96000     -1.4439417E-08
   19.02000     -1.4838703E-08
   19.08000     -1.4919289E-08
   19.14000     -1.4769151E-08
   19.20000     -1.4468271E-08
   19.26000     -1.4073580E-08
   19.32000     -1.3612774E-08
   19.38000     -1.3088928E-08
   19.44000     -1.2494280E-08
   19.50000     -1.1828315E-08
   19.56000     -1.1113439E-08
   19.62000     -1.0401995E-08
   19.68000     -9.7711599E-09
   19.74000     -9.3064658E-09
   19.80000     -9.0790095E-09
   19.86000     -9.1241805E-09
   19.92000     -9.4298995E-09
   19.98000     -9.9396162E-09
   20.04000     -1.0570422E-08
   20.10000     -1.1241296E-08
   20.16000     -1.1902457E-08
   20.22000     -1.2555624E-08
   20.28000     -1.3257382E-08
   20.34000     -1.4103040E-08
   20.40000     -1.5194887E-08
   20.46000     -1.6604332E-08
   20.52000     -1.8340172E-08
   20.58000     -2.0333985E-08
   20.64000     -2.2448813E-08
   20.70000     -2.4510051E-08
   20.76000     -2.6350305E-08
   20.82000     -2.7855126E-08
   20.88000     -2.8995574E-08
   20.94000     -2.9837061E-08
   21.00000     -3.0520830E-08
   21.06000     -3.1222758E-08
   21.12000     -3.2101294E-08
   21.18000     -3.3250096E-08
   21.24000     -3.4669831E-08
   21.30000     -3.6268016E-08
   21.36000     -3.7887251E-08
   21.42000     -3.9353271E-08
   21.48000     -4.0528018E-08
   21.54000     -4.1351132E-08
   21.60000     -4.1856815E-08
   21.66000     -4.2160668E-08
   21.72000     -4.2420503E-08
   21.78000     -4.2783256E-08
   21.84000     -4.3334403E-08
   21.90000     -4.4065512E-08
   21.96000     -4.4869843E-08
   22.02000     -4.5567276E-08
   22.08000     -4.5950994E-08
   22.14000     -4.5841968E-08
   22.20000     -4.5135376E-08
   22.26000     -4.3826105E-08
   22.32000     -4.2007116E-08
   22.38000     -3.9843020E-08
   22.44000     -3.7528146E-08
   22.50000     -3.5242369E-08
   22.56000     -3.3117278E-08
   22.62000     -3.1220946E-08
   22.68000     -2.9562914E-08
   22.74000     -2.8114517E-08
   22.80000     -2.6835586E-08
   22.86000     -2.5697657E-08
   22.92000     -2.4696373E-08
   22.98000     -2.3850371E-08
   23.04000     -2.3188974E-08
   23.10000     -2.2734739E-08
   23.16000     -2.2488187E-08
   23.22000     -2.2420730E-08
   23.28000     -2.2478471E-08
   23.34000     -2.2595465E-08
   23.40000     -2.2711735E-08
   23.46000     -2.2789772E-08
   23.52000     -2.2824015E-08
   23.58000     -2.2840416E-08
   23.64000     -2.2886706E-08
   23.70000     -2.3017025E-08
   23.76000     -2.3276229E-08
   23.82000     -2.3688825E-08
   23.88000     -2.4255614E-08
   23.94000     -2.4958357E-08
   24.00000     -2.5770277E-08
   24.06000     -2.6668678E-08
   24.12000     -2.7645628E-08
   24.18000     -2.8713545E-08
   24.24000     -2.9904140E-08
   24.30000     -3.1260935E-08
   24.36000     -3.2827348E-08
   24.42000     -3.4633370E-08
   24.48000     -3.6684455E-08
   24.54000     -3.8955644E-08
   24.60000     -4.1392738E-08
   24.66000     -4.3920423E-08
   24.72000     -4.6455288E-08
   24.78000     -4.8920320E-08
   24.84000     -5.1257079E-08
   24.90000     -5.3432593E-08
   24.96000     -5.5439649E-08
   25.02000     -5.7291167E-08
   25.08000     -5.9010731E-08
   25.14000     -6.0622163E-08
   25.20000     -6.2140650E-08
   25.26000     -6.3567114E-08
   25.32000     -6.4886422E-08
   25.38000     -6.6069070E-08
   25.44000     -6.7075483E-08
   25.50000     -6.7861741E-08
   25.56000     -6.8385752E-08
   25.62000     -6.8612998E-08
   25.68000     -6.8521089E-08
   25.74000     -6.8102501E-08
   25.80000     -6.7365143E-08
   25.86000     -6.6330472E-08
   25.92000     -6.5029681E-08
   25.98000     -6.3498632E-08
   26.04000     -6.1773065E-08
   26.10000     -5.9885508E-08
   26.16000     -5.7865361E-08
   26.22000     -5.5742291E-08
   26.28000     -5.3552167E-08
   26.34000     -5.1343175E-08
   26.40000     -4.9179249E-08
   26.46000     -4.7138300E-08
   26.52000     -4.5304237E-08
   26.58000     -4.3753996E-08
   26.64000     -4.2542968E-08
   26.70000     -4.1693365E-08
   26.76000     -4.1189612E-08
   26.82000     -4.0982904E-08
   26.88000     -4.1003872E-08
   26.94000     -4.1179486E-08
   27.00000     -4.1448530E-08
   27.06000     -4.1770249E-08
   27.12000     -4.2123080E-08
   27.18000     -4.2494058E-08
   27.24000     -4.2863032E-08
   27.30000     -4.3188184E-08
   27.36000     -4.3399378E-08
   27.42000     -4.3403293E-08
   27.48000     -4.3100265E-08
   27.54000     -4.2408281E-08
   27.60000     -4.1286661E-08
   27.66000     -3.9751544E-08
   27.72000     -3.7877545E-08
   27.78000     -3.5784495E-08
   27.84000     -3.3612860E-08
   27.90000     -3.1495109E-08
   27.96000     -2.9531408E-08
   28.02000     -2.7776403E-08
   28.08000     -2.6240118E-08
   28.14000     -2.4901475E-08
   28.20000     -2.3729108E-08
   28.26000     -2.2702288E-08
   28.32000     -2.1825198E-08
   28.38000     -2.1130283E-08
   28.44000     -2.0670129E-08
   28.50000     -2.0500828E-08
   28.56000     -2.0662444E-08
   28.62000     -2.1162764E-08
   28.68000     -2.1969408E-08
   28.74000     -2.3012696E-08
   28.80000     -2.4198449E-08
   28.86000     -2.5426980E-08
   28.92000     -2.6612968E-08
   28.98000     -2.7700800E-08
   29.04000     -2.8671497E-08
   29.10000     -2.9539892E-08
   29.16000     -3.0343479E-08
   29.22000     -3.1126600E-08
   29.28000     -3.1924653E-08
   29.34000     -3.2752631E-08
   29.40000     -3.3600642E-08
   29.46000     -3.4436880E-08
   29.52000     -3.5216182E-08
   29.58000     -3.5891045E-08
   29.64000     -3.6421692E-08
   29.70000     -3.6782787E-08
   29.76000     -3.6965851E-08
   29.82000     -3.6978168E-08
   29.88000     -3.6839761E-08
   29.94000     -3.6580118E-08
   30.00000     -3.6235630E-08
   30.06000     -3.5847666E-08
   30.12000     -3.5460531E-08
   30.18000     -3.5118251E-08
   30.24000     -3.4859859E-08
   30.30000     -3.4713455E-08
   30.36000     -3.4690505E-08
   30.42000     -3.4782030E-08
   30.48000     -3.4958251E-08
   30.54000     -3.5172448E-08
   30.60000     -3.5368437E-08
   30.66000     -3.5490014E-08
   30.72000     -3.5489890E-08
   30.78000     -3.5335610E-08
   30.84000     -3.5010999E-08
   30.90000     -3.4513040E-08
   30.96000     -3.3845769E-08
   31.02000     -3.3013908E-08
   31.08000     -3.2019088E-08
   31.14000     -3.0860360E-08
   31.20000     -2.9539004E-08
   31.26000     -2.8065463E-08
   31.32000     -2.6465106E-08
   31.38000     -2.4779407E-08
   31.44000     -2.3060807E-08
   31.50000     -2.1361807E-08
   31.56000     -1.9721568E-08
   31.62000     -1.8154761E-08
   31.68000     -1.6647348E-08
   31.74000     -1.5161971E-08
   31.80000     -1.3652387E-08
   31.86000     -1.2082871E-08
   31.92000     -1.0446267E-08
   31.98000     -8.7739727E-09
   32.04000     -7.1333797E-09
   32.10000     -5.6121872E-09
   32.16000     -4.2935944E-09
   32.22000     -3.2299250E-09
   32.28000     -2.4235141E-09
   32.34000     -1.8219535E-09
   32.40000     -1.3305336E-09
   32.46000     -8.3910773E-10
   32.52000     -2.5556757E-10
   32.58000      4.6461712E-10
   32.64000      1.3026693E-09
   32.70000      2.1803896E-09
   32.76000      2.9832128E-09
   32.82000      3.5955789E-09
   32.88000      3.9373798E-09
   32.94000      3.9894847E-09
   33.00000      3.7995873E-09
   33.06000      3.4659342E-09
   33.12000      3.1037772E-09
   33.18000      2.8052842E-09
   33.24000      2.6060571E-09
   33.30000      2.4695042E-09
   33.36000      2.2946351E-09
   33.42000      1.9452184E-09
   33.48000      1.2911988E-09
   33.54000      2.4918828E-10
   33.60000     -1.1908903E-09
   33.66000     -2.9613467E-09
   33.72000     -4.9354849E-09
   33.78000     -6.9630488E-09
   33.84000     -8.9106456E-09
   33.90000     -1.0694345E-08
   33.96000     -1.2294922E-08
   34.02000     -1.3752480E-08
   34.08000     -1.5144172E-08
   34.14000     -1.6553926E-08
   34.20000     -1.8044826E-08
   34.26000     -1.9642822E-08
   34.32000     -2.1335637E-08
   34.38000     -2.3085166E-08
   34.44000     -2.4847147E-08
   34.50000     -2.6589849E-08
   34.56000     -2.8304708E-08
   34.62000     -3.0005189E-08
   34.68000     -3.1714972E-08
   34.74000     -3.3450707E-08
   34.80000     -3.5206654E-08
   34.86000     -3.6948059E-08
   34.92000     -3.8616605E-08
   34.98000     -4.0146656E-08
   35.04000     -4.1486352E-08
   35.10000     -4.2615365E-08
   35.16000     -4.3551964E-08
   35.22000     -4.4345732E-08
   35.28000     -4.5057849E-08
   35.34000     -4.5735568E-08
   35.40000     -4.6390124E-08
   35.46000     -4.6986322E-08
   35.52000     -4.7448189E-08
   35.58000     -4.7679748E-08
   35.64000     -4.7594526E-08
   35.70000     -4.7144631E-08
   35.76000     -4.6339771E-08
   35.82000     -4.5249422E-08
   35.88000     -4.3986486E-08
   35.94000     -4.2676369E-08
   36.00000     -4.1420456E-08
   36.06000     -4.0265320E-08
   36.12000     -3.9187974E-08
   36.18000     -3.8102844E-08
   36.24000     -3.6889237E-08
   36.30000     -3.5431110E-08
   36.36000     -3.3656363E-08
   36.42000     -3.1562610E-08
   36.48000     -2.9220866E-08
   36.54000     -2.6755851E-08
   36.60000     -2.4309891E-08
   36.66000     -2.2002574E-08
   36.72000     -1.9899550E-08
   36.78000     -1.8000215E-08
   36.84000     -1.6247251E-08
   36.90000     -1.4553628E-08
   36.96000     -1.2837162E-08
   37.02000     -1.1050816E-08
   37.08000     -9.1990175E-09
   37.14000     -7.3353772E-09
   37.20000     -5.5436438E-09
   37.26000     -3.9092050E-09
   37.32000     -2.4914624E-09
   37.38000     -1.3067543E-09
   37.44000     -3.2756736E-10
   37.50000      5.0214322E-10
   37.56000      1.2415394E-09
   37.62000      1.9270028E-09
   37.68000      2.5554205E-09
   37.74000      3.0827756E-09
   37.80000      3.4383567E-09
   37.86000      3.5490584E-09
   37.92000      3.3645420E-09
   37.98000      2.8738310E-09
   38.04000      2.1072351E-09
   38.10000      1.1230338E-09
   38.16000     -1.5964778E-11
   38.22000     -1.2670941E-09
   38.28000     -2.6243070E-09
   38.34000     -4.1199839E-09
   38.40000     -5.8109717E-09
   38.46000     -7.7536715E-09
   38.52000     -9.9773354E-09
   38.58000     -1.2465766E-08
   38.64000     -1.5154900E-08
   38.70000     -1.7948027E-08
   38.76000     -2.0743839E-08
   38.82000     -2.3467388E-08
   38.88000     -2.6092676E-08
   38.94000     -2.8648213E-08
   39.00000     -3.1202998E-08
   39.06000     -3.3837392E-08
   39.12000     -3.6608821E-08
   39.18000     -3.9524171E-08
   39.24000     -4.2528455E-08
   39.30000     -4.5513747E-08
   39.36000     -4.8345491E-08
   39.42000     -5.0897668E-08
   39.48000     -5.3085351E-08
   39.54000     -5.4884467E-08
   39.60000     -5.6332730E-08
   39.66000     -5.7512086E-08
   39.72000     -5.8518932E-08
   39.78000     -5.9432214E-08
   39.84000     -6.0289764E-08
   39.90000     -6.1080293E-08
   39.96000     -6.1752679E-08
   40.02000     -6.2238534E-08
   40.08000     -6.2479423E-08
   40.14000     -6.2449253E-08
   40.20000     -6.2164311E-08
   40.26000     -6.1678350E-08
   40.32000     -6.1065506E-08
   40.38000     -6.0397561E-08
   40.44000     -5.9723533E-08
   40.50000     -5.9058301E-08
   40.56000     -5.8382806E-08
   40.62000     -5.7654923E-08
   40.68000     -5.6826249E-08
   40.74000     -5.5859086E-08
   40.80000     -5.4738297E-08
   40.86000     -5.3475002E-08
   40.92000     -5.2101790E-08
   40.98000     -5.0661821E-08
   41.04000     -4.9195751E-08
   41.10000     -4.7730836E-08
   41.16000     -4.6275645E-08
   41.22000     -4.4821785E-08
   41.28000     -4.3351676E-08
   41.34000     -4.1849248E-08
   41.40000     -4.0309388E-08
   41.46000     -3.8742314E-08
   41.52000     -3.7171102E-08
   41.58000     -3.5623213E-08
   41.64000     -3.4119516E-08
   41.70000     -3.2665568E-08
   41.76000     -3.1249144E-08
   41.82000     -2.9845697E-08
   41.88000     -2.8430144E-08
   41.94000     -2.6990666E-08
   42.00000     -2.5539149E-08
   42.06000     -2.4114032E-08
   42.12000     -2.2774058E-08
   42.18000     -2.1584935E-08
   42.24000     -2.0603434E-08
   42.30000     -1.9864402E-08
   42.36000     -1.9374955E-08
   42.42000     -1.9117426E-08
   42.48000     -1.9059529E-08
   42.54000     -1.9167798E-08
   42.60000     -1.9419582E-08
   42.66000     -1.9809757E-08
   42.72000     -2.0350580E-08
   42.78000     -2.1065627E-08
   42.84000     -2.1980702E-08
   42.90000     -2.3115298E-08
   42.96000     -2.4477464E-08
   43.02000     -2.6063212E-08
   43.08000     -2.7859684E-08
   43.14000     -2.9849733E-08
   43.20000     -3.2015297E-08
   43.26000     -3.4337543E-08
   43.32000     -3.6793566E-08
   43.38000     -3.9351075E-08
   43.44000     -4.1964096E-08
   43.50000     -4.4572776E-08
   43.56000     -4.7109161E-08
   43.62000     -4.9508625E-08
   43.68000     -5.1723887E-08
   43.74000     -5.3736670E-08
   43.80000     -5.5562133E-08
   43.86000     -5.7243113E-08
   43.92000     -5.8834814E-08
   43.98000     -6.0384522E-08
   44.04000     -6.1913212E-08
   44.10000     -6.3406020E-08
   44.16000     -6.4815659E-08
   44.22000     -6.6078393E-08
   44.28000     -6.7137563E-08
   44.34000     -6.7966837E-08
   44.40000     -6.8585038E-08
   44.46000     -6.9057329E-08
   44.52000     -6.9481828E-08
   44.58000     -6.9965822E-08
   44.64000     -7.0598873E-08
   44.70000     -7.1431792E-08
   44.76000     -7.2468374E-08
   44.82000     -7.3673405E-08
   44.88000     -7.4995057E-08
   44.94000     -7.6395665E-08
   45.00000     -7.7881616E-08
   45.06000     -7.9523403E-08
   45.12000     -8.1459405E-08
   45.18000     -8.3882270E-08
   45.24000     -8.7011962E-08
   45.30000     -9.1064273E-08
   45.36000     -9.6224959E-08
   45.42000     -1.0263856E-07
   45.48000     -1.1041621E-07
   45.54000     -1.1966131E-07
   45.60000     -1.3050591E-07
   45.66000     -1.4314796E-07
   45.72000     -1.5787880E-07
   45.78000     -1.7509457E-07
   45.84000     -1.9529006E-07
   45.90000     -2.1904052E-07
   45.96000     -2.4698079E-07
   46.02000     -2.7979223E-07
   46.08000     -3.1820622E-07
   46.14000     -3.6302634E-07
   46.20000     -4.1516617E-07
   46.26000     -4.7569540E-07
   46.32000     -5.4588344E-07
   46.38000     -6.2723200E-07
   46.44000     -7.2149248E-07
   46.50000     -8.3066806E-07
   46.56000     -9.5700614E-07
   46.62000     -1.1029891E-06
   46.68000     -1.2713340E-06
   46.74000     -1.4650076E-06
   46.80000     -1.6872597E-06
   46.86000     -1.9416736E-06
   46.92000     -2.2322267E-06
   46.98000     -2.5633512E-06
   47.04000     -2.9399878E-06
   47.10000     -3.3676242E-06
   47.16000     -3.8523176E-06
   47.22000     -4.4007047E-06
   47.28000     -5.0200065E-06
   47.34000     -5.7180278E-06
   47.40000     -6.5031686E-06
   47.46000     -7.3844390E-06
   47.52000     -8.3714885E-06
   47.58000     -9.4746383E-06
   47.64000     -1.0704920E-05
   47.70000     -1.2074110E-05
   47.76000     -1.3594748E-05
   47.82000     -1.5280153E-05
   47.88000     -1.7144404E-05
   47.94000     -1.9202320E-05
   48.00000     -2.1469416E-05
   48.06000     -2.3961855E-05
   48.12000     -2.6696380E-05
   48.18000     -2.9690247E-05
   48.24000     -3.2961147E-05
   48.30000     -3.6527119E-05
   48.36000     -4.0406470E-05
   48.42000     -4.4617671E-05
   48.48000     -4.9179271E-05
   48.54000     -5.4109754E-05
   48.60000     -5.9427439E-05
   48.66000     -6.5150300E-05
   48.72000     -7.1295814E-05
   48.78000     -7.7880795E-05
   48.84000     -8.4921194E-05
   48.90000     -9.2431896E-05
   48.96000     -1.0042651E-04
   49.02000     -1.0891721E-04
   49.08000     -1.1791445E-04
   49.14000     -1.2742680E-04
   49.20000     -1.3746080E-04
   49.26000     -1.4802070E-04
   49.32000     -1.5910843E-04
   49.38000     -1.7072332E-04
   49.44000     -1.8286196E-04
   49.50000     -1.9551808E-04
   49.56000     -2.0868240E-04
   49.62000     -2.2234248E-04
   49.68000     -2.3648272E-04
   49.74000     -2.5108416E-04
   49.80000     -2.6612452E-04
   49.86000     -2.8157825E-04
   49.92000     -2.9741653E-04
   49.98000     -3.1360745E-04
   50.04000     -3.3011602E-04
   50.10000     -3.4690439E-04
   50.16000     -3.6393205E-04
   50.22000     -3.8115596E-04
   50.28000     -3.9853092E-04
   50.34000     -4.1600977E-04
   50.40000     -4.3354367E-04
   50.46000     -4.5108260E-04
   50.52000     -4.6857569E-04
   50.58000     -4.8597160E-04
   50.64000     -5.0321908E-04
   50.70000     -5.2026723E-04
   50.76000     -5.3706631E-04
   50.82000     -5.5356772E-04
   50.88000     -5.6972465E-04
   50.94000     -5.8549264E-04
   51.00000     -6.0082995E-04
   51.06000     -6.1569799E-04
   51.12000     -6.3006161E-04
   51.18000     -6.4388959E-04
   51.24000     -6.5715495E-04
   51.30000     -6.6983537E-04
   51.36000     -6.8191328E-04
   51.42000     -6.9337623E-04
   51.48000     -7.0421683E-04
   51.54000     -7.1443309E-04
   51.60000     -7.2402821E-04
   51.66000     -7.3301053E-04
   51.72000     -7.4139365E-04
   51.78000     -7.4919604E-04
   51.84000     -7.5644098E-04
   51.90000     -7.6315587E-04
   51.96000     -7.6937280E-04
   52.02000     -7.7512721E-04
   52.08000     -7.8045815E-04
   52.14000     -7.8540761E-04
   52.20000     -7.9002004E-04
   52.26000     -7.9434144E-04
   52.32000     -7.9841935E-04
   52.38000     -8.0230157E-04
   52.44000     -8.0603600E-04
   52.50000     -8.0966967E-04
   52.56000     -8.1324857E-04
   52.62000     -8.1681687E-04
   52.68000     -8.2041649E-04
   52.74000     -8.2408648E-04
   52.80000     -8.2786242E-04
   52.86000     -8.3177618E-04
   52.92000     -8.3585555E-04
   52.98000     -8.4012380E-04
   53.04000     -8.4459921E-04
   53.10000     -8.4929494E-04
   53.16000     -8.5421879E-04
   53.22000     -8.5937307E-04
   53.28000     -8.6475501E-04
   53.34000     -8.7035651E-04
   53.40000     -8.7616430E-04
   53.46000     -8.8216056E-04
   53.52000     -8.8832295E-04
   53.58000     -8.9462468E-04
   53.64000     -9.0103515E-04
   53.70000     -9.0752012E-04
   53.76000     -9.1404276E-04
   53.82000     -9.2056359E-04
   53.88000     -9.2704140E-04
   53.94000     -9.3343359E-04
   54.00000     -9.3969738E-04
   54.06000     -9.4578968E-04
   54.12000     -9.5166790E-04
   54.18000     -9.5729070E-04
   54.24000     -9.6261827E-04
   54.30000     -9.6761296E-04
   54.36000     -9.7223982E-04
   54.42000     -9.7646710E-04
   54.48000     -9.8026707E-04
   54.54000     -9.8361541E-04
   54.60000     -9.8649249E-04
   54.66000     -9.8888308E-04
   54.72000     -9.9077646E-04
   54.78000     -9.9216669E-04
   54.84000     -9.9305250E-04
   54.90000     -9.9343760E-04
   54.96000     -9.9333026E-04
   55.02000     -9.9274318E-04
   55.08000     -9.9169335E-04
   55.14000     -9.9020137E-04
   55.20000     -9.8829123E-04
   55.26000     -9.8598993E-04
   55.32000     -9.8332763E-04
   55.38000     -9.8033692E-04
   55.44000     -9.7705191E-04
   55.50000     -9.7350834E-04
   55.56000     -9.6974266E-04