 -0.750000000       0.00000000    
 -0.689999998       0.00000000    
 -0.629999995       0.00000000    
 -0.569999993       0.00000000    
 -0.509999990       0.00000000    
 -0.449999988       0.00000000    
 -0.389999986       0.00000000    
 -0.330000013       0.00000000    
 -0.270000011       0.00000000    
 -0.209999993       0.00000000    
 -0.150000006       4.76797436E-32
  -9.00000036E-02   2.54332647E-30
  -2.99999993E-02   3.19397095E-29
   2.99999993E-02   2.08636015E-28
   9.00000036E-02   8.35430084E-28
  0.150000006       1.95213915E-27
  0.209999993       7.46522658E-28
  0.270000011      -1.46989146E-26
  0.330000013      -7.00094578E-26
  0.389999986      -1.82573697E-25
  0.449999988      -2.66752403E-25
  0.509999990       4.89639585E-26
  0.569999993       1.53346839E-24
  0.629999995       4.90150953E-24
  0.689999998       9.11257092E-24
  0.750000000       8.42246515E-24
  0.810000002      -9.46715049E-24
  0.870000005      -5.83821756E-23
  0.930000007      -1.35033007E-22
  0.990000010      -1.87833954E-22
   1.04999995      -9.48421213E-23
   1.11000001       3.02338073E-22
   1.16999996       1.05964108E-21
   1.23000002       1.89625158E-21
   1.28999996       2.00643300E-21
   1.35000002       2.00690682E-22
   1.40999997      -4.34552307E-21
   1.47000003      -1.07835619E-20
   1.52999997      -1.54277230E-20
   1.59000003      -1.20749047E-20
   1.64999998       4.93739584E-21
   1.71000004       3.51227318E-20
   1.76999998       6.65161198E-20
   1.83000004       7.57555205E-20
   1.88999999       3.81077488E-20
   1.95000005      -5.34118696E-20
   2.00999999      -1.69596880E-19
   2.06999993      -2.43840489E-19
   2.13000011      -2.01354062E-19
   2.19000006      -1.41131601E-20
   2.25000000       2.49469168E-19
   2.30999994       4.27431830E-19
   2.36999989       3.51269433E-19
   2.43000007      -6.69411178E-21
   2.49000001      -4.20351009E-19
   2.54999995      -4.58692639E-19
   2.60999990       2.36939140E-19
   2.67000008       1.54209503E-18
   2.73000002       2.58397637E-18
   2.78999996       1.96114969E-18
   2.84999990      -1.40540954E-18
   2.91000009      -7.08229311E-18
   2.97000003      -1.23534817E-17
   3.02999997      -1.27584346E-17
   3.08999991      -4.32632418E-18
   3.15000010       1.31855609E-17
   3.21000004       3.38715472E-17
   3.26999998       4.62503812E-17
   3.32999992       3.79468047E-17
   3.39000010       3.25146046E-18
   3.45000005      -5.01878436E-17
   3.50999999      -1.00278305E-16
   3.56999993      -1.17910110E-16
   3.63000011      -8.13823168E-17
   3.69000006       8.66082172E-18
   3.75000000       1.22659820E-16
   3.80999994       2.10266162E-16
   3.86999989       2.22254775E-16
   3.93000007       1.36786332E-16
   3.99000001      -2.41111932E-17
   4.05000019      -1.98991121E-16
   4.11000013      -3.13144242E-16
   4.17000008      -3.14591345E-16
   4.23000002      -2.00680793E-16
   4.28999996      -1.94711798E-17
   4.34999990       1.56309965E-16
   4.40999985       2.68414947E-16
   4.46999979       3.01819386E-16
   4.53000021       2.84553995E-16
   4.59000015       2.57752682E-16
   4.65000010       2.35181424E-16
   4.71000004       1.81043459E-16
   4.76999998       2.61153873E-17
   4.82999992      -2.81211233E-16
   4.88999987      -7.16885435E-16
   4.94999981      -1.15359948E-15
   5.01000023      -1.38796280E-15
   5.07000017      -1.21729297E-15
   5.13000011      -5.32461004E-16
   5.19000006       6.16446544E-16
   5.25000000       2.00972458E-15
   5.30999994       3.30128190E-15
   5.36999989       4.09015481E-15
   5.42999983       3.99363414E-15
   5.48999977       2.71630062E-15
   5.55000019       1.33471243E-16
   5.61000013      -3.59108342E-15
   5.67000008      -7.86856508E-15
   5.73000002      -1.16038728E-14
   5.78999996      -1.32866511E-14
   5.84999990      -1.13529901E-14
   5.90999985      -4.81301612E-15
   5.96999979       6.02368582E-15
   6.03000021       1.90438604E-14
   6.09000015       3.04100515E-14
   6.15000010       3.54508937E-14
   6.21000004       3.02766099E-14
   6.26999998       1.36415732E-14
   6.32999992      -1.17205296E-14
   6.38999987      -3.90761337E-14
   6.44999981      -5.93975349E-14
   6.51000023      -6.45048861E-14
   6.57000017      -5.05794069E-14
   6.63000011      -2.05079213E-14
   6.69000006       1.63201700E-14
   6.75000000       4.72402438E-14
   6.80999994       6.16509000E-14
   6.86999989       5.62571128E-14
   6.92999983       3.75184774E-14
   6.98999977       1.93847691E-14
   7.05000019       1.63925219E-14
   7.11000013       3.46768072E-14
   7.17000008       6.52564008E-14
   7.23000002       8.39636723E-14
   7.28999996       6.01369676E-14
   7.34999990      -2.77674307E-14
   7.40999985      -1.75597018E-13
   7.46999979      -3.44166807E-13
   7.53000021      -4.64199588E-13
   7.59000015      -4.57691881E-13
   7.65000010      -2.70675680E-13
   7.71000004       9.43122940E-14
   7.76999998       5.60686046E-13
   7.82999992       9.86878656E-13
   7.88999987       1.20491182E-12
   7.94999981       1.07936446E-12
   8.01000023       5.67080237E-13
   8.06999969      -2.46326966E-13
   8.13000011      -1.15210847E-12
   8.18999958      -1.87134769E-12
   8.25000000      -2.14235791E-12
   8.31000042      -1.81413435E-12
   8.36999989      -9.11450602E-13
   8.43000031       3.55692824E-13
   8.48999977       1.64673375E-12
   8.55000019       2.59383682E-12
   8.60999966       2.91864688E-12
   8.67000008       2.52043026E-12
   8.72999954       1.50312954E-12
   8.78999996       1.32006033E-13
   8.85000038      -1.26172824E-12
   8.90999985      -2.38909131E-12
   8.97000027      -3.08052173E-12
   9.02999973      -3.30262532E-12
   9.09000015      -3.11287389E-12
   9.14999962      -2.58015983E-12
   9.21000004      -1.71672095E-12
   9.27000046      -4.63457940E-13
   9.32999992       1.25422578E-12
   9.39000034       3.41951923E-12
   9.44999981       5.81761549E-12
   9.51000023       7.99189881E-12
   9.56999969       9.30723727E-12
   9.63000011       9.12158196E-12
   9.68999958       7.01566106E-12
   9.75000000       2.99368191E-12
   9.81000042      -2.43500424E-12
   9.86999989      -8.34607296E-12
   9.93000031      -1.36487878E-11
   9.98999977      -1.74099606E-11
   10.0500002      -1.91279787E-11
   10.1099997      -1.88380284E-11
   10.1700001      -1.69878174E-11
   10.2299995      -1.41130822E-11
   10.2900000      -1.04294559E-11
   10.3500004      -5.50385345E-12
   10.4099998       1.84674671E-12
   10.4700003       1.33586085E-11
   10.5299997       3.08666183E-11
   10.5900002       5.57344934E-11
   10.6499996       8.83652387E-11
   10.7100000       1.27968539E-10
   10.7700005       1.72675207E-10
   10.8299999       2.19966698E-10
   10.8900003       2.67276673E-10
   10.9499998       3.12561310E-10
   11.0100002       3.54651974E-10
   11.0699997       3.93285682E-10
   11.1300001       4.28828584E-10
   11.1899996       4.61814670E-10
   11.2500000       4.92477392E-10
   11.3100004       5.20435750E-10
   11.3699999       5.44616463E-10
   11.4300003       5.63388947E-10
   11.4899998       5.74806813E-10
   11.5500002       5.76821757E-10
   11.6099997       5.67387692E-10
   11.6700001       5.44472190E-10
   11.7299995       5.06099551E-10
   11.7900000       4.50609716E-10
   11.8500004       3.77287701E-10
   11.9099998       2.87399687E-10
   11.9700003       1.85500296E-10
   12.0299997       8.07093628E-11
   12.0900002      -1.24316746E-11
   12.1499996      -7.38886938E-11
   12.2100000      -7.90716312E-11
   12.2700005      -7.87404538E-13
   12.3299999       1.88005042E-10
   12.3900003       5.11011400E-10
   12.4499998       9.85425186E-10
   12.5100002       1.61915159E-09
   12.5699997       2.40871656E-09
   12.6300001       3.33802164E-09
   12.6899996       4.37801084E-09
   12.7500000       5.48727064E-09
   12.8100004       6.61358701E-09
   12.8699999       7.69647990E-09
   12.9300003       8.67071925E-09
   12.9899998       9.47072643E-09
   13.0500002       1.00356301E-08
   13.1099997       1.03145315E-08
   13.1700001       1.02714175E-08
   13.2299995       9.88905313E-09
   13.2900000       9.17124776E-09
   13.3500004       8.14307555E-09
   13.4099998       6.84891344E-09
   13.4700003       5.34851052E-09
   13.5299997       3.71157793E-09
   13.5900002       2.01162176E-09
   13.6499996       3.19801408E-10
   13.7100000      -1.30045896E-09
   13.7700005      -2.79754198E-09
   13.8299999      -4.13404599E-09
   13.8900003      -5.28741673E-09
   13.9499998      -6.24888985E-09
   14.0100002      -7.02102154E-09
   14.0699997      -7.61420438E-09
   14.1300001      -8.04268030E-09
   14.1899996      -8.32062419E-09
   14.2500000      -8.45885051E-09
   14.3100004      -8.46266168E-09
   14.3699999      -8.33116154E-09
   14.4300003      -8.05815947E-09
   14.4899998      -7.63451968E-09
   14.5500002      -7.05155001E-09
   14.6099997      -6.30484953E-09
   14.6700001      -5.39796163E-09
   14.7299995      -4.34521974E-09
   14.7900000      -3.17333493E-09
   14.8500004      -1.92147409E-09
   14.9099998      -6.39794162E-10
   14.9700003       6.13430751E-10
   15.0299997       1.77585291E-09
   15.0900002       2.78596546E-09
   15.1499996       3.58855634E-09
   15.2100000       4.14031920E-09
   15.2700005       4.41516113E-09
   15.3299999       4.40863834E-09
   15.3900003       4.14085211E-09
   15.4499998       3.65709885E-09
   15.5100002       3.02566261E-09
   15.5699997       2.33237407E-09
   15.6300001       1.67203151E-09
   15.6899996       1.13736587E-09
   15.7500000       8.06918476E-10
   15.8100004       7.33765382E-10
   15.8699999       9.37308675E-10
   15.9300003       1.40014988E-09
   15.9899998       2.07129691E-09
   16.0499992       2.87570523E-09
   16.1100006       3.72867426E-09
   16.1700001       4.55232119E-09
   16.2299995       5.29062483E-09
   16.2900009       5.91967986E-09
   16.3500004       6.45086118E-09
   16.4099998       6.92628976E-09
   16.4699993       7.40791029E-09
   16.5300007       7.96301425E-09
   16.5900002       8.64983374E-09
   16.6499996       9.50659640E-09
   16.7099991       1.05463593E-08
   16.7700005       1.17582601E-08
   16.8299999       1.31141036E-08
   16.8899994       1.45778465E-08
   16.9500008       1.61149263E-08
   17.0100002       1.76986052E-08
   17.0699997       1.93116456E-08
   17.1299992       2.09431228E-08
   17.1900005       2.25818990E-08
   17.2500000       2.42094629E-08
   17.3099995       2.57951989E-08
   17.3700008       2.72965064E-08
   17.4300003       2.86646351E-08
   17.4899998       2.98550447E-08
   17.5499992       3.08394164E-08
   17.6100006       3.16153859E-08
   17.6700001       3.22105116E-08
   17.7299995       3.26784431E-08
   17.7900009       3.30877263E-08
   17.8500004       3.35060122E-08
   17.9099998       3.39840192E-08
   17.9699993       3.45438913E-08
   18.0300007       3.51752725E-08
   18.0900002       3.58401699E-08
   18.1499996       3.64849626E-08
   18.2099991       3.70559583E-08
   18.2700005       3.75139564E-08
   18.3299999       3.78438330E-08
   18.3899994       3.80568892E-08
   18.4500008       3.81857816E-08
   18.5100002       3.82740772E-08
   18.5699997       3.83634919E-08
   18.6299992       3.84823977E-08
   18.6900005       3.86382659E-08
   18.7500000       3.88156742E-08
   18.8099995       3.89797528E-08
   18.8700008       3.90837229E-08
   18.9300003       3.90782517E-08
   18.9899998       3.89200032E-08
   19.0499992       3.85773617E-08
   19.1100006       3.80321197E-08
   19.1700001       3.72773741E-08
   19.2299995       3.63130574E-08
   19.2900009       3.51411771E-08
   19.3500004       3.37628308E-08
   19.4099998       3.21781606E-08
   19.4699993       3.03890708E-08
   19.5300007       2.84031696E-08
   19.5900002       2.62368403E-08
   19.6499996       2.39154652E-08
   19.7099991       2.14700577E-08
   19.7700005       1.89311642E-08
   19.8299999       1.63222129E-08
   19.8899994       1.36551375E-08
   19.9500008       1.09305196E-08
   20.0100002       8.14308621E-09
   20.0699997       5.29142774E-09
   20.1299992       2.38918196E-09
   20.1900005      -5.25937849E-10
   20.2500000      -3.38860118E-09
   20.3099995      -6.10978912E-09
   20.3700008      -8.58814886E-09
   20.4300003      -1.07265574E-08
   20.4899998      -1.24500197E-08
   20.5499992      -1.37202578E-08
   20.6100006      -1.45429517E-08
   20.6700001      -1.49652699E-08
   20.7299995      -1.50639998E-08
   20.7900009      -1.49272861E-08
   20.8500004      -1.46351153E-08
   20.9099998      -1.42443071E-08
   20.9699993      -1.37825813E-08
   21.0300007      -1.32535165E-08
   21.0900002      -1.26505526E-08
   21.1499996      -1.19750148E-08
   21.2099991      -1.12514202E-08
   21.2700005      -1.05339639E-08
   21.3299999      -9.90090587E-09
   21.3899994      -9.43782474E-09
   21.4500008      -9.21488486E-09
   21.5100002      -9.26590982E-09
   21.5699997      -9.57712043E-09
   21.6299992      -1.00905897E-08
   21.6900005      -1.07226521E-08
   21.7500000      -1.13922045E-08
   21.8099995      -1.20498527E-08
   21.8700008      -1.26978339E-08
   21.9300003      -1.33929925E-08
   21.9899998      -1.42303964E-08
   22.0499992      -1.53116186E-08
   22.1100006      -1.67072347E-08
   22.1700001      -1.84256539E-08
   22.2299995      -2.03990957E-08
   22.2900009      -2.24924985E-08
   22.3500004      -2.45341010E-08
   22.4099998      -2.63594888E-08
   22.4699993      -2.78562240E-08
   22.5300007      -2.89955189E-08
   22.5900002      -2.98407947E-08
   22.6499996      -3.05296624E-08
   22.7099991      -3.12338742E-08
   22.7700005      -3.21085949E-08
   22.8299999      -3.32460601E-08
   22.8899994      -3.46477442E-08
   22.9500008      -3.62238097E-08
   23.0100002      -3.78203708E-08
   23.0699997      -3.92664994E-08
   23.1299992      -4.04263183E-08
   23.1900005      -4.12400567E-08
   23.2500000      -4.17409680E-08
   23.3099995      -4.20426538E-08
   23.3700008      -4.23006838E-08
   23.4300003      -4.26602966E-08
   23.4899998      -4.32064553E-08
   23.5499992      -4.39315322E-08
   23.6100006      -4.47306014E-08
   23.6700001      -4.54256153E-08
   23.7299995      -4.58112837E-08
   23.7900009      -4.57089300E-08
   23.8500004      -4.50128397E-08
   23.9099998      -4.37161134E-08
   23.9699993      -4.19098392E-08
   24.0300007      -3.97573316E-08
   24.0900002      -3.74526010E-08
   24.1499996      -3.51761038E-08
   24.2099991      -3.30604735E-08
   24.2700005      -3.11747037E-08
   24.3299999      -2.95287084E-08
   24.3899994      -2.80935328E-08
   24.4500008      -2.68282729E-08
   24.5100002      -2.57037112E-08
   24.5699997      -2.47151331E-08
   24.6299992      -2.38814266E-08
   24.6900005      -2.32326869E-08
   24.7500000      -2.27923795E-08
   24.8099995      -2.25615686E-08
   24.8700008      -2.25114363E-08
   24.9300003      -2.25870114E-08
   24.9899998      -2.27208226E-08
   25.0499992      -2.28516619E-08
   25.1100006      -2.29418671E-08
   25.1700001      -2.29872565E-08
   25.2299995      -2.30165025E-08
   25.2900009      -2.30805401E-08
   25.3500004      -2.32359678E-08
   25.4099998      -2.35282460E-08
   25.4699993      -2.39801388E-08
   25.5300007      -2.45886991E-08
   25.5900002      -2.53310191E-08
   25.6499996      -2.61761439E-08
   25.7099991      -2.70988814E-08
   25.7700005      -2.80910921E-08
   25.8299999      -2.91670847E-08
   25.8899994      -3.03617185E-08
   25.9500008      -3.17217150E-08
   26.0100002      -3.32925865E-08
   26.0699997      -3.51045877E-08
   26.1299992      -3.71614526E-08
   26.1900005      -3.94350579E-08
   26.2500000      -4.18676258E-08
   26.3099995      -4.43809931E-08
   26.3700008      -4.68905981E-08
   26.4300003      -4.93203274E-08
   26.4899998      -5.16144212E-08
   26.5499992      -5.37435056E-08
   26.6100006      -5.57038540E-08
   26.6700001      -5.75108281E-08
   26.7299995      -5.91889915E-08
   26.7900009      -6.07617920E-08
   26.8500004      -6.22432381E-08
   26.9099998      -6.36330242E-08
   26.9699993      -6.49154543E-08
   27.0300007      -6.60615171E-08
   27.0900002      -6.70331772E-08
   27.1499996      -6.77887542E-08
   27.2099991      -6.82884860E-08
   27.2700005      -6.84994461E-08
   27.3299999      -6.83994230E-08
   27.3899994      -6.79793644E-08
   27.4500008      -6.72440663E-08
   27.5100002      -6.62110722E-08
   27.5699997      -6.49077876E-08
   27.6299992      -6.33674588E-08
   27.6900005      -6.16250944E-08
   27.7500000      -5.97145373E-08
   27.8099995      -5.76680890E-08
   27.8700008      -5.55190454E-08
   27.9300003      -5.33065609E-08
   27.9899998      -5.10808285E-08
   28.0499992      -4.89059531E-08
   28.1100006      -4.68581725E-08
   28.1700001      -4.50183535E-08
   28.2299995      -4.34599201E-08
   28.2900009      -4.22353139E-08
   28.3500004      -4.13652401E-08
   28.4099998      -4.08345500E-08
   28.4699993      -4.05966745E-08
   28.5300007      -4.05857215E-08
   28.5900002      -4.07324485E-08
   28.6499996      -4.09788434E-08
   28.7099991      -4.12861461E-08
   28.7700005      -4.16334025E-08
   28.8299999      -4.20070947E-08
   28.8899994      -4.23858495E-08
   28.9500008      -4.27265157E-08
   29.0100002      -4.29579430E-08
   29.0699997      -4.29862759E-08
   29.1299992      -4.27117222E-08
   29.1900005      -4.20522319E-08
   29.2500000      -4.09668530E-08
   29.3099995      -3.94709083E-08
   29.3700008      -3.76376015E-08
   29.4300003      -3.55849359E-08
   29.4899998      -3.34514851E-08
   29.5499992      -3.13682094E-08
   29.6100006      -2.94344460E-08
   29.6700001      -2.77048198E-08
   29.7299995      -2.61900031E-08
   29.7900009      -2.48699177E-08
   29.8500004      -2.37142039E-08
   29.9099998      -2.27028369E-08
   29.9699993      -2.18402523E-08
   30.0300007      -2.11586677E-08
   30.0900002      -2.07100292E-08
   30.1499996      -2.05495514E-08
   30.2099991      -2.07163566E-08
   30.2700005      -2.12174847E-08
   30.3299999      -2.20202345E-08
   30.3899994      -2.30552644E-08
   30.4500008      -2.42294540E-08
   30.5100002      -2.54448196E-08
   30.5699997      -2.66180340E-08
   30.6299992      -2.76952594E-08
   30.6900005      -2.86585156E-08
   30.7500000      -2.95224467E-08
   30.8099995      -3.03230543E-08
   30.8700008      -3.11021822E-08
   30.9300003      -3.18923554E-08
   30.9899998      -3.27060903E-08
   31.0499992      -3.35321424E-08
   31.1100006      -3.43389104E-08
   31.1700001      -3.50829978E-08
   31.2299995      -3.57199212E-08
   31.2900009      -3.62135246E-08
   31.3500004      -3.65419304E-08
   31.4099998      -3.66992019E-08
   31.4699993      -3.66936312E-08
   31.5300007      -3.65443640E-08
   31.5900002      -3.62782444E-08
   31.6499996      -3.59278758E-08
   31.7099991      -3.55307961E-08
   31.7700005      -3.51286822E-08
   31.8299999      -3.47651579E-08
   31.8899994      -3.44813706E-08
   31.9500008      -3.43095365E-08
   32.0099983      -3.42659412E-08
   32.0699997      -3.43455930E-08
   32.1300011      -3.45206601E-08
   32.1899986      -3.47438167E-08
   32.2500000      -3.49561269E-08
   32.3100014      -3.50974574E-08
   32.3699989      -3.51165532E-08
   32.4300003      -3.49779974E-08
   32.4900017      -3.46642182E-08
   32.5499992      -3.41725155E-08
   32.6100006      -3.35087584E-08
   32.6699982      -3.26805001E-08
   32.7299995      -3.16924762E-08
   32.7900009      -3.05462926E-08
   32.8499985      -2.92445446E-08
   32.9099998      -2.77974124E-08
   32.9700012      -2.62286424E-08
   33.0299988      -2.45775151E-08
   33.0900002      -2.28946622E-08
   33.1500015      -2.12319442E-08
   33.2099991      -1.96292191E-08
   33.2700005      -1.81026429E-08
   33.3300018      -1.66394489E-08
   33.3899994      -1.52023247E-08
   33.4500008      -1.37433132E-08
   33.5099983      -1.22234010E-08
   33.5699997      -1.06313545E-08
   33.6300011      -8.99480668E-09
   33.6899986      -7.37868611E-09
   33.7500000      -5.87014659E-09
   33.8100014      -4.55387505E-09
   33.8699989      -3.48539730E-09
   33.9300003      -2.67129274E-09
   33.9900017      -2.06357376E-09
   34.0499992      -1.57119040E-09
   34.1100006      -1.08608000E-09
   34.1699982      -5.16151344E-10
   34.2299995       1.85181176E-10
   34.2900009       1.00274855E-09
   34.3499985       1.86261406E-09
   34.4099998       2.65413003E-09
   34.4700012       3.26451177E-09
   34.5299988       3.61489239E-09
   34.5900002       3.68586917E-09
   34.6500015       3.52367380E-09
   34.7099991       3.22433613E-09
   34.7700005       2.90056357E-09
   34.8300018       2.64201261E-09
   34.8899994       2.48210119E-09
   34.9500008       2.38260656E-09
   35.0099983       2.24157337E-09
   35.0699997       1.92244087E-09
   35.1300011       1.29530053E-09
   35.1899986       2.77168122E-10
   35.2500000      -1.14153043E-09
   35.3100014      -2.89254198E-09
   35.3699989      -4.84848384E-09
   35.4300003      -6.85824419E-09
   35.4900017      -8.78746675E-09
   35.5499992      -1.05513553E-08
   35.6100006      -1.21301573E-08
   35.6699982      -1.35639215E-08
   35.7299995      -1.49301638E-08
   35.7900009      -1.63133684E-08
   35.8499985      -1.77771184E-08
   35.9099998      -1.93476737E-08
   35.9700012      -2.10129389E-08
   36.0299988      -2.27350476E-08
   36.0900002      -2.44701592E-08
   36.1500015      -2.61871733E-08
   36.2099991      -2.78782100E-08
   36.2700005      -2.95573397E-08
   36.3300018      -3.12487316E-08
   36.3899994      -3.29694743E-08
   36.4500008      -3.47143789E-08
   36.5099983      -3.64493395E-08
   36.5699997      -3.81166281E-08
   36.6300011      -3.96508248E-08
   36.6899986      -4.09996836E-08
   36.7500000      -4.21418953E-08
   36.8100014      -4.30944382E-08
   36.8699989      -4.39057395E-08
   36.9300003      -4.46362591E-08
   36.9900017      -4.53330316E-08
   37.0499992      -4.60073508E-08
   37.1100006      -4.66240735E-08
   37.1699982      -4.71071964E-08
   37.2299995      -4.73606967E-08
   37.2900009      -4.72983999E-08
   37.3499985      -4.68732360E-08
   37.4099998      -4.60961367E-08
   37.4700012      -4.50377655E-08
   37.5299988      -4.38115855E-08
   37.5900002      -4.25425029E-08
   37.6500015      -4.13303276E-08
   37.7099991      -4.02193869E-08
   37.7700005      -3.91843820E-08
   37.8300018      -3.81378982E-08
   37.8899994      -3.69581201E-08
   37.9500008      -3.55285543E-08
   38.0099983      -3.37771482E-08
   38.0699997      -3.17019371E-08
   38.1300011      -2.93746929E-08
   38.1899986      -2.69213185E-08
   38.2500000      -2.44857130E-08
   38.3100014      -2.21892691E-08
   38.3699989      -2.00993462E-08
   38.4300003      -1.82165962E-08
   38.4900017      -1.64842362E-08
   38.5499992      -1.48149519E-08
   38.6100006      -1.31255531E-08
   38.6699982      -1.13674714E-08
   38.7299995      -9.54339452E-09
   38.7900009      -7.70537767E-09
   38.8499985      -5.93620042E-09
   38.9099998      -4.32122826E-09
   38.9700012      -2.92092084E-09
   39.0299988      -1.75353421E-09
   39.0900002      -7.93767996E-10
   39.1500015       1.26690984E-11
   39.2099991       7.24289573E-10
   39.2700005       1.37820244E-09
   39.3300018       1.97318339E-09
   39.3899994       2.46765652E-09
   39.4500008       2.79315904E-09
   39.5099983       2.87803981E-09
   39.5699997       2.67232436E-09
   39.6300011       2.16436202E-09
   39.6899986       1.38306822E-09
   39.7500000       3.85071364E-10
   39.8100014      -7.68239750E-10
   39.8699989      -2.03497019E-09
   39.9300003      -3.40897666E-09
   39.9900017      -4.92172836E-09
   40.0499992      -6.62866606E-09
   40.1100006      -8.58476934E-09
   40.1699982      -1.08182752E-08
   40.2299995      -1.33125457E-08
   40.2900009      -1.60034848E-08
   40.3499985      -1.87944060E-08
   40.4099998      -2.15837570E-08
   40.4700012      -2.42960816E-08
   40.5299988      -2.69048872E-08
   40.5900002      -2.94386773E-08
   40.6500015      -3.19672644E-08
   40.7099991      -3.45726114E-08
   40.7700005      -3.73141411E-08
   40.8300018      -4.02005611E-08
   40.8899994      -4.31780158E-08
   40.9500008      -4.61388794E-08
   41.0099983      -4.89482126E-08
   41.0699997      -5.14793079E-08
   41.1300011      -5.36466054E-08
   41.1899986      -5.54255735E-08
   41.2500000      -5.68535903E-08
   41.3100014      -5.80121409E-08
   41.3699989      -5.89968110E-08
   41.4300003      -5.98852523E-08
   41.4900017      -6.07137380E-08
   41.5499992      -6.14694926E-08
   41.6100006      -6.21006109E-08
   41.6699982      -6.25390868E-08
   41.7299995      -6.27282901E-08
   41.7900009      -6.26450927E-08
   41.8499985      -6.23091765E-08
   41.9099998      -6.17771505E-08
   41.9700012      -6.11245525E-08
   42.0299988      -6.04227708E-08
   42.0900002      -5.97189782E-08
   42.1500015      -5.90255453E-08
   42.2099991      -5.83214081E-08
   42.2700005      -5.75636321E-08
   42.3300018      -5.67045220E-08
   42.3899994      -5.57082593E-08
   42.4500008      -5.45621219E-08
   42.5099983      -5.32794004E-08
   42.5699997      -5.18940979E-08
   42.6300011      -5.04497137E-08
   42.6899986      -4.89861272E-08
   42.7500000      -4.75288608E-08
   42.8100014      -4.60841250E-08
   42.8699989      -4.46410482E-08
   42.9300003      -4.31800729E-08
   42.9900017      -4.16842276E-08
   43.0499992      -4.01488727E-08
   43.1100006      -3.85859558E-08
   43.1699982      -3.70209392E-08
   43.2299995      -3.54834881E-08
   43.2900009      -3.39957467E-08
   43.3499985      -3.25632428E-08
   43.4099998      -3.11725898E-08
   43.4700012      -2.97975742E-08
   43.5299988      -2.84116730E-08
   43.5900002      -2.70023151E-08
   43.6500015      -2.55813717E-08
   43.7099991      -2.41875995E-08
   43.7700005      -2.28798509E-08
   43.8300018      -2.17232987E-08
   43.8899994      -2.07734470E-08
   43.9500008      -2.00634158E-08
   44.0099983      -1.95986019E-08
   44.0699997      -1.93600584E-08
   44.1300011      -1.93149141E-08
   44.1899986      -1.94298462E-08
   44.2500000      -1.96829752E-08
   44.3100014      -2.00703596E-08
   44.3699989      -2.06055368E-08
   44.4300003      -2.13130509E-08
   44.4900017      -2.22189200E-08
   44.5499992      -2.33417889E-08
   44.6100006      -2.46879193E-08
   44.6699982      -2.62512110E-08
   44.7299995      -2.80173680E-08
   44.7900009      -2.99694669E-08
   44.8499985      -3.20917195E-08
   44.9099998      -3.43691937E-08
   44.9700012      -3.67832591E-08
   45.0299988      -3.93048083E-08
   45.0900002      -4.18888639E-08
   45.1500015      -4.44741559E-08
   45.2099991      -4.69895696E-08
   45.2700005      -4.93668253E-08
   45.3300018      -5.15557446E-08
   45.3899994      -5.35367803E-08
   45.4500008      -5.53257671E-08
   45.5099983      -5.69678562E-08
   45.5699997      -5.85215645E-08
   45.6300011      -6.00374648E-08
   45.6899986      -6.15387918E-08
   45.7500000      -6.30110932E-08
   45.8100014      -6.44054623E-08
   45.8699989      -6.56550938E-08
   45.9300003      -6.67000819E-08
   45.9900017      -6.75120049E-08
   46.0499992      -6.81096211E-08
   46.1100006      -6.85599133E-08
   46.1699982      -6.89637432E-08
   46.2299995      -6.94307900E-08
   46.2900009      -7.00518754E-08
   46.3499985      -7.08777961E-08
   46.4099998      -7.19117281E-08
   46.4700012      -7.31177749E-08
   46.5299988      -7.44438040E-08
   46.5900002      -7.58520144E-08
   46.6500015      -7.73485525E-08
   46.7099991      -7.90033852E-08
   46.7700005      -8.09543366E-08
   46.8300018      -8.33935943E-08
   46.8899994      -8.65408794E-08
   46.9500008      -9.06115716E-08
   47.0099983      -9.57906394E-08
   47.0699997      -1.02221399E-07
   47.1300011      -1.10014014E-07
   47.1899986      -1.19271704E-07
   47.2500000      -1.30127532E-07
   47.3100014      -1.42781005E-07
   47.3699989      -1.57524696E-07
   47.4300003      -1.74754661E-07
   47.4900017      -1.94964457E-07
   47.5499992      -2.18727720E-07
   47.6100006      -2.46678610E-07
   47.6699982      -2.79499403E-07
   47.7299995      -3.17923451E-07
   47.7900009      -3.62756282E-07
   47.8499985      -4.14912620E-07
   47.9099998      -4.75462144E-07
   47.9700012      -5.45673515E-07
   48.0299988      -6.27048053E-07
   48.0900002      -7.21337130E-07
   48.1500015      -8.30543854E-07
   48.2099991      -9.56914391E-07
   48.2700005      -1.10292922E-06
   48.3300018      -1.27130340E-06
   48.3899994      -1.46500270E-06
   48.4500008      -1.68727775E-06
   48.5099983      -1.94171344E-06
   48.5699997      -2.23228790E-06
   48.6300011      -2.56343378E-06
   48.6899986      -2.94009010E-06
   48.7500000      -3.36774247E-06
   48.8100014      -3.85244857E-06
   48.8699989      -4.40084659E-06
   48.9300003      -5.02015928E-06
   48.9900017      -5.71819282E-06
   49.0499992      -6.50334550E-06
   49.1100006      -7.38462495E-06
   49.1699982      -8.37167590E-06
   49.2299995      -9.47482386E-06
   49.2900009      -1.07051028E-05
   49.3499985      -1.20742943E-05
   49.4099998      -1.35949385E-05
   49.4700012      -1.52803514E-05
   49.5299988      -1.71446063E-05
   49.5900002      -1.92025200E-05
   49.6500015      -2.14696083E-05
   49.7099991      -2.39620276E-05
   49.7700005      -2.66965271E-05
   49.8300018      -2.96903672E-05
   49.8899994      -3.29612376E-05
   49.9500008      -3.65271808E-05
   50.0099983      -4.04065031E-05
   50.0699997      -4.46176855E-05
   50.1300011      -4.91792598E-05
   50.1899986      -5.41097106E-05
   50.2500000      -5.94273479E-05
   50.3100014      -6.51501541E-05
   50.3699989      -7.12956098E-05
   50.4300003      -7.78805406E-05
   50.4900017      -8.49208955E-05
   50.5499992      -9.24315609E-05
   50.6100006      -1.00426150E-04