 -0.750000000       0.00000000    
 -0.689999998       0.00000000    
 -0.629999995       0.00000000    
 -0.569999993       0.00000000    
 -0.509999990       0.00000000    
 -0.449999988       0.00000000    
 -0.389999986       0.00000000    
 -0.330000013       0.00000000    
 -0.270000011       0.00000000    
 -0.209999993       0.00000000    
 -0.150000006       2.07433587E-31
  -9.00000036E-02   1.08547481E-29
  -2.99999993E-02   1.38057857E-28
   2.99999993E-02   9.36507798E-28
   9.00000036E-02   4.08167533E-27
  0.150000006       1.18469952E-26
  0.209999993       1.96856079E-26
  0.270000011      -7.13200978E-27
  0.330000013      -1.68817873E-25
  0.389999986      -6.19964306E-25
  0.449999988      -1.36149030E-24
  0.509999990      -1.66451820E-24
  0.569999993       7.34083883E-25
  0.629999995       9.64093891E-24
  0.689999998       2.74473581E-23
  0.750000000       4.71345937E-23
  0.810000002       4.11269919E-23
  0.870000005      -4.19164113E-23
  0.930000007      -2.51136659E-22
  0.990000010      -5.59680682E-22
   1.04999995      -7.58377957E-22
   1.11000001      -4.02529113E-22
   1.16999996       1.03266310E-21
   1.23000002       3.65472709E-21
   1.28999996       6.40151966E-21
   1.35000002       6.54493695E-21
   1.40999997       3.58252156E-22
   1.47000003      -1.42708382E-20
   1.52999997      -3.36474261E-20
   1.59000003      -4.49820817E-20
   1.64999998      -2.84162907E-20
   1.71000004       3.17440835E-20
   1.76999998       1.27697959E-19
   1.83000004       2.10902609E-19
   1.88999999       1.95303999E-19
   1.95000005      -1.99699878E-21
   2.00999999      -3.84372839E-19
   2.06999993      -7.99367440E-19
   2.13000011      -9.29804982E-19
   2.19000006      -4.18159057E-19
   2.25000000       8.70386427E-19
   2.30999994       2.55439122E-18
   2.36999989       3.63084767E-18
   2.43000007       2.78842130E-18
   2.49000001      -7.99736569E-19
   2.54999995      -6.48261611E-18
   2.60999990      -1.15705304E-17
   2.67000008      -1.19358697E-17
   2.73000002      -4.09787178E-18
   2.78999996       1.18008887E-17
   2.84999990       2.97596192E-17
   2.91000009       3.85205537E-17
   2.97000003       2.62984688E-17
   3.02999997      -1.12753957E-17
   3.08999991      -6.37157771E-17
   3.15000010      -1.04214513E-16
   3.21000004      -9.84868369E-17
   3.26999998      -2.35840906E-17
   3.32999992       1.10578212E-16
   3.39000010       2.49795337E-16
   3.45000005       3.06948435E-16
   3.50999999       2.00416691E-16
   3.56999993      -9.14899345E-17
   3.63000011      -4.86531225E-16
   3.69000006      -7.97384217E-16
   3.75000000      -7.94281906E-16
   3.80999994      -3.22906297E-16
   3.86999989       5.68305056E-16
   3.93000007       1.56318988E-15
   3.99000001       2.14118049E-15
   4.05000019       1.78755821E-15
   4.11000013       2.91236000E-16
   4.17000008      -2.00503414E-15
   4.23000002      -4.16548484E-15
   4.28999996      -4.94227081E-15
   4.34999990      -3.34688256E-15
   4.40999985       6.94421486E-16
   4.46999979       5.93653671E-15
   4.53000021       9.98723673E-15
   4.59000015       1.01810455E-14
   4.65000010       4.93720047E-15
   4.71000004      -4.96778852E-15
   4.76999998      -1.59460407E-14
   4.82999992      -2.25109729E-14
   4.88999987      -1.95493934E-14
   4.94999981      -5.19703883E-15
   5.01000023       1.70319386E-14
   5.07000017       3.82670241E-14
   5.13000011       4.71661521E-14
   5.19000006       3.50624342E-14
   5.25000000       1.35977312E-15
   5.30999994      -4.36088679E-14
   5.36999989      -8.05601923E-14
   5.42999983      -8.85062897E-14
   5.48999977      -5.50375819E-14
   5.55000019       1.48406203E-14
   5.61000013       9.63276361E-14
   5.67000008       1.51943874E-13
   5.73000002       1.47078205E-13
   5.78999996       6.82440758E-14
   5.84999990      -6.45824607E-14
   5.90999985      -1.99356170E-13
   5.96999979      -2.69852310E-13
   6.03000021      -2.25105199E-13
   6.09000015      -5.83986188E-14
   6.15000010       1.78804928E-13
   6.21000004       3.88435920E-13
   6.26999998       4.62954707E-13
   6.32999992       3.35415100E-13
   6.38999987       2.06793252E-14
   6.44999981      -3.74237913E-13
   6.51000023      -6.82110618E-13
   6.57000017      -7.42772651E-13
   6.63000011      -4.80188643E-13
   6.69000006       4.58555279E-14
   6.75000000       6.42930208E-13
   6.80999994       1.05242638E-12
   6.86999989       1.05880864E-12
   6.92999983       5.97089760E-13
   6.98999977      -1.92739488E-13
   7.05000019      -9.98776257E-13
   7.11000013      -1.45613307E-12
   7.17000008      -1.30902136E-12
   7.23000002      -5.46143859E-13
   7.28999996       5.58515419E-13
   7.34999990       1.53293068E-12
   7.40999985       1.90025513E-12
   7.46999979       1.40275226E-12
   7.53000021       1.55689833E-13
   7.59000015      -1.35135284E-12
   7.65000010      -2.42883860E-12
   7.71000004      -2.48173530E-12
   7.76999998      -1.30476782E-12
   7.82999992       7.58214563E-13
   7.88999987       2.88416448E-12
   7.94999981       4.07157381E-12
   8.01000023       3.56879608E-12
   8.06999969       1.25517923E-12
   8.13000011      -2.20164533E-12
   8.18999958      -5.51197846E-12
   8.25000000      -7.22299304E-12
   8.31000042      -6.30787870E-12
   8.36999989      -2.64808488E-12
   8.43000031       2.80700008E-12
   8.48999977       8.30105342E-12
   8.55000019       1.18796865E-11
   8.60999966       1.21202588E-11
   8.67000008       8.68770073E-12
   8.72999954       2.47629629E-12
   8.78999996      -4.73882175E-12
   8.85000038      -1.10077537E-11
   8.90999985      -1.49712881E-11
   8.97000027      -1.63424968E-11
   9.02999973      -1.58667975E-11
   9.09000015      -1.47453681E-11
   9.14999962      -1.37581769E-11
   9.21000004      -1.24943918E-11
   9.27000046      -9.10532500E-12
   9.32999992      -8.17190554E-13
   9.39000034       1.48655498E-11
   9.44999981       3.86534797E-11
   9.51000023       6.82452428E-11
   9.56999969       9.79417242E-11
   9.63000011       1.19410398E-10
   9.68999958       1.23506677E-10
   9.75000000       1.02658174E-10
   9.81000042       5.30810465E-11
   9.86999989      -2.38685530E-11
   9.93000031      -1.21594956E-10
   9.98999977      -2.29331679E-10
   10.0500002      -3.33850558E-10
   10.1099997      -4.21058272E-10
   10.1700001      -4.76830575E-10
   10.2299995      -4.86843621E-10
   10.2900000      -4.35715353E-10
   10.3500004      -3.06226211E-10
   10.4099998      -7.95290084E-11
   10.4700003       2.63017358E-10
   10.5299997       7.36378181E-10
   10.5900002       1.34745848E-09
   10.6499996       2.09107198E-09
   10.7100000       2.94762859E-09
   10.7700005       3.88348642E-09
   10.8299999       4.85408114E-09
   10.8900003       5.80904302E-09
   10.9499998       6.69785916E-09
   11.0100002       7.47456141E-09
   11.0699997       8.10041367E-09
   11.1300001       8.54449933E-09
   11.1899996       8.78300899E-09
   11.2500000       8.79860007E-09
   11.3100004       8.58104610E-09
   11.3699999       8.12966672E-09
   11.4300003       7.45693107E-09
   11.4899998       6.59168942E-09
   11.5500002       5.58012658E-09
   11.6099997       4.48301574E-09
   11.6700001       3.36903505E-09
   11.7299995       2.30538544E-09
   11.7900000       1.34812117E-09
   11.8500004       5.34963740E-10
   11.9099998      -1.17284737E-10
   11.9700003      -6.10105633E-10
   12.0299997      -9.56553836E-10
   12.0900002      -1.17300336E-09
   12.1499996      -1.27231947E-09
   12.2100000      -1.26074029E-09
   12.2700005      -1.13919407E-09
   12.3299999      -9.07973585E-10
   12.3900003      -5.72362491E-10
   12.4499998      -1.46507612E-10
   12.5100002       3.46325774E-10
   12.5699997       8.77327155E-10
   12.6300001       1.41799805E-09
   12.6899996       1.94564564E-09
   12.7500000       2.44591747E-09
   12.8100004       2.91101476E-09
   12.8699999       3.33416272E-09
   12.9300003       3.70273612E-09
   12.9899998       3.99336697E-09
   13.0500002       4.17188639E-09
   13.1099997       4.19921298E-09
   13.1700001       4.04189171E-09
   13.2299995       3.68391184E-09
   13.2900000       3.13550830E-09
   13.3500004       2.43537879E-09
   13.4099998       1.64490932E-09
   13.4700003       8.35789937E-10
   13.5299997       7.47937892E-11
   13.5900002      -5.89513660E-10
   13.6499996      -1.13414833E-09
   13.7100000      -1.56145041E-09
   13.7700005      -1.89234517E-09
   13.8299999      -2.15655915E-09
   13.8900003      -2.38401077E-09
   13.9499998      -2.60055710E-09
   14.0100002      -2.82887802E-09
   14.0699997      -3.09258064E-09
   14.1300001      -3.41982243E-09
   14.1899996      -3.84273768E-09
   14.2500000      -4.39082593E-09
   14.3100004      -5.07945774E-09
   14.3699999      -5.89751803E-09
   14.4300003      -6.79959378E-09
   14.4899998      -7.70727748E-09
   14.5500002      -8.52123083E-09
   14.6099997      -9.14169895E-09
   14.6700001      -9.49172207E-09
   14.7299995      -9.53577484E-09
   14.7900000      -9.28776434E-09
   14.8500004      -8.80571083E-09
   14.9099998      -8.17500911E-09
   14.9700003      -7.48596740E-09
   15.0299997      -6.81306789E-09
   15.0900002      -6.20235907E-09
   15.1499996      -5.67005598E-09
   15.2100000      -5.21114485E-09
   15.2700005      -4.81320361E-09
   15.3299999      -4.46917214E-09
   15.3900003      -4.18384793E-09
   15.4499998      -3.97195032E-09
   15.5100002      -3.84935772E-09
   15.5699997      -3.82199383E-09
   15.6300001      -3.87774435E-09
   15.6899996      -3.98535827E-09
   15.7500000      -4.10125667E-09
   15.8100004      -4.18175805E-09
   15.8699999      -4.19589252E-09
   15.9300003      -4.13364987E-09
   15.9899998      -4.00629352E-09
   16.0499992      -3.83856458E-09
   16.1100006      -3.65588027E-09
   16.1700001      -3.47168116E-09
   16.2299995      -3.28008154E-09
   16.2900009      -3.05688985E-09
   16.3500004      -2.76874723E-09
   16.4099998      -2.38686382E-09
   16.4699993      -1.89995619E-09
   16.5300007      -1.32122180E-09
   16.5900002      -6.86473545E-10
   16.6499996      -4.39928510E-11
   16.7099991       5.60132218E-10
   16.7700005       1.09567966E-09
   16.8299999       1.55589874E-09
   16.8899994       1.95637595E-09
   16.9500008       2.32590214E-09
   17.0100002       2.69316480E-09
   17.0699997       3.07462900E-09
   17.1299992       3.46840690E-09
   17.1900005       3.85644805E-09
   17.2500000       4.21404067E-09
   17.3099995       4.52264315E-09
   17.3700008       4.78064432E-09
   17.4300003       5.00734343E-09
   17.4899998       5.23796029E-09
   17.5499992       5.51095702E-09
   17.6100006       5.85199178E-09
   17.6700001       6.26034025E-09
   17.7299995       6.70294886E-09
   17.7900009       7.11868298E-09
   17.8500004       7.43173123E-09
   17.9099998       7.56989138E-09
   17.9699993       7.48181872E-09
   18.0300007       7.14784143E-09
   18.0900002       6.58145938E-09
   18.1499996       5.82207171E-09
   18.2099991       4.92254504E-09
   18.2700005       3.93670962E-09
   18.3299999       2.91130497E-09
   18.3899994       1.88456029E-09
   18.4500008       8.90563401E-10
   18.5100002      -3.39323777E-11
   18.5699997      -8.44589065E-10
   18.6299992      -1.48982005E-09
   18.6900005      -1.91736760E-09
   18.7500000      -2.08523510E-09
   18.8099995      -1.97293448E-09
   18.8700008      -1.58845948E-09
   18.9300003      -9.67683156E-10
   18.9899998      -1.65564396E-10
   19.0499992       7.58391905E-10
   19.1100006       1.75569714E-09
   19.1700001       2.80011481E-09
   19.2299995       3.89056076E-09
   19.2900009       5.04451192E-09
   19.3500004       6.28413677E-09
   19.4099998       7.62002816E-09
   19.4699993       9.03839492E-09
   19.5300007       1.04964490E-08
   19.5900002       1.19278969E-08
   19.6499996       1.32568756E-08
   19.7099991       1.44157086E-08
   19.7700005       1.53605662E-08
   19.8299999       1.60799463E-08
   19.8899994       1.65935603E-08
   19.9500008       1.69426944E-08
   20.0100002       1.71760135E-08
   20.0699997       1.73361574E-08
   20.1299992       1.74516614E-08
   20.1900005       1.75364203E-08
   20.2500000       1.75957187E-08
   20.3099995       1.76354042E-08
   20.3700008       1.76697856E-08
   20.4300003       1.77245632E-08
   20.4899998       1.78333686E-08
   20.5499992       1.80290982E-08
   20.6100006       1.83332229E-08
   20.6700001       1.87470288E-08
   20.7299995       1.92479472E-08
   20.7900009       1.97923882E-08
   20.8500004       2.03242490E-08
   20.9099998       2.07867146E-08
   20.9699993       2.11340740E-08
   21.0300007       2.13407194E-08
   21.0900002       2.14054534E-08
   21.1499996       2.13507949E-08
   21.2099991       2.12181170E-08
   21.2700005       2.10603055E-08
   21.3299999       2.09337134E-08
   21.3899994       2.08909690E-08
   21.4500008       2.09754756E-08
   21.5100002       2.12179518E-08
   21.5699997       2.16348415E-08
   21.6299992       2.22282495E-08
   21.6900005       2.29871091E-08
   21.7500000       2.38892461E-08
   21.8099995       2.49040859E-08
   21.8700008       2.59955719E-08
   21.9300003       2.71247362E-08
   21.9899998       2.82513639E-08
   22.0499992       2.93344051E-08
   22.1100006       3.03312433E-08
   22.1700001       3.11965707E-08
   22.2299995       3.18818856E-08
   22.2900009       3.23367502E-08
   22.3500004       3.25122542E-08
   22.4099998       3.23664189E-08
   22.4699993       3.18703606E-08
   22.5300007       3.10137800E-08
   22.5900002       2.98083584E-08
   22.6499996       2.82883068E-08
   22.7099991       2.65083173E-08
   22.7700005       2.45395153E-08
   22.8299999       2.24645120E-08
   22.8899994       2.03722550E-08
   22.9500008       1.83530044E-08
   23.0100002       1.64933081E-08
   23.0699997       1.48707002E-08
   23.1299992       1.35480542E-08
   23.1900005       1.25680311E-08
   23.2500000       1.19485533E-08
   23.3099995       1.16805179E-08
   23.3700008       1.17288517E-08
   23.4300003       1.20373187E-08
   23.4899998       1.25365478E-08
   23.5499992       1.31537199E-08
   23.6100006       1.38217811E-08
   23.6700001       1.44861847E-08
   23.7299995       1.51080162E-08
   23.7900009       1.56636073E-08
   23.8500004       1.61418630E-08
   23.9099998       1.65409801E-08
   23.9699993       1.68657674E-08
   24.0300007       1.71258350E-08
   24.0900002       1.73338712E-08
   24.1499996       1.75029662E-08
   24.2099991       1.76425239E-08
   24.2700005       1.77535515E-08
   24.3299999       1.78253590E-08
   24.3899994       1.78358981E-08
   24.4500008       1.77570172E-08
   24.5100002       1.75637851E-08
   24.5699997       1.72449273E-08
   24.6299992       1.68101284E-08
   24.6900005       1.62905405E-08
   24.7500000       1.57311977E-08
   24.8099995       1.51772639E-08
   24.8700008       1.46589425E-08
   24.9300003       1.41810270E-08
   24.9899998       1.37217580E-08
   25.0499992       1.32424054E-08
   25.1100006       1.27047786E-08
   25.1700001       1.20906423E-08
   25.2299995       1.14159135E-08
   25.2900009       1.07341771E-08
   25.3500004       1.01278657E-08
   25.4099998       9.68986580E-09
   25.4699993       9.50160217E-09
   25.5300007       9.61459445E-09
   25.5900002       1.00408011E-08
   25.6499996       1.07535048E-08
   25.7099991       1.16967547E-08
   25.7700005       1.27987105E-08
   25.8299999       1.39837901E-08
   25.8899994       1.51800137E-08
   25.9500008       1.63206693E-08
   26.0100002       1.73419661E-08
   26.0699997       1.81798363E-08
   26.1299992       1.87689171E-08
   26.1900005       1.90453857E-08
   26.2500000       1.89533509E-08
   26.3099995       1.84528677E-08
   26.3700008       1.75267623E-08
   26.4300003       1.61837423E-08
   26.4899998       1.44563144E-08
   26.5499992       1.23936754E-08
   26.6100006       1.00513065E-08
   26.6700001       7.48018536E-09
   26.7299995       4.71889638E-09
   26.7900009       1.79116577E-09
   26.8500004      -1.29026811E-09
   26.9099998      -4.51475524E-09
   26.9699993      -7.86314036E-09
   27.0300007      -1.12997549E-08
   27.0900002      -1.47706256E-08
   27.1499996      -1.82093434E-08
   27.2099991      -2.15490008E-08
   27.2700005      -2.47360443E-08
   27.3299999      -2.77410006E-08
   27.3899994      -3.05620276E-08
   27.4500008      -3.32202177E-08
   27.5100002      -3.57486947E-08
   27.5699997      -3.81798095E-08
   27.6299992      -4.05349994E-08
   27.6900005      -4.28202576E-08
   27.7500000      -4.50274911E-08
   27.8099995      -4.71397250E-08
   27.8700008      -4.91370997E-08
   27.9300003      -5.10010914E-08
   27.9899998      -5.27160253E-08
   28.0499992      -5.42685044E-08
   28.1100006      -5.56463746E-08
   28.1700001      -5.68385019E-08
   28.2299995      -5.78359902E-08
   28.2900009      -5.86342210E-08
   28.3500004      -5.92347256E-08
   28.4099998      -5.96457568E-08
   28.4699993      -5.98810459E-08
   28.5300007      -5.99571166E-08
   28.5900002      -5.98897998E-08
   28.6499996      -5.96912599E-08
   28.7099991      -5.93682650E-08
   28.7700005      -5.89223319E-08
   28.8299999      -5.83515103E-08
   28.8899994      -5.76529331E-08
   28.9500008      -5.68250300E-08
   29.0100002      -5.58682807E-08
   29.0699997      -5.47841452E-08
   29.1299992      -5.35726130E-08
   29.1900005      -5.22296908E-08
   29.2500000      -5.07462410E-08
   29.3099995      -4.91092926E-08
   29.3700008      -4.73056616E-08
   29.4300003      -4.53269138E-08
   29.4899998      -4.31739657E-08
   29.5499992      -4.08599377E-08
   29.6100006      -3.84107857E-08
   29.6700001      -3.58639696E-08
   29.7299995      -3.32662111E-08
   29.7900009      -3.06709218E-08
   29.8500004      -2.81355170E-08
   29.9099998      -2.57179451E-08
   29.9699993      -2.34718538E-08
   30.0300007      -2.14403730E-08
   30.0900002      -1.96495495E-08
   30.1499996      -1.81033588E-08
   30.2099991      -1.67823693E-08
   30.2700005      -1.56472808E-08
   30.3299999      -1.46471040E-08
   30.3899994      -1.37301237E-08
   30.4500008      -1.28547546E-08
   30.5100002      -1.19974333E-08
   30.5699997      -1.11555183E-08
   30.6299992      -1.03447899E-08
   30.6900005      -9.59270530E-09
   30.7500000      -8.92980356E-09
   30.8099995      -8.38208081E-09
   30.8700008      -7.96669219E-09
   30.9300003      -7.69213315E-09
   30.9899998      -7.56231699E-09
   31.0499992      -7.58237295E-09
   31.1100006      -7.76310571E-09
   31.1700001      -8.12141021E-09
   31.2299995      -8.67549765E-09
   31.2900009      -9.43623668E-09
   31.3500004      -1.03979767E-08
   31.4099998      -1.15330350E-08
   31.4699993      -1.27929338E-08
   31.5300007      -1.41167513E-08
   31.5900002      -1.54437654E-08
   31.6499996      -1.67254779E-08
   31.7099991      -1.79321127E-08
   31.7700005      -1.90510185E-08
   31.8299999      -2.00779748E-08
   31.8899994      -2.10055351E-08
   31.9500008      -2.18139373E-08
   32.0099983      -2.24688392E-08
   32.0699997      -2.29271944E-08
   32.1300011      -2.31489494E-08
   32.1899986      -2.31099051E-08
   32.2500000      -2.28104806E-08
   32.3100014      -2.22769359E-08
   32.3699989      -2.15544453E-08
   32.4300003      -2.06946122E-08
   32.4900017      -1.97420000E-08
   32.5499992      -1.87246236E-08
   32.6100006      -1.76517929E-08
   32.6699982      -1.65198255E-08
   32.7299995      -1.53230797E-08
   32.7900009      -1.40655043E-08
   32.8499985      -1.27676048E-08
   32.9099998      -1.14656293E-08
   32.9700012      -1.02031850E-08
   33.0299988      -9.01898467E-09
   33.0900002      -7.93640442E-09
   33.1500015      -6.95972879E-09
   33.2099991      -6.07877926E-09
   33.2700005      -5.27937249E-09
   33.3300018      -4.55395055E-09
   33.3899994      -3.90645472E-09
   33.4500008      -3.34838224E-09
   33.5099983      -2.88767099E-09
   33.5699997      -2.51621635E-09
   33.6300011      -2.20320207E-09
   33.6899986      -1.89914595E-09
   33.7500000      -1.55053370E-09
   33.8100014      -1.11953435E-09
   33.8699989      -6.00177408E-10
   33.9300003      -2.31414471E-11
   33.9900017       5.54214175E-10
   34.0499992       1.06970355E-09
   34.1100006       1.48190482E-09
   34.1699982       1.78936965E-09
   34.2299995       2.03556305E-09
   34.2900009       2.29714292E-09
   34.3499985       2.65969802E-09
   34.4099998       3.18991789E-09
   34.4700012       3.91446431E-09
   34.5299988       4.81310902E-09
   34.5900002       5.82809800E-09
   34.6500015       6.88554325E-09
   34.7099991       7.92025201E-09
   34.7700005       8.89451446E-09
   34.8300018       9.80423920E-09
   34.8899994       1.06712212E-08
   34.9500008       1.15260219E-08
   35.0099983       1.23895507E-08
   35.0699997       1.32615163E-08
   35.1300011       1.41203591E-08
   35.1899986       1.49337875E-08
   35.2500000       1.56739954E-08
   35.3100014       1.63295422E-08
   35.3699989       1.69076237E-08
   35.4300003       1.74254229E-08
   35.4900017       1.78948945E-08
   35.5499992       1.83089277E-08
   35.6100006       1.86365057E-08
   35.6699982       1.88302209E-08
   35.7299995       1.88434512E-08
   35.7900009       1.86496258E-08
   35.8499985       1.82548199E-08
   35.9099998       1.76978858E-08
   35.9700012       1.70381131E-08
   36.0299988       1.63359299E-08
   36.0900002       1.56350133E-08
   36.1500015       1.49529455E-08
   36.2099991       1.42832679E-08
   36.2700005       1.36065346E-08
   36.3300018       1.29043025E-08
   36.3899994       1.21693278E-08
   36.4500008       1.14076313E-08
   36.5099983       1.06320961E-08
   36.5699997       9.85121140E-09
   36.6300011       9.05867115E-09
   36.6899986       8.22918178E-09
   36.7500000       7.32322247E-09
   36.8100014       6.29970698E-09
   36.8699989       5.13190335E-09
   36.9300003       3.82011844E-09
   36.9900017       2.39534925E-09
   37.0499992       9.11352438E-10
   37.1100006      -5.72770442E-10
   37.1699982      -2.01313899E-09
   37.2299995      -3.39664807E-09
   37.2900009      -4.74490980E-09
   37.3499985      -6.10457240E-09
   37.4099998      -7.52771179E-09
   37.4700012      -9.05032405E-09
   37.5299988      -1.06778781E-08
   37.5900002      -1.23838815E-08
   37.6500015      -1.41217935E-08
   37.7099991      -1.58448117E-08
   37.7700005      -1.75246804E-08
   37.8300018      -1.91612006E-08
   37.8899994      -2.07782271E-08
   37.9500008      -2.24078640E-08
   38.0099983      -2.40698412E-08
   38.0699997      -2.57551616E-08
   38.1300011      -2.74215228E-08
   38.1899986      -2.90030879E-08
   38.2500000      -3.04310284E-08
   38.3100014      -3.16566151E-08
   38.3699989      -3.26671632E-08
   38.4300003      -3.34880532E-08
   38.4900017      -3.41698012E-08
   38.5499992      -3.47655522E-08
   38.6100006      -3.53087906E-08
   38.6699982      -3.58010013E-08
   38.7299995      -3.62148711E-08
   38.7900009      -3.65119099E-08
   38.8499985      -3.66666661E-08
   38.9099998      -3.66869202E-08
   38.9700012      -3.66205022E-08
   39.0299988      -3.65452202E-08
   39.0900002      -3.65456074E-08
   39.1500015      -3.66856945E-08
   39.2099991      -3.69888262E-08
   39.2700005      -3.74324216E-08
   39.3300018      -3.79592713E-08
   39.3899994      -3.85003140E-08
   39.4500008      -3.89994774E-08
   39.5099983      -3.94309936E-08
   39.5699997      -3.98032043E-08
   39.6300011      -4.01489260E-08
   39.6899986      -4.05076293E-08
   39.7500000      -4.09074445E-08
   39.8100014      -4.13539460E-08
   39.8699989      -4.18290149E-08
   39.9300003      -4.22983213E-08
   39.9900017      -4.27227995E-08
   40.0499992      -4.30688019E-08
   40.1100006      -4.33136123E-08
   40.1699982      -4.34461960E-08
   40.2299995      -4.34655192E-08
   40.2900009      -4.33796110E-08
   40.3499985      -4.32069172E-08
   40.4099998      -4.29790958E-08
   40.4700012      -4.27424851E-08
   40.5299988      -4.25552464E-08
   40.5900002      -4.24790301E-08
   40.6500015      -4.25668603E-08
   40.7099991      -4.28512053E-08
   40.7700005      -4.33368790E-08
   40.8300018      -4.40017338E-08
   40.8899994      -4.48050628E-08
   40.9500008      -4.57003999E-08
   41.0099983      -4.66476990E-08
   41.0699997      -4.76202011E-08
   41.1300011      -4.86037202E-08
   41.1899986      -4.95894703E-08
   41.2500000      -5.05641857E-08
   41.3100014      -5.15025498E-08
   41.3699989      -5.23657882E-08
   41.4300003      -5.31075628E-08
   41.4900017      -5.36851061E-08
   41.5499992      -5.40710516E-08
   41.6100006      -5.42610366E-08
   41.6699982      -5.42736274E-08
   41.7299995      -5.41422409E-08
   41.7900009      -5.39019709E-08
   41.8499985      -5.35761444E-08
   41.9099998      -5.31676783E-08
   41.9700012      -5.26581978E-08
   42.0299988      -5.20149221E-08
   42.0900002      -5.12023917E-08
   42.1500015      -5.01944157E-08
   42.2099991      -4.89818710E-08
   42.2700005      -4.75738631E-08
   42.3300018      -4.59923761E-08
   42.3899994      -4.42630963E-08
   42.4500008      -4.24062812E-08
   42.5099983      -4.04314662E-08
   42.5699997      -3.83381362E-08
   42.6300011      -3.61222376E-08
   42.6899986      -3.37861934E-08
   42.7500000      -3.13485948E-08
   42.8100014      -2.88496658E-08
   42.8699989      -2.63499906E-08
   42.9300003      -2.39221976E-08
   42.9900017      -2.16380869E-08
   43.0499992      -1.95553920E-08
   43.1100006      -1.77088193E-08
   43.1699982      -1.61083697E-08
   43.2299995      -1.47451251E-08
   43.2900009      -1.36015288E-08
   43.3499985      -1.26612569E-08
   43.4099998      -1.19140555E-08
   43.4700012      -1.13532614E-08
   43.5299988      -1.09673648E-08
   43.5900002      -1.07299671E-08
   43.6500015      -1.05935438E-08
   43.7099991      -1.04908153E-08
   43.7700005      -1.03441407E-08
   43.8300018      -1.00796997E-08
   43.8899994      -9.64119895E-09
   43.9500008      -8.99833719E-09
   44.0099983      -8.14787970E-09
   44.0699997      -7.10857773E-09
   44.1300011      -5.91350524E-09
   44.1899986      -4.60360505E-09
   44.2500000      -3.22443516E-09
   44.3100014      -1.82542481E-09
   44.3699989      -4.58992427E-10
   44.4300003       8.23245749E-10
   44.4900017       1.97817362E-09
   44.5499992       2.98101699E-09
   44.6100006       3.83339760E-09
   44.6699982       4.56527793E-09
   44.7299995       5.22835553E-09
   44.7900009       5.88185012E-09
   44.8499985       6.57514931E-09
   44.9099998       7.33367678E-09
   44.9700012       8.15367240E-09
   45.0299988       9.00824926E-09
   45.0900002       9.86242288E-09
   45.1500015       1.06907567E-08
   45.2099991       1.14897656E-08
   45.2700005       1.22792727E-08
   45.3300018       1.30918307E-08
   45.3899994       1.39550478E-08
   45.4500008       1.48754022E-08
   45.5099983       1.58319935E-08
   45.5699997       1.67841829E-08
   45.6300011       1.76903789E-08
   45.6899986       1.85294002E-08
   45.7500000       1.93140064E-08
   45.8100014       2.00894821E-08
   45.8699989       2.09173159E-08
   45.9300003       2.18513740E-08
   45.9900017       2.29180355E-08
   46.0499992       2.41103031E-08
   46.1100006       2.53994479E-08
   46.1699982       2.67596629E-08
   46.2299995       2.81952062E-08
   46.2900009       2.97587288E-08
   46.3499985       3.15538458E-08
   46.4099998       3.37226496E-08
   46.4700012       3.64255754E-08
   46.5299988       3.98242790E-08
   46.5900002       4.40762129E-08
   46.6500015       4.93440702E-08
   46.7099991       5.58167912E-08
   46.7700005       6.37342055E-08
   46.8300018       7.34065608E-08
   46.8899994       8.52233200E-08
   46.9500008       9.96507978E-08
   47.0099983       1.17223628E-07
   47.0699997       1.38538425E-07
   47.1300011       1.64257528E-07
   47.1899986       1.95127868E-07
   47.2500000       2.32014258E-07
   47.3100014       2.75941602E-07
   47.3699989       3.28137361E-07
   47.4300003       3.90066134E-07
   47.4900017       4.63452551E-07
   47.5499992       5.50294260E-07
   47.6100006       6.52872757E-07
   47.6699982       7.73771831E-07
   47.7299995       9.15913461E-07
   47.7900009       1.08261452E-06
   47.8499985       1.27766134E-06
   47.9099998       1.50539563E-06
   47.9700012       1.77079755E-06
   48.0299988       2.07956055E-06
   48.0900002       2.43815180E-06
   48.1500015       2.85386477E-06
   48.2099991       3.33487060E-06
   48.2700005       3.89028264E-06
   48.3300018       4.53023858E-06
   48.3899994       5.26601116E-06
   48.4500008       6.11012956E-06
   48.5099983       7.07651316E-06
   48.5699997       8.18059925E-06
   48.6300011       9.43946179E-06
   48.6899986       1.08719087E-05
   48.7500000       1.24985872E-05
   48.8100014       1.43420839E-05
   48.8699989       1.64270441E-05
   48.9300003       1.87802798E-05
   48.9900017       2.14308984E-05
   49.0499992       2.44104049E-05
   49.1100006       2.77527870E-05
   49.1699982       3.14945792E-05
   49.2299995       3.56749006E-05
   49.2900009       4.03354970E-05
   49.3499985       4.55207301E-05
   49.4099998       5.12776242E-05
   49.4700012       5.76558268E-05
   49.5299988       6.47076013E-05
   49.5900002       7.24877245E-05
   49.6500015       8.10534111E-05
   49.7099991       9.04641201E-05
   49.7700005       1.00781399E-04
   49.8300018       1.12068599E-04
   49.8899994       1.24390644E-04
   49.9500008       1.37813651E-04
   50.0099983       1.52404667E-04
   50.0699997       1.68231156E-04
   50.1300011       1.85360652E-04
   50.1899986       2.03860211E-04
   50.2500000       2.23795869E-04
   50.3100014       2.45232048E-04
   50.3699989       2.68231001E-04
   50.4300003       2.92852026E-04
   50.4900017       3.19150946E-04
   50.5499992       3.47179215E-04
   50.6100006       3.76983429E-04