  -2.400000      0.0000000E+00
  -2.340000      0.0000000E+00
  -2.280000      0.0000000E+00
  -2.220000      0.0000000E+00
  -2.160000      0.0000000E+00
  -2.100000      0.0000000E+00
  -2.040000      0.0000000E+00
  -1.980000      0.0000000E+00
  -1.920000      0.0000000E+00
  -1.860000      0.0000000E+00
  -1.800000      1.3286164E-30
  -1.740000      1.8410255E-29
  -1.680000      1.1763711E-28
  -1.620000      4.1880338E-28
  -1.560000      6.0720811E-28
  -1.500000     -2.1428430E-27
  -1.440000     -1.7241005E-26
  -1.380000     -6.0966104E-26
  -1.320000     -1.3276721E-25
  -1.260000     -1.3765968E-25
  -1.200000      2.3533836E-25
  -1.140000      1.5205102E-24
  -1.080000      3.9828274E-24
  -1.020000      6.2169639E-24
 -0.9600000      3.1813889E-24
 -0.9000000     -1.4065021E-23
 -0.8400000     -5.2433388E-23
 -0.7800000     -1.0084472E-22
 -0.7200000     -1.0852734E-22
 -0.6600000      2.1189091E-23
 -0.6000000      3.8397177E-22
 -0.5400000      9.4501841E-22
 -0.4800000      1.3580467E-21
 -0.4200000      8.7710670E-22
 -0.3600000     -1.3932717E-21
 -0.3000000     -5.7127399E-21
 -0.2400000     -1.0524855E-20
 -0.1800000     -1.1629979E-20
 -0.1200000     -3.0032743E-21
 -5.9999999E-02  1.9611806E-20
  0.0000000E+00  5.2672383E-20
  5.9999999E-02  7.9388562E-20
  0.1200000      7.0410984E-20
  0.1800000     -3.9317607E-21
  0.2400000     -1.4955080E-19
  0.3000000     -3.2227970E-19
  0.3600000     -4.1900237E-19
  0.4200000     -3.0764444E-19
  0.4800000      9.7121544E-20
  0.5400000      7.3672655E-19
  0.6000000      1.3487741E-18
  0.6600000      1.5153782E-18
  0.7200000      8.5638216E-19
  0.7800000     -6.8130623E-19
  0.8400000     -2.5902317E-18
  0.9000000     -3.8300729E-18
  0.9600000     -3.2542472E-18
   1.020000     -3.6254016E-19
   1.080000      3.9752245E-18
   1.140000      7.3670236E-18
   1.200000      6.7628037E-18
   1.260000      3.0562297E-19
   1.320000     -1.0582464E-17
   1.380000     -2.0230664E-17
   1.440000     -2.0205124E-17
   1.500000     -3.6442162E-18
   1.560000      2.8897876E-17
   1.620000      6.5217209E-17
   1.680000      8.2609065E-17
   1.740000      5.6688726E-17
   1.800000     -2.3595254E-17
   1.860000     -1.4103285E-16
   1.920000     -2.4488014E-16
   1.980000     -2.6375619E-16
   2.040000     -1.3829462E-16
   2.100000      1.3628280E-16
   2.160000      4.7857213E-16
   2.220000      7.2503691E-16
   2.280000      6.8498459E-16
   2.340000      2.3862324E-16
   2.400000     -5.5906096E-16
   2.460000     -1.4268209E-15
   2.520000     -1.9123188E-15
   2.580000     -1.5703925E-15
   2.640000     -2.1652196E-16
   2.700000      1.8568277E-15
   2.760000      3.8398731E-15
   2.820000      4.6371661E-15
   2.880000      3.3511772E-15
   2.940000     -1.5340870E-16
   3.000000     -4.8882263E-15
   3.060000     -8.8595606E-15
   3.120000     -9.7766643E-15
   3.180000     -6.1698456E-15
   3.240000      1.5541084E-15
   3.300000      1.0719359E-14
   3.360000      1.7085166E-14
   3.420000      1.6615717E-14
   3.480000      7.6859007E-15
   3.540000     -7.3442000E-15
   3.600000     -2.2233073E-14
   3.660000     -2.9079813E-14
   3.720000     -2.2074407E-14
   3.780000     -1.1830831E-15
   3.840000      2.6236703E-14
   3.900000      4.7326268E-14
   3.960000      4.9048476E-14
   4.020000      2.5006761E-14
   4.080000     -1.9473823E-14
   4.140000     -6.7121276E-14
   4.200000     -9.4651737E-14
   4.260000     -8.3230752E-14
   4.320000     -2.9073976E-14
   4.380000      5.1259351E-14
   4.440000      1.2476153E-13
   4.500000      1.5501710E-13
   4.560000      1.1963007E-13
   4.620000      2.4069832E-14
   4.680000     -9.5775404E-14
   4.740000     -1.8579501E-13
   4.800000     -1.9724615E-13
   4.860000     -1.1201716E-13
   4.920000      4.2764430E-14
   4.980000      1.9999104E-13
   5.040000      2.7865885E-13
   5.100000      2.2160106E-13
   5.160000      2.8393525E-14
   5.220000     -2.3346890E-13
   5.280000     -4.4829228E-13
   5.340000     -4.9858262E-13
   5.400000     -3.2049027E-13
   5.460000      5.6358167E-14
   5.520000      5.0567959E-13
   5.580000      8.4503194E-13
   5.640000      9.0782069E-13
   5.700000      6.1856737E-13
   5.760000      3.8107402E-14
   5.820000     -6.4506560E-13
   5.880000     -1.1796013E-12
   5.940000     -1.3496632E-12
   6.000000     -1.0670236E-12
   6.060000     -4.1602027E-13
   6.120000      3.7222065E-13
   6.180000      1.0104296E-12
   6.240000      1.2753965E-12
   6.300000      1.1062849E-12
   6.360000      6.3522945E-13
   6.420000      1.3109267E-13
   6.480000     -1.2512401E-13
   6.540000      1.7843732E-14
   6.600000      4.8596679E-13
   6.660000      9.7956127E-13
   6.720000      1.0793304E-12
   6.780000      4.2429664E-13
   6.840000     -1.1070927E-12
   6.900000     -3.2882135E-12
   6.960000     -5.5581195E-12
   7.020000     -7.1602398E-12
   7.080000     -7.3576700E-12
   7.140000     -5.6464451E-12
   7.200000     -1.8926102E-12
   7.260000      3.6429215E-12
   7.320000      1.0372953E-11
   7.380000      1.7483112E-11
   7.440000      2.3989187E-11
   7.500000      2.8715330E-11
   7.560000      3.0222977E-11
   7.620000      2.6788778E-11
   7.680000      1.6562413E-11
   7.740000     -1.9958414E-12
   7.800000     -2.9395136E-11
   7.860000     -6.4246025E-11
   7.920000     -1.0250637E-10
   7.980000     -1.3716685E-10
   8.040000     -1.5866379E-10
   8.100000     -1.5616133E-10
   8.160000     -1.1962538E-10
   8.220000     -4.2379298E-11
   8.280000      7.6340864E-11
   8.340000      2.2937265E-10
   8.400000      4.0061723E-10
   8.460000      5.6530475E-10
   8.520000      6.9155709E-10
   8.580000      7.4303708E-10
   8.640000      6.8231359E-10
   8.700000      4.7451942E-10
   8.760000      9.0919501E-11
   8.820000     -4.8789983E-10
   8.880000     -1.2694138E-09
   8.940000     -2.2472613E-09
   9.000000     -3.4002083E-09
   9.060000     -4.6921507E-09
   9.120000     -6.0733241E-09
   9.180000     -7.4828401E-09
   9.240000     -8.8524983E-09
   9.300000     -1.0111598E-08
   9.360000     -1.1192252E-08
   9.420000     -1.2034577E-08
   9.480000     -1.2591103E-08
   9.540000     -1.2829963E-08
   9.600000     -1.2736687E-08
   9.660000     -1.2314759E-08
   9.720000     -1.1585231E-08
   9.780000     -1.0585754E-08
   9.840000     -9.3691002E-09
   9.900000     -8.0010114E-09
   9.960000     -6.5569417E-09
   10.02000     -5.1172564E-09
   10.08000     -3.7607903E-09
   10.14000     -2.5572167E-09
   10.20000     -1.5593447E-09
   10.26000     -7.9688317E-10
   10.32000     -2.7323230E-10
   10.38000      3.3659308E-11
   10.44000      1.6626180E-10
   10.50000      1.7921153E-10
   10.56000      1.2963573E-10
   10.62000      6.8179212E-11
   10.68000      3.2556086E-11
   10.74000      4.4633516E-11
   10.80000      1.1101404E-10
   10.86000      2.2618225E-10
   10.92000      3.7680045E-10
   10.98000      5.4579169E-10
   11.04000      7.1533740E-10
   11.10000      8.6860263E-10
   11.16000      9.9058695E-10
   11.22000      1.0687782E-09
   11.28000      1.0941851E-09
   11.34000      1.0629420E-09
   11.40000      9.7820452E-10
   11.46000      8.5171487E-10
   11.52000      7.0433276E-10
   11.58000      5.6503685E-10
   11.64000      4.6829751E-10
   11.70000      4.5014326E-10
   11.76000      5.4354404E-10
   11.82000      7.7383039E-10
   11.88000      1.1547904E-09
   11.94000      1.6859110E-09
   12.00000      2.3510855E-09
   12.06000      3.1190419E-09
   12.12000      3.9457246E-09
   12.18000      4.7788156E-09
   12.24000      5.5643326E-09
   12.30000      6.2547851E-09
   12.36000      6.8177259E-09
   12.42000      7.2429196E-09
   12.48000      7.5460598E-09
   12.54000      7.7672615E-09
   12.60000      7.9635436E-09
   12.66000      8.1960696E-09
   12.72000      8.5146752E-09
   12.78000      8.9435224E-09
   12.84000      9.4720960E-09
   12.90000      1.0054869E-08
   12.96000      1.0620803E-08
   13.02000      1.1090996E-08
   13.08000      1.1400117E-08
   13.14000      1.1515624E-08
   13.20000      1.1448877E-08
   13.26000      1.1254333E-08
   13.32000      1.1016374E-08
   13.38000      1.0827123E-08
   13.44000      1.0761495E-08
   13.50000      1.0856763E-08
   13.56000      1.1102672E-08
   13.62000      1.1444963E-08
   13.68000      1.1801179E-08
   13.74000      1.2083881E-08
   13.80000      1.2224468E-08
   13.86000      1.2190789E-08
   13.92000      1.1993908E-08
   13.98000      1.1682764E-08
   14.04000      1.1328948E-08
   14.10000      1.1006408E-08
   14.16000      1.0771873E-08
   14.22000      1.0651038E-08
   14.28000      1.0633583E-08
   14.34000      1.0677506E-08
   14.40000      1.0720940E-08
   14.46000      1.0697975E-08
   14.52000      1.0554507E-08
   14.58000      1.0260453E-08
   14.64000      9.8157837E-09
   14.70000      9.2493098E-09
   14.76000      8.6106873E-09
   14.82000      7.9575546E-09
   14.88000      7.3407342E-09
   14.94000      6.7909474E-09
   15.00000      6.3103291E-09
   15.06000      5.8710206E-09
   15.12000      5.4215521E-09
   15.18000      4.8997433E-09
   15.24000      4.2490500E-09
   15.30000      3.4341716E-09
   15.36000      2.4516946E-09
   15.42000      1.3327180E-09
   15.48000      1.3653619E-10
   15.54000     -1.0630810E-09
   15.60000     -2.1953273E-09
   15.66000     -3.2087282E-09
   15.72000     -4.0819006E-09
   15.78000     -4.8257873E-09
   15.84000     -5.4769447E-09
   15.90000     -6.0841252E-09
   15.96000     -6.6924137E-09
   16.02000     -7.3298518E-09
   16.08000     -8.0006100E-09
   16.14000     -8.6865404E-09
   16.20000     -9.3560741E-09
   16.26000     -9.9768771E-09
   16.32000     -1.0527363E-08
   16.38000     -1.1002631E-08
   16.44000     -1.1412522E-08
   16.50000     -1.1772642E-08
   16.56000     -1.2092095E-08
   16.62000     -1.2363311E-08
   16.68000     -1.2558852E-08
   16.74000     -1.2637619E-08
   16.80000     -1.2559190E-08
   16.86000     -1.2301552E-08
   16.92000     -1.1875613E-08
   16.98000     -1.1330441E-08
   17.04000     -1.0746042E-08
   17.10000     -1.0214864E-08
   17.16000     -9.8171915E-09
   17.22000     -9.5981036E-09
   17.28000     -9.5533359E-09
   17.34000     -9.6287094E-09
   17.40000     -9.7334523E-09
   17.46000     -9.7634150E-09
   17.52000     -9.6272910E-09
   17.58000     -9.2683035E-09
   17.64000     -8.6755527E-09
   17.70000     -7.8825861E-09
   17.76000     -6.9545267E-09
   17.82000     -5.9682690E-09
   17.88000     -4.9918043E-09
   17.94000     -4.0684953E-09
   18.00000     -3.2102205E-09
   18.06000     -2.4004803E-09
   18.12000     -1.6055917E-09
   18.18000     -7.8987838E-10
   18.24000      7.0153515E-11
   18.30000      9.7704511E-10
   18.36000      1.9115098E-09
   18.42000      2.8393432E-09
   18.48000      3.7235208E-09
   18.54000      4.5372559E-09
   18.60000      5.2735079E-09
   18.66000      5.9475980E-09
   18.72000      6.5918315E-09
   18.78000      7.2436759E-09
   18.84000      7.9312672E-09
   18.90000      8.6611012E-09
   18.96000      9.4122790E-09
   19.02000      1.0139702E-08
   19.08000      1.0785770E-08
   19.14000      1.1297200E-08
   19.20000      1.1641722E-08
   19.26000      1.1819172E-08
   19.32000      1.1863129E-08
   19.38000      1.1832208E-08
   19.44000      1.1793484E-08
   19.50000      1.1803101E-08
   19.56000      1.1890099E-08
   19.62000      1.2048473E-08
   19.68000      1.2239902E-08
   19.74000      1.2406165E-08
   19.80000      1.2487264E-08
   19.86000      1.2439484E-08
   19.92000      1.2247770E-08
   19.98000      1.1928696E-08
   20.04000      1.1523436E-08
   20.10000      1.1083377E-08
   20.16000      1.0653396E-08
   20.22000      1.0258373E-08
   20.28000      9.8971631E-09
   20.34000      9.5454862E-09
   20.40000      9.1659889E-09
   20.46000      8.7213463E-09
   20.52000      8.1855696E-09
   20.58000      7.5497901E-09
   20.64000      6.8212560E-09
   20.70000      6.0170238E-09
   20.76000      5.1557651E-09
   20.82000      4.2515764E-09
   20.88000      3.3125587E-09
   20.94000      2.3447666E-09
   21.00000      1.3597762E-09
   21.06000      3.8247633E-10
   21.12000     -5.4463306E-10
   21.18000     -1.3632570E-09
   21.24000     -2.0076960E-09
   21.30000     -2.4178297E-09
   21.36000     -2.5528379E-09
   21.42000     -2.4012272E-09
   21.48000     -1.9837145E-09
   21.54000     -1.3477778E-09
   21.60000     -5.5541799E-10
   21.66000      3.3207920E-10
   21.72000      1.2676603E-09
   21.78000      2.2262807E-09
   21.84000      3.2049368E-09
   21.90000      4.2155137E-09
   21.96000      5.2732010E-09
   22.02000      6.3843371E-09
   22.08000      7.5373610E-09
   22.14000      8.6992680E-09
   22.20000      9.8181578E-09
   22.26000      1.0830743E-08
   22.32000      1.1672499E-08
   22.38000      1.2287743E-08
   22.44000      1.2637289E-08
   22.50000      1.2702121E-08
   22.56000      1.2482731E-08
   22.62000      1.1994683E-08
   22.68000      1.1261785E-08
   22.74000      1.0308566E-08
   22.80000      9.1536698E-09
   22.86000      7.8054860E-09
   22.92000      6.2607546E-09
   22.98000      4.5063242E-09
   23.04000      2.5236884E-09
   23.10000      2.9545050E-10
   23.16000     -2.1874460E-09
   23.22000     -4.9190523E-09
   23.28000     -7.8735676E-09
   23.34000     -1.1003322E-08
   23.40000     -1.4240158E-08
   23.46000     -1.7500268E-08
   23.52000     -2.0691969E-08
   23.58000     -2.3725375E-08
   23.64000     -2.6522486E-08
   23.70000     -2.9025957E-08
   23.76000     -3.1204877E-08
   23.82000     -3.3056320E-08
   23.88000     -3.4602174E-08
   23.94000     -3.5881865E-08
   24.00000     -3.6942495E-08
   24.06000     -3.7828620E-08
   24.12000     -3.8573948E-08
   24.18000     -3.9196824E-08
   24.24000     -3.9700335E-08
   24.30000     -4.0076873E-08
   24.36000     -4.0315765E-08
   24.42000     -4.0412122E-08
   24.48000     -4.0374459E-08
   24.54000     -4.0229086E-08
   24.60000     -4.0019774E-08
   24.66000     -3.9802355E-08
   24.72000     -3.9635271E-08
   24.78000     -3.9568235E-08
   24.84000     -3.9632113E-08
   24.90000     -3.9832969E-08
   24.96000     -4.0152369E-08
   25.02000     -4.0554173E-08
   25.08000     -4.0996099E-08
   25.14000     -4.1442597E-08
   25.20000     -4.1875012E-08
   25.26000     -4.2295738E-08
   25.32000     -4.2724917E-08
   25.38000     -4.3190784E-08
   25.44000     -4.3716838E-08
   25.50000     -4.4309921E-08
   25.56000     -4.4953040E-08
   25.62000     -4.5604761E-08
   25.68000     -4.6204910E-08
   25.74000     -4.6684374E-08
   25.80000     -4.6975835E-08
   25.86000     -4.7022827E-08
   25.92000     -4.6785580E-08
   25.98000     -4.6243688E-08
   26.04000     -4.5396479E-08
   26.10000     -4.4262155E-08
   26.16000     -4.2876326E-08
   26.22000     -4.1289752E-08
   26.28000     -3.9564817E-08
   26.34000     -3.7770199E-08
   26.40000     -3.5973805E-08
   26.46000     -3.4234763E-08
   26.52000     -3.2595796E-08
   26.58000     -3.1077722E-08
   26.64000     -2.9677540E-08
   26.70000     -2.8371177E-08
   26.76000     -2.7120954E-08
   26.82000     -2.5886626E-08
   26.88000     -2.4637734E-08
   26.94000     -2.3364208E-08
   27.00000     -2.2082103E-08
   27.06000     -2.0832447E-08
   27.12000     -1.9672965E-08
   27.18000     -1.8664617E-08
   27.24000     -1.7856536E-08
   27.30000     -1.7273623E-08
   27.36000     -1.6910276E-08
   27.42000     -1.6732011E-08
   27.48000     -1.6684387E-08
   27.54000     -1.6706673E-08
   27.60000     -1.6746386E-08
   27.66000     -1.6770716E-08
   27.72000     -1.6771855E-08
   27.78000     -1.6764906E-08
   27.84000     -1.6779303E-08
   27.90000     -1.6846528E-08
   27.96000     -1.6987959E-08
   28.02000     -1.7206844E-08
   28.08000     -1.7486888E-08
   28.14000     -1.7797987E-08
   28.20000     -1.8107180E-08
   28.26000     -1.8391212E-08
   28.32000     -1.8646489E-08
   28.38000     -1.8892939E-08
   28.44000     -1.9170152E-08
   28.50000     -1.9526556E-08
   28.56000     -2.0004499E-08
   28.62000     -2.0625533E-08
   28.68000     -2.1380439E-08
   28.74000     -2.2227331E-08
   28.80000     -2.3099030E-08
   28.86000     -2.3917936E-08
   28.92000     -2.4614275E-08
   28.98000     -2.5142100E-08
   29.04000     -2.5488022E-08
   29.10000     -2.5669950E-08
   29.16000     -2.5726527E-08
   29.22000     -2.5701171E-08
   29.28000     -2.5626465E-08
   29.34000     -2.5514208E-08
   29.40000     -2.5354192E-08
   29.46000     -2.5121448E-08
   29.52000     -2.4788765E-08
   29.58000     -2.4339755E-08
   29.64000     -2.3777950E-08
   29.70000     -2.3129093E-08
   29.76000     -2.2436216E-08
   29.82000     -2.1749273E-08
   29.88000     -2.1112612E-08
   29.94000     -2.0554054E-08
   30.00000     -2.0078703E-08
   30.06000     -1.9669169E-08
   30.12000     -1.9291937E-08
   30.18000     -1.8907656E-08
   30.24000     -1.8481879E-08
   30.30000     -1.7992654E-08
   30.36000     -1.7432619E-08
   30.42000     -1.6805490E-08
   30.48000     -1.6119026E-08
   30.54000     -1.5377960E-08
   30.60000     -1.4580277E-08
   30.66000     -1.3718506E-08
   30.72000     -1.2785408E-08
   30.78000     -1.1781369E-08
   30.84000     -1.0720074E-08
   30.90000     -9.6297885E-09
   30.96000     -8.5494909E-09
   31.02000     -7.5212476E-09
   31.08000     -6.5817192E-09
   31.14000     -5.7558998E-09
   31.20000     -5.0552402E-09
   31.26000     -4.4805502E-09
   31.32000     -4.0282671E-09
   31.38000     -3.6974985E-09
   31.44000     -3.4949608E-09
   31.50000     -3.4357170E-09
   31.56000     -3.5391232E-09
   31.62000     -3.8211629E-09
   31.68000     -4.2858019E-09
   31.74000     -4.9186153E-09
   31.80000     -5.6854090E-09
   31.86000     -6.5370029E-09
   31.92000     -7.4192026E-09
   31.98000     -8.2850553E-09
   32.04000     -9.1054382E-09
   32.10000     -9.8743742E-09
   32.16000     -1.0607152E-08
   32.22000     -1.1331699E-08
   32.28000     -1.2076034E-08
   32.34000     -1.2855969E-08
   32.40000     -1.3667255E-08
   32.46000     -1.4484826E-08
   32.52000     -1.5269412E-08
   32.58000     -1.5979278E-08
   32.64000     -1.6582977E-08
   32.70000     -1.7068693E-08
   32.76000     -1.7446762E-08
   32.82000     -1.7744364E-08
   32.88000     -1.7994045E-08
   32.94000     -1.8219971E-08
   33.00000     -1.8426650E-08
   33.06000     -1.8594196E-08
   33.12000     -1.8682028E-08
   33.18000     -1.8640247E-08
   33.24000     -1.8425455E-08
   33.30000     -1.8016392E-08
   33.36000     -1.7424869E-08
   33.42000     -1.6698714E-08
   33.48000     -1.5915750E-08
   33.54000     -1.5170212E-08
   33.60000     -1.4554978E-08
   33.66000     -1.4144228E-08
   33.72000     -1.3980990E-08
   33.78000     -1.4072755E-08
   33.84000     -1.4396133E-08
   33.90000     -1.4908766E-08
   33.96000     -1.5564682E-08
   34.02000     -1.6328169E-08
   34.08000     -1.7181906E-08
   34.14000     -1.8127038E-08
   34.20000     -1.9175658E-08
   34.26000     -2.0338611E-08
   34.32000     -2.1613046E-08
   34.38000     -2.2974197E-08
   34.44000     -2.4374476E-08
   34.50000     -2.5750802E-08
   34.56000     -2.7038496E-08
   34.62000     -2.8188042E-08
   34.68000     -2.9179796E-08
   34.74000     -3.0031906E-08
   34.80000     -3.0798390E-08
   34.86000     -3.1557189E-08
   34.92000     -3.2391100E-08
   34.98000     -3.3367222E-08
   35.04000     -3.4521129E-08
   35.10000     -3.5850846E-08
   35.16000     -3.7322096E-08
   35.22000     -3.8882678E-08
   35.28000     -4.0480458E-08
   35.34000     -4.2078568E-08
   35.40000     -4.3662734E-08
   35.46000     -4.5238806E-08
   35.52000     -4.6822393E-08
   35.58000     -4.8425136E-08
   35.64000     -5.0043212E-08
   35.70000     -5.1652457E-08
   35.76000     -5.3211838E-08
   35.82000     -5.4673873E-08
   35.88000     -5.5998125E-08
   35.94000     -5.7162815E-08
   36.00000     -5.8170365E-08
   36.06000     -5.9044936E-08
   36.12000     -5.9822931E-08
   36.18000     -6.0539762E-08
   36.24000     -6.1217563E-08
   36.30000     -6.1857747E-08
   36.36000     -6.2440627E-08
   36.42000     -6.2931562E-08
   36.48000     -6.3291012E-08
   36.54000     -6.3485238E-08
   36.60000     -6.3494092E-08
   36.66000     -6.3314410E-08
   36.72000     -6.2958335E-08
   36.78000     -6.2447867E-08
   36.84000     -6.1807391E-08
   36.90000     -6.1056305E-08
   36.96000     -6.0203639E-08
   37.02000     -5.9246240E-08
   37.08000     -5.8170912E-08
   37.14000     -5.6960349E-08
   37.20000     -5.5601138E-08
   37.26000     -5.4091718E-08
   37.32000     -5.2447852E-08
   37.38000     -5.0703878E-08
   37.44000     -4.8909207E-08
   37.50000     -4.7120974E-08
   37.56000     -4.5394859E-08
   37.62000     -4.3776307E-08
   37.68000     -4.2294083E-08
   37.74000     -4.0957367E-08
   37.80000     -3.9756443E-08
   37.86000     -3.8666666E-08
   37.92000     -3.7654807E-08
   37.98000     -3.6686853E-08
   38.04000     -3.5736097E-08
   38.10000     -3.4790087E-08
   38.16000     -3.3854818E-08
   38.22000     -3.2954638E-08
   38.28000     -3.2127254E-08
   38.34000     -3.1414448E-08
   38.40000     -3.0850916E-08
   38.46000     -3.0454586E-08
   38.52000     -3.0221837E-08
   38.58000     -3.0129637E-08
   38.64000     -3.0144193E-08
   38.70000     -3.0233359E-08
   38.76000     -3.0378413E-08
   38.82000     -3.0580967E-08
   38.88000     -3.0862477E-08
   38.94000     -3.1256302E-08
   39.00000     -3.1795022E-08
   39.06000     -3.2496938E-08
   39.12000     -3.3356155E-08
   39.18000     -3.4339230E-08
   39.24000     -3.5389551E-08
   39.30000     -3.6438490E-08
   39.36000     -3.7420417E-08
   39.42000     -3.8287737E-08
   39.48000     -3.9021938E-08
   39.54000     -3.9637406E-08
   39.60000     -4.0176722E-08
   39.66000     -4.0698357E-08
   39.72000     -4.1259984E-08
   39.78000     -4.1902158E-08
   39.84000     -4.2637073E-08
   39.90000     -4.3445812E-08
   39.96000     -4.4284882E-08
   40.02000     -4.5099885E-08
   40.08000     -4.5841865E-08
   40.14000     -4.6480949E-08
   40.20000     -4.7012804E-08
   40.26000     -4.7455927E-08
   40.32000     -4.7840953E-08
   40.38000     -4.8196053E-08
   40.44000     -4.8533980E-08
   40.50000     -4.8845560E-08
   40.56000     -4.9102187E-08
   40.62000     -4.9266323E-08
   40.68000     -4.9306045E-08
   40.74000     -4.9208293E-08
   40.80000     -4.8985864E-08
   40.86000     -4.8675748E-08
   40.92000     -4.8329440E-08
   40.98000     -4.7998515E-08
   41.04000     -4.7720206E-08
   41.10000     -4.7507314E-08
   41.16000     -4.7345406E-08
   41.22000     -4.7197872E-08
   41.28000     -4.7017291E-08
   41.34000     -4.6759855E-08
   41.40000     -4.6398778E-08
   41.46000     -4.5932961E-08
   41.52000     -4.5388333E-08
   41.58000     -4.4811472E-08
   41.64000     -4.4257348E-08
   41.70000     -4.3774858E-08
   41.76000     -4.3394571E-08
   41.82000     -4.3122391E-08
   41.88000     -4.2940712E-08
   41.94000     -4.2816282E-08
   42.00000     -4.2711704E-08
   42.06000     -4.2596380E-08
   42.12000     -4.2453244E-08
   42.18000     -4.2279346E-08
   42.24000     -4.2080703E-08
   42.30000     -4.1864052E-08
   42.36000     -4.1629232E-08
   42.42000     -4.1365631E-08
   42.48000     -4.1054388E-08
   42.54000     -4.0675587E-08
   42.60000     -4.0217547E-08
   42.66000     -3.9684327E-08
   42.72000     -3.9097976E-08
   42.78000     -3.8494349E-08
   42.84000     -3.7913630E-08
   42.90000     -3.7388791E-08
   42.96000     -3.6935994E-08
   43.02000     -3.6549988E-08
   43.08000     -3.6205851E-08
   43.14000     -3.5866194E-08
   43.20000     -3.5491382E-08
   43.26000     -3.5049737E-08
   43.32000     -3.4524668E-08
   43.38000     -3.3916884E-08
   43.44000     -3.3241012E-08
   43.50000     -3.2517601E-08
   43.56000     -3.1762951E-08
   43.62000     -3.0980047E-08
   43.68000     -3.0154041E-08
   43.74000     -2.9254370E-08
   43.80000     -2.8243523E-08
   43.86000     -2.7090115E-08
   43.92000     -2.5782130E-08
   43.98000     -2.4336028E-08
   44.04000     -2.2798604E-08
   44.10000     -2.1240966E-08
   44.16000     -1.9746352E-08
   44.22000     -1.8395204E-08
   44.28000     -1.7251406E-08
   44.34000     -1.6352848E-08
   44.40000     -1.5708171E-08
   44.46000     -1.5300088E-08
   44.52000     -1.5094443E-08
   44.58000     -1.5053162E-08
   44.64000     -1.5148654E-08
   44.70000     -1.5376720E-08
   44.76000     -1.5764980E-08
   44.82000     -1.6374409E-08
   44.88000     -1.7292770E-08
   44.94000     -1.8620820E-08
   45.00000     -2.0454287E-08
   45.06000     -2.2866526E-08
   45.12000     -2.5897398E-08
   45.18000     -2.9552769E-08
   45.24000     -3.3816313E-08
   45.30000     -3.8671445E-08
   45.36000     -4.4127791E-08
   45.42000     -5.0244800E-08
   45.48000     -5.7145829E-08
   45.54000     -6.5019172E-08
   45.60000     -7.4107049E-08
   45.66000     -8.4687493E-08
   45.72000     -9.7056621E-08
   45.78000     -1.1151816E-07
   45.84000     -1.2838461E-07
   45.90000     -1.4799076E-07
   45.96000     -1.7071645E-07
   46.02000     -1.9701343E-07
   46.08000     -2.2743039E-07
   46.14000     -2.6263174E-07
   46.20000     -3.0340752E-07
   46.26000     -3.5067583E-07
   46.32000     -4.0548019E-07
   46.38000     -4.6898745E-07
   46.44000     -5.4249045E-07
   46.50000     -6.2741952E-07
   46.56000     -7.2536272E-07
   46.62000     -8.3809294E-07
   46.68000     -9.6759754E-07
   46.74000     -1.1161060E-06
   46.80000     -1.2861123E-06
   46.86000     -1.4803917E-06
   46.92000     -1.7020133E-06
   46.98000     -1.9543540E-06
   47.04000     -2.2411150E-06
   47.10000     -2.5663464E-06
   47.16000     -2.9344783E-06
   47.22000     -3.3503536E-06
   47.28000     -3.8192597E-06
   47.34000     -4.3469527E-06
   47.40000     -4.9396722E-06
   47.46000     -5.6041463E-06
   47.52000     -6.3475882E-06
   47.58000     -7.1776926E-06
   47.64000     -8.1026365E-06
   47.70000     -9.1310758E-06
   47.76000     -1.0272162E-05
   47.82000     -1.1535545E-05
   47.88000     -1.2931384E-05
   47.94000     -1.4470336E-05
   48.00000     -1.6163551E-05
   48.06000     -1.8022620E-05
   48.12000     -2.0059531E-05
   48.18000     -2.2286615E-05
   48.24000     -2.4716452E-05
   48.30000     -2.7361812E-05
   48.36000     -3.0235564E-05
   48.42000     -3.3350607E-05
   48.48000     -3.6719772E-05
   48.54000     -4.0355753E-05
   48.60000     -4.4271030E-05
   48.66000     -4.8477734E-05
   48.72000     -5.2987551E-05
   48.78000     -5.7811583E-05
   48.84000     -6.2960200E-05
   48.90000     -6.8442903E-05
   48.96000     -7.4268115E-05
   49.02000     -8.0443067E-05
   49.08000     -8.6973661E-05
   49.14000     -9.3864284E-05
   49.20000     -1.0111771E-04
   49.26000     -1.0873500E-04
   49.32000     -1.1671538E-04
   49.38000     -1.2505610E-04
   49.44000     -1.3375236E-04
   49.50000     -1.4279714E-04
   49.56000     -1.5218124E-04
   49.62000     -1.6189310E-04
   49.68000     -1.7191876E-04
   49.74000     -1.8224193E-04
   49.80000     -1.9284389E-04
   49.86000     -2.0370362E-04
   49.92000     -2.1479778E-04
   49.98000     -2.2610088E-04
   50.04000     -2.3758535E-04
   50.10000     -2.4922160E-04
   50.16000     -2.6097827E-04
   50.22000     -2.7282236E-04
   50.28000     -2.8471948E-04
   50.34000     -2.9663413E-04
   50.40000     -3.0852988E-04
   50.46000     -3.2036984E-04
   50.52000     -3.3211673E-04
   50.58000     -3.4373332E-04
   50.64000     -3.5518259E-04
   50.70000     -3.6642828E-04
   50.76000     -3.7743506E-04
   50.82000     -3.8816885E-04
   50.88000     -3.9859733E-04
   50.94000     -4.0869025E-04
   51.00000     -4.1841966E-04
   51.06000     -4.2776039E-04
   51.12000     -4.3668994E-04
   51.18000     -4.4518901E-04
   51.24000     -4.5324158E-04
   51.30000     -4.6083512E-04
   51.36000     -4.6796078E-04
   51.42000     -4.7461351E-04
   51.48000     -4.8079217E-04
   51.54000     -4.8649946E-04
   51.60000     -4.9174199E-04
   51.66000     -4.9653009E-04
   51.72000     -5.0087768E-04
   51.78000     -5.0480221E-04
   51.84000     -5.0832453E-04
   51.90000     -5.1146839E-04
   51.96000     -5.1426061E-04
   52.02000     -5.1673019E-04
   52.08000     -5.1890837E-04
   52.14000     -5.2082795E-04
   52.20000     -5.2252319E-04
   52.26000     -5.2402890E-04
   52.32000     -5.2538031E-04
   52.38000     -5.2661274E-04
   52.44000     -5.2776071E-04
   52.50000     -5.2885804E-04
   52.56000     -5.2993721E-04
   52.62000     -5.3102884E-04
   52.68000     -5.3216139E-04
   52.74000     -5.3336076E-04
   52.80000     -5.3465011E-04
   52.86000     -5.3604908E-04
   52.92000     -5.3757400E-04
   52.98000     -5.3923746E-04
   53.04000     -5.4104812E-04
   53.10000     -5.4301089E-04
   53.16000     -5.4512656E-04
   53.22000     -5.4739194E-04
   53.28000     -5.4980000E-04
   53.34000     -5.5233994E-04
   53.40000     -5.5499718E-04
   53.46000     -5.5775361E-04
   53.52000     -5.6058797E-04
   53.58000     -5.6347618E-04
   53.64000     -5.6639162E-04
   53.70000     -5.6930556E-04
   53.76000     -5.7218748E-04
   53.82000     -5.7500543E-04
   53.88000     -5.7772652E-04
   53.94000     -5.8031717E-04
   54.00000     -5.8274402E-04
   54.06000     -5.8497413E-04
   54.12000     -5.8697548E-04
   54.18000     -5.8871758E-04
   54.24000     -5.9017166E-04
   54.30000     -5.9131102E-04
   54.36000     -5.9211114E-04
   54.42000     -5.9255044E-04
   54.48000     -5.9261010E-04
   54.54000     -5.9227453E-04
   54.60000     -5.9153175E-04
   54.66000     -5.9037318E-04
   54.72000     -5.8879406E-04
   54.78000     -5.8679323E-04
   54.84000     -5.8437319E-04
   54.90000     -5.8154023E-04
   54.96000     -5.7830365E-04
   55.02000     -5.7467603E-04
   55.08000     -5.7067291E-04
   55.14000     -5.6631252E-04
   55.20000     -5.6161551E-04
   55.26000     -5.5660494E-04
   55.32000     -5.5130554E-04
   55.38000     -5.4574368E-04
   55.44000     -5.3994666E-04
   55.50000     -5.3394231E-04
   55.56000     -5.2775879E-04