  -2.400000      0.0000000E+00
  -2.340000      0.0000000E+00
  -2.280000      0.0000000E+00
  -2.220000      0.0000000E+00
  -2.160000      0.0000000E+00
  -2.100000      0.0000000E+00
  -2.040000      0.0000000E+00
  -1.980000      0.0000000E+00
  -1.920000      0.0000000E+00
  -1.860000      0.0000000E+00
  -1.800000      1.5625823E-31
  -1.740000      1.0191544E-29
  -1.680000      1.3307463E-28
  -1.620000      9.0538111E-28
  -1.560000      3.9130293E-27
  -1.500000      1.1119410E-26
  -1.440000      1.7419060E-26
  -1.380000     -1.1262904E-26
  -1.320000     -1.6700654E-25
  -1.260000     -5.7602318E-25
  -1.200000     -1.1863241E-24
  -1.140000     -1.2513148E-24
  -1.080000      1.2628745E-24
  -1.020000      9.3283899E-24
 -0.9600000      2.3782941E-23
 -0.9000000      3.6486148E-23
 -0.8400000      2.2785174E-23
 -0.7800000     -5.6174930E-23
 -0.7200000     -2.2543413E-22
 -0.6600000     -4.3516430E-22
 -0.6000000     -4.9266699E-22
 -0.5400000     -6.5515775E-23
 -0.4800000      1.1361182E-21
 -0.4200000      2.9524118E-21
 -0.3600000      4.3027379E-21
 -0.3000000      3.1052229E-21
 -0.2400000     -2.8061551E-21
 -0.1800000     -1.3498603E-20
 -0.1200000     -2.4263666E-20
 -5.9999999E-02 -2.4648321E-20
  0.0000000E+00 -2.1453594E-21
  5.9999999E-02  4.7940794E-20
  0.1200000      1.0939835E-19
  0.1800000      1.3789915E-19
  0.2400000      7.2418558E-20
  0.3000000     -1.2673790E-19
  0.3600000     -4.2184655E-19
  0.4200000     -6.5607277E-19
  0.4800000     -5.7515207E-19
  0.5400000      5.0114049E-20
  0.6000000      1.2159942E-18
  0.6600000      2.4910006E-18
  0.7200000      3.0003867E-18
  0.7800000      1.7423064E-18
  0.8400000     -1.7572228E-18
  0.9000000     -6.6999160E-18
  0.9600000     -1.0676914E-17
   1.020000     -1.0271505E-17
   1.080000     -2.8014961E-18
   1.140000      1.1306189E-17
   1.200000      2.6805372E-17
   1.260000      3.4226444E-17
   1.320000      2.3794912E-17
   1.380000     -8.0425158E-18
   1.440000     -5.2462074E-17
   1.500000     -8.6959380E-17
   1.560000     -8.2635568E-17
   1.620000     -2.0059413E-17
   1.680000      9.2161254E-17
   1.740000      2.0708171E-16
   1.800000      2.4889563E-16
   1.860000      1.4679703E-16
   1.920000     -1.1576157E-16
   1.980000     -4.6024181E-16
   2.040000     -7.1144330E-16
   2.100000     -6.5666880E-16
   2.160000     -1.5937554E-16
   2.220000      7.1640173E-16
   2.280000      1.6427217E-15
   2.340000      2.0941676E-15
   2.400000      1.5656022E-15
   2.460000     -1.1914298E-16
   2.520000     -2.5502817E-15
   2.580000     -4.7021107E-15
   2.640000     -5.2474496E-15
   2.700000     -3.1816017E-15
   2.760000      1.4742094E-15
   2.820000      7.2603327E-15
   2.880000      1.1508813E-14
   2.940000      1.1338869E-14
   3.000000      5.1532731E-15
   3.060000     -6.0107224E-15
   3.120000     -1.8078289E-14
   3.180000     -2.5044372E-14
   3.240000     -2.1514783E-14
   3.300000     -5.7875114E-15
   3.360000      1.8016169E-14
   3.420000      4.0233289E-14
   3.480000      4.8976634E-14
   3.540000      3.5666863E-14
   3.600000      5.1356058E-16
   3.660000     -4.4976887E-14
   3.720000     -8.0666864E-14
   3.780000     -8.5718243E-14
   3.840000     -4.9124594E-14
   3.900000      2.1925560E-14
   3.960000      1.0078642E-13
   4.020000      1.4974010E-13
   4.080000      1.3623931E-13
   4.140000      5.0706733E-14
   4.200000     -8.2786967E-14
   4.260000     -2.1013799E-13
   4.320000     -2.6675320E-13
   4.380000     -2.0699690E-13
   4.440000     -3.1150328E-14
   4.500000      2.0405266E-13
   4.560000      4.0015877E-13
   4.620000      4.5525015E-13
   4.680000      3.1203813E-13
   4.740000     -5.5136318E-15
   4.800000     -3.8702919E-13
   4.860000     -6.7067304E-13
   4.920000     -7.0914872E-13
   4.980000     -4.4105998E-13
   5.040000      6.5283953E-14
   5.100000      6.2121093E-13
   5.160000      9.8489500E-13
   5.220000      9.6446874E-13
   5.280000      5.1443555E-13
   5.340000     -2.2094436E-13
   5.400000     -9.4594883E-13
   5.460000     -1.3280034E-12
   5.520000     -1.1465244E-12
   5.580000     -4.1148880E-13
   5.640000      6.0817996E-13
   5.700000      1.4729084E-12
   5.760000      1.7532696E-12
   5.820000      1.2324339E-12
   5.880000      3.9141101E-14
   5.940000     -1.3607330E-12
   6.000000     -2.3307456E-12
   6.060000     -2.3347272E-12
   6.120000     -1.2024625E-12
   6.180000      7.3231720E-13
   6.240000      2.7032463E-12
   6.300000      3.7901913E-12
   6.360000      3.3103576E-12
   6.420000      1.1632973E-12
   6.480000     -2.0290349E-12
   6.540000     -5.0763148E-12
   6.600000     -6.6398024E-12
   6.660000     -5.7714801E-12
   6.720000     -2.3577570E-12
   6.780000      2.7289700E-12
   6.840000      7.8630141E-12
   6.900000      1.1220283E-11
   6.960000      1.1451999E-11
   7.020000      8.2081963E-12
   7.080000      2.2870553E-12
   7.140000     -4.6681847E-12
   7.200000     -1.0812162E-11
   7.260000     -1.4811628E-11
   7.320000     -1.6313235E-11
   7.380000     -1.5936041E-11
   7.440000     -1.4760391E-11
   7.500000     -1.3519267E-11
   7.560000     -1.1865792E-11
   7.620000     -8.1105071E-12
   7.680000      3.3201699E-13
   7.740000      1.5829350E-11
   7.800000      3.9096233E-11
   7.860000      6.7984611E-11
   7.920000      9.7045531E-11
   7.980000      1.1818835E-10
   8.040000      1.2238749E-10
   8.100000      1.0199463E-10
   8.160000      5.2963703E-11
   8.220000     -2.3702701E-11
   8.280000     -1.2170473E-10
   8.340000     -2.3036952E-10
   8.400000     -3.3628134E-10
   8.460000     -4.2490159E-10
   8.520000     -4.8152626E-10
   8.580000     -4.9129584E-10
   8.640000     -4.3850495E-10
   8.700000     -3.0591688E-10
   8.760000     -7.4963660E-11
   8.820000      2.7252214E-10
   8.880000      7.5098228E-10
   8.940000      1.3668704E-09
   9.000000      2.1146707E-09
   9.060000      2.9745544E-09
   9.120000      3.9126467E-09
   9.180000      4.8840825E-09
   9.240000      5.8381149E-09
   9.300000      6.7238708E-09
   9.360000      7.4952000E-09
   9.420000      8.1135356E-09
   9.480000      8.5485690E-09
   9.540000      8.7774978E-09
   9.600000      8.7841867E-09
   9.660000      8.5595238E-09
   9.720000      8.1035552E-09
   9.780000      7.4289010E-09
   9.840000      6.5639671E-09
   9.900000      5.5540608E-09
   9.960000      4.4589323E-09
   10.02000      3.3463945E-09
   10.08000      2.2831603E-09
   10.14000      1.3252445E-09
   10.20000      5.1069388E-10
   10.26000     -1.4318642E-10
   10.32000     -6.3740058E-10
   10.38000     -9.8468955E-10
   10.44000     -1.2013019E-09
   10.50000     -1.3000867E-09
   10.56000     -1.2872433E-09
   10.62000     -1.1635328E-09
   10.68000     -9.2893832E-10
   10.74000     -5.8838928E-10
   10.80000     -1.5581549E-10
   10.86000      3.4540865E-10
   10.92000      8.8592628E-10
   10.98000      1.4362871E-09
   11.04000      1.9726247E-09
   11.10000      2.4794773E-09
   11.16000      2.9482912E-09
   11.22000      3.3720853E-09
   11.28000      3.7386072E-09
   11.34000      4.0252957E-09
   11.40000      4.1989647E-09
   11.46000      4.2214103E-09
   11.52000      4.0597512E-09
   11.58000      3.6981929E-09
   11.64000      3.1469110E-09
   11.70000      2.4444464E-09
   11.76000      1.6521038E-09
   11.82000      8.4166063E-10
   11.88000      8.0108802E-11
   11.94000     -5.8378963E-10
   12.00000     -1.1270811E-09
   12.06000     -1.5525291E-09
   12.12000     -1.8819171E-09
   12.18000     -2.1461415E-09
   12.24000     -2.3763329E-09
   12.30000     -2.5992637E-09
   12.36000     -2.8379399E-09
   12.42000     -3.1155616E-09
   12.48000     -3.4592067E-09
   12.54000     -3.8995136E-09
   12.60000     -4.4644284E-09
   12.66000     -5.1680411E-09
   12.72000     -5.9984155E-09
   12.78000     -6.9097568E-09
   12.84000     -7.8235152E-09
   12.90000     -8.6401819E-09
   12.96000     -9.2596135E-09
   13.02000     -9.6042516E-09
   13.08000     -9.6380246E-09
   13.14000     -9.3747481E-09
   13.20000     -8.8732053E-09
   13.26000     -8.2205993E-09
   13.32000     -7.5099180E-09
   13.38000     -6.8186714E-09
   13.44000     -6.1955276E-09
   13.50000     -5.6581926E-09
   13.56000     -5.2015734E-09
   13.62000     -4.8116360E-09
   13.68000     -4.4786765E-09
   13.74000     -4.2046251E-09
   13.80000     -4.0019299E-09
   13.86000     -3.8853334E-09
   13.92000     -3.8608392E-09
   13.98000     -3.9172567E-09
   14.04000     -4.0244741E-09
   14.10000     -4.1396691E-09
   14.16000     -4.2192267E-09
   14.22000     -4.2316639E-09
   14.28000     -4.1663082E-09
   14.34000     -4.0341437E-09
   14.40000     -3.8603432E-09
   14.46000     -3.6714063E-09
   14.52000     -3.4820553E-09
   14.58000     -3.2872256E-09
   14.64000     -3.0625495E-09
   14.70000     -2.7733562E-09
   14.76000     -2.3887949E-09
   14.82000     -1.8955586E-09
   14.88000     -1.3057283E-09
   14.94000     -6.5549077E-10
   15.00000      4.9895136E-12
   15.06000      6.2679800E-10
   15.12000      1.1768733E-09
   15.18000      1.6465254E-09
   15.24000      2.0508268E-09
   15.30000      2.4194313E-09
   15.36000      2.7827072E-09
   15.42000      3.1588370E-09
   15.48000      3.5470296E-09
   15.54000      3.9294452E-09
   15.60000      4.2808792E-09
   15.66000      4.5820800E-09
   15.72000      4.8310413E-09
   15.78000      5.0473146E-09
   15.84000      5.2670308E-09
   15.90000      5.5299596E-09
   15.96000      5.8630545E-09
   16.02000      6.2665029E-09
   16.08000      6.7075652E-09
   16.14000      7.1248061E-09
   16.20000      7.4416660E-09
   16.26000      7.5850322E-09
   16.32000      7.5028028E-09
   16.38000      7.1749588E-09
   16.44000      6.6151649E-09
   16.50000      5.8633818E-09
   16.56000      4.9731086E-09
   16.62000      3.9984376E-09
   16.68000      2.9856393E-09
   16.74000      1.9716553E-09
   16.80000      9.8875519E-10
   16.86000      7.1936825E-11
   16.92000     -7.3547424E-10
   16.98000     -1.3817170E-09
   17.04000     -1.8131890E-09
   17.10000     -1.9858917E-09
   17.16000     -1.8774815E-09
   17.22000     -1.4949825E-09
   17.28000     -8.7452673E-10
   17.34000     -7.2353193E-11
   17.40000      8.5038315E-10
   17.46000      1.8439499E-09
   17.52000      2.8818219E-09
   17.58000      3.9636658E-09
   17.64000      5.1083680E-09
   17.70000      6.3395276E-09
   17.76000      7.6686151E-09
   17.82000      9.0818908E-09
   17.88000      1.0535921E-08
   17.94000      1.1963475E-08
   18.00000      1.3287953E-08
   18.06000      1.4441476E-08
   18.12000      1.5380602E-08
   18.18000      1.6094607E-08
   18.24000      1.6604021E-08
   18.30000      1.6950683E-08
   18.36000      1.7183352E-08
   18.42000      1.7344277E-08
   18.48000      1.7461261E-08
   18.54000      1.7547277E-08
   18.60000      1.7606670E-08
   18.66000      1.7644439E-08
   18.72000      1.7674218E-08
   18.78000      1.7721277E-08
   18.84000      1.7819161E-08
   18.90000      1.8001053E-08
   18.96000      1.8289057E-08
   19.02000      1.8685292E-08
   19.08000      1.9167979E-08
   19.14000      1.9694047E-08
   19.20000      2.0207555E-08
   19.26000      2.0651569E-08
   19.32000      2.0980297E-08
   19.38000      2.1168372E-08
   19.44000      2.1215417E-08
   19.50000      2.1145265E-08
   19.56000      2.1000794E-08
   19.62000      2.0836113E-08
   19.68000      2.0708166E-08
   19.74000      2.0669400E-08
   19.80000      2.0762428E-08
   19.86000      2.1016907E-08
   19.92000      2.1448290E-08
   19.98000      2.2057989E-08
   20.04000      2.2834573E-08
   20.10000      2.3755769E-08
   20.16000      2.4791072E-08
   20.22000      2.5904617E-08
   20.28000      2.7057700E-08
   20.34000      2.8210327E-08
   20.40000      2.9321422E-08
   20.46000      3.0347856E-08
   20.52000      3.1243164E-08
   20.58000      3.1957189E-08
   20.64000      3.2437679E-08
   20.70000      3.2634354E-08
   20.76000      3.2504754E-08
   20.82000      3.2020619E-08
   20.88000      3.1173098E-08
   20.94000      2.9975510E-08
   21.00000      2.8463212E-08
   21.06000      2.6690969E-08
   21.12000      2.4728891E-08
   21.18000      2.2657924E-08
   21.24000      2.0565494E-08
   21.30000      1.8541240E-08
   21.36000      1.6672351E-08
   21.42000      1.5038060E-08
   21.48000      1.3703294E-08
   21.54000      1.2712250E-08
   21.60000      1.2083236E-08
   21.66000      1.1806356E-08
   21.72000      1.1845103E-08
   21.78000      1.2142029E-08
   21.84000      1.2627490E-08
   21.90000      1.3229558E-08
   21.96000      1.3882860E-08
   22.02000      1.4534620E-08
   22.08000      1.5147098E-08
   22.14000      1.5696937E-08
   22.20000      1.6172690E-08
   22.26000      1.6572001E-08
   22.32000      1.6899349E-08
   22.38000      1.7164345E-08
   22.44000      1.7379810E-08
   22.50000      1.7558738E-08
   22.56000      1.7709990E-08
   22.62000      1.7833614E-08
   22.68000      1.7917763E-08
   22.74000      1.7939307E-08
   22.80000      1.7869164E-08
   22.86000      1.7681558E-08
   22.92000      1.7364300E-08
   22.98000      1.6926078E-08
   23.04000      1.6397149E-08
   23.10000      1.5822092E-08
   23.16000      1.5246354E-08
   23.22000      1.4701216E-08
   23.28000      1.4193093E-08
   23.34000      1.3701944E-08
   23.40000      1.3190384E-08
   23.46000      1.2620959E-08
   23.52000      1.1975613E-08
   23.58000      1.1270197E-08
   23.64000      1.0558396E-08
   23.70000      9.9232231E-09
   23.76000      9.4587307E-09
   23.82000      9.2479491E-09
   23.88000      9.3441290E-09
   23.94000      9.7607176E-09
   24.00000      1.0471945E-08
   24.06000      1.1422120E-08
   24.12000      1.2538983E-08
   24.18000      1.3745988E-08
   24.24000      1.4969849E-08
   24.30000      1.6142360E-08
   24.36000      1.7198184E-08
   24.42000      1.8071734E-08
   24.48000      1.8696257E-08
   24.54000      1.9006768E-08
   24.60000      1.8946562E-08
   24.66000      1.8475236E-08
   24.72000      1.7575431E-08
   24.78000      1.6255749E-08
   24.84000      1.4548450E-08
   24.90000      1.2502248E-08
   24.96000      1.0172011E-08
   25.02000      7.6083140E-09
   25.08000      4.8498889E-09
   25.14000      1.9213593E-09
   25.20000     -1.1630279E-09
   25.26000     -4.3909836E-09
   25.32000     -7.7421962E-09
   25.38000     -1.1180788E-08
   25.44000     -1.4653587E-08
   25.50000     -1.8095587E-08
   25.56000     -2.1441203E-08
   25.62000     -2.4637490E-08
   25.68000     -2.7654549E-08
   25.74000     -3.0489279E-08
   25.80000     -3.3161193E-08
   25.86000     -3.5702136E-08
   25.92000     -3.8143849E-08
   25.98000     -4.0507885E-08
   26.04000     -4.2800774E-08
   26.10000     -4.5015000E-08
   26.16000     -4.7133867E-08
   26.22000     -4.9137402E-08
   26.28000     -5.1006669E-08
   26.34000     -5.2725536E-08
   26.40000     -5.4280395E-08
   26.46000     -5.5659275E-08
   26.52000     -5.6851743E-08
   26.58000     -5.7849963E-08
   26.64000     -5.8650514E-08
   26.70000     -5.9255850E-08
   26.76000     -5.9674534E-08
   26.82000     -5.9919870E-08
   26.88000     -6.0007309E-08
   26.94000     -5.9951411E-08
   27.00000     -5.9763344E-08
   27.06000     -5.9449601E-08
   27.12000     -5.9012159E-08
   27.18000     -5.8450006E-08
   27.24000     -5.7761202E-08
   27.30000     -5.6944714E-08
   27.36000     -5.6001095E-08
   27.42000     -5.4931593E-08
   27.48000     -5.3736056E-08
   27.54000     -5.2410535E-08
   27.60000     -5.0946081E-08
   27.66000     -4.9329664E-08
   27.72000     -4.7547477E-08
   27.78000     -4.5589815E-08
   27.84000     -4.3455969E-08
   27.90000     -4.1157666E-08
   27.96000     -3.8720209E-08
   28.02000     -3.6181412E-08
   28.08000     -3.3589089E-08
   28.14000     -3.0997967E-08
   28.20000     -2.8466374E-08
   28.26000     -2.6052437E-08
   28.32000     -2.3809294E-08
   28.38000     -2.1779256E-08
   28.44000     -1.9987702E-08
   28.50000     -1.8438357E-08
   28.56000     -1.7111914E-08
   28.62000     -1.5969308E-08
   28.68000     -1.4959603E-08
   28.74000     -1.4030859E-08
   28.80000     -1.3141150E-08
   28.86000     -1.2266796E-08
   28.92000     -1.1405533E-08
   28.98000     -1.0574001E-08
   29.04000     -9.8006661E-09
   29.10000     -9.1167305E-09
   29.16000     -8.5481204E-09
   29.22000     -8.1111793E-09
   29.28000     -7.8132203E-09
   29.34000     -7.6571958E-09
   29.40000     -7.6479880E-09
   29.46000     -7.7970173E-09
   29.52000     -8.1224156E-09
   29.58000     -8.6438439E-09
   29.64000     -9.3735135E-09
   29.70000     -1.0306959E-08
   29.76000     -1.1417666E-08
   29.82000     -1.2658428E-08
   29.88000     -1.3969533E-08
   29.94000     -1.5290961E-08
   30.00000     -1.6573912E-08
   30.06000     -1.7787139E-08
   30.12000     -1.8915729E-08
   30.18000     -1.9953237E-08
   30.24000     -2.0890905E-08
   30.30000     -2.1708917E-08
   30.36000     -2.2373811E-08
   30.42000     -2.2843459E-08
   30.48000     -2.3077909E-08
   30.54000     -2.3051905E-08
   30.60000     -2.2764100E-08
   30.66000     -2.2239211E-08
   30.72000     -2.1522016E-08
   30.78000     -2.0665166E-08
   30.84000     -1.9715310E-08
   30.90000     -1.8702666E-08
   30.96000     -1.7637973E-08
   31.02000     -1.6517808E-08
   31.08000     -1.5335768E-08
   31.14000     -1.4094529E-08
   31.20000     -1.2813300E-08
   31.26000     -1.1527265E-08
   31.32000     -1.0279210E-08
   31.38000     -9.1072323E-09
   31.44000     -8.0343403E-09
   31.50000     -7.0648309E-09
   31.56000     -6.1889405E-09
   31.62000     -5.3930864E-09
   31.68000     -4.6700448E-09
   31.74000     -4.0233865E-09
   31.80000     -3.4634142E-09
   31.86000     -2.9964344E-09
   31.92000     -2.6130380E-09
   31.98000     -2.2822022E-09
   32.04000     -1.9556718E-09
   32.10000     -1.5822856E-09
   32.16000     -1.1268572E-09
   32.22000     -5.8541094E-10
   32.28000      1.0600757E-11
   32.34000      6.0420985E-10
   32.40000      1.1341810E-09
   32.46000      1.5598189E-09
   32.52000      1.8796682E-09
   32.58000      2.1364834E-09
   32.64000      2.4060278E-09
   32.70000      2.7734972E-09
   32.76000      3.3061303E-09
   32.82000      4.0320352E-09
   32.88000      4.9328186E-09
   32.94000      5.9522929E-09
   33.00000      7.0174253E-09
   33.06000      8.0631377E-09
   33.12000      9.0514423E-09
   33.18000      9.9779935E-09
   33.24000      1.0864524E-08
   33.30000      1.1741509E-08
   33.36000      1.2629305E-08
   33.42000      1.3526253E-08
   33.48000      1.4408691E-08
   33.54000      1.5242032E-08
   33.60000      1.5996740E-08
   33.66000      1.6660760E-08
   33.72000      1.7241803E-08
   33.78000      1.7758127E-08
   33.84000      1.8222515E-08
   33.90000      1.8627844E-08
   33.96000      1.8942247E-08
   34.02000      1.9117230E-08
   34.08000      1.9105748E-08
   34.14000      1.8882155E-08
   34.20000      1.8454873E-08
   34.26000      1.7865954E-08
   34.32000      1.7177737E-08
   34.38000      1.6452651E-08
   34.44000      1.5734848E-08
   34.50000      1.5041014E-08
   34.56000      1.4363034E-08
   34.62000      1.3679793E-08
   34.68000      1.2971655E-08
   34.74000      1.2230762E-08
   34.80000      1.1462820E-08
   34.86000      1.0680306E-08
   34.92000      9.8909707E-09
   34.98000      9.0874908E-09
   35.04000      8.2436040E-09
   35.10000      7.3193034E-09
   35.16000      6.2737620E-09
   35.22000      5.0812483E-09
   35.28000      3.7435575E-09
   35.34000      2.2933047E-09
   35.40000      7.8568368E-10
   35.46000     -7.1911871E-10
   35.52000     -2.1765720E-09
   35.58000     -3.5734227E-09
   35.64000     -4.9317239E-09
   35.70000     -6.2991630E-09
   35.76000     -7.7292652E-09
   35.82000     -9.2594146E-09
   35.88000     -1.0895782E-08
   35.94000     -1.2611416E-08
   36.00000     -1.4358152E-08
   36.06000     -1.6087009E-08
   36.12000     -1.7768031E-08
   36.18000     -1.9400725E-08
   36.24000     -2.1010374E-08
   36.30000     -2.2631722E-08
   36.36000     -2.4287120E-08
   36.42000     -2.5968953E-08
   36.48000     -2.7634519E-08
   36.54000     -2.9216226E-08
   36.60000     -3.0643420E-08
   36.66000     -3.1866840E-08
   36.72000     -3.2875221E-08
   36.78000     -3.3696860E-08
   36.84000     -3.4385224E-08
   36.90000     -3.4994766E-08
   36.96000     -3.5557647E-08
   37.02000     -3.6071675E-08
   37.08000     -3.6505007E-08
   37.14000     -3.6815681E-08
   37.20000     -3.6977273E-08
   37.26000     -3.6999275E-08
   37.32000     -3.6932878E-08
   37.38000     -3.6859152E-08
   37.44000     -3.6864250E-08
   37.50000     -3.7011578E-08
   37.56000     -3.7322177E-08
   37.62000     -3.7770803E-08
   37.68000     -3.8298587E-08
   37.74000     -3.8836628E-08
   37.80000     -3.9330690E-08
   37.86000     -3.9757658E-08
   37.92000     -4.0128231E-08
   37.98000     -4.0476422E-08
   38.04000     -4.0841417E-08
   38.10000     -4.1249880E-08
   38.16000     -4.1705349E-08
   38.22000     -4.2187761E-08
   38.28000     -4.2661416E-08
   38.34000     -4.3086640E-08
   38.40000     -4.3429900E-08
   38.46000     -4.3669143E-08
   38.52000     -4.3794234E-08
   38.58000     -4.3804995E-08
   38.64000     -4.3709939E-08
   38.70000     -4.3527439E-08
   38.76000     -4.3288505E-08
   38.82000     -4.3038440E-08
   38.88000     -4.2834436E-08
   38.94000     -4.2737682E-08
   39.00000     -4.2801492E-08
   39.06000     -4.3059355E-08
   39.12000     -4.3517403E-08
   39.18000     -4.4154525E-08
   39.24000     -4.4930324E-08
   39.30000     -4.5797805E-08
   39.36000     -4.6715911E-08
   39.42000     -4.7656989E-08
   39.48000     -4.8606704E-08
   39.54000     -4.9557066E-08
   39.60000     -5.0496268E-08
   39.66000     -5.1400391E-08
   39.72000     -5.2231311E-08
   39.78000     -5.2942195E-08
   39.84000     -5.3488868E-08
   39.90000     -5.3842392E-08
   39.96000     -5.3997589E-08
   40.02000     -5.3973586E-08
   40.08000     -5.3805692E-08
   40.14000     -5.3531469E-08
   40.20000     -5.3176233E-08
   40.26000     -5.2743523E-08
   40.32000     -5.2213984E-08
   40.38000     -5.1552863E-08
   40.44000     -5.0722793E-08
   40.50000     -4.9696702E-08
   40.56000     -4.8465989E-08
   40.62000     -4.7041205E-08
   40.68000     -4.5445748E-08
   40.74000     -4.3705814E-08
   40.80000     -4.1840941E-08
   40.86000     -3.9859234E-08
   40.92000     -3.7758941E-08
   40.98000     -3.5535813E-08
   41.04000     -3.3193242E-08
   41.10000     -3.0751366E-08
   41.16000     -2.8251584E-08
   41.22000     -2.5754517E-08
   41.28000     -2.3331634E-08
   41.34000     -2.1052973E-08
   41.40000     -1.8974815E-08
   41.46000     -1.7131347E-08
   41.52000     -1.5533027E-08
   41.58000     -1.4171825E-08
   41.64000     -1.3030797E-08
   41.70000     -1.2093522E-08
   41.76000     -1.1348990E-08
   41.82000     -1.0789595E-08
   41.88000     -1.0403241E-08
   41.94000     -1.0163631E-08
   42.00000     -1.0024015E-08
   42.06000     -9.9183044E-09
   42.12000     -9.7701376E-09
   42.18000     -9.5068131E-09
   42.24000     -9.0728252E-09
   42.30000     -8.4381782E-09
   42.36000     -7.5993238E-09
   42.42000     -6.5740355E-09
   42.48000     -5.3938933E-09
   42.54000     -4.0982533E-09
   42.60000     -2.7315703E-09
   42.66000     -1.3431535E-09
   42.72000      1.3553329E-11
   42.78000      1.2850747E-09
   42.84000      2.4262896E-09
   42.90000      3.4110628E-09
   42.96000      4.2408277E-09
   43.02000      4.9465494E-09
   43.08000      5.5815876E-09
   43.14000      6.2066432E-09
   43.20000      6.8716433E-09
   43.26000      7.6013338E-09
   43.32000      8.3904608E-09
   43.38000      9.2107530E-09
   43.44000      1.0026967E-08
   43.50000      1.0815053E-08
   43.56000      1.1574235E-08
   43.62000      1.2327251E-08
   43.68000      1.3108409E-08
   43.74000      1.3945007E-08
   43.80000      1.4841274E-08
   43.86000      1.5773214E-08
   43.92000      1.6697742E-08
   43.98000      1.7572592E-08
   44.04000      1.8377806E-08
   44.10000      1.9128461E-08
   44.16000      1.9872088E-08
   44.22000      2.0671479E-08
   44.28000      2.1580714E-08
   44.34000      2.2625761E-08
   44.40000      2.3799089E-08
   44.46000      2.5071541E-08
   44.52000      2.6416817E-08
   44.58000      2.7838418E-08
   44.64000      2.9388067E-08
   44.70000      3.1168792E-08
   44.76000      3.3322873E-08
   44.82000      3.6011727E-08
   44.88000      3.9398056E-08
   44.94000      4.3639446E-08
   45.00000      4.8897306E-08
   45.06000      5.5358299E-08
   45.12000      6.3260281E-08
   45.18000      7.2913224E-08
   45.24000      8.4708489E-08
   45.30000      9.9115645E-08
   45.36000      1.1667231E-07
   45.42000      1.3797629E-07
   45.48000      1.6368892E-07
   45.54000      1.9455487E-07
   45.60000      2.3143696E-07
   45.66000      2.7535958E-07
   45.72000      3.2755102E-07
   45.78000      3.8947729E-07
   45.84000      4.6286397E-07
   45.90000      5.4970843E-07
   45.96000      6.5229096E-07
   46.02000      7.7319436E-07
   46.08000      9.1534008E-07
   46.14000      1.0820449E-06
   46.20000      1.2770956E-06
   46.26000      1.5048338E-06
   46.32000      1.7702395E-06
   46.38000      2.0790062E-06
   46.44000      2.4376027E-06
   46.50000      2.8533227E-06
   46.56000      3.3343372E-06
   46.62000      3.8897579E-06
   46.68000      4.5297215E-06
   46.74000      5.2654996E-06
   46.80000      6.1096216E-06
   46.86000      7.0760079E-06
   46.92000      8.1800981E-06
   46.98000      9.4389625E-06
   47.04000      1.0871415E-05
   47.10000      1.2498100E-05
   47.16000      1.4341608E-05
   47.22000      1.6426580E-05
   47.28000      1.8779834E-05
   47.34000      2.1430471E-05
   47.40000      2.4409996E-05
   47.46000      2.7752400E-05
   47.52000      3.1494212E-05
   47.58000      3.5674555E-05
   47.64000      4.0335177E-05
   47.70000      4.5520443E-05
   47.76000      5.1277384E-05
   47.82000      5.7655638E-05
   47.88000      6.4707456E-05
   47.94000      7.2487630E-05
   48.00000      8.1053346E-05
   48.06000      9.0464084E-05
   48.12000      1.0078141E-04
   48.18000      1.1206865E-04
   48.24000      1.2439073E-04
   48.30000      1.3781378E-04
   48.36000      1.5240481E-04
   48.42000      1.6823136E-04
   48.48000      1.8536090E-04
   48.54000      2.0386052E-04
   48.60000      2.2379622E-04
   48.66000      2.4523243E-04
   48.72000      2.6823138E-04
   48.78000      2.9285240E-04
   48.84000      3.1915132E-04
   48.90000      3.4717971E-04
   48.96000      3.7698401E-04
   49.02000      4.0860512E-04
   49.08000      4.4207743E-04
   49.14000      4.7742800E-04
   49.20000      5.1467610E-04
   49.26000      5.5383227E-04
   49.32000      5.9489784E-04
   49.38000      6.3786405E-04
   49.44000      6.8271183E-04
   49.50000      7.2941097E-04
   49.56000      7.7792001E-04
   49.62000      8.2818588E-04
   49.68000      8.8014361E-04
   49.74000      9.3371607E-04
   49.80000      9.8881405E-04
   49.86000      1.0453368E-03
   49.92000      1.1031710E-03
   49.98000      1.1621929E-03
   50.04000      1.2222675E-03
   50.10000      1.2832499E-03
   50.16000      1.3449857E-03
   50.22000      1.4073123E-03
   50.28000      1.4700597E-03
   50.34000      1.5330518E-03
   50.40000      1.5961076E-03
   50.46000      1.6590431E-03
   50.52000      1.7216721E-03
   50.58000      1.7838080E-03
   50.64000      1.8452655E-03
   50.70000      1.9058626E-03
   50.76000      1.9654224E-03
   50.82000      2.0237740E-03
   50.88000      2.0807548E-03
   50.94000      2.1362125E-03
   51.00000      2.1900062E-03
   51.06000      2.2420075E-03
   51.12000      2.2921024E-03
   51.18000      2.3401922E-03
   51.24000      2.3861961E-03
   51.30000      2.4300495E-03
   51.36000      2.4717080E-03
   51.42000      2.5111453E-03
   51.48000      2.5483556E-03
   51.54000      2.5833512E-03
   51.60000      2.6161652E-03
   51.66000      2.6468488E-03
   51.72000      2.6754721E-03
   51.78000      2.7021223E-03
   51.84000      2.7269041E-03
   51.90000      2.7499385E-03
   51.96000      2.7713589E-03
   52.02000      2.7913130E-03
   52.08000      2.8099578E-03
   52.14000      2.8274597E-03
   52.20000      2.8439912E-03
   52.26000      2.8597296E-03
   52.32000      2.8748543E-03
   52.38000      2.8895442E-03
   52.44000      2.9039762E-03
   52.50000      2.9183230E-03
   52.56000      2.9327499E-03
   52.62000      2.9474134E-03
   52.68000      2.9624591E-03
   52.74000      2.9780194E-03
   52.80000      2.9942121E-03
   52.86000      3.0111389E-03
   52.92000      3.0288834E-03
   52.98000      3.0475114E-03
   53.04000      3.0670685E-03
   53.10000      3.0875809E-03
   53.16000      3.1090537E-03
   53.22000      3.1314723E-03
   53.28000      3.1548007E-03
   53.34000      3.1789846E-03
   53.40000      3.2039497E-03
   53.46000      3.2296032E-03
   53.52000      3.2558357E-03
   53.58000      3.2825225E-03
   53.64000      3.3095255E-03
   53.70000      3.3366946E-03
   53.76000      3.3638689E-03
   53.82000      3.3908808E-03
   53.88000      3.4175562E-03
   53.94000      3.4437168E-03
   54.00000      3.4691843E-03
   54.06000      3.4937800E-03
   54.12000      3.5173304E-03
   54.18000      3.5396654E-03
   54.24000      3.5606246E-03
   54.30000      3.5800557E-03
   54.36000      3.5978178E-03
   54.42000      3.6137830E-03
   54.48000      3.6278369E-03
   54.54000      3.6398801E-03
   54.60000      3.6498306E-03
   54.66000      3.6576234E-03
   54.72000      3.6632128E-03
   54.78000      3.6665702E-03
   54.84000      3.6676854E-03
   54.90000      3.6665648E-03
   54.96000      3.6632323E-03
   55.02000      3.6577282E-03
   55.08000      3.6501084E-03
   55.14000      3.6404438E-03
   55.20000      3.6288195E-03
   55.26000      3.6153325E-03
   55.32000      3.6000891E-03
   55.38000      3.5832047E-03
   55.44000      3.5648004E-03
   55.50000      3.5450023E-03
   55.56000      3.5239402E-03