 -0.750000000       0.00000000    
 -0.689999998       0.00000000    
 -0.629999995       0.00000000    
 -0.569999993       0.00000000    
 -0.509999990       0.00000000    
 -0.449999988       0.00000000    
 -0.389999986       0.00000000    
 -0.330000013       0.00000000    
 -0.270000011       0.00000000    
 -0.209999993       0.00000000    
 -0.150000006       1.38772986E-30
  -9.00000036E-02   1.89157436E-29
  -2.99999993E-02   1.20384043E-28
   2.99999993E-02   4.35839198E-28
   9.00000036E-02   7.01792983E-28
  0.150000006      -1.81739975E-27
  0.209999993      -1.69407664E-26
  0.270000011      -6.42328883E-26
  0.330000013      -1.53838760E-25
  0.389999986      -2.07263539E-25
  0.449999988       9.99893708E-26
  0.509999990       1.45354643E-24
  0.569999993       4.55550804E-24
  0.629999995       8.64801784E-24
  0.689999998       8.67041202E-24
  0.750000000      -7.15970868E-24
  0.810000002      -5.39230416E-23
  0.870000005      -1.32884187E-22
  0.930000007      -1.98195635E-22
  0.990000010      -1.25021819E-22
   1.04999995       2.71397813E-22
   1.11000001       1.09804995E-21
   1.16999996       2.10451873E-21
   1.23000002       2.38599036E-21
   1.28999996       4.10855925E-22
   1.35000002      -5.17019710E-21
   1.40999997      -1.37473217E-20
   1.47000003      -2.06715052E-20
   1.52999997      -1.67320834E-20
   1.59000003       8.31665240E-21
   1.64999998       5.69651952E-20
   1.71000004       1.12649372E-19
   1.76999998       1.34154362E-19
   1.83000004       6.69212703E-20
   1.88999999      -1.22404261E-19
   1.95000005      -3.97296296E-19
   2.00999999      -6.18746401E-19
   2.06999993      -5.71018803E-19
   2.13000011      -7.25051983E-20
   2.19000006       8.53262910E-19
   2.25000000       1.84187811E-18
   2.30999994       2.22510944E-18
   2.36999989       1.33483904E-18
   2.43000007      -9.84817249E-19
   2.49000001      -3.92521106E-18
   2.54999995      -5.71856303E-18
   2.60999990      -4.39115859E-18
   2.67000008       8.53900924E-19
   2.73000002       8.30914010E-18
   2.78999996       1.35458088E-17
   2.84999990       1.11340537E-17
   2.91000009      -1.86516179E-18
   2.97000003      -2.22210855E-17
   3.02999997      -3.92621609E-17
   3.08999991      -3.82506546E-17
   3.15000010      -8.48847864E-18
   3.21000004       4.70382575E-17
   3.26999998       1.06294853E-16
   3.32999992       1.32797733E-16
   3.39000010       9.18563556E-17
   3.45000005      -2.66930158E-17
   3.50999999      -1.90739604E-16
   3.56999993      -3.26205941E-16
   3.63000011      -3.42600528E-16
   3.69000006      -1.78631890E-16
   3.75000000       1.50953633E-16
   3.80999994       5.33529060E-16
   3.86999989       7.82957711E-16
   3.93000007       7.13134032E-16
   3.99000001       2.38174018E-16
   4.05000019      -5.44644144E-16
   4.11000013      -1.33839422E-15
   4.17000008      -1.72786261E-15
   4.23000002      -1.35130385E-15
   4.28999996      -1.07487555E-16
   4.34999990       1.69389119E-15
   4.40999985       3.33540060E-15
   4.46999979       3.90492522E-15
   4.53000021       2.69037569E-15
   4.59000015      -3.76372737E-16
   4.65000010      -4.43767676E-15
   4.71000004      -7.80263881E-15
   4.76999998      -8.51318087E-15
   4.82999992      -5.26758990E-15
   4.88999987       1.65677686E-15
   4.94999981       9.98265259E-15
   5.01000023       1.59332877E-14
   5.07000017       1.57211212E-14
   5.13000011       7.56367218E-15
   5.19000006      -6.69898961E-15
   5.25000000      -2.14170045E-14
   5.30999994      -2.89597109E-14
   5.36999989      -2.32123958E-14
   5.42999983      -3.34353106E-15
   5.48999977       2.41498563E-14
   5.55000019       4.67660443E-14
   5.61000013       5.09618592E-14
   5.67000008       2.90937352E-14
   5.73000002      -1.48781456E-14
   5.78999996      -6.43348154E-14
   5.84999990      -9.53768653E-14
   5.90999985      -8.74018129E-14
   5.96999979      -3.45545261E-14
   6.03000021       4.77690261E-14
   6.09000015       1.25904576E-13
   6.15000010       1.60950165E-13
   6.21000004       1.27275835E-13
   6.26999998       2.81416549E-14
   6.32999992      -1.00157350E-13
   6.38999987      -2.00014349E-13
   6.44999981      -2.17253163E-13
   6.51000023      -1.28898303E-13
   6.57000017       3.94025463E-14
   6.63000011       2.16937904E-13
   6.69000006       3.14570337E-13
   6.75000000       2.65496175E-13
   6.80999994       6.26512121E-14
   6.86999989      -2.26103912E-13
   6.92999983      -4.76328341E-13
   6.98999977      -5.55931440E-13
   7.05000019      -3.86614406E-13
   7.11000013       9.14417806E-15
   7.17000008       5.00003847E-13
   7.23000002       8.86581553E-13
   7.28999996       9.79897045E-13
   7.34999990       6.87083420E-13
   7.40999985       6.63764359E-14
   7.46999979      -6.77636658E-13
   7.53000021      -1.26395140E-12
   7.59000015      -1.44664163E-12
   7.65000010      -1.12259063E-12
   7.71000004      -3.86807909E-13
   7.76999998       4.94570314E-13
   7.82999992       1.18890889E-12
   7.88999987       1.43860423E-12
   7.94999981       1.17797644E-12
   8.01000023       5.69683352E-13
   8.06999969      -6.29630625E-14
   8.13000011      -3.85134009E-13
   8.18999958      -2.18399829E-13
   8.25000000       3.49793328E-13
   8.31000042       9.72337445E-13
   8.36999989       1.17353675E-12
   8.43000031       5.58076751E-13
   8.48999977      -9.87876664E-13
   8.55000019      -3.19160822E-12
   8.60999966      -5.43567925E-12
   8.67000008      -6.93574191E-12
   8.72999954      -6.98480900E-12
   8.78999996      -5.16673379E-12
   8.85000038      -1.45913978E-12
   8.90999985       3.79802136E-12
   8.97000027       1.00240276E-11
   9.02999973       1.65188731E-11
   9.09000015       2.24969054E-11
   9.14999962       2.70001816E-11
   9.21000004       2.87456760E-11
   9.27000046       2.60380502E-11
   9.32999992       1.69062056E-11
   9.39000034      -4.27635412E-13
   9.44999981      -2.67570861E-11
   9.51000023      -6.09425774E-11
   9.56999969      -9.90974108E-11
   9.63000011      -1.34253580E-10
   9.68999958      -1.56793994E-10
   9.75000000      -1.55774615E-10
   9.81000042      -1.21032739E-10
   9.86999989      -4.57525719E-11
   9.93000031       7.09973746E-11
   9.98999977       2.22280680E-10
   10.0500002       3.92301330E-10
   10.1099997       5.56653224E-10
   10.1700001       6.83826940E-10
   10.2299995       7.37774231E-10
   10.2900000       6.81186052E-10
   10.3500004       4.79090378E-10
   10.4099998       1.02409366E-10
   10.4700003      -4.68808992E-10
   10.5299997      -1.24269106E-09
   10.5900002      -2.21353913E-09
   10.6499996      -3.36070394E-09
   10.7100000      -4.64852468E-09
   10.7700005      -6.02751760E-09
   10.8299999      -7.43692397E-09
   10.8900003      -8.80854945E-09
   10.9499998      -1.00716138E-08
   11.0100002      -1.11580798E-08
   11.0699997      -1.20078294E-08
   11.1300001      -1.25730510E-08
   11.1899996      -1.28213973E-08
   11.2500000      -1.27377904E-08
   11.3100004      -1.23250290E-08
   11.3699999      -1.16035244E-08
   11.4300003      -1.06104601E-08
   11.4899998      -9.39844558E-09
   11.5500002      -8.03341393E-09
   11.6099997      -6.59130350E-09
   11.6700001      -5.15312060E-09
   11.7299995      -3.79829368E-09
   11.7900000      -2.59686561E-09
   11.8500004      -1.60169311E-09
   11.9099998      -8.42220849E-10
   11.9700003      -3.21370819E-10
   12.0299997      -1.65340762E-11
   12.0900002       1.15280688E-10
   12.1499996       1.29129610E-10
   12.2100000       8.24376400E-11
   12.2700005       2.60154797E-11
   12.3299999      -2.42171235E-12
   12.3900003       1.87647502E-11
   12.4499998       9.56538182E-11
   12.5100002       2.21898874E-10
   12.5699997       3.83110460E-10
   12.6300001       5.61131530E-10
   12.6899996       7.37284567E-10
   12.7500000       8.94314400E-10
   12.8100004       1.01733555E-09
   12.8699999       1.09441833E-09
   12.9300003       1.11741016E-09
   12.9899998       1.08327380E-09
   13.0500002       9.95769134E-10
   13.1099997       8.66935024E-10
   13.1700001       7.17682080E-10
   13.2299995       5.76945658E-10
   13.2900000       4.79203677E-10
   13.3500004       4.60600752E-10
   13.4099998       5.54272850E-10
   13.4700003       7.85636445E-10
   13.5299997       1.16836396E-09
   13.5900002       1.70159298E-09
   13.6499996       2.36871700E-09
   13.7100000       3.13797122E-09
   13.7700005       3.96496835E-09
   13.8299999       4.79728568E-09
   13.8900003       5.58102276E-09
   13.9499998       6.26883478E-09
   14.0100002       6.82837475E-09
   14.0699997       7.24943217E-09
   14.1300001       7.54773133E-09
   14.1899996       7.76356224E-09
   14.2500000       7.95438027E-09
   14.3100004       8.18206036E-09
   14.3699999       8.49729087E-09
   14.4300003       8.92500829E-09
   14.4899998       9.45517531E-09
   14.5500002       1.00423216E-08
   14.6099997       1.06150573E-08
   14.6700001       1.10938396E-08
   14.7299995       1.14125616E-08
   14.7900000       1.15378578E-08
   14.8500004       1.14802345E-08
   14.9099998       1.12932179E-08
   14.9700003       1.10601777E-08
   15.0299997       1.08722382E-08
   15.0900002       1.08035660E-08
   15.1499996       1.08912284E-08
   15.2100000       1.11255414E-08
   15.2700005       1.14536656E-08
   15.3299999       1.17951897E-08
   15.3900003       1.20649517E-08
   15.4499998       1.21963248E-08
   15.5100002       1.21583845E-08
   15.5699997       1.19624222E-08
   15.6300001       1.16566223E-08
   15.6899996       1.13111049E-08
   15.7500000       1.09980132E-08
   15.8100004       1.07723368E-08
   15.8699999       1.06584084E-08
   15.9300003       1.06450830E-08
   15.9899998       1.06901057E-08
   16.0499992       1.07318385E-08
   16.1100006       1.07049374E-08
   16.1700001       1.05560121E-08
   16.2299995       1.02556630E-08
   16.2900009       9.80441062E-09
   16.3500004       9.23147336E-09
   16.4099998       8.58688498E-09
   16.4699993       7.92880783E-09
   16.5300007       7.30888683E-09
   16.5900002       6.75897249E-09
   16.6499996       6.28240926E-09
   16.7099991       5.85221560E-09
   16.7700005       5.41698597E-09
   16.8299999       4.91346830E-09
   16.8899994       4.28292513E-09
   16.9500008       3.48716012E-09
   17.0100002       2.51988763E-09
   17.0699997       1.41015033E-09
   17.1299992       2.16562462E-10
   17.1900005      -9.86277282E-10
   17.2500000      -2.12556439E-09
   17.3099995      -3.14731552E-09
   17.3700008      -4.02785139E-09
   17.4300003      -4.77656492E-09
   17.4899998      -5.42941292E-09
   17.5499992      -6.03539840E-09
   17.6100006      -6.64041577E-09
   17.6700001      -7.27356664E-09
   17.7299995      -7.94009836E-09
   17.7900009      -8.62279848E-09
   17.8500004      -9.29076993E-09
   17.9099998      -9.91194149E-09
   17.9699993      -1.04644737E-08
   18.0300007      -1.09427045E-08
   18.0900002      -1.13554526E-08
   18.1499996      -1.17175221E-08
   18.2099991      -1.20379999E-08
   18.2700005      -1.23104522E-08
   18.3299999      -1.25096360E-08
   18.3899994      -1.25970550E-08
   18.4500008      -1.25342421E-08
   18.5100002      -1.22994752E-08
   18.5699997      -1.19017614E-08
   18.6299992      -1.13863505E-08
   18.6900005      -1.08285922E-08
   18.7500000      -1.03168665E-08
   18.8099995      -9.92926008E-09
   18.8700008      -9.71105862E-09
   18.9300003      -9.66028679E-09
   18.9899998      -9.72610970E-09
   19.0499992      -9.82095827E-09
   19.1100006      -9.84288029E-09
   19.1700001      -9.70153824E-09
   19.2299995      -9.34028321E-09
   19.2900009      -8.74815331E-09
   19.3500004      -7.95890731E-09
   19.4099998      -7.03819314E-09
   19.4699993      -6.06332229E-09
   19.5300007      -5.10200326E-09
   19.5900002      -4.19620783E-09
   19.6499996      -3.35536421E-09
   19.7099991      -2.56000332E-09
   19.7700005      -1.77377169E-09
   19.8299999      -9.59378355E-10
   19.8899994      -9.31785135E-11
   19.9500008       8.26123725E-10
   20.0100002       1.77704940E-09
   20.0699997       2.72286216E-09
   20.1299992       3.62419450E-09
   20.1900005       4.45240245E-09
   20.2500000       5.19915000E-09
   20.3099995       5.87897553E-09
   20.3700008       6.52387833E-09
   20.4300003       7.17154380E-09
   20.4899998       7.85095811E-09
   20.5499992       8.57017035E-09
   20.6100006       9.31046085E-09
   20.6700001       1.00292663E-08
   20.7299995       1.06714149E-08
   20.7900009       1.11854561E-08
   20.8500004       1.15399690E-08
   20.9099998       1.17344889E-08
   20.9699993       1.18012613E-08
   21.0300007       1.17968773E-08
   21.0900002       1.17861489E-08
   21.1499996       1.18231593E-08
   21.2099991       1.19353905E-08
   21.2700005       1.21159198E-08
   21.3299999       1.23261135E-08
   21.3899994       1.25078703E-08
   21.4500008       1.26015127E-08
   21.5100002       1.25636266E-08
   21.5699997       1.23792967E-08
   21.6299992       1.20650796E-08
   21.6900005       1.16621148E-08
   21.7500000       1.12220162E-08
   21.8099995       1.07904201E-08
   21.8700008       1.03936308E-08
   21.9300003       1.00324735E-08
   21.9899998       9.68474190E-09
   22.0499992       9.31463973E-09
   22.1100006       8.88527651E-09
   22.1700001       8.36964986E-09
   22.2299995       7.75653497E-09
   22.2900009       7.05001213E-09
   22.3500004       6.26391028E-09
   22.4099998       5.41432499E-09
   22.4699993       4.51388260E-09
   22.5300007       3.57044749E-09
   22.5900002       2.59095878E-09
   22.6499996       1.58877966E-09
   22.7099991       5.91272420E-10
   22.7700005      -3.56141672E-10
   22.8299999      -1.19213472E-09
   22.8899994      -1.84836202E-09
   22.9500008      -2.26303953E-09
   23.0100002      -2.39516673E-09
   23.0699997      -2.23472685E-09
   23.1299992      -1.80529236E-09
   23.1900005      -1.15788334E-09
   23.2500000      -3.57864627E-10
   23.3099995       5.31042987E-10
   23.3700008       1.46069379E-09
   23.4300003       2.40630915E-09
   23.4899998       3.36621997E-09
   23.5499992       4.35428316E-09
   23.6100006       5.38787193E-09
   23.6700001       6.47538423E-09
   23.7299995       7.60697461E-09
   23.7900009       8.75089068E-09
   23.8500004       9.85601023E-09
   23.9099998       1.08593943E-08
   23.9699993       1.16965184E-08
   24.0300007       1.23113777E-08
   24.0900002       1.26640582E-08
   24.1499996       1.27342998E-08
   24.2099991       1.25207285E-08
   24.2700005       1.20365282E-08
   24.3299999       1.13029586E-08
   24.3899994       1.03423687E-08
   24.4500008       9.17217147E-09
   24.5100002       7.80085063E-09
   24.5699997       6.22662100E-09
   24.6299992       4.43890213E-09
   24.6900005       2.42235165E-09
   24.7500000       1.62769728E-10
   24.8099995      -2.34616393E-09
   24.8700008      -5.09659071E-09
   24.9300003      -8.06187117E-09
   24.9899998      -1.11946790E-08
   25.0499992      -1.44283199E-08
   25.1100006      -1.76812858E-08
   25.1700001      -2.08645332E-08
   25.2299995      -2.38905393E-08
   25.2900009      -2.66828390E-08
   25.3500004      -2.91844984E-08
   25.4099998      -3.13639248E-08
   25.4699993      -3.32167716E-08
   25.5300007      -3.47632749E-08
   25.5900002      -3.60414880E-08
   25.6499996      -3.70977489E-08
   25.7099991      -3.79766476E-08
   25.7700005      -3.87126846E-08
   25.8299999      -3.93255810E-08
   25.8899994      -3.98201330E-08
   25.9500008      -4.01904003E-08
   26.0100002      -4.04271141E-08
   26.0699997      -4.05262561E-08
   26.1299992      -4.04966976E-08
   26.1900005      -4.03646325E-08
   26.2500000      -4.01733651E-08
   26.3099995      -3.99779800E-08
   26.3700008      -3.98358004E-08
   26.4300003      -3.97949442E-08
   26.4899998      -3.98841422E-08
   26.5499992      -4.01069613E-08
   26.6100006      -4.04425258E-08
   26.6700001      -4.08528535E-08
   26.7299995      -4.12948289E-08
   26.7900009      -4.17331769E-08
   26.8500004      -4.21503792E-08
   26.9099998      -4.25503615E-08
   26.9699993      -4.29548308E-08
   27.0300007      -4.33934453E-08
   27.0900002      -4.38910881E-08
   27.1499996      -4.44562183E-08
   27.2099991      -4.50737225E-08
   27.2700005      -4.57041303E-08
   27.3299999      -4.62888110E-08
   27.3899994      -4.67592294E-08
   27.4500008      -4.70473651E-08
   27.5100002      -4.70947974E-08
   27.5699997      -4.68589576E-08
   27.6299992      -4.63164440E-08
   27.6900005      -4.54640094E-08
   27.7500000      -4.43181847E-08
   27.8099995      -4.29139781E-08
   27.8700008      -4.13026271E-08
   27.9300003      -3.95478139E-08
   27.9899998      -3.77200209E-08
   28.0499992      -3.58890659E-08
   28.1100006      -3.41157538E-08
   28.1700001      -3.24440066E-08
   28.2299995      -3.08952863E-08
   28.2900009      -2.94668165E-08
   28.3500004      -2.81345631E-08
   28.4099998      -2.68609188E-08
   28.4699993      -2.56059494E-08
   28.5300007      -2.43398279E-08
   28.5900002      -2.30533690E-08
   28.6499996      -2.17636273E-08
   28.7099991      -2.05124930E-08
   28.7700005      -1.93580956E-08
   28.8299999      -1.83610247E-08
   28.8899994      -1.75690964E-08
   28.9500008      -1.70050267E-08
   29.0100002      -1.66606142E-08
   29.0699997      -1.64990244E-08
   29.1299992      -1.64644103E-08
   29.1900005      -1.64959317E-08
   29.2500000      -1.65421561E-08
   29.3099995      -1.65718870E-08
   29.3700008      -1.65786815E-08
   29.4300003      -1.65781664E-08
   29.4899998      -1.65993264E-08
   29.5499992      -1.66725282E-08
   29.6100006      -1.68180208E-08
   29.6700001      -1.70384293E-08
   29.7299995      -1.73176495E-08
   29.7900009      -1.76264905E-08
   29.8500004      -1.79333401E-08
   29.9099998      -1.82163316E-08
   29.9699993      -1.84729192E-08
   30.0300007      -1.87234193E-08
   30.0900002      -1.90069489E-08
   30.1499996      -1.93705691E-08
   30.2099991      -1.98546530E-08
   30.2700005      -2.04788257E-08
   30.3299999      -2.12327915E-08
   30.3899994      -2.20751009E-08
   30.4500008      -2.29405632E-08
   30.5100002      -2.37544668E-08
   30.5699997      -2.44496121E-08
   30.6299992      -2.49811070E-08
   30.6900005      -2.53345291E-08
   30.7500000      -2.55250097E-08
   30.8099995      -2.55878145E-08
   30.8700008      -2.55637556E-08
   30.9300003      -2.54844608E-08
   30.9899998      -2.53625174E-08
   31.0499992      -2.51895713E-08
   31.1100006      -2.49426453E-08
   31.1700001      -2.45959608E-08
   31.2299995      -2.41338505E-08
   31.2900009      -2.35600908E-08
   31.3500004      -2.29005881E-08
   31.4099998      -2.21986127E-08
   31.4699993      -2.15043592E-08
   31.5300007      -2.08622648E-08
   31.5900002      -2.03000194E-08
   31.6499996      -1.98225045E-08
   31.7099991      -1.94122372E-08
   31.7700005      -1.90357952E-08
   31.8299999      -1.86539726E-08
   31.8899994      -1.82322157E-08
   31.9500008      -1.77480590E-08
   32.0099983      -1.71933472E-08
   32.0699997      -1.65711214E-08
   32.1300011      -1.58889915E-08
   32.1899986      -1.51522350E-08
   32.2500000      -1.43598253E-08
   32.3100014      -1.35052742E-08
   32.3699989      -1.25819115E-08
   32.4300003      -1.15902257E-08
   32.4900017      -1.05437987E-08
   32.5499992      -9.47094048E-09
   32.6100006      -8.41095993E-09
   32.6699982      -7.40634354E-09
   32.7299995      -6.49382503E-09
   32.7900009      -5.69782177E-09
   32.8499985      -5.02860864E-09
   32.9099998      -4.48564519E-09
   32.9700012      -4.06440348E-09
   33.0299988      -3.76373555E-09
   33.0900002      -3.59072061E-09
   33.1500015      -3.56096352E-09
   33.2099991      -3.69403952E-09
   33.2700005      -4.00555855E-09
   33.3300018      -4.49859838E-09
   33.3899994      -5.15763210E-09
   33.4500008      -5.94743632E-09
   33.5099983      -6.81798173E-09
   33.5699997      -7.71433495E-09
   33.6300011      -8.58880966E-09
   33.6899986      -9.41158707E-09
   33.7500000      -1.01762474E-08
   33.8100014      -1.08981766E-08
   33.8699989      -1.16061498E-08
   33.9300003      -1.23298065E-08
   33.9900017      -1.30871554E-08
   34.0499992      -1.38763685E-08
   34.1100006      -1.46745860E-08
   34.1699982      -1.54440531E-08
   34.2299995      -1.61433729E-08
   34.2900009      -1.67399552E-08
   34.3499985      -1.72193602E-08
   34.4099998      -1.75883557E-08
   34.4700012      -1.78706543E-08
   34.5299988      -1.80966993E-08
   34.5900002      -1.82909137E-08
   34.6500015      -1.84606712E-08
   34.7099991      -1.85907929E-08
   34.7700005      -1.86457445E-08
   34.8300018      -1.85792910E-08
   34.8899994      -1.83490450E-08
   34.9500008      -1.79318320E-08
   35.0099983      -1.73353065E-08
   35.0699997      -1.66023000E-08
   35.1300011      -1.58063269E-08
   35.1899986      -1.50391699E-08
   35.2500000      -1.43936649E-08
   35.3100014      -1.39461935E-08
   35.3699989      -1.37435539E-08
   35.4300003      -1.37975906E-08
   35.4900017      -1.40887924E-08
   35.5499992      -1.45773900E-08
   35.6100006      -1.52182817E-08
   35.6699982      -1.59750257E-08
   35.7299995      -1.68285190E-08
   35.7900009      -1.77778556E-08
   35.8499985      -1.88334628E-08
   35.9099998      -2.00051833E-08
   35.9700012      -2.12897024E-08
   36.0299988      -2.26619328E-08
   36.0900002      -2.40738114E-08
   36.1500015      -2.54615724E-08
   36.2099991      -2.67599400E-08
   36.2700005      -2.79192776E-08
   36.3300018      -2.89205211E-08
   36.3899994      -2.97830027E-08
   36.4500008      -3.05621590E-08
   36.5099983      -3.13370698E-08
   36.5699997      -3.21911315E-08
   36.6300011      -3.31914443E-08
   36.6899986      -3.43732225E-08
   36.7500000      -3.57339687E-08
   36.8100014      -3.72388165E-08
   36.8699989      -3.88347914E-08
   36.9300003      -4.04686453E-08
   36.9900017      -4.21020303E-08
   37.0499992      -4.37189769E-08
   37.1100006      -4.53238940E-08
   37.1699982      -4.69316674E-08
   37.2299995      -4.85542841E-08
   37.2900009      -5.01893815E-08
   37.3499985      -5.18150252E-08
   37.4099998      -5.33925650E-08
   37.4700012      -5.48763630E-08
   37.5299988      -5.62267211E-08
   37.5900002      -5.74212820E-08
   37.6500015      -5.84608486E-08
   37.7099991      -5.93675047E-08
   37.7700005      -6.01757648E-08
   37.8300018      -6.09198239E-08
   37.8899994      -6.16213214E-08
   37.9500008      -6.22816216E-08
   38.0099983      -6.28809289E-08
   38.0699997      -6.33841637E-08
   38.1300011      -6.37511945E-08
   38.1899986      -6.39478870E-08
   38.2500000      -6.39544879E-08
   38.3100014      -6.37691286E-08
   38.3699989      -6.34058992E-08
   38.4300003      -6.28886809E-08
   38.4900017      -6.22428757E-08
   38.5499992      -6.14875972E-08
   38.6100006      -6.06303558E-08
   38.6699982      -5.96657799E-08
   38.7299995      -5.85785642E-08
   38.7900009      -5.73500678E-08
   38.8499985      -5.59667441E-08
   38.9099998      -5.44281953E-08
   38.9700012      -5.27524513E-08
   39.0299988      -5.09768050E-08
   39.0900002      -4.91537229E-08
   39.1500015      -4.73428194E-08
   39.2099991      -4.56009523E-08
   39.2700005      -4.39730243E-08
   39.3300018      -4.24856346E-08
   39.3899994      -4.11447338E-08
   39.4500008      -3.99373477E-08
   39.5099983      -3.88364612E-08
   39.5699997      -3.78079470E-08
   39.6300011      -3.68182427E-08
   39.6899986      -3.58418468E-08
   39.7500000      -3.48675506E-08
   39.8100014      -3.39021646E-08
   39.8699989      -3.29704974E-08
   39.9300003      -3.21107940E-08
   39.9900017      -3.13659960E-08
   40.0499992      -3.07727390E-08
   40.1100006      -3.03512984E-08
   40.1699982      -3.01001002E-08
   40.2299995      -2.99970644E-08
   40.2900009      -3.00078682E-08
   40.3499985      -3.00985299E-08
   40.4099998      -3.02479037E-08
   40.4700012      -3.04554213E-08
   40.5299988      -3.07412620E-08
   40.5900002      -3.11385939E-08
   40.6500015      -3.16805604E-08
   40.7099991      -3.23862857E-08
   40.7700005      -3.32504797E-08
   40.8300018      -3.42398927E-08
   40.8899994      -3.52978660E-08
   40.9500008      -3.63556900E-08
   41.0099983      -3.73478457E-08
   41.0699997      -3.82269896E-08
   41.1300011      -3.89747576E-08
   41.1899986      -3.96053537E-08
   41.2500000      -4.01607103E-08
   41.3100014      -4.06983709E-08
   41.3699989      -4.12751433E-08
   41.4300003      -4.19311093E-08
   41.4900017      -4.26784759E-08
   41.5499992      -4.34986873E-08
   41.6100006      -4.43485817E-08
   41.6699982      -4.51736959E-08
   41.7299995      -4.59244873E-08
   41.7900009      -4.65701468E-08
   41.8499985      -4.71054520E-08
   41.9099998      -4.75484505E-08
   41.9700012      -4.79299160E-08
   42.0299988      -4.82785900E-08
   42.0900002      -4.86078271E-08
   42.1500015      -4.89087704E-08
   42.2099991      -4.91527778E-08
   42.2700005      -4.93021588E-08
   42.3300018      -4.93252301E-08
   42.3899994      -4.92098202E-08
   42.4500008      -4.89702501E-08
   42.5099983      -4.86452016E-08
   42.5699997      -4.82873652E-08
   42.6300011      -4.79485855E-08
   42.6899986      -4.76654058E-08
   42.7500000      -4.74495181E-08
   42.8100014      -4.72856563E-08
   42.8699989      -4.71371138E-08
   42.9300003      -4.69571084E-08
   42.9900017      -4.67026524E-08
   43.0499992      -4.63473633E-08
   43.1100006      -4.58897063E-08
   43.1699982      -4.53545397E-08
   43.2299995      -4.47873063E-08
   43.2900009      -4.42424231E-08
   43.3499985      -4.37691483E-08
   43.4099998      -4.33991367E-08
   43.4700012      -4.31395044E-08
   43.5299988      -4.29734257E-08
   43.5900002      -4.28677076E-08
   43.6500015      -4.27843609E-08
   43.7099991      -4.26918554E-08
   43.7700005      -4.25721183E-08
   43.8300018      -4.24211954E-08
   43.8899994      -4.22440678E-08
   43.9500008      -4.20464730E-08
   44.0099983      -4.18275867E-08
   44.0699997      -4.15769001E-08
   44.1300011      -4.12767243E-08
   44.1899986      -4.09093524E-08
   44.2500000      -4.04657889E-08
   44.3100014      -3.99523614E-08
   44.3699989      -3.93921411E-08
   44.4300003      -3.88203070E-08
   44.4900017      -3.82747558E-08
   44.5499992      -3.77851492E-08
   44.6100006      -3.73640674E-08
   44.6699982      -3.70031294E-08
   44.7299995      -3.66752282E-08
   44.7900009      -3.63419836E-08
   44.8499985      -3.59640282E-08
   44.9099998      -3.55110998E-08
   44.9700012      -3.49689664E-08
   45.0299988      -3.43412836E-08
   45.0900002      -3.36457653E-08
   45.1500015      -3.29056533E-08
   45.2099991      -3.21390061E-08
   45.2700005      -3.13492556E-08
   45.3300018      -3.05205070E-08
   45.3899994      -2.96198248E-08
   45.4500008      -2.86065873E-08
   45.5099983      -2.74463758E-08
   45.5699997      -2.61251021E-08
   45.6300011      -2.46586485E-08
   45.6899986      -2.30947723E-08
   45.7500000      -2.15065477E-08
   45.8100014      -1.99793817E-08
   45.8699989      -1.85954079E-08
   45.9300003      -1.74194454E-08
   45.9900017      -1.64896878E-08
   46.0499992      -1.58147380E-08
   46.1100006      -1.53771111E-08
   46.1699982      -1.51422146E-08
   46.2299995      -1.50711728E-08
   46.2900009      -1.51353206E-08
   46.3499985      -1.53295456E-08
   46.4099998      -1.56813265E-08
   46.4700012      -1.62526295E-08
   46.5299988      -1.71331518E-08
   46.5900002      -1.84257480E-08
   46.6500015      -2.02274784E-08
   46.7099991      -2.26117329E-08
   46.7700005      -2.56172878E-08
   46.8300018      -2.92485787E-08
   46.8899994      -3.34883303E-08
   46.9500008      -3.83199037E-08
   47.0099983      -4.37535910E-08
   47.0699997      -4.98496817E-08
   47.1300011      -5.67321088E-08
   47.1899986      -6.45894431E-08
   47.2500000      -7.36641184E-08
   47.3100014      -8.42345784E-08
   47.3699989      -9.65975246E-08
   47.4300003      -1.11057169E-07
   47.4900017      -1.27926128E-07
   47.5499992      -1.47538898E-07
   47.6100006      -1.70274802E-07
   47.6699982      -1.96585162E-07
   47.7299995      -2.27018219E-07
   47.7900009      -2.62237535E-07
   47.8499985      -3.03031754E-07
   47.9099998      -3.50316924E-07
   47.9700012      -4.05134585E-07
   48.0299988      -4.68650342E-07
   48.0900002      -5.42157295E-07
   48.1500015      -6.27087218E-07
   48.2099991      -7.25030191E-07
   48.2700005      -8.37760979E-07
   48.3300018      -9.67268079E-07
   48.3899994      -1.11578174E-06
   48.4500008      -1.28579643E-06
   48.5099983      -1.48008792E-06
   48.5699997      -1.70172621E-06
   48.6300011      -1.95408802E-06
   48.6899986      -2.24087398E-06
   48.7500000      -2.56613271E-06
   48.8100014      -2.93429184E-06
   48.8699989      -3.35019263E-06
   48.9300003      -3.81912059E-06
   48.9900017      -4.34683034E-06
   49.0499992      -4.93956259E-06
   49.1100006      -5.60404487E-06
   49.1699982      -6.34749267E-06
   49.2299995      -7.17760122E-06
   49.2900009      -8.10254642E-06
   49.3499985      -9.13098484E-06
   49.4099998      -1.02720678E-05
   49.4700012      -1.15354469E-05
   49.5299988      -1.29312830E-05
   49.5900002      -1.44702362E-05
   49.6500015      -1.61634507E-05
   49.7099991      -1.80225161E-05
   49.7700005      -2.00594204E-05
   49.8300018      -2.22864874E-05
   49.8899994      -2.47163043E-05
   49.9500008      -2.73616333E-05
   50.0099983      -3.02353528E-05
   50.0699997      -3.33503485E-05
   50.1300011      -3.67194698E-05
   50.1899986      -4.03554113E-05
   50.2500000      -4.42706369E-05
   50.3100014      -4.84772900E-05
   50.3699989      -5.29870558E-05
   50.4300003      -5.78110485E-05
   50.4900017      -6.29596325E-05
   50.5499992      -6.84422994E-05
   50.6100006      -7.42674820E-05