 -0.750000000       0.00000000    
 -0.689999998       0.00000000    
 -0.629999995       0.00000000    
 -0.569999993       0.00000000    
 -0.509999990       0.00000000    
 -0.449999988       0.00000000    
 -0.389999986       0.00000000    
 -0.330000013       0.00000000    
 -0.270000011       0.00000000    
 -0.209999993       0.00000000    
 -0.150000006       0.00000000    
  -9.00000036E-02   0.00000000    
  -2.99999993E-02  -1.09765385E-33
   2.99999993E-02  -2.23054211E-32
   9.00000036E-02  -2.06535392E-31
  0.150000006      -1.14318547E-30
  0.209999993      -4.00462036E-30
  0.270000011      -7.54694457E-30
  0.330000013       5.37153861E-30
  0.389999986       9.51816245E-29
  0.449999988       3.70849366E-28
  0.509999990       8.43162981E-28
  0.569999993       9.31847529E-28
  0.629999995      -1.30810192E-27
  0.689999998      -9.21261810E-27
  0.750000000      -2.43208590E-26
  0.810000002      -3.75170537E-26
  0.870000005      -1.71829575E-26
  0.930000007       9.06050384E-26
  0.990000010       3.22078793E-25
   1.04999995       5.96624032E-25
   1.11000001       5.95951380E-25
   1.16999996      -2.36306070E-25
   1.23000002      -2.35511189E-24
   1.28999996      -5.32275771E-24
   1.35000002      -6.88804470E-24
   1.40999997      -2.92614660E-24
   1.47000003       1.04010411E-23
   1.52999997       3.17113122E-23
   1.59000003       4.87036096E-23
   1.64999998       3.72245948E-23
   1.71000004      -2.77606684E-23
   1.76999998      -1.46539799E-22
   1.83000004      -2.64103790E-22
   1.88999999      -2.60754451E-22
   1.95000005       2.68400457E-24
   2.00999999       5.70093696E-22
   2.06999993       1.24317178E-21
   2.13000011       1.50895525E-21
   2.19000006       6.84595758E-22
   2.25000000      -1.63894226E-21
   2.30999994      -4.96472834E-21
   2.36999989      -7.44789869E-21
   2.43000007      -6.19699602E-21
   2.49000001       1.27823204E-21
   2.54999995       1.46861459E-20
   2.60999990       2.87987486E-20
   2.67000008       3.34367535E-20
   2.73000002       1.73074231E-20
   2.78999996      -2.43076587E-20
   2.84999990      -8.10101659E-20
   2.91000009      -1.23729004E-19
   2.97000003      -1.12384700E-19
   3.02999997      -1.69550102E-20
   3.08999991       1.54305619E-19
   3.15000010       3.35123359E-19
   3.21000004       4.09584943E-19
   3.26999998       2.60625353E-19
   3.32999992      -1.50360071E-19
   3.39000010      -7.09055550E-19
   3.45000005      -1.13324840E-18
   3.50999999      -1.06257895E-18
   3.56999993      -2.53026252E-19
   3.63000011       1.19433682E-18
   3.69000006       2.70268857E-18
   3.75000000       3.32686624E-18
   3.80999994       2.15874577E-18
   3.86999989      -1.07019759E-18
   3.93000007      -5.46895260E-18
   3.99000001      -8.92216117E-18
   4.05000019      -8.75821066E-18
   4.11000013      -3.11257539E-18
   4.17000008       7.50074972E-18
   4.23000002       1.92700277E-17
   4.28999996       2.57111309E-17
   4.34999990       2.02341513E-17
   4.40999985       6.61167790E-20
   4.46999979      -3.01687923E-17
   4.53000021      -5.75464920E-17
   4.59000015      -6.44897071E-17
   4.65000010      -3.70082260E-17
   4.71000004       2.51837702E-17
   4.76999998       1.01862468E-16
   4.82999992       1.54518543E-16
   4.88999987       1.40625416E-16
   4.94999981       3.71079344E-17
   5.01000023      -1.36774778E-16
   5.07000017      -3.11183652E-16
   5.13000011      -3.83824642E-16
   5.19000006      -2.65619950E-16
   5.25000000       6.09899390E-17
   5.30999994       5.00259035E-16
   5.36999989       8.49819844E-16
   5.42999983       8.72504763E-16
   5.48999977       4.18210474E-16
   5.55000019      -4.55068027E-16
   5.61000013      -1.43171819E-15
   5.67000008      -2.01682060E-15
   5.73000002      -1.74553596E-15
   5.78999996      -4.52169534E-16
   5.84999990       1.53242215E-15
   5.90999985       3.39123193E-15
   5.96999979       4.10351295E-15
   6.03000021       2.93096503E-15
   6.09000015      -9.65965836E-17
   6.15000010      -3.96332772E-15
   6.21000004      -6.91638189E-15
   6.26999998      -7.18211179E-15
   6.32999992      -3.89419501E-15
   6.38999987       2.20685414E-15
   6.44999981       8.73738880E-15
   6.51000023       1.24887300E-14
   6.57000017       1.08829444E-14
   6.63000011       3.45768844E-15
   6.69000006      -7.39032435E-15
   6.75000000      -1.69657752E-14
   6.80999994      -2.01505767E-14
   6.86999989      -1.39256240E-14
   6.92999983       6.14746973E-16
   6.98999977       1.79027224E-14
   7.05000019       2.97419932E-14
   7.11000013       2.89027598E-14
   7.17000008       1.30228114E-14
   7.23000002      -1.30978450E-14
   7.28999996      -3.83253101E-14
   7.34999990      -4.94161630E-14
   7.40999985      -3.72629919E-14
   7.46999979      -2.46923699E-15
   7.53000021       4.26971419E-14
   7.59000015       7.77637842E-14
   7.65000010       8.24122265E-14
   7.71000004       4.66570481E-14
   7.76999998      -2.18234600E-14
   7.82999992      -9.74835108E-14
   7.88999987      -1.45491231E-13
   7.94999981      -1.36726202E-13
   8.01000023      -6.31106970E-14
   8.06999969       5.42558789E-14
   8.13000011       1.69646510E-13
   8.18999958       2.30179753E-13
   8.25000000       2.00010445E-13
   8.31000042       8.04402253E-14
   8.36999989      -8.48502177E-14
   8.43000031      -2.24728195E-13
   8.48999977      -2.71702718E-13
   8.55000019      -1.96219885E-13
   8.60999966      -2.72230765E-14
   8.67000008       1.53945704E-13
   8.72999954       2.47838344E-13
   8.78999996       1.86709751E-13
   8.85000038      -2.30495503E-14
   8.90999985      -2.89039246E-13
   8.97000027      -4.63260506E-13
   9.02999973      -4.07244036E-13
   9.09000015      -6.56941339E-14
   9.14999962       4.86078951E-13
   9.21000004       1.04838122E-12
   9.27000046       1.36278597E-12
   9.32999992       1.21569757E-12
   9.39000034       5.37979871E-13
   9.44999981      -5.43985213E-13
   9.51000023      -1.73263617E-12
   9.56999969      -2.65406555E-12
   9.63000011      -2.98685230E-12
   9.68999958      -2.57203330E-12
   9.75000000      -1.45895958E-12
   9.81000042       1.29057843E-13
   9.86999989       1.88786725E-12
   9.93000031       3.53516305E-12
   9.98999977       4.87002322E-12
   10.0500002       5.76056173E-12
   10.1099997       6.07211980E-12
   10.1700001       5.58698617E-12
   10.2299995       3.98227198E-12
   10.2900000       9.14415028E-13
   10.3500004      -3.78887937E-12
   10.4099998      -9.88686650E-12
   10.4700003      -1.65352749E-11
   10.5299997      -2.22551543E-11
   10.5900002      -2.51314577E-11
   10.6499996      -2.32390635E-11
   10.7100000      -1.52103382E-11
   10.7700005      -7.93956806E-13
   10.8299999       1.87660790E-11
   10.8900003       4.06689127E-11
   10.9499998       6.08715092E-11
   11.0100002       7.47373760E-11
   11.0699997       7.78867526E-11
   11.1300001       6.70650688E-11
   11.1899996       4.08514229E-11
   11.2500000       8.58438212E-14
   11.3100004      -5.20190870E-11
   11.3699999      -1.10035939E-10
   11.4300003      -1.66659728E-10
   11.4899998      -2.13146986E-10
   11.5500002      -2.39836095E-10
   11.6099997      -2.36797887E-10
   11.6700001      -1.94702199E-10
   11.7299995      -1.05951747E-10
   11.7900000       3.39730639E-11
   11.8500004       2.25165636E-10
   11.9099998       4.62276190E-10
   11.9700003       7.34194650E-10
   12.0299997       1.02469810E-09
   12.0900002       1.31409805E-09
   12.1499996       1.58163427E-09
   12.2100000       1.80811766E-09
   12.2700005       1.97822847E-09
   12.3299999       2.08196504E-09
   12.3900003       2.11500084E-09
   12.4499998       2.07802953E-09
   12.5100002       1.97545580E-09
   12.5699997       1.81389515E-09
   12.6300001       1.60087643E-09
   12.6899996       1.34392719E-09
   12.7500000       1.04998932E-09
   12.8100004       7.24974969E-10
   12.8699999       3.73300807E-10
   12.9300003      -2.58726894E-12
   12.9899998      -4.02472916E-10
   13.0500002      -8.28051072E-10
   13.1099997      -1.28173461E-09
   13.1700001      -1.76454973E-09
   13.2299995      -2.27346630E-09
   13.2900000      -2.79885670E-09
   13.3500004      -3.32292904E-09
   13.4099998      -3.81984755E-09
   13.4700003      -4.25785140E-09
   13.5299997      -4.60313343E-09
   13.5900002      -4.82474016E-09
   13.6499996      -4.89944574E-09
   13.7100000      -4.81555995E-09
   13.7700005      -4.57491911E-09
   13.8299999      -4.19278079E-09
   13.8900003      -3.69581810E-09
   13.9499998      -3.11876169E-09
   14.0100002      -2.50039056E-09
   14.0699997      -1.87947435E-09
   14.1300001      -1.29108368E-09
   14.1899996      -7.63469676E-10
   14.2500000      -3.15598880E-10
   14.3100004       4.45377311E-11
   14.3699999       3.20591553E-10
   14.4300003       5.27112687E-10
   14.4899998       6.87033486E-10
   14.5500002       8.27268087E-10
   14.6099997       9.72824044E-10
   14.6700001       1.14042897E-09
   14.7299995       1.33316280E-09
   14.7900000       1.53769386E-09
   14.8500004       1.72530046E-09
   14.9099998       1.85692683E-09
   14.9700003       1.89135152E-09
   15.0299997       1.79450810E-09
   15.0900002       1.54749802E-09
   15.1499996       1.15112464E-09
   15.2100000       6.25769880E-10
   15.2700005       6.86466205E-12
   15.3299999      -6.62499056E-10
   15.3900003      -1.33951927E-09
   15.4499998      -1.98797845E-09
   15.5100002      -2.58149035E-09
   15.5699997      -3.10352055E-09
   15.6300001      -3.54511820E-09
   15.6899996      -3.90190058E-09
   15.7500000      -4.17174029E-09
   15.8100004      -4.35396519E-09
   15.8699999      -4.45000836E-09
   15.9300003      -4.46475701E-09
   15.9899998      -4.40763781E-09
   16.0499992      -4.29274394E-09
   16.1100006      -4.13791756E-09
   16.1700001      -3.96327682E-09
   16.2299995      -3.78994791E-09
   16.2900009      -3.63958841E-09
   16.3500004      -3.53474339E-09
   16.4099998      -3.49944340E-09
   16.4699993      -3.55907481E-09
   16.5300007      -3.73864628E-09
   16.5900002      -4.05918144E-09
   16.6499996      -4.53285232E-09
   16.7099991      -5.15824894E-09
   16.7700005      -5.91752114E-09
   16.8299999      -6.77677603E-09
   16.8899994      -7.69018804E-09
   16.9500008      -8.60709104E-09
   17.0100002      -9.48028944E-09
   17.0699997      -1.02734186E-08
   17.1299992      -1.09654694E-08
   17.1900005      -1.15515197E-08
   17.2500000      -1.20399326E-08
   17.3099995      -1.24472646E-08
   17.3700008      -1.27926274E-08
   17.4300003      -1.30931213E-08
   17.4899998      -1.33612197E-08
   17.5499992      -1.36041010E-08
   17.6100006      -1.38241711E-08
   17.6700001      -1.40196539E-08
   17.7299995      -1.41844589E-08
   17.7900009      -1.43071732E-08
   17.8500004      -1.43699168E-08
   17.9099998      -1.43483803E-08
   17.9699993      -1.42142706E-08
   18.0300007      -1.39406815E-08
   18.0900002      -1.35095668E-08
   18.1499996      -1.29192239E-08
   18.2099991      -1.21889832E-08
   18.2700005      -1.13587326E-08
   18.3299999      -1.04824087E-08
   18.3899994      -9.61676694E-09
   18.4500008      -8.80873952E-09
   18.5100002      -8.08558909E-09
   18.5699997      -7.45138795E-09
   18.6299992      -6.89124091E-09
   18.6900005      -6.38181774E-09
   18.7500000      -5.90442006E-09
   18.8099995      -5.45576828E-09
   18.8700008      -5.05251307E-09
   18.9300003      -4.72775685E-09
   18.9899998      -4.52073889E-09
   19.0499992      -4.46324933E-09
   19.1100006      -4.56740912E-09
   19.1700001      -4.81891460E-09
   19.2299995      -5.17799803E-09
   19.2900009      -5.58785862E-09
   19.3500004      -5.98803451E-09
   19.4099998      -6.32871755E-09
   19.4699993      -6.58183730E-09
   19.5300007      -6.74575640E-09
   19.5900002      -6.84239554E-09
   19.6499996      -6.90796043E-09
   19.7099991      -6.98044156E-09
   19.7700005      -7.08808345E-09
   19.8299999      -7.24263938E-09
   19.8899994      -7.43950368E-09
   19.9500008      -7.66424524E-09
   20.0100002      -7.90260390E-09
   20.0699997      -8.14964274E-09
   20.1299992      -8.41398418E-09
   20.1900005      -8.71498518E-09
   20.2500000      -9.07350906E-09
   20.3099995      -9.49955226E-09
   20.3700008      -9.98138905E-09
   20.4300003      -1.04804769E-08
   20.4899998      -1.09344169E-08
   20.5499992      -1.12675984E-08
   20.6100006      -1.14066987E-08
   20.6700001      -1.12969296E-08
   20.7299995      -1.09149525E-08
   20.7900009      -1.02756159E-08
   20.8500004      -9.43133127E-09
   20.9099998      -8.46466719E-09
   20.9699993      -7.47598161E-09
   21.0300007      -6.56861543E-09
   21.0900002      -5.83447735E-09
   21.1499996      -5.34259836E-09
   21.2099991      -5.13261522E-09
   21.2700005      -5.21402432E-09
   21.3299999      -5.57064173E-09
   21.3899994      -6.16829698E-09
   21.4500008      -6.96295599E-09
   21.5100002      -7.90655363E-09
   21.5699997      -8.94892338E-09
   21.6299992      -1.00359987E-08
   21.6900005      -1.11061711E-08
   21.7500000      -1.20876242E-08
   21.8099995      -1.28992284E-08
   21.8700008      -1.34561624E-08
   21.9300003      -1.36795917E-08
   21.9899998      -1.35080462E-08
   22.0499992      -1.29074360E-08
   22.1100006      -1.18769359E-08
   22.1700001      -1.04491713E-08
   22.2299995      -8.68474537E-09
   22.2900009      -6.66254607E-09
   22.3500004      -4.46825643E-09
   22.4099998      -2.18381691E-09
   22.4699993       1.19752125E-10
   22.5300007       2.38467779E-09
   22.5900002       4.56381510E-09
   22.6499996       6.61452981E-09
   22.7099991       8.49186499E-09
   22.7700005       1.01443165E-08
   22.8299999       1.15149632E-08
   22.8899994       1.25490054E-08
   22.9500008       1.32063720E-08
   23.0100002       1.34759217E-08
   23.0699997       1.33866536E-08
   23.1299992       1.30118867E-08
   23.1900005       1.24643531E-08
   23.2500000       1.18829284E-08
   23.3099995       1.14142651E-08
   23.3700008       1.11939347E-08
   23.4300003       1.13315064E-08
   23.4899998       1.19023520E-08
   23.5499992       1.29466837E-08
   23.6100006       1.44741819E-08
   23.6700001       1.64712812E-08
   23.7299995       1.89081142E-08
   23.7900009       2.17430571E-08
   23.8500004       2.49243470E-08
   23.9099998       2.83897581E-08
   23.9699993       3.20660938E-08
   24.0300007       3.58702827E-08
   24.0900002       3.97129618E-08
   24.1499996       4.35042971E-08
   24.2099991       4.71607144E-08
   24.2700005       5.06107867E-08
   24.3299999       5.37989457E-08
   24.3899994       5.66865523E-08
   24.4500008       5.92509437E-08
   24.5100002       6.14836964E-08
   24.5699997       6.33893151E-08
   24.6299992       6.49848104E-08
   24.6900005       6.62998971E-08
   24.7500000       6.73766252E-08
   24.8099995       6.82673829E-08
   24.8700008       6.90306052E-08
   24.9300003       6.97246989E-08
   24.9899998       7.04013772E-08
   25.0499992       7.11001675E-08
   25.1100006       7.18452782E-08
   25.1700001       7.26454914E-08
   25.2299995       7.34962242E-08
   25.2900009       7.43826334E-08
   25.3500004       7.52821450E-08
   25.4099998       7.61655841E-08
   25.4699993       7.69969475E-08
   25.5300007       7.77330200E-08
   25.5900002       7.83240424E-08
   25.6499996       7.87165106E-08
   25.7099991       7.88583208E-08
   25.7700005       7.87051491E-08
   25.8299999       7.82264493E-08
   25.8899994       7.74093110E-08
   25.9500008       7.62590986E-08
   26.0100002       7.47967590E-08
   26.0699997       7.30535916E-08
   26.1299992       7.10649459E-08
   26.1900005       6.88642601E-08
   26.2500000       6.64784352E-08
   26.3099995       6.39253273E-08
   26.3700008       6.12133917E-08
   26.4300003       5.83434989E-08
   26.4899998       5.53126149E-08
   26.5499992       5.21187609E-08
   26.6100006       4.87663883E-08
   26.6700001       4.52709870E-08
   26.7299995       4.16616146E-08
   26.7900009       3.79803780E-08
   26.8500004       3.42784396E-08
   26.9099998       3.06091223E-08
   26.9699993       2.70195617E-08
   27.0300007       2.35431088E-08
   27.0900002       2.01947152E-08
   27.1499996       1.69709171E-08
   27.2099991       1.38548053E-08
   27.2700005       1.08247695E-08
   27.3299999       7.86443177E-09
   27.3899994       4.97063235E-09
   27.4500008       2.15679785E-09
   27.5100002      -5.49348400E-10
   27.5699997      -3.11275583E-09
   27.6299992      -5.49997292E-09
   27.6900005      -7.68668063E-09
   27.7500000      -9.66126557E-09
   27.8099995      -1.14237135E-08
   27.8700008      -1.29811779E-08
   27.9300003      -1.43429268E-08
   27.9899998      -1.55173776E-08
   28.0499992      -1.65126437E-08
   28.1100006      -1.73401293E-08
   28.1700001      -1.80191719E-08
   28.2299995      -1.85801099E-08
   28.2900009      -1.90638527E-08
   28.3500004      -1.95174703E-08
   28.4099998      -1.99868619E-08
   28.4699993      -2.05086472E-08
   28.5300007      -2.11036646E-08
   28.5900002      -2.17738982E-08
   28.6499996      -2.25036914E-08
   28.7099991      -2.32648993E-08
   28.7700005      -2.40245992E-08
   28.8299999      -2.47531897E-08
   28.8899994      -2.54305466E-08
   28.9500008      -2.60483031E-08
   29.0100002      -2.66075819E-08
   29.0699997      -2.71131384E-08
   29.1299992      -2.75664043E-08
   29.1900005      -2.79605885E-08
   29.2500000      -2.82803114E-08
   29.3099995      -2.85063742E-08
   29.3700008      -2.86237913E-08
   29.4300003      -2.86295556E-08
   29.4899998      -2.85363733E-08
   29.5499992      -2.83702697E-08
   29.6100006      -2.81628090E-08
   29.6700001      -2.79411108E-08
   29.7299995      -2.77200538E-08
   29.7900009      -2.74999081E-08
   29.8500004      -2.72701737E-08
   29.9099998      -2.70174159E-08
   29.9699993      -2.67331703E-08
   30.0300007      -2.64181281E-08
   30.0900002      -2.60807553E-08
   30.1499996      -2.57311648E-08
   30.2099991      -2.53731756E-08
   30.2700005      -2.49980996E-08
   30.3299999      -2.45828620E-08
   30.3899994      -2.40931683E-08
   30.4500008      -2.34905162E-08
   30.5100002      -2.27406538E-08
   30.5699997      -2.18210499E-08
   30.6299992      -2.07254054E-08
   30.6900005      -1.94644301E-08
   30.7500000      -1.80630408E-08
   30.8099995      -1.65550986E-08
   30.8700008      -1.49773527E-08
   30.9300003      -1.33644358E-08
   30.9899998      -1.17463772E-08
   31.0499992      -1.01490825E-08
   31.1100006      -8.59692140E-09
   31.1700001      -7.11550419E-09
   31.2299995      -5.73248471E-09
   31.2900009      -4.47512427E-09
   31.3500004      -3.36513661E-09
   31.4099998      -2.41305176E-09
   31.4699993      -1.61511138E-09
   31.5300007      -9.54905044E-10
   31.5900002      -4.09871387E-10
   31.6499996       3.96142841E-11
   31.7099991       4.02301498E-10
   31.7700005       6.72765177E-10
   31.8299999       8.34342595E-10
   31.8899994       8.67256378E-10
   31.9500008       7.58776708E-10
   32.0099983       5.11569564E-10
   32.0699997       1.47288057E-10
   32.1300011      -2.95641400E-10
   32.1899986      -7.69100394E-10
   32.2500000      -1.22497967E-09
   32.3100014      -1.62487834E-09
   32.3699989      -1.94757765E-09
   32.4300003      -2.19282814E-09
   32.4900017      -2.38085440E-09
   32.5499992      -2.54782351E-09
   32.6100006      -2.73830358E-09
   32.6699982      -2.99636538E-09
   32.7299995      -3.35727268E-09
   32.7900009      -3.84147780E-09
   32.8499985      -4.45191262E-09
   32.9099998      -5.17461318E-09
   32.9700012      -5.98193095E-09
   33.0299988      -6.83729029E-09
   33.0900002      -7.70055308E-09
   33.1500015      -8.53337312E-09
   33.2099991      -9.30400113E-09
   33.2700005      -9.99086858E-09
   33.3300018      -1.05841362E-08
   33.3899994      -1.10844960E-08
   33.4500008      -1.14993810E-08
   33.5099983      -1.18377628E-08
   33.5699997      -1.21055912E-08
   33.6300011      -1.23039650E-08
   33.6899986      -1.24309185E-08
   33.7500000      -1.24860486E-08
   33.8100014      -1.24755708E-08
   33.8699989      -1.24149899E-08
   33.9300003      -1.23275150E-08
   33.9900017      -1.22383721E-08
   34.0499992      -1.21671926E-08
   34.1100006      -1.21217436E-08
   34.1699982      -1.20958301E-08
   34.2299995      -1.20725074E-08
   34.2900009      -1.20314896E-08
   34.3499985      -1.19578658E-08
   34.4099998      -1.18486660E-08
   34.4700012      -1.17145431E-08
   34.5299988      -1.15756578E-08
   34.5900002      -1.14530252E-08
   34.6500015      -1.13583569E-08
   34.7099991      -1.12862617E-08
   34.7700005      -1.12121148E-08
   34.8300018      -1.10971259E-08
   34.8899994      -1.08996083E-08
   34.9500008      -1.05890861E-08
   35.0099983      -1.01585131E-08
   35.0699997      -9.63023084E-09
   35.1300011      -9.05326125E-09
   35.1899986      -8.49249471E-09
   35.2500000      -8.01311018E-09
   35.3100014      -7.66510944E-09
   35.3699989      -7.47263851E-09
   35.4300003      -7.43090167E-09
   35.4900017      -7.51089146E-09
   35.5499992      -7.66967112E-09
   35.6100006      -7.86253818E-09
   35.6699982      -8.05319278E-09
   35.7299995      -8.21905921E-09
   35.7900009      -8.35069969E-09
   35.8499985      -8.44624637E-09
   35.9099998      -8.50352055E-09
   35.9700012      -8.51338555E-09
   36.0299988      -8.45759640E-09
   36.0900002      -8.31279046E-09
   36.1500015      -8.05982037E-09
   36.2099991      -7.69509167E-09
   36.2700005      -7.23914839E-09
   36.3300018      -6.73817269E-09
   36.3899994      -6.25648111E-09
   36.4500008      -5.86154147E-09
   36.5099983      -5.60627011E-09
   36.5699997      -5.51474999E-09
   36.6300011      -5.57655122E-09
   36.6899986      -5.75173420E-09
   36.7500000      -5.98473582E-09
   36.8100014      -6.22213969E-09
   36.8699989      -6.42811804E-09
   36.9300003      -6.59241994E-09
   36.9900017      -6.72864076E-09
   37.0499992      -6.86403778E-09
   37.1100006      -7.02502945E-09
   37.1699982      -7.22385129E-09
   37.2299995      -7.45119166E-09
   37.2900009      -7.67734498E-09
   37.3499985      -7.86125565E-09
   37.4099998      -7.96394062E-09
   37.4700012      -7.96117394E-09
   37.5299988      -7.85065790E-09
   37.5900002      -7.65110553E-09
   37.6500015      -7.39385841E-09
   37.7099991      -7.11065296E-09
   37.7700005      -6.82257717E-09
   37.8300018      -6.53457555E-09
   37.8899994      -6.23734397E-09
   37.9500008      -5.91518878E-09
   38.0099983      -5.55597657E-09
   38.0699997      -5.15863885E-09
   38.1300011      -4.73514650E-09
   38.1899986      -4.30656533E-09
   38.2500000      -3.89548260E-09
   38.3100014      -3.51846841E-09
   38.3699989      -3.18179993E-09
   38.4300003      -2.88179081E-09
   38.4900017      -2.60879318E-09
   38.5499992      -2.35241471E-09
   38.6100006      -2.10538831E-09
   38.6699982      -1.86470950E-09
   38.7299995      -1.63037850E-09
   38.7900009      -1.40336653E-09
   38.8499985      -1.18461629E-09
   38.9099998      -9.75979741E-10
   38.9700012      -7.82574394E-10
   39.0299988      -6.14896356E-10
   39.0900002      -4.88843743E-10
   39.1500015      -4.22661239E-10
   39.2099991      -4.31344849E-10
   39.2700005      -5.20489540E-10
   39.3300018      -6.82247370E-10
   39.3899994      -8.95590602E-10
   39.4500008      -1.13160170E-09
   39.5099983      -1.36256051E-09
   39.5699997      -1.57192737E-09
   39.6300011      -1.76161319E-09
   39.6899986      -1.95355288E-09
   39.7500000      -2.18443708E-09
   39.8100014      -2.49490473E-09
   39.8699989      -2.91667646E-09
   39.9300003      -3.46212414E-09
   39.9900017      -4.12009804E-09
   40.0499992      -4.85963358E-09
   40.1100006      -5.64019897E-09
   40.1699982      -6.42460130E-09
   40.2299995      -7.18962623E-09
   40.2900009      -7.93033905E-09
   40.3499985      -8.65653149E-09
   40.4099998      -9.38290334E-09
   40.4700012      -1.01171400E-08
   40.5299988      -1.08508411E-08
   40.5900002      -1.15572885E-08
   40.6500015      -1.21973756E-08
   40.7099991      -1.27319577E-08
   40.7700005      -1.31362947E-08
   40.8300018      -1.34112126E-08
   40.8899994      -1.35864688E-08
   40.9500008      -1.37142377E-08
   41.0099983      -1.38540726E-08
   41.0699997      -1.40538274E-08
   41.1300011      -1.43328318E-08
   41.1899986      -1.46733488E-08
   41.2500000      -1.50237760E-08
   41.3100014      -1.53131907E-08
   41.3699989      -1.54727235E-08
   41.4300003      -1.54566919E-08
   41.4900017      -1.52563580E-08
   41.5499992      -1.49016532E-08
   41.6100006      -1.44506203E-08
   41.6699982      -1.39706007E-08
   41.7299995      -1.35180702E-08
   41.7900009      -1.31241640E-08
   41.8499985      -1.27904975E-08
   41.9099998      -1.24958950E-08
   41.9700012      -1.22106645E-08
   42.0299988      -1.19126824E-08
   42.0900002      -1.15994157E-08
   42.1500015      -1.12920144E-08
   42.2099991      -1.10307701E-08
   42.2700005      -1.08641425E-08
   42.3300018      -1.08353406E-08
   42.3899994      -1.09706422E-08
   42.4500008      -1.12725038E-08
   42.5099983      -1.17188002E-08
   42.5699997      -1.22678427E-08
   42.6300011      -1.28676101E-08
   42.6899986      -1.34669103E-08
   42.7500000      -1.40258960E-08
   42.8100014      -1.45234749E-08
   42.8699989      -1.49597330E-08
   42.9300003      -1.53526454E-08
   42.9900017      -1.57299507E-08
   43.0499992      -1.61186886E-08
   43.1100006      -1.65358465E-08
   43.1699982      -1.69833427E-08
   43.2299995      -1.74489276E-08
   43.2900009      -1.79123667E-08
   43.3499985      -1.83541573E-08
   43.4099998      -1.87631333E-08
   43.4700012      -1.91400122E-08
   43.5299988      -1.94958716E-08
   43.5900002      -1.98467003E-08
   43.6500015      -2.02067234E-08
   43.7099991      -2.05833182E-08
   43.7700005      -2.09752340E-08
   43.8300018      -2.13742002E-08
   43.8899994      -2.17685336E-08
   43.9500008      -2.21468603E-08
   44.0099983      -2.25004957E-08
   44.0699997      -2.28240911E-08
   44.1300011      -2.31150441E-08
   44.1899986      -2.33726318E-08
   44.2500000      -2.35976341E-08
   44.3100014      -2.37925537E-08
   44.3699989      -2.39620466E-08
   44.4300003      -2.41130316E-08
   44.4900017      -2.42542715E-08
   44.5499992      -2.43957370E-08
   44.6100006      -2.45483136E-08
   44.6699982      -2.47241871E-08
   44.7299995      -2.49376413E-08
   44.7900009      -2.52054182E-08
   44.8499985      -2.55456101E-08
   44.9099998      -2.59747033E-08
   44.9700012      -2.65033897E-08
   45.0299988      -2.71327725E-08
   45.0900002      -2.78527708E-08
   45.1500015      -2.86437754E-08
   45.2099991      -2.94811269E-08
   45.2700005      -3.03406260E-08
   45.3300018      -3.12027453E-08
   45.3899994      -3.20539222E-08
   45.4500008      -3.28848770E-08
   45.5099983      -3.36875026E-08
   45.5699997      -3.44525368E-08
   45.6300011      -3.51696343E-08
   45.6899986      -3.58299594E-08
   45.7500000      -3.64296753E-08
   45.8100014      -3.69721000E-08
   45.8699989      -3.74666946E-08
   45.9300003      -3.79248029E-08
   45.9900017      -3.83537575E-08
   46.0499992      -3.87519030E-08
   46.1100006      -3.91069435E-08
   46.1699982      -3.93985040E-08
   46.2299995      -3.96041742E-08
   46.2900009      -3.97067375E-08
   46.3499985      -3.97002395E-08
   46.4099998      -3.95927806E-08
   46.4700012      -3.94053750E-08
   46.5299988      -3.91672330E-08
   46.5900002      -3.89090076E-08
   46.6500015      -3.86558483E-08
   46.7099991      -3.84224244E-08
   46.7700005      -3.82113292E-08
   46.8300018      -3.80155996E-08
   46.8899994      -3.78245062E-08
   46.9500008      -3.76306097E-08
   47.0099983      -3.74354201E-08
   47.0699997      -3.72513647E-08
   47.1300011      -3.70991522E-08
   47.1899986      -3.70016053E-08
   47.2500000      -3.69763953E-08
   47.3100014      -3.70303432E-08
   47.3699989      -3.71572106E-08
   47.4300003      -3.73391060E-08
   47.4900017      -3.75503575E-08
   47.5499992      -3.77621561E-08
   47.6100006      -3.79465241E-08
   47.6699982      -3.80792073E-08
   47.7299995      -3.81414651E-08
   47.7900009      -3.81209375E-08
   47.8499985      -3.80115495E-08
   47.9099998      -3.78120824E-08
   47.9700012      -3.75232858E-08
   48.0299988      -3.71439306E-08
   48.0900002      -3.66665560E-08
   48.1500015      -3.60738746E-08
   48.2099991      -3.53363454E-08
   48.2700005      -3.44110127E-08
   48.3300018      -3.32414309E-08
   48.3899994      -3.17583897E-08
   48.4500008      -2.98814022E-08
   48.5099983      -2.75206364E-08
   48.5699997      -2.45785223E-08
   48.6300011      -2.09497024E-08
   48.6899986      -1.65177720E-08
   48.7500000      -1.11478338E-08
   48.8100014      -4.67501593E-09
   48.8699989       3.10961679E-09
   48.9300003       1.24735520E-08
   48.9900017       2.37556677E-08
   49.0499992       3.73762568E-08
   49.1100006       5.38442393E-08
   49.1699982       7.37628412E-08
   49.2299995       9.78356667E-08
   49.2900009       1.26875463E-07
   49.3499985       1.61817496E-07
   49.4099998       2.03739049E-07
   49.4700012       2.53884764E-07
   49.5299988       3.13696916E-07
   49.5900002       3.84848249E-07
   49.6500015       4.69275989E-07
   49.7099991       5.69216354E-07
   49.7700005       6.87240970E-07
   49.8300018       8.26298503E-07
   49.8899994       9.89763407E-07
   49.9500008       1.18149353E-06
   50.0099983       1.40589418E-06
   50.0699997       1.66798736E-06
   50.1300011       1.97348345E-06
   50.1899986       2.32885282E-06
   50.2500000       2.74140302E-06
   50.3100014       3.21936091E-06
   50.3699989       3.77196693E-06
   50.4300003       4.40957774E-06
   50.4900017       5.14377962E-06
   50.5499992       5.98750967E-06
   50.6100006       6.95517747E-06