  -2.400000      0.0000000E+00
  -2.340000      0.0000000E+00
  -2.280000      0.0000000E+00
  -2.220000      0.0000000E+00
  -2.160000      0.0000000E+00
  -2.100000      0.0000000E+00
  -2.040000      0.0000000E+00
  -1.980000      0.0000000E+00
  -1.920000      0.0000000E+00
  -1.860000      0.0000000E+00
  -1.800000      0.0000000E+00
  -1.740000      0.0000000E+00
  -1.680000     -1.0865187E-33
  -1.620000     -2.2315746E-32
  -1.560000     -2.0812424E-31
  -1.500000     -1.1584926E-30
  -1.440000     -4.0804539E-30
  -1.380000     -7.7610470E-30
  -1.320000      5.1749613E-30
  -1.260000      9.6377988E-29
  -1.200000      3.7759537E-28
  -1.140000      8.6115348E-28
  -1.080000      9.5497487E-28
  -1.020000     -1.3322483E-27
 -0.9600000     -9.4182727E-27
 -0.9000000     -2.4863674E-26
 -0.8400000     -3.8244504E-26
 -0.7800000     -1.6976860E-26
 -0.7200000      9.4289025E-26
 -0.6600000      3.3191655E-25
 -0.6000000      6.1032970E-25
 -0.5400000      5.9766198E-25
 -0.4800000     -2.8073698E-25
 -0.4200000     -2.4817959E-24
 -0.3600000     -5.5143192E-24
 -0.3000000     -6.9871225E-24
 -0.2400000     -2.5890774E-24
 -0.1800000      1.1567889E-23
 -0.1200000      3.3699311E-23
 -5.9999999E-02  5.0407896E-23
  0.0000000E+00  3.6018244E-23
  5.9999999E-02 -3.5234261E-23
  0.1200000     -1.6150714E-22
  0.1800000     -2.8114728E-22
  0.2400000     -2.6451948E-22
  0.3000000      3.4330056E-23
  0.3600000      6.5174380E-22
  0.4200000      1.3579006E-21
  0.4800000      1.5878738E-21
  0.5400000      6.1410310E-22
  0.6000000     -1.9597266E-21
  0.6600000     -5.5193154E-21
  0.7200000     -8.0009085E-21
  0.7800000     -6.2904937E-21
  0.8400000      2.1390424E-21
  0.9000000      1.6655590E-20
  0.9600000      3.1285147E-20
   1.020000      3.4986654E-20
   1.080000      1.6094482E-20
   1.140000     -2.9350720E-20
   1.200000     -8.8884822E-20
   1.260000     -1.3081660E-19
   1.320000     -1.1355353E-19
   1.380000     -8.4429655E-21
   1.440000      1.7150622E-19
   1.500000      3.5380371E-19
   1.560000      4.1897052E-19
   1.620000      2.5305652E-19
   1.680000     -1.7235859E-19
   1.740000     -7.3140034E-19
   1.800000     -1.1390979E-18
   1.860000     -1.0489807E-18
   1.920000     -2.4391602E-19
   1.980000      1.1548859E-18
   2.040000      2.5856768E-18
   2.100000      3.1697377E-18
   2.160000      2.0955341E-18
   2.220000     -8.4679332E-19
   2.280000     -4.8348868E-18
   2.340000     -7.9975048E-18
   2.400000     -8.0179212E-18
   2.460000     -3.2927428E-18
   2.520000      5.7725788E-18
   2.580000      1.6023051E-17
   2.640000      2.2062766E-17
   2.700000      1.8317526E-17
   2.760000      2.2083849E-18
   2.820000     -2.2865828E-17
   2.880000     -4.6578120E-17
   2.940000     -5.4340896E-17
   3.000000     -3.3854348E-17
   3.060000      1.6386072E-17
   3.120000      8.0744111E-17
   3.180000      1.2724698E-16
   3.240000      1.1877403E-16
   3.300000      3.3136217E-17
   3.360000     -1.1578062E-16
   3.420000     -2.6838385E-16
   3.480000     -3.3308152E-16
   3.540000     -2.2650100E-16
   3.600000      7.1658312E-17
   3.660000      4.7597079E-16
   3.720000      7.9686843E-16
   3.780000      8.0598340E-16
   3.840000      3.5428874E-16
   3.900000     -5.0515171E-16
   3.960000     -1.4615260E-15
   4.020000     -2.0187590E-15
   4.080000     -1.7050110E-15
   4.140000     -3.5000378E-16
   4.200000      1.7052642E-15
   4.260000      3.6119488E-15
   4.320000      4.3033640E-15
   4.380000      3.0052265E-15
   4.440000     -2.4780269E-16
   4.500000     -4.3750709E-15
   4.560000     -7.5094087E-15
   4.620000     -7.7582670E-15
   4.680000     -4.1959484E-15
   4.740000      2.3855586E-15
   4.800000      9.4353109E-15
   4.860000      1.3518239E-14
   4.920000      1.1872980E-14
   4.980000      3.9981183E-15
   5.040000     -7.5591050E-15
   5.100000     -1.7809591E-14
   5.160000     -2.1327607E-14
   5.220000     -1.4928954E-14
   5.280000      2.1186839E-16
   5.340000      1.8217299E-14
   5.400000      3.0495598E-14
   5.460000      2.9548077E-14
   5.520000      1.3042722E-14
   5.580000     -1.3862029E-14
   5.640000     -3.9500646E-14
   5.700000     -5.0208017E-14
   5.760000     -3.6838395E-14
   5.820000     -4.4779688E-16
   5.880000      4.5901102E-14
   5.940000      8.0966741E-14
   6.000000      8.4108237E-14
   6.060000      4.5717299E-14
   6.120000     -2.5531259E-14
   6.180000     -1.0289529E-13
   6.240000     -1.5072644E-13
   6.300000     -1.3991435E-13
   6.360000     -6.3271410E-14
   6.420000      5.6750299E-14
   6.480000      1.7332060E-13
   6.540000      2.3334243E-13
   6.600000      2.0182486E-13
   6.660000      8.1541951E-14
   6.720000     -8.2657331E-14
   6.780000     -2.1969701E-13
   6.840000     -2.6371833E-13
   6.900000     -1.8780336E-13
   6.960000     -2.3152822E-14
   7.020000      1.4859063E-13
   7.080000      2.3053288E-13
   7.140000      1.5986016E-13
   7.200000     -5.1661905E-14
   7.260000     -3.0848861E-13
   7.320000     -4.6384072E-13
   7.380000     -3.8516868E-13
   7.440000     -2.5807517E-14
   7.500000      5.3127695E-13
   7.560000      1.0834426E-12
   7.620000      1.3758607E-12
   7.680000      1.2038161E-12
   7.740000      5.0828000E-13
   7.800000     -5.7800992E-13
   7.860000     -1.7581709E-12
   7.920000     -2.6656234E-12
   7.980000     -2.9887438E-12
   8.040000     -2.5749155E-12
   8.100000     -1.4720436E-12
   8.160000      1.0573192E-13
   8.220000      1.8661106E-12
   8.280000      3.5336502E-12
   8.340000      4.9033473E-12
   8.400000      5.8280633E-12
   8.460000      6.1534540E-12
   8.520000      5.6486209E-12
   8.580000      3.9933170E-12
   8.640000      8.6427973E-13
   8.700000     -3.8810032E-12
   8.760000     -9.9777495E-12
   8.820000     -1.6578027E-11
   8.880000     -2.2225072E-11
   8.940000     -2.5043408E-11
   9.000000     -2.3145005E-11
   9.060000     -1.5175075E-11
   9.120000     -8.5927809E-13
   9.180000      1.8610417E-11
   9.240000      4.0489896E-11
   9.300000      6.0766572E-11
   9.360000      7.4786490E-11
   9.420000      7.8105536E-11
   9.480000      6.7384091E-11
   9.540000      4.1136299E-11
   9.600000      1.9337978E-13
   9.660000     -5.2172669E-11
   9.720000     -1.1042690E-10
   9.780000     -1.6715393E-10
   9.840000     -2.1354706E-10
   9.900000     -2.3995966E-10
   9.960000     -2.3655297E-10
   10.02000     -1.9412633E-10
   10.08000     -1.0519917E-10
   10.14000      3.4687576E-11
   10.20000      2.2563855E-10
   10.26000      4.6236923E-10
   10.32000      7.3385070E-10
   10.38000      1.0239212E-09
   10.44000      1.3129219E-09
   10.50000      1.5801097E-09
   10.56000      1.8063429E-09
   10.62000      1.9764177E-09
   10.68000      2.0805271E-09
   10.74000      2.1145834E-09
   10.80000      2.0794877E-09
   10.86000      1.9797251E-09
   10.92000      1.8217884E-09
   10.98000      1.6128514E-09
   11.04000      1.3598872E-09
   11.10000      1.0691731E-09
   11.16000      7.4596290E-10
   11.22000      3.9413511E-10
   11.28000      1.5794437E-11
   11.34000     -3.8895168E-10
   11.40000     -8.2167917E-10
   11.46000     -1.2844746E-09
   11.52000     -1.7778483E-09
   11.58000     -2.2980675E-09
   11.64000     -2.8346143E-09
   11.70000     -3.3686380E-09
   11.76000     -3.8731418E-09
   11.82000     -4.3152384E-09
   11.88000     -4.6602264E-09
   11.94000     -4.8767093E-09
   12.00000     -4.9416475E-09
   12.06000     -4.8442481E-09
   12.12000     -4.5878812E-09
   12.18000     -4.1897530E-09
   12.24000     -3.6785783E-09
   12.30000     -3.0908875E-09
   12.36000     -2.4667561E-09
   12.42000     -1.8456203E-09
   12.48000     -1.2626009E-09
   12.54000     -7.4548934E-10
   12.60000     -3.1240646E-10
   12.66000      2.9807226E-11
   12.72000      2.8622738E-10
   12.78000      4.7308862E-10
   12.84000      6.1519945E-10
   12.90000      7.4137158E-10
   12.96000      8.7826185E-10
   13.02000      1.0436987E-09
   13.08000      1.2410869E-09
   13.14000      1.4565813E-09
   13.20000      1.6602383E-09
   13.26000      1.8113532E-09
   13.32000      1.8669595E-09
   13.38000      1.7914188E-09
   13.44000      1.5645774E-09
   13.50000      1.1863091E-09
   13.56000      6.7632655E-10
   13.62000      6.9570287E-11
   13.68000     -5.9121852E-10
   13.74000     -1.2634362E-09
   13.80000     -1.9108675E-09
   13.86000     -2.5068911E-09
   13.92000     -3.0344944E-09
   13.98000     -3.4840353E-09
   14.04000     -3.8502956E-09
   14.10000     -4.1302610E-09
   14.16000     -4.3224135E-09
   14.22000     -4.4274646E-09
   14.28000     -4.4497490E-09
   14.34000     -4.3982977E-09
   14.40000     -4.2869090E-09
   14.46000     -4.1331480E-09
   14.52000     -3.9568340E-09
   14.58000     -3.7788261E-09
   14.64000     -3.6207082E-09
   14.70000     -3.5053578E-09
   14.76000     -3.4577130E-09
   14.82000     -3.5046452E-09
   14.88000     -3.6730055E-09
   14.94000     -3.9856038E-09
   15.00000     -4.4558730E-09
   15.06000     -5.0827933E-09
   15.12000     -5.8479448E-09
   15.18000     -6.7161130E-09
   15.24000     -7.6398115E-09
   15.30000     -8.5668166E-09
   15.36000     -9.4487973E-09
   15.42000     -1.0248755E-08
   15.48000     -1.0945426E-08
   15.54000     -1.1533804E-08
   15.60000     -1.2022161E-08
   15.66000     -1.2426911E-08
   15.72000     -1.2767093E-08
   15.78000     -1.3060000E-08
   15.84000     -1.3318722E-08
   15.90000     -1.3551517E-08
   15.96000     -1.3762172E-08
   16.02000     -1.3950311E-08
   16.08000     -1.4110926E-08
   16.14000     -1.4233092E-08
   16.20000     -1.4298763E-08
   16.26000     -1.4282937E-08
   16.32000     -1.4156422E-08
   16.38000     -1.3891564E-08
   16.44000     -1.3469982E-08
   16.50000     -1.2890090E-08
   16.56000     -1.2171609E-08
   16.62000     -1.1354773E-08
   16.68000     -1.0493500E-08
   16.74000     -9.6439994E-09
   16.80000     -8.8521830E-09
   16.86000     -8.1440676E-09
   16.92000     -7.5225719E-09
   16.98000     -6.9719888E-09
   17.04000     -6.4686159E-09
   17.10000     -5.9937424E-09
   17.16000     -5.5442633E-09
   17.22000     -5.1370095E-09
   17.28000     -4.8051674E-09
   17.34000     -4.5879958E-09
   17.40000     -4.5173678E-09
   17.46000     -4.6057336E-09
   17.52000     -4.8395190E-09
   17.58000     -5.1801337E-09
   17.64000     -5.5722862E-09
   17.70000     -5.9570602E-09
   17.76000     -6.2858247E-09
   17.82000     -6.5309314E-09
   17.88000     -6.6902017E-09
   17.94000     -6.7841515E-09
   18.00000     -6.8471175E-09
   18.06000     -6.9153474E-09
   18.12000     -7.0159913E-09
   18.18000     -7.1606361E-09
   18.24000     -7.3453332E-09
   18.30000     -7.5567614E-09
   18.36000     -7.7817948E-09
   18.42000     -8.0163867E-09
   18.48000     -8.2698195E-09
   18.54000     -8.5621084E-09
   18.60000     -8.9149905E-09
   18.66000     -9.3395984E-09
   18.72000     -9.8253441E-09
   18.78000     -1.0334389E-08
   18.84000     -1.0804224E-08
   18.90000     -1.1158166E-08
   18.96000     -1.1321061E-08
   19.02000     -1.1235986E-08
   19.08000     -1.0877670E-08
   19.14000     -1.0259568E-08
   19.20000     -9.4333554E-09
   19.26000     -8.4814076E-09
   19.32000     -7.5042168E-09
   19.38000     -6.6054024E-09
   19.44000     -5.8771739E-09
   19.50000     -5.3888547E-09
   19.56000     -5.1803570E-09
   19.62000     -5.2614295E-09
   19.68000     -5.6161080E-09
   19.74000     -6.2104255E-09
   19.80000     -7.0005668E-09
   19.86000     -7.9387288E-09
   19.92000     -8.9750509E-09
   19.98000     -1.0055771E-08
   20.04000     -1.1119534E-08
   20.10000     -1.2094722E-08
   20.16000     -1.2900417E-08
   20.22000     -1.3452129E-08
   20.28000     -1.3671540E-08
   20.34000     -1.3497825E-08
   20.40000     -1.2897458E-08
   20.46000     -1.1869823E-08
   20.52000     -1.0447231E-08
   20.58000     -8.6894554E-09
   20.64000     -6.6743122E-09
   20.70000     -4.4865542E-09
   20.76000     -2.2076427E-09
   20.82000      9.1378016E-11
   20.88000      2.3524573E-09
   20.94000      4.5283270E-09
   21.00000      6.5767143E-09
   21.06000      8.4535436E-09
   21.12000      1.0108395E-08
   21.18000      1.1485104E-08
   21.24000      1.2528827E-08
   21.30000      1.3198480E-08
   21.36000      1.3481182E-08
   21.42000      1.3404009E-08
   21.48000      1.3038756E-08
   21.54000      1.2497402E-08
   21.60000      1.1918894E-08
   21.66000      1.1450553E-08
   21.72000      1.1228897E-08
   21.78000      1.1364477E-08
   21.84000      1.1933582E-08
   21.90000      1.2977257E-08
   21.96000      1.4505890E-08
   22.02000      1.6506359E-08
   22.08000      1.8948766E-08
   22.14000      2.1790834E-08
   22.20000      2.4979604E-08
   22.26000      2.8451431E-08
   22.32000      3.2131965E-08
   22.38000      3.5937653E-08
   22.44000      3.9779508E-08
   22.50000      4.3568722E-08
   22.56000      4.7222876E-08
   22.62000      5.0671272E-08
   22.68000      5.3858258E-08
   22.74000      5.6744309E-08
   22.80000      5.9305442E-08
   22.86000      6.1532084E-08
   22.92000      6.3428296E-08
   22.98000      6.5011633E-08
   23.04000      6.6313092E-08
   23.10000      6.7376256E-08
   23.16000      6.8254622E-08
   23.22000      6.9006937E-08
   23.28000      6.9691026E-08
   23.34000      7.0357565E-08
   23.40000      7.1045079E-08
   23.46000      7.1777428E-08
   23.52000      7.2563815E-08
   23.58000      7.3400727E-08
   23.64000      7.4274574E-08
   23.70000      7.5163719E-08
   23.76000      7.6039399E-08
   23.82000      7.6865561E-08
   23.88000      7.7598649E-08
   23.94000      7.8188563E-08
   24.00000      7.8581600E-08
   24.06000      7.8725520E-08
   24.12000      7.8575908E-08
   24.18000      7.8101969E-08
   24.24000      7.7290423E-08
   24.30000      7.6146158E-08
   24.36000      7.4689531E-08
   24.42000      7.2951210E-08
   24.48000      7.0965861E-08
   24.54000      6.8766340E-08
   24.60000      6.6379400E-08
   24.66000      6.3823329E-08
   24.72000      6.1107791E-08
   24.78000      5.8235447E-08
   24.84000      5.5205149E-08
   24.90000      5.2016208E-08
   24.96000      4.8673222E-08
   25.02000      4.5190472E-08
   25.08000      4.1594770E-08
   25.14000      3.7925599E-08
   25.20000      3.4231981E-08
   25.26000      3.0566255E-08
   25.32000      2.6976011E-08
   25.38000      2.3496272E-08
   25.44000      2.0144242E-08
   25.50000      1.6918490E-08
   25.56000      1.3803230E-08
   25.62000      1.0776750E-08
   25.68000      7.8215177E-09
   25.74000      4.9327511E-09
   25.80000      2.1225295E-09
   25.86000     -5.8193284E-10
   25.92000     -3.1451390E-09
   25.98000     -5.5326113E-09
   26.04000     -7.7190840E-09
   26.10000     -9.6926804E-09
   26.16000     -1.1454027E-08
   26.22000     -1.3011552E-08
   26.28000     -1.4375824E-08
   26.34000     -1.5555962E-08
   26.40000     -1.6559838E-08
   26.46000     -1.7397772E-08
   26.52000     -1.8087555E-08
   26.58000     -1.8658028E-08
   26.64000     -1.9149054E-08
   26.70000     -1.9607292E-08
   26.76000     -2.0078877E-08
   26.82000     -2.0601210E-08
   26.88000     -2.1196263E-08
   26.94000     -2.1867210E-08
   27.00000     -2.2599268E-08
   27.06000     -2.3364436E-08
   27.12000     -2.4128937E-08
   27.18000     -2.4861386E-08
   27.24000     -2.5539357E-08
   27.30000     -2.6152360E-08
   27.36000     -2.6700286E-08
   27.42000     -2.7187962E-08
   27.48000     -2.7618196E-08
   27.54000     -2.7986435E-08
   27.60000     -2.8279732E-08
   27.66000     -2.8480892E-08
   27.72000     -2.8576089E-08
   27.78000     -2.8562631E-08
   27.84000     -2.8452995E-08
   27.90000     -2.8272948E-08
   27.96000     -2.8054220E-08
   28.02000     -2.7824736E-08
   28.08000     -2.7600635E-08
   28.14000     -2.7383388E-08
   28.20000     -2.7163022E-08
   28.26000     -2.6925525E-08
   28.32000     -2.6660793E-08
   28.38000     -2.6367349E-08
   28.44000     -2.6051726E-08
   28.50000     -2.5722969E-08
   28.56000     -2.5384844E-08
   28.62000     -2.5029252E-08
   28.68000     -2.4633666E-08
   28.74000     -2.4163704E-08
   28.80000     -2.3579977E-08
   28.86000     -2.2846869E-08
   28.92000     -2.1940522E-08
   28.98000     -2.0853811E-08
   29.04000     -1.9597206E-08
   29.10000     -1.8195781E-08
   29.16000     -1.6683639E-08
   29.22000     -1.5097692E-08
   29.28000     -1.3472696E-08
   29.34000     -1.1838947E-08
   29.40000     -1.0222844E-08
   29.46000     -8.6494287E-09
   29.52000     -7.1450050E-09
   29.58000     -5.7378284E-09
   29.64000     -4.4557535E-09
   29.70000     -3.3212548E-09
   29.76000     -2.3459099E-09
   29.82000     -1.5271636E-09
   29.88000     -8.4958507E-10
   29.94000     -2.9096864E-10
   30.00000      1.6871593E-10
   30.06000      5.3909166E-10
   30.12000      8.1547058E-10
   30.18000      9.8121700E-10
   30.24000      1.0157154E-09
   30.30000      9.0492497E-10
   30.36000      6.5047095E-10
   30.42000      2.7390151E-10
   30.48000     -1.8533743E-10
   30.54000     -6.7738659E-10
   30.60000     -1.1524262E-09
   30.66000     -1.5710313E-09
   30.72000     -1.9118316E-09
   30.78000     -2.1749489E-09
   30.84000     -2.3808722E-09
   30.90000     -2.5654452E-09
   30.96000     -2.7723079E-09
   31.02000     -3.0444818E-09
   31.08000     -3.4167518E-09
   31.14000     -3.9101269E-09
   31.20000     -4.5290558E-09
   31.26000     -5.2613998E-09
   31.32000     -6.0807399E-09
   31.38000     -6.9504251E-09
   31.44000     -7.8288087E-09
   31.50000     -8.6751415E-09
   31.56000     -9.4553050E-09
   31.62000     -1.0146288E-08
   31.68000     -1.0738089E-08
   31.74000     -1.1232285E-08
   31.80000     -1.1637550E-08
   31.86000     -1.1963757E-08
   31.92000     -1.2217132E-08
   31.98000     -1.2398631E-08
   32.04000     -1.2506243E-08
   32.10000     -1.2540025E-08
   32.16000     -1.2507150E-08
   32.22000     -1.2424118E-08
   32.28000     -1.2314602E-08
   32.34000     -1.2203476E-08
   32.40000     -1.2109491E-08
   32.46000     -1.2039715E-08
   32.52000     -1.1988171E-08
   32.58000     -1.1939304E-08
   32.64000     -1.1874939E-08
   32.70000     -1.1782106E-08
   32.76000     -1.1658742E-08
   32.82000     -1.1515067E-08
   32.88000     -1.1369886E-08
   32.94000     -1.1242761E-08
   33.00000     -1.1144621E-08
   33.06000     -1.1070190E-08
   33.12000     -1.0995477E-08
   33.18000     -1.0882164E-08
   33.24000     -1.0688396E-08
   33.30000     -1.0382891E-08
   33.36000     -9.9576178E-09
   33.42000     -9.4343058E-09
   33.48000     -8.8619974E-09
   33.54000     -8.3060341E-09
   33.60000     -7.8319982E-09
   33.66000     -7.4898576E-09
   33.72000     -7.3032882E-09
   33.78000     -7.2669986E-09
   33.84000     -7.3519812E-09
   33.90000     -7.5160687E-09
   33.96000     -7.7158804E-09
   34.02000     -7.9163813E-09
   34.08000     -8.0955562E-09
   34.14000     -8.2434841E-09
   34.20000     -8.3569480E-09
   34.26000     -8.4321234E-09
   34.32000     -8.4585885E-09
   34.38000     -8.4176150E-09
   34.44000     -8.2862242E-09
   34.50000     -8.0462508E-09
   34.56000     -7.6952427E-09
   34.62000     -7.2546369E-09
   34.68000     -6.7709887E-09
   34.74000     -6.3083565E-09
   34.80000     -5.9334031E-09
   34.86000     -5.6979137E-09
   34.92000     -5.6248508E-09
   34.98000     -5.7030101E-09
   35.04000     -5.8922458E-09
   35.10000     -6.1373617E-09
   35.16000     -6.3856906E-09
   35.22000     -6.6022494E-09
   35.28000     -6.7774968E-09
   35.34000     -6.9255082E-09
   35.40000     -7.0737958E-09
   35.46000     -7.2487936E-09
   35.52000     -7.4624049E-09
   35.58000     -7.7044868E-09
   35.64000     -7.9439877E-09
   35.70000     -8.1382625E-09
   35.76000     -8.2470430E-09
   35.82000     -8.2457081E-09
   35.88000     -8.1327389E-09
   35.94000     -7.9285671E-09
   36.00000     -7.6665092E-09
   36.06000     -7.3797710E-09
   36.12000     -7.0899873E-09
   36.18000     -6.8018484E-09
   36.24000     -6.5055232E-09
   36.30000     -6.1850343E-09
   36.36000     -5.8283480E-09
   36.42000     -5.4345795E-09
   36.48000     -5.0154956E-09
   36.54000     -4.5913611E-09
   36.60000     -4.1836459E-09
   36.66000     -3.8081112E-09
   36.72000     -3.4710723E-09
   36.78000     -3.1697522E-09
   36.84000     -2.8957026E-09
   36.90000     -2.6391935E-09
   36.96000     -2.3925495E-09
   37.02000     -2.1514406E-09
   37.08000     -1.9143882E-09
   37.14000     -1.6816074E-09
   37.20000     -1.4544099E-09
   37.26000     -1.2358036E-09
   37.32000     -1.0319938E-09
   37.38000     -8.5372659E-10
   37.44000     -7.1614886E-10
   37.50000     -6.3633232E-10
   37.56000     -6.2861766E-10
   37.62000     -6.9915312E-10
   37.68000     -8.4183294E-10
   37.74000     -1.0378435E-09
   37.80000     -1.2599816E-09
   37.86000     -1.4810889E-09
   37.92000     -1.6840361E-09
   37.98000     -1.8695629E-09
   38.04000     -2.0585789E-09
   38.10000     -2.2873439E-09
   38.16000     -2.5966442E-09
   38.22000     -3.0185798E-09
   38.28000     -3.5657510E-09
   38.34000     -4.2269184E-09
   38.40000     -4.9707931E-09
   38.46000     -5.7564851E-09
   38.52000     -6.5465362E-09
   38.58000     -7.3175506E-09
   38.64000     -8.0643963E-09
   38.70000     -8.7965768E-09
   38.76000     -9.5284198E-09
   38.82000     -1.0267186E-08
   38.88000     -1.1004029E-08
   38.94000     -1.1711726E-08
   39.00000     -1.2350625E-08
   39.06000     -1.2881066E-08
   39.12000     -1.3278017E-08
   39.18000     -1.3542405E-08
   39.24000     -1.3704505E-08
   39.30000     -1.3817255E-08
   39.36000     -1.3940929E-08
   39.42000     -1.4123850E-08
   39.48000     -1.4385582E-08
   39.54000     -1.4708591E-08
   39.60000     -1.5041682E-08
   39.66000     -1.5314560E-08
   39.72000     -1.5458960E-08
   39.78000     -1.5429420E-08
   39.84000     -1.5216827E-08
   39.90000     -1.4850321E-08
   39.96000     -1.4387194E-08
   40.02000     -1.3894556E-08
   40.08000     -1.3429358E-08
   40.14000     -1.3023604E-08
   40.20000     -1.2679569E-08
   40.26000     -1.2375991E-08
   40.32000     -1.2082271E-08
   40.38000     -1.1774974E-08
   40.44000     -1.1450538E-08
   40.50000     -1.1129933E-08
   40.56000     -1.0854188E-08
   40.62000     -1.0673019E-08
   40.68000     -1.0630795E-08
   40.74000     -1.0754381E-08
   40.80000     -1.1046168E-08
   40.86000     -1.1483579E-08
   40.92000     -1.2024510E-08
   40.98000     -1.2616855E-08
   41.04000     -1.3209740E-08
   41.10000     -1.3763922E-08
   41.16000     -1.4259033E-08
   41.22000     -1.4695863E-08
   41.28000     -1.5092954E-08
   41.34000     -1.5478337E-08
   41.40000     -1.5878884E-08
   41.46000     -1.6310846E-08
   41.52000     -1.6774832E-08
   41.58000     -1.7256996E-08
   41.64000     -1.7735658E-08
   41.70000     -1.8190466E-08
   41.76000     -1.8610210E-08
   41.82000     -1.8996287E-08
   41.88000     -1.9360803E-08
   41.94000     -1.9720710E-08
   42.00000     -2.0090805E-08
   42.06000     -2.0478540E-08
   42.12000     -2.0882286E-08
   42.18000     -2.1293033E-08
   42.24000     -2.1698087E-08
   42.30000     -2.2084890E-08
   42.36000     -2.2443624E-08
   42.42000     -2.2768210E-08
   42.48000     -2.3056133E-08
   42.54000     -2.3307832E-08
   42.60000     -2.3526207E-08
   42.66000     -2.3716307E-08
   42.72000     -2.3884995E-08
   42.78000     -2.4040364E-08
   42.84000     -2.4191070E-08
   42.90000     -2.4345931E-08
   42.96000     -2.4514225E-08
   43.02000     -2.4706681E-08
   43.08000     -2.4936600E-08
   43.14000     -2.5220173E-08
   43.20000     -2.5575149E-08
   43.26000     -2.6017718E-08
   43.32000     -2.6558340E-08
   43.38000     -2.7198094E-08
   43.44000     -2.7927147E-08
   43.50000     -2.8726269E-08
   43.56000     -2.9571076E-08
   43.62000     -3.0437381E-08
   43.68000     -3.1305586E-08
   43.74000     -3.2162372E-08
   43.80000     -3.2999328E-08
   43.86000     -3.3809719E-08
   43.92000     -3.4585469E-08
   43.98000     -3.5316386E-08
   44.04000     -3.5992333E-08
   44.10000     -3.6607087E-08
   44.16000     -3.7161559E-08
   44.22000     -3.7663970E-08
   44.28000     -3.8126075E-08
   44.34000     -3.8556720E-08
   44.40000     -3.8955712E-08
   44.46000     -3.9311097E-08
   44.52000     -3.9601609E-08
   44.58000     -3.9803446E-08
   44.64000     -3.9898755E-08
   44.70000     -3.9882426E-08
   44.76000     -3.9764640E-08
   44.82000     -3.9568718E-08
   44.88000     -3.9325251E-08
   44.94000     -3.9064776E-08
   45.00000     -3.8811102E-08
   45.06000     -3.8577035E-08
   45.12000     -3.8363506E-08
   45.18000     -3.8162412E-08
   45.24000     -3.7962440E-08
   45.30000     -3.7756188E-08
   45.36000     -3.7545870E-08
   45.42000     -3.7345234E-08
   45.48000     -3.7176445E-08
   45.54000     -3.7063156E-08
   45.60000     -3.7022602E-08
   45.66000     -3.7060062E-08
   45.72000     -3.7167659E-08
   45.78000     -3.7327151E-08
   45.84000     -3.7514546E-08
   45.90000     -3.7704094E-08
   45.96000     -3.7870620E-08
   46.02000     -3.7990716E-08
   46.08000     -3.8044064E-08
   46.14000     -3.8015404E-08
   46.20000     -3.7896374E-08
   46.26000     -3.7685506E-08
   46.32000     -3.7385313E-08
   46.38000     -3.6996976E-08
   46.44000     -3.6514528E-08
   46.50000     -3.5920571E-08
   46.56000     -3.5184456E-08
   46.62000     -3.4262246E-08
   46.68000     -3.3097230E-08
   46.74000     -3.1620296E-08
   46.80000     -2.9750506E-08
   46.86000     -2.7396633E-08
   46.92000     -2.4459393E-08
   46.98000     -2.0832662E-08
   47.04000     -1.6400984E-08
   47.10000     -1.1031617E-08
   47.16000     -4.5615010E-09
   47.22000      3.2182641E-09
   47.28000      1.2577060E-08
   47.34000      2.3856307E-08
   47.40000      3.7477751E-08
   47.46000      5.3949883E-08
   47.52000      7.3874304E-08
   47.58000      9.7953276E-08
   47.64000      1.2699944E-07
   47.70000      1.6194878E-07
   47.76000      2.0387868E-07
   47.82000      2.5403250E-07
   47.88000      3.1385017E-07
   47.94000      3.8500306E-07
   48.00000      4.6942930E-07
   48.06000      5.6936801E-07
   48.12000      6.8739394E-07
   48.18000      8.2645653E-07
   48.24000      9.8992791E-07
   48.30000      1.1816612E-06
   48.36000      1.4060593E-06
   48.42000      1.6681444E-06
   48.48000      1.9736297E-06
   48.54000      2.3289897E-06
   48.60000      2.7415335E-06
   48.66000      3.2194882E-06
   48.72000      3.7720927E-06
   48.78000      4.4097023E-06
   48.84000      5.1439051E-06
   48.90000      5.9876402E-06
   48.96000      6.9553166E-06
   49.02000      8.0629416E-06
   49.08000      9.3282397E-06
   49.14000      1.0770789E-05
   49.20000      1.2412149E-05
   49.26000      1.4275987E-05
   49.32000      1.6388209E-05
   49.38000      1.8777084E-05
   49.44000      2.1473365E-05
   49.50000      2.4510415E-05
   49.56000      2.7924338E-05
   49.62000      3.1754073E-05
   49.68000      3.6041518E-05
   49.74000      4.0831583E-05
   49.80000      4.6172263E-05
   49.86000      5.2114643E-05
   49.92000      5.8712936E-05
   49.98000      6.6024426E-05
   50.04000      7.4109463E-05
   50.10000      8.3031329E-05
   50.16000      9.2856186E-05
   50.22000      1.0365288E-04
   50.28000      1.1549280E-04
   50.34000      1.2844951E-04
   50.40000      1.4259860E-04
   50.46000      1.5801728E-04
   50.52000      1.7478397E-04
   50.58000      1.9297790E-04
   50.64000      2.1267857E-04
   50.70000      2.3396526E-04
   50.76000      2.5691645E-04
   50.82000      2.8160913E-04
   50.88000      3.0811824E-04
   50.94000      3.3651586E-04
   51.00000      3.6687043E-04
   51.06000      3.9924603E-04
   51.12000      4.3370161E-04
   51.18000      4.7029002E-04
   51.24000      5.0905731E-04
   51.30000      5.5004202E-04
   51.36000      5.9327419E-04
   51.42000      6.3877471E-04
   51.48000      6.8655453E-04
   51.54000      7.3661405E-04
   51.60000      7.8894215E-04
   51.66000      8.4351597E-04
   51.72000      9.0030034E-04
   51.78000      9.5924712E-04
   51.84000      1.0202954E-03
   51.90000      1.0833710E-03
   51.96000      1.1483863E-03
   52.02000      1.2152406E-03
   52.08000      1.2838201E-03
   52.14000      1.3539984E-03
   52.20000      1.4256373E-03
   52.26000      1.4985865E-03
   52.32000      1.5726853E-03
   52.38000      1.6477631E-03
   52.44000      1.7236405E-03
   52.50000      1.8001305E-03
   52.56000      1.8770399E-03
   52.62000      1.9541711E-03
   52.68000      2.0313223E-03
   52.74000      2.1082906E-03
   52.80000      2.1848734E-03
   52.86000      2.2608684E-03
   52.92000      2.3360781E-03
   52.98000      2.4103096E-03
   53.04000      2.4833770E-03
   53.10000      2.5551030E-03
   53.16000      2.6253208E-03
   53.22000      2.6938745E-03
   53.28000      2.7606224E-03
   53.34000      2.8254364E-03
   53.40000      2.8882041E-03
   53.46000      2.9488297E-03
   53.52000      3.0072348E-03
   53.58000      3.0633595E-03
   53.64000      3.1171618E-03
   53.70000      3.1686188E-03
   53.76000      3.2177253E-03
   53.82000      3.2644949E-03
   53.88000      3.3089579E-03
   53.94000      3.3511620E-03
   54.00000      3.3911711E-03
   54.06000      3.4290645E-03
   54.12000      3.4649349E-03
   54.18000      3.4988867E-03
   54.24000      3.5310350E-03
   54.30000      3.5615026E-03
   54.36000      3.5904192E-03
   54.42000      3.6179188E-03
   54.48000      3.6441386E-03
   54.54000      3.6692163E-03
   54.60000      3.6932889E-03
   54.66000      3.7164898E-03
   54.72000      3.7389467E-03
   54.78000      3.7607800E-03
   54.84000      3.7820996E-03
   54.90000      3.8030061E-03
   54.96000      3.8235872E-03
   55.02000      3.8439180E-03
   55.08000      3.8640590E-03
   55.14000      3.8840557E-03
   55.20000      3.9039375E-03
   55.26000      3.9237170E-03
   55.32000      3.9433907E-03
   55.38000      3.9629387E-03
   55.44000      3.9823242E-03
   55.50000      4.0014968E-03
   55.56000      4.0203906E-03