  -2.400000      0.0000000E+00
  -2.340000      0.0000000E+00
  -2.280000      0.0000000E+00
  -2.220000      0.0000000E+00
  -2.160000      0.0000000E+00
  -2.100000      0.0000000E+00
  -2.040000      0.0000000E+00
  -1.980000      0.0000000E+00
  -1.920000      0.0000000E+00
  -1.860000      0.0000000E+00
  -1.800000     -5.0559554E-30
  -1.740000     -6.2943477E-29
  -1.680000     -3.6444469E-28
  -1.620000     -1.2094555E-27
  -1.560000     -1.9543309E-27
  -1.500000      2.3642069E-27
  -1.440000      2.5261351E-26
  -1.380000      8.3170289E-26
  -1.320000      1.5844481E-25
  -1.260000      1.2104209E-25
  -1.200000     -3.3270137E-25
  -1.140000     -1.5457859E-24
  -1.080000     -3.3411143E-24
  -1.020000     -4.0657852E-24
 -0.9600000     -3.0370748E-27
 -0.9000000      1.3177372E-23
 -0.8400000      3.5252174E-23
 -0.7800000      5.3242621E-23
 -0.7200000      3.6046851E-23
 -0.6600000     -5.6687759E-23
 -0.6000000     -2.4037336E-22
 -0.5400000     -4.4854348E-22
 -0.4800000     -4.8483901E-22
 -0.4200000     -4.8529909E-23
 -0.3600000      1.0943959E-21
 -0.3000000      2.7792954E-21
 -0.2400000      4.0769309E-21
 -0.1800000      3.2109711E-21
 -0.1200000     -1.8123509E-21
 -5.9999999E-02 -1.1603842E-20
  0.0000000E+00 -2.3179544E-20
  5.9999999E-02 -2.8486016E-20
  0.1200000     -1.5844939E-20
  0.1800000      2.3791828E-20
  0.2400000      8.6250103E-20
  0.3000000      1.4408779E-19
  0.3600000      1.4643483E-19
  0.4200000      3.8505280E-20
  0.4800000     -1.9725984E-19
  0.5400000     -4.9325845E-19
  0.6000000     -6.7583701E-19
  0.6600000     -5.1183749E-19
  0.7200000      1.5897149E-19
  0.7800000      1.2421295E-18
  0.8400000      2.2620455E-18
  0.9000000      2.4308557E-18
  0.9600000      1.0026450E-18
   1.020000     -2.1522596E-18
   1.080000     -6.0291098E-18
   1.140000     -8.4432831E-18
   1.200000     -6.7932158E-18
   1.260000      4.0953547E-19
   1.320000      1.1854535E-17
   1.380000      2.2663531E-17
   1.440000      2.5575015E-17
   1.500000      1.4348829E-17
   1.560000     -1.1690961E-17
   1.620000     -4.4352968E-17
   1.680000     -6.7247719E-17
   1.740000     -6.1907964E-17
   1.800000     -1.8072824E-17
   1.860000      5.6321411E-17
   1.920000      1.3165923E-16
   1.980000      1.6457923E-16
   2.040000      1.1743670E-16
   2.100000     -1.7350433E-17
   2.160000     -2.0021786E-16
   2.220000     -3.4737295E-16
   2.280000     -3.6001362E-16
   2.340000     -1.7375236E-16
   2.400000      1.9145134E-16
   2.460000      6.0830513E-16
   2.520000      8.6917899E-16
   2.580000      7.6750227E-16
   2.640000      2.1005042E-16
   2.700000     -6.8899497E-16
   2.760000     -1.5899049E-15
   2.820000     -2.0233722E-15
   2.880000     -1.5912310E-15
   2.940000     -2.0233061E-16
   3.000000      1.7706464E-15
   3.060000      3.5260722E-15
   3.120000      4.1085384E-15
   3.180000      2.8588495E-15
   3.240000     -1.4485940E-16
   3.300000     -3.8963643E-15
   3.360000     -6.7058849E-15
   3.420000     -6.8866315E-15
   3.480000     -3.6495960E-15
   3.540000      2.2151426E-15
   3.600000      8.3054706E-15
   3.660000      1.1434064E-14
   3.720000      9.1193668E-15
   3.780000      1.1264095E-15
   3.840000     -9.7594636E-15
   3.900000     -1.8357986E-14
   3.960000     -1.9174612E-14
   4.020000     -9.2347225E-15
   4.080000      9.6105764E-15
   4.140000      3.0240699E-14
   4.200000      4.2390167E-14
   4.260000      3.6913692E-14
   4.320000      1.0594788E-14
   4.380000     -3.0719029E-14
   4.440000     -7.2525245E-14
   4.500000     -9.6170122E-14
   4.560000     -8.6176583E-14
   4.620000     -3.7598559E-14
   4.680000      3.9856268E-14
   4.740000      1.2321627E-13
   4.800000      1.8328054E-13
   4.860000      1.9496526E-13
   4.920000      1.4695320E-13
   4.980000      4.6612155E-14
   5.040000     -8.2050523E-14
   5.100000     -2.0667307E-13
   5.160000     -2.9751272E-13
   5.220000     -3.3622774E-13
   5.280000     -3.1854402E-13
   5.340000     -2.4989049E-13
   5.400000     -1.3686674E-13
   5.460000      1.9877902E-14
   5.520000      2.2570413E-13
   5.580000      4.8241202E-13
   5.640000      7.7171640E-13
   5.700000      1.0396206E-12
   5.760000      1.1920017E-12
   5.820000      1.1096419E-12
   5.880000      6.8424595E-13
   5.940000     -1.3225365E-13
   6.000000     -1.2810262E-12
   6.060000     -2.5716970E-12
   6.120000     -3.6955283E-12
   6.180000     -4.2818500E-12
   6.240000     -3.9890660E-12
   6.300000     -2.6085737E-12
   6.360000     -1.5286302E-13
   6.420000      3.0991488E-12
   6.480000      6.6161915E-12
   6.540000      9.6893006E-12
   6.600000      1.1552924E-11
   6.660000      1.1528107E-11
   6.720000      9.1609671E-12
   6.780000      4.3344685E-12
   6.840000     -2.6599846E-12
   6.900000     -1.1097058E-11
   6.960000     -1.9840747E-11
   7.020000     -2.7420705E-11
   7.080000     -3.2169326E-11
   7.140000     -3.2427453E-11
   7.200000     -2.6818426E-11
   7.260000     -1.4572354E-11
   7.320000      4.1425140E-12
   7.380000      2.7948413E-11
   7.440000      5.4127512E-11
   7.500000      7.8707513E-11
   7.560000      9.6810858E-11
   7.620000      1.0326756E-10
   7.680000      9.3435412E-11
   7.740000      6.4119009E-11
   7.800000      1.4445463E-11
   7.860000     -5.3452184E-11
   7.920000     -1.3407053E-10
   7.980000     -2.1857137E-10
   8.040000     -2.9524064E-10
   8.100000     -3.5033709E-10
   8.160000     -3.6925105E-10
   8.220000     -3.3786421E-10
   8.280000     -2.4398758E-10
   8.340000     -7.8751887E-11
   8.400000      1.6217330E-10
   8.460000      4.7765147E-10
   8.520000      8.6055613E-10
   8.580000      1.2977499E-09
   8.640000      1.7706324E-09
   8.700000      2.2562681E-09
   8.760000      2.7290328E-09
   8.820000      3.1626350E-09
   8.880000      3.5322991E-09
   8.940000      3.8168624E-09
   9.000000      4.0005363E-09
   9.060000      4.0741459E-09
   9.120000      4.0357362E-09
   9.180000      3.8905319E-09
   9.240000      3.6502881E-09
   9.300000      3.3321348E-09
   9.360000      2.9569815E-09
   9.420000      2.5475781E-09
   9.480000      2.1263031E-09
   9.540000      1.7128227E-09
   9.600000      1.3218178E-09
   9.660000      9.6108044E-10
   9.720000      6.3032357E-10
   9.780000      3.2102884E-10
   9.840000      1.7533313E-11
   9.900000     -3.0065786E-10
   9.960000     -6.5559913E-10
   10.02000     -1.0671708E-09
   10.08000     -1.5495166E-09
   10.14000     -2.1082867E-09
   10.20000     -2.7391722E-09
   10.26000     -3.4279628E-09
   10.32000     -4.1520680E-09
   10.38000     -4.8831721E-09
   10.44000     -5.5905311E-09
   10.50000     -6.2443730E-09
   10.56000     -6.8189254E-09
   10.62000     -7.2947492E-09
   10.68000     -7.6602191E-09
   10.74000     -7.9121270E-09
   10.80000     -8.0554825E-09
   10.86000     -8.1026146E-09
   10.92000     -8.0716562E-09
   10.98000     -7.9845215E-09
   11.04000     -7.8644673E-09
   11.10000     -7.7334379E-09
   11.16000     -7.6094198E-09
   11.22000     -7.5041635E-09
   11.28000     -7.4216291E-09
   11.34000     -7.3574671E-09
   11.40000     -7.2996937E-09
   11.46000     -7.2305126E-09
   11.52000     -7.1289872E-09
   11.58000     -6.9740853E-09
   11.64000     -6.7475359E-09
   11.70000     -6.4360139E-09
   11.76000     -6.0323759E-09
   11.82000     -5.5359255E-09
   11.88000     -4.9519193E-09
   11.94000     -4.2906700E-09
   12.00000     -3.5665348E-09
   12.06000     -2.7969442E-09
   12.12000     -2.0013879E-09
   12.18000     -1.2001322E-09
   12.24000     -4.1244333E-10
   12.30000      3.4573863E-10
   12.36000      1.0644174E-09
   12.42000      1.7418874E-09
   12.48000      2.3860671E-09
   12.54000      3.0141503E-09
   12.60000      3.6502339E-09
   12.66000      4.3211172E-09
   12.72000      5.0510320E-09
   12.78000      5.8564842E-09
   12.84000      6.7425061E-09
   12.90000      7.7013613E-09
   12.96000      8.7141681E-09
   13.02000      9.7551425E-09
   13.08000      1.0797469E-08
   13.14000      1.1819346E-08
   13.20000      1.2808696E-08
   13.26000      1.3765355E-08
   13.32000      1.4700213E-08
   13.38000      1.5631525E-08
   13.44000      1.6579310E-08
   13.50000      1.7559159E-08
   13.56000      1.8576969E-08
   13.62000      1.9625869E-08
   13.68000      2.0686217E-08
   13.74000      2.1728875E-08
   13.80000      2.2721258E-08
   13.86000      2.3634925E-08
   13.92000      2.4452969E-08
   13.98000      2.5175241E-08
   14.04000      2.5819773E-08
   14.10000      2.6419555E-08
   14.16000      2.7015011E-08
   14.22000      2.7643773E-08
   14.28000      2.8330357E-08
   14.34000      2.9078517E-08
   14.40000      2.9868673E-08
   14.46000      3.0661429E-08
   14.52000      3.1406547E-08
   14.58000      3.2055262E-08
   14.64000      3.2572583E-08
   14.70000      3.2946307E-08
   14.76000      3.3190030E-08
   14.82000      3.3339177E-08
   14.88000      3.3440877E-08
   14.94000      3.3540374E-08
   15.00000      3.3667838E-08
   15.06000      3.3829359E-08
   15.12000      3.4005026E-08
   15.18000      3.4154947E-08
   15.24000      3.4231629E-08
   15.30000      3.4195313E-08
   15.36000      3.4027654E-08
   15.42000      3.3739607E-08
   15.48000      3.3371055E-08
   15.54000      3.2981998E-08
   15.60000      3.2637846E-08
   15.66000      3.2392890E-08
   15.72000      3.2276454E-08
   15.78000      3.2285502E-08
   15.84000      3.2385366E-08
   15.90000      3.2517995E-08
   15.96000      3.2615201E-08
   16.02000      3.2613205E-08
   16.08000      3.2464904E-08
   16.14000      3.2147099E-08
   16.20000      3.1661767E-08
   16.26000      3.1031849E-08
   16.32000      3.0293482E-08
   16.38000      2.9486978E-08
   16.44000      2.8648712E-08
   16.50000      2.7805411E-08
   16.56000      2.6971456E-08
   16.62000      2.6148991E-08
   16.68000      2.5330245E-08
   16.74000      2.4501167E-08
   16.80000      2.3645525E-08
   16.86000      2.2748640E-08
   16.92000      2.1800213E-08
   16.98000      2.0795808E-08
   17.04000      1.9736998E-08
   17.10000      1.8630514E-08
   17.16000      1.7487013E-08
   17.22000      1.6320140E-08
   17.28000      1.5146217E-08
   17.34000      1.3984410E-08
   17.40000      1.2856693E-08
   17.46000      1.1786647E-08
   17.52000      1.0796387E-08
   17.58000      9.9016049E-09
   17.64000      9.1056780E-09
   17.70000      8.3945810E-09
   17.76000      7.7346840E-09
   17.82000      7.0750623E-09
   17.88000      6.3548304E-09
   17.94000      5.5144538E-09
   18.00000      4.5085584E-09
   18.06000      3.3168825E-09
   18.12000      1.9500983E-09
   18.18000      4.4840451E-10
   18.24000     -1.1272635E-09
   18.30000     -2.7093907E-09
   18.36000     -4.2396642E-09
   18.42000     -5.6820242E-09
   18.48000     -7.0293633E-09
   18.54000     -8.3021625E-09
   18.60000     -9.5398427E-09
   18.66000     -1.0787827E-08
   18.72000     -1.2084546E-08
   18.78000     -1.3452402E-08
   18.84000     -1.4895206E-08
   18.90000     -1.6402328E-08
   18.96000     -1.7957488E-08
   19.02000     -1.9548580E-08
   19.08000     -2.1174680E-08
   19.14000     -2.2847360E-08
   19.20000     -2.4585477E-08
   19.26000     -2.6404976E-08
   19.32000     -2.8307097E-08
   19.38000     -3.0269291E-08
   19.44000     -3.2242543E-08
   19.50000     -3.4156944E-08
   19.56000     -3.5934718E-08
   19.62000     -3.7507391E-08
   19.68000     -3.8832184E-08
   19.74000     -3.9902670E-08
   19.80000     -4.0750223E-08
   19.86000     -4.1435531E-08
   19.92000     -4.2032287E-08
   19.98000     -4.2607653E-08
   20.04000     -4.3204803E-08
   20.10000     -4.3832493E-08
   20.16000     -4.4464272E-08
   20.22000     -4.5047500E-08
   20.28000     -4.5519460E-08
   20.34000     -4.5826088E-08
   20.40000     -4.5938140E-08
   20.46000     -4.5860528E-08
   20.52000     -4.5632287E-08
   20.58000     -4.5317432E-08
   20.64000     -4.4989243E-08
   20.70000     -4.4712429E-08
   20.76000     -4.4528004E-08
   20.82000     -4.4444864E-08
   20.88000     -4.4440053E-08
   20.94000     -4.4467139E-08
   21.00000     -4.4469896E-08
   21.06000     -4.4397051E-08
   21.12000     -4.4213905E-08
   21.18000     -4.3907900E-08
   21.24000     -4.3487162E-08
   21.30000     -4.2973554E-08
   21.36000     -4.2393140E-08
   21.42000     -4.1767748E-08
   21.48000     -4.1110436E-08
   21.54000     -4.0426052E-08
   21.60000     -3.9716102E-08
   21.66000     -3.8985572E-08
   21.72000     -3.8248764E-08
   21.78000     -3.7531795E-08
   21.84000     -3.6870730E-08
   21.90000     -3.6305998E-08
   21.96000     -3.5874969E-08
   22.02000     -3.5604938E-08
   22.08000     -3.5508368E-08
   22.14000     -3.5581188E-08
   22.20000     -3.5803865E-08
   22.26000     -3.6144154E-08
   22.32000     -3.6560404E-08
   22.38000     -3.7004423E-08
   22.44000     -3.7423828E-08
   22.50000     -3.7764273E-08
   22.56000     -3.7972352E-08
   22.62000     -3.7999882E-08
   22.68000     -3.7809485E-08
   22.74000     -3.7380680E-08
   22.80000     -3.6714756E-08
   22.86000     -3.5836461E-08
   22.92000     -3.4790979E-08
   22.98000     -3.3635857E-08
   23.04000     -3.2429213E-08
   23.10000     -3.1217049E-08
   23.16000     -3.0023166E-08
   23.22000     -2.8844768E-08
   23.28000     -2.7655240E-08
   23.34000     -2.6413472E-08
   23.40000     -2.5077179E-08
   23.46000     -2.3616382E-08
   23.52000     -2.2023457E-08
   23.58000     -2.0317300E-08
   23.64000     -1.8540991E-08
   23.70000     -1.6754303E-08
   23.76000     -1.5023604E-08
   23.82000     -1.3412111E-08
   23.88000     -1.1972825E-08
   23.94000     -1.0745240E-08
   24.00000     -9.7554391E-09
   24.06000     -9.0180308E-09
   24.12000     -8.5380325E-09
   24.18000     -8.3111749E-09
   24.24000     -8.3222664E-09
   24.30000     -8.5425453E-09
   24.36000     -8.9278984E-09
   24.42000     -9.4199555E-09
   24.48000     -9.9512967E-09
   24.54000     -1.0454592E-08
   24.60000     -1.0873939E-08
   24.66000     -1.1175627E-08
   24.72000     -1.1355340E-08
   24.78000     -1.1439630E-08
   24.84000     -1.1480867E-08
   24.90000     -1.1546622E-08
   24.96000     -1.1705797E-08
   25.02000     -1.2014652E-08
   25.08000     -1.2505795E-08
   25.14000     -1.3182406E-08
   25.20000     -1.4018584E-08
   25.26000     -1.4965133E-08
   25.32000     -1.5958857E-08
   25.38000     -1.6932677E-08
   25.44000     -1.7824135E-08
   25.50000     -1.8580623E-08
   25.56000     -1.9161062E-08
   25.62000     -1.9534918E-08
   25.68000     -1.9680209E-08
   25.74000     -1.9582231E-08
   25.80000     -1.9234049E-08
   25.86000     -1.8638900E-08
   25.92000     -1.7813527E-08
   25.98000     -1.6790931E-08
   26.04000     -1.5620786E-08
   26.10000     -1.4366329E-08
   26.16000     -1.3097445E-08
   26.22000     -1.1880844E-08
   26.28000     -1.0769357E-08
   26.34000     -9.7930286E-09
   26.40000     -8.9545376E-09
   26.46000     -8.2305966E-09
   26.52000     -7.5793576E-09
   26.58000     -6.9520758E-09
   26.64000     -6.3059344E-09
   26.70000     -5.6145173E-09
   26.76000     -4.8731379E-09
   26.82000     -4.0978962E-09
   26.88000     -3.3193053E-09
   26.94000     -2.5729427E-09
   27.00000     -1.8902682E-09
   27.06000     -1.2923596E-09
   27.12000     -7.8808793E-10
   27.18000     -3.7666806E-10
   27.24000     -5.3170423E-11
   27.30000      1.8518066E-10
   27.36000      3.3411987E-10
   27.42000      3.8046485E-10
   27.48000      3.0387343E-10
   27.54000      8.1774497E-11
   27.60000     -3.0392067E-10
   27.66000     -8.6029306E-10
   27.72000     -1.5791221E-09
   27.78000     -2.4363851E-09
   27.84000     -3.3961229E-09
   27.90000     -4.4179886E-09
   27.96000     -5.4666063E-09
   28.02000     -6.5201271E-09
   28.08000     -7.5754070E-09
   28.14000     -8.6480441E-09
   28.20000     -9.7669348E-09
   28.26000     -1.0964672E-08
   28.32000     -1.2266323E-08
   28.38000     -1.3679749E-08
   28.44000     -1.5190192E-08
   28.50000     -1.6760719E-08
   28.56000     -1.8338415E-08
   28.62000     -1.9864666E-08
   28.68000     -2.1286743E-08
   28.74000     -2.2567644E-08
   28.80000     -2.3691715E-08
   28.86000     -2.4664894E-08
   28.92000     -2.5509921E-08
   28.98000     -2.6258300E-08
   29.04000     -2.6941628E-08
   29.10000     -2.7584907E-08
   29.16000     -2.8203695E-08
   29.22000     -2.8805575E-08
   29.28000     -2.9394865E-08
   29.34000     -2.9978413E-08
   29.40000     -3.0569783E-08
   29.46000     -3.1189966E-08
   29.52000     -3.1863923E-08
   29.58000     -3.2614132E-08
   29.64000     -3.3453617E-08
   29.70000     -3.4381348E-08
   29.76000     -3.5382058E-08
   29.82000     -3.6430890E-08
   29.88000     -3.7501334E-08
   29.94000     -3.8573567E-08
   30.00000     -3.9639961E-08
   30.06000     -4.0705650E-08
   30.12000     -4.1783835E-08
   30.18000     -4.2887400E-08
   30.24000     -4.4019938E-08
   30.30000     -4.5169394E-08
   30.36000     -4.6306877E-08
   30.42000     -4.7391385E-08
   30.48000     -4.8379430E-08
   30.54000     -4.9236792E-08
   30.60000     -4.9948888E-08
   30.66000     -5.0526459E-08
   30.72000     -5.1004577E-08
   30.78000     -5.1434903E-08
   30.84000     -5.1873513E-08
   30.90000     -5.2367866E-08
   30.96000     -5.2947030E-08
   31.02000     -5.3618088E-08
   31.08000     -5.4369483E-08
   31.14000     -5.5179648E-08
   31.20000     -5.6027339E-08
   31.26000     -5.6899722E-08
   31.32000     -5.7795116E-08
   31.38000     -5.8719582E-08
   31.44000     -5.9678669E-08
   31.50000     -6.0667560E-08
   31.56000     -6.1663492E-08
   31.62000     -6.2623613E-08
   31.68000     -6.3489772E-08
   31.74000     -6.4199462E-08
   31.80000     -6.4699996E-08
   31.86000     -6.4961618E-08
   31.92000     -6.4985429E-08
   31.98000     -6.4802862E-08
   32.04000     -6.4466690E-08
   32.10000     -6.4035504E-08
   32.16000     -6.3556676E-08
   32.22000     -6.3052966E-08
   32.28000     -6.2517238E-08
   32.34000     -6.1917014E-08
   32.40000     -6.1207572E-08
   32.46000     -6.0349407E-08
   32.52000     -5.9324673E-08
   32.58000     -5.8147616E-08
   32.64000     -5.6865815E-08
   32.70000     -5.5551826E-08
   32.76000     -5.4287604E-08
   32.82000     -5.3145882E-08
   32.88000     -5.2173704E-08
   32.94000     -5.1382543E-08
   33.00000     -5.0747630E-08
   33.06000     -5.0216705E-08
   33.12000     -4.9725610E-08
   33.18000     -4.9216343E-08
   33.24000     -4.8652463E-08
   33.30000     -4.8027587E-08
   33.36000     -4.7364683E-08
   33.42000     -4.6706589E-08
   33.48000     -4.6100602E-08
   33.54000     -4.5581700E-08
   33.60000     -4.5159272E-08
   33.66000     -4.4811475E-08
   33.72000     -4.4489060E-08
   33.78000     -4.4128235E-08
   33.84000     -4.3669175E-08
   33.90000     -4.3075094E-08
   33.96000     -4.2346208E-08
   34.02000     -4.1523933E-08
   34.08000     -4.0683467E-08
   34.14000     -3.9916245E-08
   34.20000     -3.9306990E-08
   34.26000     -3.8912152E-08
   34.32000     -3.8746002E-08
   34.38000     -3.8778644E-08
   34.44000     -3.8946382E-08
   34.50000     -3.9171042E-08
   34.56000     -3.9382272E-08
   34.62000     -3.9536150E-08
   34.68000     -3.9624666E-08
   34.74000     -3.9673765E-08
   34.80000     -3.9731152E-08
   34.86000     -3.9847912E-08
   34.92000     -4.0059760E-08
   34.98000     -4.0373589E-08
   35.04000     -4.0763176E-08
   35.10000     -4.1175216E-08
   35.16000     -4.1543672E-08
   35.22000     -4.1807951E-08
   35.28000     -4.1929280E-08
   35.34000     -4.1900329E-08
   35.40000     -4.1745093E-08
   35.46000     -4.1509342E-08
   35.52000     -4.1244927E-08
   35.58000     -4.0993172E-08
   35.64000     -4.0772822E-08
   35.70000     -4.0576275E-08
   35.76000     -4.0374999E-08
   35.82000     -4.0131841E-08
   35.88000     -3.9815777E-08
   35.94000     -3.9414214E-08
   36.00000     -3.8938676E-08
   36.06000     -3.8422343E-08
   36.12000     -3.7910116E-08
   36.18000     -3.7444376E-08
   36.24000     -3.7050487E-08
   36.30000     -3.6726487E-08
   36.36000     -3.6440195E-08
   36.42000     -3.6135155E-08
   36.48000     -3.5744474E-08
   36.54000     -3.5209194E-08
   36.60000     -3.4496150E-08
   36.66000     -3.3609798E-08
   36.72000     -3.2593928E-08
   36.78000     -3.1521854E-08
   36.84000     -3.0477484E-08
   36.90000     -2.9532769E-08
   36.96000     -2.8728580E-08
   37.02000     -2.8065351E-08
   37.08000     -2.7506754E-08
   37.14000     -2.6995426E-08
   37.20000     -2.6475627E-08
   37.26000     -2.5915300E-08
   37.32000     -2.5319945E-08
   37.38000     -2.4733289E-08
   37.44000     -2.4224047E-08
   37.50000     -2.3862775E-08
   37.56000     -2.3696266E-08
   37.62000     -2.3728166E-08
   37.68000     -2.3912769E-08
   37.74000     -2.4164869E-08
   37.80000     -2.4383262E-08
   37.86000     -2.4480775E-08
   37.92000     -2.4411179E-08
   37.98000     -2.4184011E-08
   38.04000     -2.3862020E-08
   38.10000     -2.3541679E-08
   38.16000     -2.3322858E-08
   38.22000     -2.3277600E-08
   38.28000     -2.3428342E-08
   38.34000     -2.3742873E-08
   38.40000     -2.4147752E-08
   38.46000     -2.4555604E-08
   38.52000     -2.4897011E-08
   38.58000     -2.5146107E-08
   38.64000     -2.5331083E-08
   38.70000     -2.5525930E-08
   38.76000     -2.5825997E-08
   38.82000     -2.6315487E-08
   38.88000     -2.7037615E-08
   38.94000     -2.7977416E-08
   39.00000     -2.9062999E-08
   39.06000     -3.0185088E-08
   39.12000     -3.1228744E-08
   39.18000     -3.2107270E-08
   39.24000     -3.2787515E-08
   39.30000     -3.3298551E-08
   39.36000     -3.3720944E-08
   39.42000     -3.4160060E-08
   39.48000     -3.4711864E-08
   39.54000     -3.5432141E-08
   39.60000     -3.6318795E-08
   39.66000     -3.7312805E-08
   39.72000     -3.8317229E-08
   39.78000     -3.9227956E-08
   39.84000     -3.9966288E-08
   39.90000     -4.0502780E-08
   39.96000     -4.0864968E-08
   40.02000     -4.1126640E-08
   40.08000     -4.1382268E-08
   40.14000     -4.1714930E-08
   40.20000     -4.2167922E-08
   40.26000     -4.2729120E-08
   40.32000     -4.3332992E-08
   40.38000     -4.3879528E-08
   40.44000     -4.4264013E-08
   40.50000     -4.4408036E-08
   40.56000     -4.4281975E-08
   40.62000     -4.3911932E-08
   40.68000     -4.3369404E-08
   40.74000     -4.2747477E-08
   40.80000     -4.2131688E-08
   40.86000     -4.1574989E-08
   40.92000     -4.1084604E-08
   40.98000     -4.0624403E-08
   41.04000     -4.0131120E-08
   41.10000     -3.9538552E-08
   41.16000     -3.8801439E-08
   41.22000     -3.7911029E-08
   41.28000     -3.6897390E-08
   41.34000     -3.5817777E-08
   41.40000     -3.4735283E-08
   41.46000     -3.3695173E-08
   41.52000     -3.2707387E-08
   41.58000     -3.1741774E-08
   41.64000     -3.0738285E-08
   41.70000     -2.9629023E-08
   41.76000     -2.8364777E-08
   41.82000     -2.6936792E-08
   41.88000     -2.5385996E-08
   41.94000     -2.3796145E-08
   42.00000     -2.2272902E-08
   42.06000     -2.0915444E-08
   42.12000     -1.9789784E-08
   42.18000     -1.8912107E-08
   42.24000     -1.8247245E-08
   42.30000     -1.7722543E-08
   42.36000     -1.7252599E-08
   42.42000     -1.6767101E-08
   42.48000     -1.6233065E-08
   42.54000     -1.5664451E-08
   42.60000     -1.5116090E-08
   42.66000     -1.4663788E-08
   42.72000     -1.4377011E-08
   42.78000     -1.4293161E-08
   42.84000     -1.4402109E-08
   42.90000     -1.4646385E-08
   42.96000     -1.4937291E-08
   43.02000     -1.5181783E-08
   43.08000     -1.5311439E-08
   43.14000     -1.5304037E-08
   43.20000     -1.5190805E-08
   43.26000     -1.5047148E-08
   43.32000     -1.4969995E-08
   43.38000     -1.5049133E-08
   43.44000     -1.5341634E-08
   43.50000     -1.5857189E-08
   43.56000     -1.6558419E-08
   43.62000     -1.7375232E-08
   43.68000     -1.8227862E-08
   43.74000     -1.9050587E-08
   43.80000     -1.9808494E-08
   43.86000     -2.0502412E-08
   43.92000     -2.1161483E-08
   43.98000     -2.1827097E-08
   44.04000     -2.2534472E-08
   44.10000     -2.3298471E-08
   44.16000     -2.4108152E-08
   44.22000     -2.4931248E-08
   44.28000     -2.5726205E-08
   44.34000     -2.6457098E-08
   44.40000     -2.7106005E-08
   44.46000     -2.7678629E-08
   44.52000     -2.8201411E-08
   44.58000     -2.8711387E-08
   44.64000     -2.9242468E-08
   44.70000     -2.9812991E-08
   44.76000     -3.0418811E-08
   44.82000     -3.1034148E-08
   44.88000     -3.1619692E-08
   44.94000     -3.2134981E-08
   45.00000     -3.2550865E-08
   45.06000     -3.2858228E-08
   45.12000     -3.3070641E-08
   45.18000     -3.3220779E-08
   45.24000     -3.3352077E-08
   45.30000     -3.3508314E-08
   45.36000     -3.3723744E-08
   45.42000     -3.4016100E-08
   45.48000     -3.4383735E-08
   45.54000     -3.4807375E-08
   45.60000     -3.5255759E-08
   45.66000     -3.5693688E-08
   45.72000     -3.6090299E-08
   45.78000     -3.6425483E-08
   45.84000     -3.6692935E-08
   45.90000     -3.6899291E-08
   45.96000     -3.7060104E-08
   46.02000     -3.7194148E-08
   46.08000     -3.7317918E-08
   46.14000     -3.7441897E-08
   46.20000     -3.7569531E-08
   46.26000     -3.7698808E-08
   46.32000     -3.7825647E-08
   46.38000     -3.7947594E-08
   46.44000     -3.8066446E-08
   46.50000     -3.8188695E-08
   46.56000     -3.8323794E-08
   46.62000     -3.8481097E-08
   46.68000     -3.8667011E-08
   46.74000     -3.8883762E-08
   46.80000     -3.9130512E-08
   46.86000     -3.9406512E-08
   46.92000     -3.9715157E-08
   46.98000     -4.0067484E-08
   47.04000     -4.0483833E-08
   47.10000     -4.0993097E-08
   47.16000     -4.1629605E-08
   47.22000     -4.2428688E-08
   47.28000     -4.3422453E-08
   47.34000     -4.4637684E-08
   47.40000     -4.6097519E-08
   47.46000     -4.7827406E-08
   47.52000     -4.9864255E-08
   47.58000     -5.2266120E-08
   47.64000     -5.5119386E-08
   47.70000     -5.8541211E-08
   47.76000     -6.2677294E-08
   47.82000     -6.7697144E-08
   47.88000     -7.3790126E-08
   47.94000     -8.1164927E-08
   48.00000     -9.0053405E-08
   48.06000     -1.0071777E-07
   48.12000     -1.1345940E-07
   48.18000     -1.2862783E-07
   48.24000     -1.4662962E-07
   48.30000     -1.6793733E-07
   48.36000     -1.9309888E-07
   48.42000     -2.2274699E-07
   48.48000     -2.5760843E-07
   48.54000     -2.9851375E-07
   48.60000     -3.4640814E-07
   48.66000     -4.0236560E-07
   48.72000     -4.6760681E-07
   48.78000     -5.4351881E-07
   48.84000     -6.3167408E-07
   48.90000     -7.3384666E-07
   48.96000     -8.5202402E-07
   49.02000     -9.8841838E-07
   49.08000     -1.1454808E-06
   49.14000     -1.3259225E-06
   49.20000     -1.5327439E-06
   49.26000     -1.7692696E-06
   49.32000     -2.0391856E-06
   49.38000     -2.3465752E-06
   49.44000     -2.6959508E-06
   49.50000     -3.0922815E-06
   49.56000     -3.5410171E-06
   49.62000     -4.0481063E-06
   49.68000     -4.6200121E-06
   49.74000     -5.2637242E-06
   49.80000     -5.9867734E-06
   49.86000     -6.7972464E-06
   49.92000     -7.7038094E-06
   49.98000     -8.7157350E-06
   50.04000     -9.8429255E-06
   50.10000     -1.1095925E-05
   50.16000     -1.2485935E-05
   50.22000     -1.4024793E-05
   50.28000     -1.5724961E-05
   50.34000     -1.7599490E-05
   50.40000     -1.9661993E-05
   50.46000     -2.1926602E-05
   50.52000     -2.4407929E-05
   50.58000     -2.7121025E-05
   50.64000     -3.0081315E-05
   50.70000     -3.3304561E-05
   50.76000     -3.6806770E-05
   50.82000     -4.0604125E-05
   50.88000     -4.4712873E-05
   50.94000     -4.9149188E-05
   51.00000     -5.3929056E-05
   51.06000     -5.9068105E-05
   51.12000     -6.4581473E-05
   51.18000     -7.0483657E-05
   51.24000     -7.6788361E-05
   51.30000     -8.3508392E-05
   51.36000     -9.0655471E-05
   51.42000     -9.8240089E-05
   51.48000     -1.0627135E-04
   51.54000     -1.1475679E-04
   51.60000     -1.2370221E-04
   51.66000     -1.3311158E-04
   51.72000     -1.4298674E-04
   51.78000     -1.5332738E-04
   51.84000     -1.6413079E-04
   51.90000     -1.7539182E-04
   51.96000     -1.8710281E-04
   52.02000     -1.9925339E-04
   52.08000     -2.1183067E-04
   52.14000     -2.2481900E-04
   52.20000     -2.3819999E-04
   52.26000     -2.5195262E-04
   52.32000     -2.6605307E-04
   52.38000     -2.8047498E-04
   52.44000     -2.9518941E-04
   52.50000     -3.1016511E-04
   52.56000     -3.2536860E-04
   52.62000     -3.4076432E-04
   52.68000     -3.5631491E-04
   52.74000     -3.7198150E-04
   52.80000     -3.8772379E-04
   52.86000     -4.0350051E-04
   52.92000     -4.1926972E-04
   52.98000     -4.3498902E-04
   53.04000     -4.5061600E-04
   53.10000     -4.6610844E-04
   53.16000     -4.8142485E-04
   53.22000     -4.9652468E-04
   53.28000     -5.1136874E-04
   53.34000     -5.2591955E-04
   53.40000     -5.4014154E-04
   53.46000     -5.5400160E-04
   53.52000     -5.6746922E-04
   53.58000     -5.8051688E-04
   53.64000     -5.9312017E-04
   53.70000     -6.0525833E-04
   53.76000     -6.1691401E-04
   53.82000     -6.2807353E-04
   53.88000     -6.3872692E-04
   53.94000     -6.4886821E-04
   54.00000     -6.5849512E-04
   54.06000     -6.6760945E-04
   54.12000     -6.7621662E-04
   54.18000     -6.8432570E-04
   54.24000     -6.9194945E-04
   54.30000     -6.9910364E-04
   54.36000     -7.0580724E-04
   54.42000     -7.1208185E-04
   54.48000     -7.1795133E-04
   54.54000     -7.2344189E-04
   54.60000     -7.2858087E-04
   54.66000     -7.3339738E-04
   54.72000     -7.3792116E-04
   54.78000     -7.4218266E-04
   54.84000     -7.4621273E-04
   54.90000     -7.5004162E-04
   54.96000     -7.5369910E-04
   55.02000     -7.5721397E-04
   55.08000     -7.6061330E-04
   55.14000     -7.6392246E-04
   55.20000     -7.6716469E-04
   55.26000     -7.7036099E-04
   55.32000     -7.7352958E-04
   55.38000     -7.7668618E-04
   55.44000     -7.7984377E-04
   55.50000     -7.8301236E-04
   55.56000     -7.8619912E-04