  -2.400000      0.0000000E+00
  -2.340000      0.0000000E+00
  -2.280000      0.0000000E+00
  -2.220000      0.0000000E+00
  -2.160000      0.0000000E+00
  -2.100000      0.0000000E+00
  -2.040000      0.0000000E+00
  -1.980000      0.0000000E+00
  -1.920000      0.0000000E+00
  -1.860000      0.0000000E+00
  -1.800000      0.0000000E+00
  -1.740000      0.0000000E+00
  -1.680000      3.8293983E-34
  -1.620000      4.4691072E-33
  -1.560000      1.8117148E-32
  -1.500000     -2.2376606E-32
  -1.440000     -6.4388695E-31
  -1.380000     -3.8457477E-30
  -1.320000     -1.3652815E-29
  -1.260000     -3.0230233E-29
  -1.200000     -2.4434837E-29
  -1.140000      1.1479829E-28
  -1.080000      6.1545504E-28
  -1.020000      1.6709037E-27
 -0.9600000      2.8122387E-27
 -0.9000000      1.6835391E-27
 -0.8400000     -7.0029517E-27
 -0.7800000     -2.9823041E-26
 -0.7200000     -6.6403525E-26
 -0.6600000     -9.2717035E-26
 -0.6000000     -4.3262050E-26
 -0.5400000      1.8413304E-25
 -0.4800000      6.6393965E-25
 -0.4200000      1.2951521E-24
 -0.3600000      1.6108056E-24
 -0.3000000      7.0002969E-25
 -0.2400000     -2.5002242E-24
 -0.1800000     -8.3281608E-24
 -0.1200000     -1.5041230E-23
 -5.9999999E-02 -1.7694969E-23
  0.0000000E+00 -8.5857822E-24
  5.9999999E-02  1.9361800E-23
  0.1200000      6.6003676E-23
  0.1800000      1.1633572E-22
  0.2400000      1.3680053E-22
  0.3000000      8.1922871E-23
  0.3600000     -8.4527803E-23
  0.4200000     -3.5634957E-22
  0.4800000     -6.5199917E-22
  0.5400000     -8.0325069E-22
  0.6000000     -5.8956304E-22
  0.6600000      1.6616690E-22
  0.7200000      1.4485224E-21
  0.7800000      2.8952121E-21
  0.8400000      3.7347734E-21
  0.9000000      2.9478691E-21
  0.9600000     -2.4510325E-22
   1.020000     -5.6159570E-21
   1.080000     -1.1208217E-20
   1.140000     -1.3301132E-20
   1.200000     -7.7627960E-21
   1.260000      7.0145352E-21
   1.320000      2.6624319E-20
   1.380000      3.9119051E-20
   1.440000      2.8576563E-20
   1.500000     -1.4793287E-20
   1.560000     -8.1071965E-20
   1.620000     -1.3237117E-19
   1.680000     -1.1142954E-19
   1.740000      2.6487284E-20
   1.800000      2.6663433E-19
   1.860000      4.9992697E-19
   1.920000      5.3737530E-19
   1.980000      1.9753528E-19
   2.040000     -5.5117143E-19
   2.100000     -1.4661127E-18
   2.160000     -2.0286061E-18
   2.220000     -1.6390349E-18
   2.280000      2.0296258E-20
   2.340000      2.6214650E-18
   2.400000      5.0782471E-18
   2.460000      5.8790650E-18
   2.520000      3.8371035E-18
   2.580000     -1.0687517E-18
   2.640000     -7.2748169E-18
   2.700000     -1.2043771E-17
   2.760000     -1.2688313E-17
   2.820000     -8.0394337E-18
   2.880000      7.2064528E-19
   2.940000      1.0508739E-17
   3.000000      1.7952971E-17
   3.060000      2.1166887E-17
   3.120000      2.0353725E-17
   3.180000      1.6570016E-17
   3.240000      9.4274023E-18
   3.300000     -4.1778213E-18
   3.360000     -2.8220001E-17
   3.420000     -6.2373150E-17
   3.480000     -9.6307580E-17
   3.540000     -1.0840881E-16
   3.600000     -7.3057637E-17
   3.660000      2.3879454E-17
   3.720000      1.6805508E-16
   3.780000      3.0917335E-16
   3.840000      3.7250720E-16
   3.900000      2.9029698E-16
   3.960000      4.1721011E-17
   4.020000     -3.1892739E-16
   4.080000     -6.6547985E-16
   4.140000     -8.4153083E-16
   4.200000     -7.2773863E-16
   4.260000     -3.0540556E-16
   4.320000      3.1649701E-16
   4.380000      9.2995472E-16
   4.440000      1.3056547E-15
   4.500000      1.2882540E-15
   4.560000      8.6614778E-16
   4.620000      1.8148370E-16
   4.680000     -5.2826994E-16
   4.740000     -1.0348467E-15
   4.800000     -1.2242963E-15
   4.860000     -1.1516472E-15
   4.920000     -1.0095145E-15
   4.980000     -1.0087983E-15
   5.040000     -1.2135390E-15
   5.100000     -1.4117182E-15
   5.160000     -1.1185068E-15
   5.220000      2.2364240E-16
   5.280000      2.8714241E-15
   5.340000      6.3789297E-15
   5.400000      9.4103328E-15
   5.460000      1.0004271E-14
   5.520000      6.3668324E-15
   5.580000     -2.0198202E-15
   5.640000     -1.3480025E-14
   5.700000     -2.4036423E-14
   5.760000     -2.8509445E-14
   5.820000     -2.2678182E-14
   5.880000     -5.7002772E-15
   5.940000      1.8420968E-14
   6.000000      4.1375882E-14
   6.060000      5.3350136E-14
   6.120000      4.7199945E-14
   6.180000      2.2190928E-14
   6.240000     -1.4636323E-14
   6.300000     -5.0516371E-14
   6.360000     -7.1870508E-14
   6.420000     -7.0002564E-14
   6.480000     -4.4903802E-14
   6.540000     -5.2575348E-15
   6.600000      3.5422545E-14
   6.660000      6.4598033E-14
   6.720000      7.5505045E-14
   6.780000      6.8573016E-14
   6.840000      4.9030187E-14
   6.900000      2.2505032E-14
   6.960000     -8.3488666E-15
   7.020000     -4.3796025E-14
   7.080000     -8.3344864E-14
   7.140000     -1.2086133E-13
   7.200000     -1.4224792E-13
   7.260000     -1.2860366E-13
   7.320000     -6.4901284E-14
   7.380000      4.9239950E-14
   7.440000      1.9221380E-13
   7.500000      3.2144299E-13
   7.560000      3.8438924E-13
   7.620000      3.3669625E-13
   7.680000      1.6105872E-13
   7.740000     -1.2046070E-13
   7.800000     -4.4578924E-13
   7.860000     -7.2492712E-13
   7.920000     -8.6172871E-13
   7.980000     -7.7984494E-13
   8.040000     -4.4681069E-13
   8.100000      1.0887639E-13
   8.160000      7.9172351E-13
   8.220000      1.4474540E-12
   8.280000      1.8875600E-12
   8.340000      1.9297855E-12
   8.400000      1.4494958E-12
   8.460000      4.3094407E-13
   8.520000     -9.9733665E-13
   8.580000     -2.5592677E-12
   8.640000     -3.8704599E-12
   8.700000     -4.5186511E-12
   8.760000     -4.1700636E-12
   8.820000     -2.6752047E-12
   8.880000     -1.4381360E-13
   8.940000      3.0358706E-12
   9.000000      6.2450947E-12
   9.060000      8.7445389E-12
   9.120000      9.8254720E-12
   9.180000      8.9711632E-12
   9.240000      5.9945495E-12
   9.300000      1.1219546E-12
   9.360000     -4.9979929E-12
   9.420000     -1.1368066E-11
   9.480000     -1.6791658E-11
   9.540000     -2.0075702E-11
   9.600000     -2.0253540E-11
   9.660000     -1.6787483E-11
   9.720000     -9.7115736E-12
   9.780000      3.1607155E-13
   9.840000      1.2066964E-11
   9.900000      2.3899483E-11
   9.960000      3.3999817E-11
   10.02000      4.0673406E-11
   10.08000      4.2645876E-11
   10.14000      3.9329654E-11
   10.20000      3.1013431E-11
   10.26000      1.8934979E-11
   10.32000      5.2036539E-12
   10.38000     -7.4503199E-12
   10.44000     -1.6104023E-11
   10.50000     -1.8221542E-11
   10.56000     -1.2319113E-11
   10.62000      1.3950349E-12
   10.68000      2.0551271E-11
   10.74000      4.0474558E-11
   10.80000      5.4489486E-11
   10.86000      5.4722560E-11
   10.92000      3.3338225E-11
   10.98000     -1.5978819E-11
   11.04000     -9.6586662E-11
   11.10000     -2.0783854E-10
   11.16000     -3.4474953E-10
   11.22000     -4.9860688E-10
   11.28000     -6.5859873E-10
   11.34000     -8.1434631E-10
   11.40000     -9.5903396E-10
   11.46000     -1.0926721E-09
   11.52000     -1.2249278E-09
   11.58000     -1.3769338E-09
   11.64000     -1.5815622E-09
   11.70000     -1.8818151E-09
   11.76000     -2.3272493E-09
   11.82000     -2.9686484E-09
   11.88000     -3.8514876E-09
   11.94000     -5.0089679E-09
   12.00000     -6.4555770E-09
   12.06000     -8.1821199E-09
   12.12000     -1.0153034E-08
   12.18000     -1.2306555E-08
   12.24000     -1.4557969E-08
   12.30000     -1.6805780E-08
   12.36000     -1.8940304E-08
   12.42000     -2.0853804E-08
   12.48000     -2.2451074E-08
   12.54000     -2.3659169E-08
   12.60000     -2.4435030E-08
   12.66000     -2.4769944E-08
   12.72000     -2.4690163E-08
   12.78000     -2.4253499E-08
   12.84000     -2.3542359E-08
   12.90000     -2.2654115E-08
   12.96000     -2.1690042E-08
   13.02000     -2.0744274E-08
   13.08000     -1.9893973E-08
   13.14000     -1.9191862E-08
   13.20000     -1.8661847E-08
   13.26000     -1.8298177E-08
   13.32000     -1.8068276E-08
   13.38000     -1.7918985E-08
   13.44000     -1.7785586E-08
   13.50000     -1.7602497E-08
   13.56000     -1.7314250E-08
   13.62000     -1.6885025E-08
   13.68000     -1.6305215E-08
   13.74000     -1.5593784E-08
   13.80000     -1.4795971E-08
   13.86000     -1.3976666E-08
   13.92000     -1.3210702E-08
   13.98000     -1.2571756E-08
   14.04000     -1.2121850E-08
   14.10000     -1.1903113E-08
   14.16000     -1.1932959E-08
   14.22000     -1.2203072E-08
   14.28000     -1.2681885E-08
   14.34000     -1.3319728E-08
   14.40000     -1.4055617E-08
   14.46000     -1.4824633E-08
   14.52000     -1.5565078E-08
   14.58000     -1.6224826E-08
   14.64000     -1.6766430E-08
   14.70000     -1.7170629E-08
   14.76000     -1.7437856E-08
   14.82000     -1.7587313E-08
   14.88000     -1.7653397E-08
   14.94000     -1.7679492E-08
   15.00000     -1.7709826E-08
   15.06000     -1.7780561E-08
   15.12000     -1.7911837E-08
   15.18000     -1.8102552E-08
   15.24000     -1.8329292E-08
   15.30000     -1.8550006E-08
   15.36000     -1.8711912E-08
   15.42000     -1.8762028E-08
   15.48000     -1.8657966E-08
   15.54000     -1.8376463E-08
   15.60000     -1.7917626E-08
   15.66000     -1.7303861E-08
   15.72000     -1.6573939E-08
   15.78000     -1.5773734E-08
   15.84000     -1.4946188E-08
   15.90000     -1.4123018E-08
   15.96000     -1.3320260E-08
   16.02000     -1.2538526E-08
   16.08000     -1.1767495E-08
   16.14000     -1.0992991E-08
   16.20000     -1.0204225E-08
   16.26000     -9.3988639E-09
   16.32000     -8.5842551E-09
   16.38000     -7.7744176E-09
   16.44000     -6.9837962E-09
   16.50000     -6.2199481E-09
   16.56000     -5.4778186E-09
   16.62000     -4.7379691E-09
   16.68000     -3.9699728E-09
   16.74000     -3.1405634E-09
   16.80000     -2.2244666E-09
   16.86000     -1.2146905E-09
   16.92000     -1.2887255E-10
   16.98000      9.9084463E-10
   17.04000      2.0851549E-09
   17.10000      3.0907186E-09
   17.16000      3.9557642E-09
   17.22000      4.6538324E-09
   17.28000      5.1915392E-09
   17.34000      5.6077325E-09
   17.40000      5.9637495E-09
   17.46000      6.3270740E-09
   17.52000      6.7527450E-09
   17.58000      7.2677557E-09
   17.64000      7.8630311E-09
   17.70000      8.4955252E-09
   17.76000      9.1000274E-09
   17.82000      9.6073345E-09
   17.88000      9.9634061E-09
   17.94000      1.0143763E-08
   18.00000      1.0158780E-08
   18.06000      1.0048375E-08
   18.12000      9.8678967E-09
   18.18000      9.6698436E-09
   18.24000      9.4872075E-09
   18.30000      9.3237027E-09
   18.36000      9.1537684E-09
   18.42000      8.9320054E-09
   18.48000      8.6086906E-09
   18.54000      8.1460678E-09
   18.60000      7.5300273E-09
   18.66000      6.7734724E-09
   18.72000      5.9105516E-09
   18.78000      4.9841056E-09
   18.84000      4.0309129E-09
   18.90000      3.0699998E-09
   18.96000      2.0980910E-09
   19.02000      1.0937048E-09
   19.08000      2.8338505E-11
   19.14000     -1.1192682E-09
   19.20000     -2.3508639E-09
   19.26000     -3.6428229E-09
   19.32000     -4.9489932E-09
   19.38000     -6.2117254E-09
   19.44000     -7.3778752E-09
   19.50000     -8.4148475E-09
   19.56000     -9.3214805E-09
   19.62000     -1.0129841E-08
   19.68000     -1.0896542E-08
   19.74000     -1.1685302E-08
   19.80000     -1.2545334E-08
   19.86000     -1.3491843E-08
   19.92000     -1.4494804E-08
   19.98000     -1.5480156E-08
   20.04000     -1.6344066E-08
   20.10000     -1.6976943E-08
   20.16000     -1.7290823E-08
   20.22000     -1.7242407E-08
   20.28000     -1.6845126E-08
   20.34000     -1.6166714E-08
   20.40000     -1.5312832E-08
   20.46000     -1.4401416E-08
   20.52000     -1.3534918E-08
   20.58000     -1.2778210E-08
   20.64000     -1.2148110E-08
   20.70000     -1.1617072E-08
   20.76000     -1.1129345E-08
   20.82000     -1.0624297E-08
   20.88000     -1.0059495E-08
   20.94000     -9.4264294E-09
   21.00000     -8.7542222E-09
   21.06000     -8.1006464E-09
   21.12000     -7.5339219E-09
   21.18000     -7.1116641E-09
   21.24000     -6.8640835E-09
   21.30000     -6.7868258E-09
   21.36000     -6.8453163E-09
   21.42000     -6.9885275E-09
   21.48000     -7.1669759E-09
   21.54000     -7.3487008E-09
   21.60000     -7.5280857E-09
   21.66000     -7.7252400E-09
   21.72000     -7.9770581E-09
   21.78000     -8.3238110E-09
   21.84000     -8.7962411E-09
   21.90000     -9.4074251E-09
   21.96000     -1.0151490E-08
   22.02000     -1.1008649E-08
   22.08000     -1.1953906E-08
   22.14000     -1.2965849E-08
   22.20000     -1.4032474E-08
   22.26000     -1.5152484E-08
   22.32000     -1.6332285E-08
   22.38000     -1.7580344E-08
   22.44000     -1.8901170E-08
   22.50000     -2.0290864E-08
   22.56000     -2.1735429E-08
   22.62000     -2.3212030E-08
   22.68000     -2.4692518E-08
   22.74000     -2.6148172E-08
   22.80000     -2.7554380E-08
   22.86000     -2.8894092E-08
   22.92000     -3.0159196E-08
   22.98000     -3.1349295E-08
   23.04000     -3.2467998E-08
   23.10000     -3.3517370E-08
   23.16000     -3.4491947E-08
   23.22000     -3.5374097E-08
   23.28000     -3.6132604E-08
   23.34000     -3.6725798E-08
   23.40000     -3.7109412E-08
   23.46000     -3.7247954E-08
   23.52000     -3.7126767E-08
   23.58000     -3.6761342E-08
   23.64000     -3.6200518E-08
   23.70000     -3.5521659E-08
   23.76000     -3.4818083E-08
   23.82000     -3.4181230E-08
   23.88000     -3.3681889E-08
   23.94000     -3.3355150E-08
   24.00000     -3.3192951E-08
   24.06000     -3.3146232E-08
   24.12000     -3.3136356E-08
   24.18000     -3.3073260E-08
   24.24000     -3.2876173E-08
   24.30000     -3.2492007E-08
   24.36000     -3.1906893E-08
   24.42000     -3.1147739E-08
   24.48000     -3.0273110E-08
   24.54000     -2.9355647E-08
   24.60000     -2.8460754E-08
   24.66000     -2.7627733E-08
   24.72000     -2.6858991E-08
   24.78000     -2.6120606E-08
   24.84000     -2.5353994E-08
   24.90000     -2.4494865E-08
   24.96000     -2.3493470E-08
   25.02000     -2.2329862E-08
   25.08000     -2.1019728E-08
   25.14000     -1.9609404E-08
   25.20000     -1.8162101E-08
   25.26000     -1.6740008E-08
   25.32000     -1.5388094E-08
   25.38000     -1.4124819E-08
   25.44000     -1.2942837E-08
   25.50000     -1.1819401E-08
   25.56000     -1.0732877E-08
   25.62000     -9.6794537E-09
   25.68000     -8.6837311E-09
   25.74000     -7.7988220E-09
   25.80000     -7.0953083E-09
   25.86000     -6.6425030E-09
   25.92000     -6.4884897E-09
   25.98000     -6.6460055E-09
   26.04000     -7.0892501E-09
   26.10000     -7.7628624E-09
   26.16000     -8.6000940E-09
   26.22000     -9.5441237E-09
   26.28000     -1.0565522E-08
   26.34000     -1.1670181E-08
   26.40000     -1.2895173E-08
   26.46000     -1.4293790E-08
   26.52000     -1.5914555E-08
   26.58000     -1.7781000E-08
   26.64000     -1.9878932E-08
   26.70000     -2.2155696E-08
   26.76000     -2.4531948E-08
   26.82000     -2.6922200E-08
   26.88000     -2.9257233E-08
   26.94000     -3.1500743E-08
   27.00000     -3.3654615E-08
   27.06000     -3.5751373E-08
   27.12000     -3.7836763E-08
   27.18000     -3.9948855E-08
   27.24000     -4.2100925E-08
   27.30000     -4.4273609E-08
   27.36000     -4.6418588E-08
   27.42000     -4.8472145E-08
   27.48000     -5.0373920E-08
   27.54000     -5.2084726E-08
   27.60000     -5.3597741E-08
   27.66000     -5.4939544E-08
   27.72000     -5.6160591E-08
   27.78000     -5.7318228E-08
   27.84000     -5.8457818E-08
   27.90000     -5.9598161E-08
   27.96000     -6.0726087E-08
   28.02000     -6.1801607E-08
   28.08000     -6.2771392E-08
   28.14000     -6.3585290E-08
   28.20000     -6.4209843E-08
   28.26000     -6.4634314E-08
   28.32000     -6.4867734E-08
   28.38000     -6.4928862E-08
   28.44000     -6.4833166E-08
   28.50000     -6.4581712E-08
   28.56000     -6.4155707E-08
   28.62000     -6.3518399E-08
   28.68000     -6.2624061E-08
   28.74000     -6.1431138E-08
   28.80000     -5.9916040E-08
   28.86000     -5.8083227E-08
   28.92000     -5.5968346E-08
   28.98000     -5.3633329E-08
   29.04000     -5.1154643E-08
   29.10000     -4.8608541E-08
   29.16000     -4.6058037E-08
   29.22000     -4.3545587E-08
   29.28000     -4.1093376E-08
   29.34000     -3.8709903E-08
   29.40000     -3.6399602E-08
   29.46000     -3.4171311E-08
   29.52000     -3.2042564E-08
   29.58000     -3.0038802E-08
   29.64000     -2.8188689E-08
   29.70000     -2.6518151E-08
   29.76000     -2.5045809E-08
   29.82000     -2.3781466E-08
   29.88000     -2.2727951E-08
   29.94000     -2.1885203E-08
   30.00000     -2.1254557E-08
   30.06000     -2.0841101E-08
   30.12000     -2.0652502E-08
   30.18000     -2.0694108E-08
   30.24000     -2.0961711E-08
   30.30000     -2.1434831E-08
   30.36000     -2.2073916E-08
   30.42000     -2.2823935E-08
   30.48000     -2.3624674E-08
   30.54000     -2.4425267E-08
   30.60000     -2.5198229E-08
   30.66000     -2.5947831E-08
   30.72000     -2.6709101E-08
   30.78000     -2.7537052E-08
   30.84000     -2.8489200E-08
   30.90000     -2.9607000E-08
   30.96000     -3.0902271E-08
   31.02000     -3.2352911E-08
   31.08000     -3.3908982E-08
   31.14000     -3.5506798E-08
   31.20000     -3.7086114E-08
   31.26000     -3.8604782E-08
   31.32000     -4.0046260E-08
   31.38000     -4.1417941E-08
   31.44000     -4.2741284E-08
   31.50000     -4.4037403E-08
   31.56000     -4.5313300E-08
   31.62000     -4.6553598E-08
   31.68000     -4.7720832E-08
   31.74000     -4.8764335E-08
   31.80000     -4.9634750E-08
   31.86000     -5.0299182E-08
   31.92000     -5.0751634E-08
   31.98000     -5.1014915E-08
   32.04000     -5.1133071E-08
   32.10000     -5.1156597E-08
   32.16000     -5.1124900E-08
   32.22000     -5.1051622E-08
   32.28000     -5.0917315E-08
   32.34000     -5.0671861E-08
   32.40000     -5.0246172E-08
   32.46000     -4.9570023E-08
   32.52000     -4.8591012E-08
   32.58000     -4.7289419E-08
   32.64000     -4.5684672E-08
   32.70000     -4.3831623E-08
   32.76000     -4.1807624E-08
   32.82000     -3.9694260E-08
   32.88000     -3.7559172E-08
   32.94000     -3.5443446E-08
   33.00000     -3.3358258E-08
   33.06000     -3.1291517E-08
   33.12000     -2.9221956E-08
   33.18000     -2.7135698E-08
   33.24000     -2.5039602E-08
   33.30000     -2.2966866E-08
   33.36000     -2.0973069E-08
   33.42000     -1.9124089E-08
   33.48000     -1.7479953E-08
   33.54000     -1.6079884E-08
   33.60000     -1.4933107E-08
   33.66000     -1.4018033E-08
   33.72000     -1.3289631E-08
   33.78000     -1.2692425E-08
   33.84000     -1.2175181E-08
   33.90000     -1.1703090E-08
   33.96000     -1.1264331E-08
   34.02000     -1.0869540E-08
   34.08000     -1.0544756E-08
   34.14000     -1.0320151E-08
   34.20000     -1.0218075E-08
   34.26000     -1.0244158E-08
   34.32000     -1.0384318E-08
   34.38000     -1.0608704E-08
   34.44000     -1.0881300E-08
   34.50000     -1.1171968E-08
   34.56000     -1.1466883E-08
   34.62000     -1.1773933E-08
   34.68000     -1.2121481E-08
   34.74000     -1.2551196E-08
   34.80000     -1.3107481E-08
   34.86000     -1.3826813E-08
   34.92000     -1.4729867E-08
   34.98000     -1.5818140E-08
   35.04000     -1.7075307E-08
   35.10000     -1.8472353E-08
   35.16000     -1.9974758E-08
   35.22000     -2.1549658E-08
   35.28000     -2.3171095E-08
   35.34000     -2.4822111E-08
   35.40000     -2.6493467E-08
   35.46000     -2.8179969E-08
   35.52000     -2.9876247E-08
   35.58000     -3.1573990E-08
   35.64000     -3.3261852E-08
   35.70000     -3.4928000E-08
   35.76000     -3.6563943E-08
   35.82000     -3.8167784E-08
   35.88000     -3.9745327E-08
   35.94000     -4.1308461E-08
   36.00000     -4.2871360E-08
   36.06000     -4.4445891E-08
   36.12000     -4.6037567E-08
   36.18000     -4.7643301E-08
   36.24000     -4.9251415E-08
   36.30000     -5.0843795E-08
   36.36000     -5.2399432E-08
   36.42000     -5.3898159E-08
   36.48000     -5.5323127E-08
   36.54000     -5.6661158E-08
   36.60000     -5.7900831E-08
   36.66000     -5.9029507E-08
   36.72000     -6.0031134E-08
   36.78000     -6.0886471E-08
   36.84000     -6.1576337E-08
   36.90000     -6.2086592E-08
   36.96000     -6.2412525E-08
   37.02000     -6.2560296E-08
   37.08000     -6.2544238E-08
   37.14000     -6.2380977E-08
   37.20000     -6.2082712E-08
   37.26000     -6.1652592E-08
   37.32000     -6.1084215E-08
   37.38000     -6.0365821E-08
   37.44000     -5.9487974E-08
   37.50000     -5.8452351E-08
   37.56000     -5.7279159E-08
   37.62000     -5.6010553E-08
   37.68000     -5.4708639E-08
   37.74000     -5.3447764E-08
   37.80000     -5.2302479E-08
   37.86000     -5.1334197E-08
   37.92000     -5.0580365E-08
   37.98000     -5.0049447E-08
   38.04000     -4.9723386E-08
   38.10000     -4.9566530E-08
   38.16000     -4.9537881E-08
   38.22000     -4.9602491E-08
   38.28000     -4.9738539E-08
   38.34000     -4.9938361E-08
   38.40000     -5.0203830E-08
   38.46000     -5.0538173E-08
   38.52000     -5.0936947E-08
   38.58000     -5.1381111E-08
   38.64000     -5.1834380E-08
   38.70000     -5.2246122E-08
   38.76000     -5.2559525E-08
   38.82000     -5.2722985E-08
   38.88000     -5.2701299E-08
   38.94000     -5.2482694E-08
   39.00000     -5.2078928E-08
   39.06000     -5.1518143E-08
   39.12000     -5.0832980E-08
   39.18000     -5.0048381E-08
   39.24000     -4.9173476E-08
   39.30000     -4.8200370E-08
   39.36000     -4.7109776E-08
   39.42000     -4.5881247E-08
   39.48000     -4.4504397E-08
   39.54000     -4.2987676E-08
   39.60000     -4.1362174E-08
   39.66000     -3.9679342E-08
   39.72000     -3.8002945E-08
   39.78000     -3.6397083E-08
   39.84000     -3.4913441E-08
   39.90000     -3.3581578E-08
   39.96000     -3.2405694E-08
   40.02000     -3.1369343E-08
   40.08000     -3.0446888E-08
   40.14000     -2.9617734E-08
   40.20000     -2.8878341E-08
   40.26000     -2.8247682E-08
   40.32000     -2.7764520E-08
   40.38000     -2.7477784E-08
   40.44000     -2.7433625E-08
   40.50000     -2.7663484E-08
   40.56000     -2.8176599E-08
   40.62000     -2.8958645E-08
   40.68000     -2.9976345E-08
   40.74000     -3.1186278E-08
   40.80000     -3.2545202E-08
   40.86000     -3.4018989E-08
   40.92000     -3.5587679E-08
   40.98000     -3.7245510E-08
   41.04000     -3.8996337E-08
   41.10000     -4.0846473E-08
   41.16000     -4.2797694E-08
   41.22000     -4.4842725E-08
   41.28000     -4.6964384E-08
   41.34000     -4.9137924E-08
   41.40000     -5.1335384E-08
   41.46000     -5.3530353E-08
   41.52000     -5.5702142E-08
   41.58000     -5.7838545E-08
   41.64000     -5.9936731E-08
   41.70000     -6.2001611E-08
   41.76000     -6.4041544E-08
   41.82000     -6.6062093E-08
   41.88000     -6.8059670E-08
   41.94000     -7.0017542E-08
   42.00000     -7.1905966E-08
   42.06000     -7.3686856E-08
   42.12000     -7.5320948E-08
   42.18000     -7.6774654E-08
   42.24000     -7.8023930E-08
   42.30000     -7.9054082E-08
   42.36000     -7.9856690E-08
   42.42000     -8.0425600E-08
   42.48000     -8.0754056E-08
   42.54000     -8.0833892E-08
   42.60000     -8.0656669E-08
   42.66000     -8.0216033E-08
   42.72000     -7.9511011E-08
   42.78000     -7.8549888E-08
   42.84000     -7.7354166E-08
   42.90000     -7.5961225E-08
   42.96000     -7.4423966E-08
   43.02000     -7.2805790E-08
   43.08000     -7.1171193E-08
   43.14000     -6.9574220E-08
   43.20000     -6.8048486E-08
   43.26000     -6.6602290E-08
   43.32000     -6.5220874E-08
   43.38000     -6.3874765E-08
   43.44000     -6.2531790E-08
   43.50000     -6.1168961E-08
   43.56000     -5.9781463E-08
   43.62000     -5.8386750E-08
   43.68000     -5.7023154E-08
   43.74000     -5.5743044E-08
   43.80000     -5.4601585E-08
   43.86000     -5.3643127E-08
   43.92000     -5.2888566E-08
   43.98000     -5.2327543E-08
   44.04000     -5.1918757E-08
   44.10000     -5.1599169E-08
   44.16000     -5.1300152E-08
   44.22000     -5.0965745E-08
   44.28000     -5.0567728E-08
   44.34000     -5.0113051E-08
   44.40000     -4.9641958E-08
   44.46000     -4.9217743E-08
   44.52000     -4.8911165E-08
   44.58000     -4.8783537E-08
   44.64000     -4.8872554E-08
   44.70000     -4.9184223E-08
   44.76000     -4.9693064E-08
   44.82000     -5.0350561E-08
   44.88000     -5.1099470E-08
   44.94000     -5.1889320E-08
   45.00000     -5.2687877E-08
   45.06000     -5.3484641E-08
   45.12000     -5.4285895E-08
   45.18000     -5.5104096E-08
   45.24000     -5.5946774E-08
   45.30000     -5.6809387E-08
   45.36000     -5.7674360E-08
   45.42000     -5.8515333E-08
   45.48000     -5.9304003E-08
   45.54000     -6.0016696E-08
   45.60000     -6.0639294E-08
   45.66000     -6.1170084E-08
   45.72000     -6.1620675E-08
   45.78000     -6.2014522E-08
   45.84000     -6.2382362E-08
   45.90000     -6.2754602E-08
   45.96000     -6.3152505E-08
   46.02000     -6.3581325E-08
   46.08000     -6.4028661E-08
   46.14000     -6.4469276E-08
   46.20000     -6.4874577E-08
   46.26000     -6.5222807E-08
   46.32000     -6.5505652E-08
   46.38000     -6.5729225E-08
   46.44000     -6.5909937E-08
   46.50000     -6.6068175E-08
   46.56000     -6.6222597E-08
   46.62000     -6.6386988E-08
   46.68000     -6.6569768E-08
   46.74000     -6.6775826E-08
   46.80000     -6.7010127E-08
   46.86000     -6.7283032E-08
   46.92000     -6.7616639E-08
   46.98000     -6.8051101E-08
   47.04000     -6.8648419E-08
   47.10000     -6.9492174E-08
   47.16000     -7.0682887E-08
   47.22000     -7.2330984E-08
   47.28000     -7.4550449E-08
   47.34000     -7.7456221E-08
   47.40000     -8.1166299E-08
   47.46000     -8.5808061E-08
   47.52000     -9.1526722E-08
   47.58000     -9.8494347E-08
   47.64000     -1.0691829E-07
   47.70000     -1.1704878E-07
   47.76000     -1.2918531E-07
   47.82000     -1.4368146E-07
   47.88000     -1.6094836E-07
   47.94000     -1.8145793E-07
   48.00000     -2.0574817E-07
   48.06000     -2.3443282E-07
   48.12000     -2.6821672E-07
   48.18000     -3.0791503E-07
   48.24000     -3.5447408E-07
   48.30000     -4.0899064E-07
   48.36000     -4.7272900E-07
   48.42000     -5.4713621E-07
   48.48000     -6.3385846E-07
   48.54000     -7.3476002E-07
   48.60000     -8.5194438E-07
   48.66000     -9.8777764E-07
   48.72000     -1.1449127E-06
   48.78000     -1.3263153E-06
   48.84000     -1.5352939E-06
   48.90000     -1.7755343E-06
   48.96000     -2.0511379E-06
   49.02000     -2.3666605E-06
   49.08000     -2.7271476E-06
   49.14000     -3.1381639E-06
   49.20000     -3.6058236E-06
   49.26000     -4.1368189E-06
   49.32000     -4.7384592E-06
   49.38000     -5.4187126E-06
   49.44000     -6.1862565E-06
   49.50000     -7.0505189E-06
   49.56000     -8.0217114E-06
   49.62000     -9.1108604E-06
   49.68000     -1.0329819E-05
   49.74000     -1.1691285E-05
   49.80000     -1.3208811E-05
   49.86000     -1.4896808E-05
   49.92000     -1.6770553E-05
   49.98000     -1.8846169E-05
   50.04000     -2.1140611E-05
   50.10000     -2.3671651E-05
   50.16000     -2.6457847E-05
   50.22000     -2.9518489E-05
   50.28000     -3.2873562E-05
   50.34000     -3.6543661E-05
   50.40000     -4.0549905E-05
   50.46000     -4.4913817E-05
   50.52000     -4.9657185E-05
   50.58000     -5.4801949E-05
   50.64000     -6.0370054E-05
   50.70000     -6.6383291E-05
   50.76000     -7.2863142E-05
   50.82000     -7.9830585E-05
   50.88000     -8.7305925E-05
   50.94000     -9.5308576E-05
   51.00000     -1.0385683E-04
   51.06000     -1.1296765E-04
   51.12000     -1.2265643E-04
   51.18000     -1.3293671E-04
   51.24000     -1.4381995E-04
   51.30000     -1.5531531E-04
   51.36000     -1.6742939E-04
   51.42000     -1.8016604E-04
   51.48000     -1.9352618E-04
   51.54000     -2.0750758E-04
   51.60000     -2.2210467E-04
   51.66000     -2.3730834E-04
   51.72000     -2.5310583E-04
   51.78000     -2.6948060E-04
   51.84000     -2.8641219E-04
   51.90000     -3.0387627E-04
   51.96000     -3.2184465E-04
   52.02000     -3.4028527E-04
   52.08000     -3.5916225E-04
   52.14000     -3.7843612E-04
   52.20000     -3.9806383E-04
   52.26000     -4.1799896E-04
   52.32000     -4.3819210E-04
   52.38000     -4.5859101E-04
   52.44000     -4.7914087E-04
   52.50000     -4.9978477E-04
   52.56000     -5.2046403E-04
   52.62000     -5.4111861E-04
   52.68000     -5.6168751E-04
   52.74000     -5.8210967E-04
   52.80000     -6.0232391E-04
   52.86000     -6.2227010E-04
   52.92000     -6.4188911E-04
   52.98000     -6.6112378E-04
   53.04000     -6.7991897E-04
   53.10000     -6.9822249E-04
   53.16000     -7.1598543E-04
   53.22000     -7.3316280E-04
   53.28000     -7.4971380E-04
   53.34000     -7.6560228E-04
   53.40000     -7.8079704E-04
   53.46000     -7.9527241E-04
   53.52000     -8.0900808E-04
   53.58000     -8.2198973E-04
   53.64000     -8.3420909E-04
   53.70000     -8.4566366E-04
   53.76000     -8.5635716E-04
   53.82000     -8.6629909E-04
   53.88000     -8.7550469E-04
   53.94000     -8.8399492E-04
   54.00000     -8.9179591E-04
   54.06000     -8.9893892E-04
   54.12000     -9.0545986E-04
   54.18000     -9.1139867E-04
   54.24000     -9.1679866E-04
   54.30000     -9.2170615E-04
   54.36000     -9.2616992E-04
   54.42000     -9.3024061E-04
   54.48000     -9.3397003E-04
   54.54000     -9.3741057E-04
   54.60000     -9.4061409E-04
   54.66000     -9.4363163E-04
   54.72000     -9.4651256E-04
   54.78000     -9.4930426E-04
   54.84000     -9.5205137E-04
   54.90000     -9.5479551E-04
   54.96000     -9.5757429E-04
   55.02000     -9.6042105E-04
   55.08000     -9.6336426E-04
   55.14000     -9.6642727E-04
   55.20000     -9.6962805E-04
   55.26000     -9.7297929E-04
   55.32000     -9.7648799E-04
   55.38000     -9.8015589E-04
   55.44000     -9.8397920E-04
   55.50000     -9.8794873E-04
   55.56000     -9.9204993E-04