  -2.400000      0.0000000E+00
  -2.340000      0.0000000E+00
  -2.280000      0.0000000E+00
  -2.220000      0.0000000E+00
  -2.160000      0.0000000E+00
  -2.100000      0.0000000E+00
  -2.040000      0.0000000E+00
  -1.980000      0.0000000E+00
  -1.920000      0.0000000E+00
  -1.860000      0.0000000E+00
  -1.800000      0.0000000E+00
  -1.740000      0.0000000E+00
  -1.680000      1.0295846E-33
  -1.620000      1.1244361E-32
  -1.560000      3.7948305E-32
  -1.500000     -1.1836753E-31
  -1.440000     -1.7797265E-30
  -1.380000     -8.9341001E-30
  -1.320000     -2.5381431E-29
  -1.260000     -3.0961593E-29
  -1.200000      8.2483036E-29
  -1.140000      5.7533714E-28
  -1.080000      1.6986477E-27
  -1.020000      2.8526637E-27
 -0.9600000      8.3198402E-28
 -0.9000000     -1.1531579E-26
 -0.8400000     -4.1884585E-26
 -0.7800000     -8.3369982E-26
 -0.7200000     -8.7006582E-26
 -0.6600000      5.8806474E-26
 -0.6000000      4.8914627E-25
 -0.5400000      1.1974251E-24
 -0.4800000      1.7414970E-24
 -0.4200000      1.0040676E-24
 -0.3600000     -2.5589214E-24
 -0.3000000     -9.6715499E-24
 -0.2400000     -1.7948286E-23
 -0.1800000     -1.9733001E-23
 -0.1200000     -2.7794266E-24
 -5.9999999E-02  4.3007703E-23
  0.0000000E+00  1.1195783E-22
  5.9999999E-02  1.6757784E-22
  0.1200000      1.3949474E-22
  0.1800000     -5.0529614E-23
  0.2400000     -4.2544715E-22
  0.3000000     -8.7068312E-22
  0.3600000     -1.0868857E-21
  0.4200000     -6.5462157E-22
  0.4800000      7.3499279E-22
  0.5400000      2.9206160E-21
  0.6000000      4.9609220E-21
  0.6600000      5.1724456E-21
  0.7200000      1.7894706E-21
  0.7800000     -5.7459245E-21
  0.8400000     -1.5351109E-20
  0.9000000     -2.1727797E-20
  0.9600000     -1.7778089E-20
   1.020000      1.5104375E-21
   1.080000      3.3774318E-20
   1.140000      6.5533591E-20
   1.200000      7.3972423E-20
   1.260000      3.6906925E-20
   1.320000     -5.0689686E-20
   1.380000     -1.6131336E-19
   1.440000     -2.3282358E-19
   1.500000     -1.8994934E-19
   1.560000      1.0931597E-20
   1.620000      3.3132102E-19
   1.680000      6.2699655E-19
   1.740000      6.8406658E-19
   1.800000      3.2412853E-19
   1.860000     -4.5537275E-19
   1.920000     -1.3826401E-18
   1.980000     -1.9440806E-18
   2.040000     -1.5937986E-18
   2.100000     -8.9644458E-20
   2.160000      2.2031685E-18
   2.220000      4.2532039E-18
   2.280000      4.6991332E-18
   2.340000      2.5457786E-18
   2.400000     -2.0572178E-18
   2.460000     -7.3986913E-18
   2.520000     -1.0557977E-17
   2.580000     -8.6367996E-18
   2.640000     -5.0996858E-19
   2.700000      1.1707967E-17
   2.760000      2.2441367E-17
   2.820000      2.4333756E-17
   2.880000      1.1715936E-17
   2.940000     -1.5266546E-17
   3.000000     -4.7848177E-17
   3.060000     -6.9347606E-17
   3.120000     -6.0728722E-17
   3.180000     -1.0385770E-17
   3.240000      7.5171276E-17
   3.300000      1.6537461E-16
   3.360000      2.1042989E-16
   3.420000      1.5998742E-16
   3.480000     -7.8298286E-18
   3.540000     -2.5873138E-16
   3.600000     -4.9321675E-16
   3.660000     -5.7144067E-16
   3.720000     -3.7446236E-16
   3.780000      1.1674862E-16
   3.840000      7.6340237E-16
   3.900000      1.2768243E-15
   3.960000      1.3177590E-15
   4.020000      6.6857496E-16
   4.080000     -5.9229684E-16
   4.140000     -2.0156026E-15
   4.200000     -2.8900887E-15
   4.260000     -2.5427887E-15
   4.320000     -7.2862918E-16
   4.380000      2.0825457E-15
   4.440000      4.7214967E-15
   4.500000      5.7308403E-15
   4.560000      4.0687206E-15
   4.620000     -1.9767569E-16
   4.680000     -5.5979234E-15
   4.740000     -9.6429653E-15
   4.800000     -9.8689613E-15
   4.860000     -5.1506672E-15
   4.920000      3.3565292E-15
   4.980000      1.2247828E-14
   5.040000      1.7096708E-14
   5.100000      1.4511728E-14
   5.160000      4.1269487E-15
   5.220000     -1.0535170E-14
   5.280000     -2.3025534E-14
   5.340000     -2.6642505E-14
   5.400000     -1.7789582E-14
   5.460000      1.5744670E-15
   5.520000      2.3830318E-14
   5.580000      3.8449522E-14
   5.640000      3.6750991E-14
   5.700000      1.6627673E-14
   5.760000     -1.5158576E-14
   5.820000     -4.4734188E-14
   5.880000     -5.6800010E-14
   5.940000     -4.2121346E-14
   6.000000     -3.3903692E-15
   6.060000      4.3805054E-14
   6.120000      7.6349341E-14
   6.180000      7.3865779E-14
   6.240000      2.9729071E-14
   6.300000     -4.2511930E-14
   6.360000     -1.1142623E-13
   6.420000     -1.3937560E-13
   6.480000     -9.9802396E-14
   6.540000      7.0898280E-15
   6.600000      1.4810572E-13
   6.660000      2.6511088E-13
   6.720000      2.9636509E-13
   6.780000      2.0375913E-13
   6.840000     -5.4063669E-15
   6.900000     -2.7280814E-13
   6.960000     -5.0466830E-13
   7.020000     -6.0471094E-13
   7.080000     -5.1246214E-13
   7.140000     -2.3104768E-13
   7.200000      1.6839305E-13
   7.260000      5.6942065E-13
   7.320000      8.5212615E-13
   7.380000      9.3691526E-13
   7.440000      8.1108969E-13
   7.500000      5.2591595E-13
   7.560000      1.6520101E-13
   7.620000     -1.9950351E-13
   7.680000     -5.4384372E-13
   7.740000     -8.9510826E-13
   7.800000     -1.2989430E-12
   7.860000     -1.7603172E-12
   7.920000     -2.1872250E-12
   7.980000     -2.3710116E-12
   8.040000     -2.0270985E-12
   8.100000     -8.9644459E-13
   8.160000      1.1201479E-12
   8.220000      3.8439499E-12
   8.280000      6.7694080E-12
   8.340000      9.1201777E-12
   8.400000      1.0012186E-11
   8.460000      8.6877710E-12
   8.520000      4.7570832E-12
   8.580000     -1.6235826E-12
   8.640000     -9.6895625E-12
   8.700000     -1.8140319E-11
   8.760000     -2.5327851E-11
   8.820000     -2.9515890E-11
   8.880000     -2.9158304E-11
   8.940000     -2.3157434E-11
   9.000000     -1.1084006E-11
   9.060000      6.6437598E-12
   9.120000      2.8624256E-11
   9.180000      5.2399491E-11
   9.240000      7.4490351E-11
   9.300000      9.0603032E-11
   9.360000      9.6062491E-11
   9.420000      8.6489316E-11
   9.480000      5.8669389E-11
   9.540000      1.1490132E-11
   9.600000     -5.3240457E-11
   9.660000     -1.3029103E-10
   9.720000     -2.1097984E-10
   9.780000     -2.8369379E-10
   9.840000     -3.3490893E-10
   9.900000     -3.5056105E-10
   9.960000     -3.1755021E-10
   10.02000     -2.2515693E-10
   10.08000     -6.6201024E-11
   10.14000      1.6214036E-10
   10.20000      4.5785603E-10
   10.26000      8.1392060E-10
   10.32000      1.2183727E-09
   10.38000      1.6546635E-09
   10.44000      2.1023456E-09
   10.50000      2.5381994E-09
   10.56000      2.9378449E-09
   10.62000      3.2777765E-09
   10.68000      3.5375960E-09
   10.74000      3.7020742E-09
   10.80000      3.7626213E-09
   10.86000      3.7177936E-09
   10.92000      3.5726753E-09
   10.98000      3.3372358E-09
   11.04000      3.0240386E-09
   11.10000      2.6458482E-09
   11.16000      2.2137039E-09
   11.22000      1.7358697E-09
   11.28000      1.2177997E-09
   11.34000      6.6296924E-10
   11.40000      7.4188738E-11
   11.46000     -5.4504373E-10
   11.52000     -1.1895211E-09
   11.58000     -1.8518130E-09
   11.64000     -2.5222238E-09
   11.70000     -3.1890566E-09
   11.76000     -3.8389993E-09
   11.82000     -4.4575463E-09
   11.88000     -5.0295248E-09
   11.94000     -5.5398806E-09
   12.00000     -5.9748837E-09
   12.06000     -6.3237588E-09
   12.12000     -6.5805184E-09
   12.18000     -6.7455654E-09
   12.24000     -6.8265260E-09
   12.30000     -6.8378703E-09
   12.36000     -6.7991461E-09
   12.42000     -6.7320238E-09
   12.48000     -6.6567316E-09
   12.54000     -6.5886545E-09
   12.60000     -6.5359012E-09
   12.66000     -6.4984000E-09
   12.72000     -6.4687149E-09
   12.78000     -6.4343464E-09
   12.84000     -6.3809429E-09
   12.90000     -6.2956804E-09
   12.96000     -6.1700969E-09
   13.02000     -6.0018603E-09
   13.08000     -5.7952412E-09
   13.14000     -5.5603389E-09
   13.20000     -5.3113491E-09
   13.26000     -5.0642455E-09
   13.32000     -4.8343147E-09
   13.38000     -4.6339270E-09
   13.44000     -4.4708721E-09
   13.50000     -4.3475379E-09
   13.56000     -4.2610941E-09
   13.62000     -4.2046930E-09
   13.68000     -4.1694914E-09
   13.74000     -4.1470125E-09
   13.80000     -4.1311643E-09
   13.86000     -4.1191672E-09
   13.92000     -4.1108583E-09
   13.98000     -4.1063148E-09
   14.04000     -4.1024104E-09
   14.10000     -4.0894794E-09
   14.16000     -4.0495611E-09
   14.22000     -3.9574202E-09
   14.28000     -3.7847636E-09
   14.34000     -3.5069492E-09
   14.40000     -3.1104059E-09
   14.46000     -2.5983844E-09
   14.52000     -1.9928139E-09
   14.58000     -1.3310208E-09
   14.64000     -6.5758882E-10
   14.70000     -1.3240650E-11
   14.76000      5.7624366E-10
   14.82000      1.1078150E-09
   14.88000      1.6031616E-09
   14.94000      2.1040407E-09
   15.00000      2.6619815E-09
   15.06000      3.3250986E-09
   15.12000      4.1256465E-09
   15.18000      5.0717701E-09
   15.24000      6.1456644E-09
   15.30000      7.3084547E-09
   15.36000      8.5101153E-09
   15.42000      9.7013366E-09
   15.48000      1.0843803E-08
   15.54000      1.1916093E-08
   15.60000      1.2913922E-08
   15.66000      1.3845397E-08
   15.72000      1.4723399E-08
   15.78000      1.5558030E-08
   15.84000      1.6351645E-08
   15.90000      1.7097955E-08
   15.96000      1.7785117E-08
   16.02000      1.8401428E-08
   16.08000      1.8941403E-08
   16.14000      1.9410091E-08
   16.20000      1.9824123E-08
   16.26000      2.0209088E-08
   16.32000      2.0593994E-08
   16.38000      2.1004420E-08
   16.44000      2.1456254E-08
   16.50000      2.1951799E-08
   16.56000      2.2479167E-08
   16.62000      2.3015030E-08
   16.68000      2.3529871E-08
   16.74000      2.3994270E-08
   16.80000      2.4384658E-08
   16.86000      2.4687353E-08
   16.92000      2.4900233E-08
   16.98000      2.5032103E-08
   17.04000      2.5100240E-08
   17.10000      2.5126841E-08
   17.16000      2.5135067E-08
   17.22000      2.5145340E-08
   17.28000      2.5172493E-08
   17.34000      2.5224253E-08
   17.40000      2.5301317E-08
   17.46000      2.5398899E-08
   17.52000      2.5509051E-08
   17.58000      2.5622663E-08
   17.64000      2.5730062E-08
   17.70000      2.5819565E-08
   17.76000      2.5874519E-08
   17.82000      2.5870230E-08
   17.88000      2.5773014E-08
   17.94000      2.5543105E-08
   18.00000      2.5142066E-08
   18.06000      2.4543372E-08
   18.12000      2.3743182E-08
   18.18000      2.2767388E-08
   18.24000      2.1671616E-08
   18.30000      2.0532660E-08
   18.36000      1.9432575E-08
   18.42000      1.8439209E-08
   18.48000      1.7588579E-08
   18.54000      1.6874495E-08
   18.60000      1.6249038E-08
   18.66000      1.5634539E-08
   18.72000      1.4944296E-08
   18.78000      1.4106602E-08
   18.84000      1.3085409E-08
   18.90000      1.1891755E-08
   18.96000      1.0582498E-08
   19.02000      9.2465289E-09
   19.08000      7.9822025E-09
   19.14000      6.8723103E-09
   19.20000      5.9637371E-09
   19.26000      5.2575082E-09
   19.32000      4.7118847E-09
   19.38000      4.2571249E-09
   19.44000      3.8169405E-09
   19.50000      3.3296454E-09
   19.56000      2.7622888E-09
   19.62000      2.1136224E-09
   19.68000      1.4057510E-09
   19.74000      6.6831529E-10
   19.80000     -7.8427959E-11
   19.86000     -8.3512469E-10
   19.92000     -1.6252546E-09
   19.98000     -2.4870668E-09
   20.04000     -3.4589156E-09
   20.10000     -4.5637321E-09
   20.16000     -5.7985030E-09
   20.22000     -7.1326278E-09
   20.28000     -8.5158316E-09
   20.34000     -9.8931014E-09
   20.40000     -1.1221952E-08
   20.46000     -1.2486702E-08
   20.52000     -1.3705388E-08
   20.58000     -1.4926869E-08
   20.64000     -1.6218250E-08
   20.70000     -1.7645263E-08
   20.76000     -1.9250255E-08
   20.82000     -2.1033483E-08
   20.88000     -2.2943144E-08
   20.94000     -2.4877702E-08
   21.00000     -2.6701020E-08
   21.06000     -2.8267289E-08
   21.12000     -2.9449822E-08
   21.18000     -3.0166486E-08
   21.24000     -3.0395501E-08
   21.30000     -3.0178047E-08
   21.36000     -2.9607863E-08
   21.42000     -2.8811446E-08
   21.48000     -2.7924431E-08
   21.54000     -2.7070026E-08
   21.60000     -2.6343795E-08
   21.66000     -2.5806779E-08
   21.72000     -2.5486482E-08
   21.78000     -2.5383430E-08
   21.84000     -2.5480150E-08
   21.90000     -2.5749703E-08
   21.96000     -2.6161706E-08
   22.02000     -2.6685093E-08
   22.08000     -2.7288175E-08
   22.14000     -2.7937350E-08
   22.20000     -2.8596267E-08
   22.26000     -2.9226724E-08
   22.32000     -2.9791932E-08
   22.38000     -3.0261589E-08
   22.44000     -3.0617347E-08
   22.50000     -3.0856839E-08
   22.56000     -3.0994535E-08
   22.62000     -3.1058608E-08
   22.68000     -3.1083964E-08
   22.74000     -3.1103042E-08
   22.80000     -3.1136601E-08
   22.86000     -3.1187124E-08
   22.92000     -3.1236816E-08
   22.98000     -3.1251073E-08
   23.04000     -3.1186719E-08
   23.10000     -3.1003076E-08
   23.16000     -3.0672965E-08
   23.22000     -3.0190904E-08
   23.28000     -2.9576352E-08
   23.34000     -2.8871307E-08
   23.40000     -2.8132892E-08
   23.46000     -2.7422882E-08
   23.52000     -2.6796767E-08
   23.58000     -2.6295053E-08
   23.64000     -2.5938805E-08
   23.70000     -2.5730250E-08
   23.76000     -2.5657730E-08
   23.82000     -2.5702933E-08
   23.88000     -2.5847607E-08
   23.94000     -2.6077226E-08
   24.00000     -2.6380269E-08
   24.06000     -2.6743677E-08
   24.12000     -2.7146655E-08
   24.18000     -2.7555858E-08
   24.24000     -2.7924663E-08
   24.30000     -2.8197563E-08
   24.36000     -2.8318977E-08
   24.42000     -2.8243955E-08
   24.48000     -2.7947616E-08
   24.54000     -2.7430548E-08
   24.60000     -2.6718562E-08
   24.66000     -2.5856915E-08
   24.72000     -2.4900574E-08
   24.78000     -2.3903103E-08
   24.84000     -2.2907091E-08
   24.90000     -2.1938563E-08
   24.96000     -2.1006663E-08
   25.02000     -2.0108272E-08
   25.08000     -1.9235648E-08
   25.14000     -1.8384315E-08
   25.20000     -1.7558405E-08
   25.26000     -1.6771844E-08
   25.32000     -1.6045579E-08
   25.38000     -1.5402486E-08
   25.44000     -1.4862362E-08
   25.50000     -1.4438842E-08
   25.56000     -1.4138830E-08
   25.62000     -1.3963630E-08
   25.68000     -1.3910353E-08
   25.74000     -1.3972415E-08
   25.80000     -1.4138986E-08
   25.86000     -1.4394218E-08
   25.92000     -1.4717528E-08
   25.98000     -1.5085799E-08
   26.04000     -1.5477385E-08
   26.10000     -1.5876772E-08
   26.16000     -1.6278177E-08
   26.22000     -1.6686620E-08
   26.28000     -1.7115749E-08
   26.34000     -1.7582854E-08
   26.40000     -1.8102558E-08
   26.46000     -1.8681172E-08
   26.52000     -1.9313692E-08
   26.58000     -1.9984650E-08
   26.64000     -2.0672854E-08
   26.70000     -2.1358618E-08
   26.76000     -2.2031214E-08
   26.82000     -2.2693925E-08
   26.88000     -2.3364821E-08
   26.94000     -2.4072776E-08
   27.00000     -2.4849857E-08
   27.06000     -2.5722441E-08
   27.12000     -2.6703811E-08
   27.18000     -2.7790417E-08
   27.24000     -2.8962790E-08
   27.30000     -3.0190584E-08
   27.36000     -3.1440067E-08
   27.42000     -3.2681680E-08
   27.48000     -3.3895414E-08
   27.54000     -3.5072425E-08
   27.60000     -3.6212626E-08
   27.66000     -3.7319257E-08
   27.72000     -3.8392564E-08
   27.78000     -3.9424989E-08
   27.84000     -4.0399758E-08
   27.90000     -4.1293415E-08
   27.96000     -4.2081446E-08
   28.02000     -4.2744922E-08
   28.08000     -4.3275769E-08
   28.14000     -4.3678980E-08
   28.20000     -4.3971184E-08
   28.26000     -4.4176222E-08
   28.32000     -4.4319279E-08
   28.38000     -4.4421363E-08
   28.44000     -4.4495685E-08
   28.50000     -4.4546706E-08
   28.56000     -4.4571919E-08
   28.62000     -4.4565653E-08
   28.68000     -4.4523468E-08
   28.74000     -4.4445802E-08
   28.80000     -4.4339426E-08
   28.86000     -4.4216456E-08
   28.92000     -4.4091166E-08
   28.98000     -4.3975991E-08
   29.04000     -4.3878060E-08
   29.10000     -4.3797325E-08
   29.16000     -4.3726565E-08
   29.22000     -4.3652715E-08
   29.28000     -4.3558700E-08
   29.34000     -4.3425029E-08
   29.40000     -4.3231079E-08
   29.46000     -4.2956398E-08
   29.52000     -4.2582545E-08
   29.58000     -4.2095916E-08
   29.64000     -4.1491262E-08
   29.70000     -4.0775202E-08
   29.76000     -3.9968615E-08
   29.82000     -3.9106858E-08
   29.88000     -3.8237030E-08
   29.94000     -3.7412281E-08
   30.00000     -3.6684149E-08
   30.06000     -3.6094502E-08
   30.12000     -3.5669427E-08
   30.18000     -3.5416871E-08
   30.24000     -3.5328974E-08
   30.30000     -3.5388432E-08
   30.36000     -3.5576821E-08
   30.42000     -3.5881971E-08
   30.48000     -3.6301714E-08
   30.54000     -3.6842728E-08
   30.60000     -3.7514695E-08
   30.66000     -3.8321744E-08
   30.72000     -3.9254065E-08
   30.78000     -4.0282330E-08
   30.84000     -4.1356962E-08
   30.90000     -4.2412768E-08
   30.96000     -4.3378112E-08
   31.02000     -4.4186507E-08
   31.08000     -4.4787924E-08
   31.14000     -4.5157101E-08
   31.20000     -4.5296908E-08
   31.26000     -4.5236131E-08
   31.32000     -4.5022333E-08
   31.38000     -4.4711776E-08
   31.44000     -4.4358742E-08
   31.50000     -4.4006693E-08
   31.56000     -4.3683070E-08
   31.62000     -4.3398721E-08
   31.68000     -4.3152003E-08
   31.74000     -4.2936371E-08
   31.80000     -4.2749264E-08
   31.86000     -4.2599154E-08
   31.92000     -4.2507626E-08
   31.98000     -4.2504531E-08
   32.04000     -4.2616524E-08
   32.10000     -4.2852164E-08
   32.16000     -4.3188948E-08
   32.22000     -4.3567962E-08
   32.28000     -4.3900069E-08
   32.34000     -4.4083691E-08
   32.40000     -4.4030006E-08
   32.46000     -4.3688107E-08
   32.52000     -4.3061959E-08
   32.58000     -4.2212786E-08
   32.64000     -4.1245087E-08
   32.70000     -4.0279463E-08
   32.76000     -3.9419948E-08
   32.82000     -3.8725794E-08
   32.88000     -3.8196486E-08
   32.94000     -3.7775038E-08
   33.00000     -3.7368654E-08
   33.06000     -3.6880358E-08
   33.12000     -3.6241374E-08
   33.18000     -3.5433885E-08
   33.24000     -3.4497248E-08
   33.30000     -3.3516177E-08
   33.36000     -3.2595548E-08
   33.42000     -3.1830368E-08
   33.48000     -3.1280482E-08
   33.54000     -3.0957370E-08
   33.60000     -3.0826133E-08
   33.66000     -3.0820967E-08
   33.72000     -3.0868666E-08
   33.78000     -3.0912673E-08
   33.84000     -3.0930483E-08
   33.90000     -3.0939283E-08
   33.96000     -3.0988389E-08
   34.02000     -3.1140921E-08
   34.08000     -3.1450796E-08
   34.14000     -3.1942541E-08
   34.20000     -3.2600703E-08
   34.26000     -3.3372434E-08
   34.32000     -3.4182211E-08
   34.38000     -3.4953597E-08
   34.44000     -3.5630606E-08
   34.50000     -3.6191761E-08
   34.56000     -3.6652743E-08
   34.62000     -3.7057418E-08
   34.68000     -3.7460673E-08
   34.74000     -3.7908741E-08
   34.80000     -3.8422833E-08
   34.86000     -3.8990674E-08
   34.92000     -3.9568178E-08
   34.98000     -4.0090587E-08
   35.04000     -4.0490022E-08
   35.10000     -4.0714429E-08
   35.16000     -4.0742631E-08
   35.22000     -4.0591040E-08
   35.28000     -4.0310180E-08
   35.34000     -3.9972115E-08
   35.40000     -3.9652608E-08
   35.46000     -3.9413365E-08
   35.52000     -3.9289162E-08
   35.58000     -3.9283215E-08
   35.64000     -3.9371283E-08
   35.70000     -3.9512770E-08
   35.76000     -3.9665107E-08
   35.82000     -3.9797158E-08
   35.88000     -3.9897650E-08
   35.94000     -3.9976133E-08
   36.00000     -4.0056221E-08
   36.06000     -4.0163524E-08
   36.12000     -4.0312628E-08
   36.18000     -4.0498417E-08
   36.24000     -4.0695650E-08
   36.30000     -4.0867942E-08
   36.36000     -4.0983501E-08
   36.42000     -4.1032024E-08
   36.48000     -4.1036287E-08
   36.54000     -4.1053568E-08
   36.60000     -4.1165311E-08
   36.66000     -4.1457632E-08
   36.72000     -4.1998174E-08
   36.78000     -4.2816040E-08
   36.84000     -4.3890843E-08
   36.90000     -4.5154358E-08
   36.96000     -4.6505058E-08
   37.02000     -4.7832426E-08
   37.08000     -4.9044935E-08
   37.14000     -5.0094208E-08
   37.20000     -5.0988010E-08
   37.26000     -5.1787406E-08
   37.32000     -5.2587886E-08
   37.38000     -5.3489373E-08
   37.44000     -5.4564048E-08
   37.50000     -5.5832380E-08
   37.56000     -5.7255264E-08
   37.62000     -5.8745076E-08
   37.68000     -6.0191972E-08
   37.74000     -6.1496550E-08
   37.80000     -6.2597636E-08
   37.86000     -6.3486027E-08
   37.92000     -6.4199675E-08
   37.98000     -6.4802428E-08
   38.04000     -6.5353831E-08
   38.10000     -6.5880720E-08
   38.16000     -6.6360343E-08
   38.22000     -6.6721050E-08
   38.28000     -6.6860231E-08
   38.34000     -6.6673536E-08
   38.40000     -6.6085583E-08
   38.46000     -6.5071845E-08
   38.52000     -6.3664800E-08
   38.58000     -6.1942941E-08
   38.64000     -6.0007018E-08
   38.70000     -5.7951961E-08
   38.76000     -5.5843806E-08
   38.82000     -5.3708451E-08
   38.88000     -5.1534794E-08
   38.94000     -4.9289632E-08
   39.00000     -4.6938283E-08
   39.06000     -4.4463405E-08
   39.12000     -4.1875840E-08
   39.18000     -3.9214253E-08
   39.24000     -3.6534427E-08
   39.30000     -3.3892519E-08
   39.36000     -3.1328561E-08
   39.42000     -2.8856512E-08
   39.48000     -2.6464608E-08
   39.54000     -2.4126054E-08
   39.60000     -2.1816090E-08
   39.66000     -1.9528800E-08
   39.72000     -1.7286961E-08
   39.78000     -1.5140712E-08
   39.84000     -1.3155056E-08
   39.90000     -1.1390470E-08
   39.96000     -9.8835162E-09
   40.02000     -8.6343563E-09
   40.08000     -7.6055988E-09
   40.14000     -6.7329347E-09
   40.20000     -5.9441487E-09
   40.26000     -5.1804965E-09
   40.32000     -4.4138666E-09
   40.38000     -3.6545678E-09
   40.44000     -2.9474245E-09
   40.50000     -2.3573259E-09
   40.56000     -1.9485356E-09
   40.62000     -1.7640535E-09
   40.68000     -1.8115041E-09
   40.74000     -2.0601860E-09
   40.80000     -2.4504425E-09
   40.86000     -2.9124239E-09
   40.92000     -3.3880279E-09
   40.98000     -3.8485557E-09
   41.04000     -4.3020121E-09
   41.10000     -4.7876014E-09
   41.16000     -5.3594968E-09
   41.22000     -6.0657417E-09
   41.28000     -6.9297639E-09
   41.34000     -7.9408879E-09
   41.40000     -9.0569232E-09
   41.46000     -1.0217624E-08
   41.52000     -1.1364112E-08
   41.58000     -1.2457475E-08
   41.64000     -1.3490316E-08
   41.70000     -1.4487559E-08
   41.76000     -1.5496553E-08
   41.82000     -1.6570022E-08
   41.88000     -1.7747576E-08
   41.94000     -1.9041796E-08
   42.00000     -2.0433111E-08
   42.06000     -2.1874850E-08
   42.12000     -2.3306455E-08
   42.18000     -2.4670573E-08
   42.24000     -2.5928530E-08
   42.30000     -2.7069582E-08
   42.36000     -2.8111344E-08
   42.42000     -2.9091723E-08
   42.48000     -3.0055290E-08
   42.54000     -3.1038752E-08
   42.60000     -3.2060235E-08
   42.66000     -3.3115633E-08
   42.72000     -3.4182669E-08
   42.78000     -3.5230631E-08
   42.84000     -3.6231711E-08
   42.90000     -3.7169823E-08
   42.96000     -3.8043858E-08
   43.02000     -3.8864929E-08
   43.08000     -3.9649528E-08
   43.14000     -4.0411798E-08
   43.20000     -4.1158124E-08
   43.26000     -4.1885727E-08
   43.32000     -4.2585057E-08
   43.38000     -4.3244345E-08
   43.44000     -4.3854104E-08
   43.50000     -4.4410093E-08
   43.56000     -4.4914213E-08
   43.62000     -4.5373838E-08
   43.68000     -4.5800380E-08
   43.74000     -4.6207546E-08
   43.80000     -4.6609397E-08
   43.86000     -4.7017949E-08
   43.92000     -4.7440363E-08
   43.98000     -4.7876298E-08
   44.04000     -4.8316458E-08
   44.10000     -4.8743168E-08
   44.16000     -4.9133433E-08
   44.22000     -4.9463704E-08
   44.28000     -4.9715023E-08
   44.34000     -4.9876878E-08
   44.40000     -4.9948678E-08
   44.46000     -4.9938546E-08
   44.52000     -4.9860027E-08
   44.58000     -4.9727934E-08
   44.64000     -4.9554515E-08
   44.70000     -4.9346909E-08
   44.76000     -4.9106227E-08
   44.82000     -4.8828177E-08
   44.88000     -4.8504592E-08
   44.94000     -4.8125347E-08
   45.00000     -4.7680068E-08
   45.06000     -4.7159435E-08
   45.12000     -4.6556181E-08
   45.18000     -4.5865960E-08
   45.24000     -4.5088122E-08
   45.30000     -4.4226134E-08
   45.36000     -4.3287262E-08
   45.42000     -4.2281275E-08
   45.48000     -4.1218680E-08
   45.54000     -4.0109352E-08
   45.60000     -3.8962675E-08
   45.66000     -3.7789416E-08
   45.72000     -3.6604437E-08
   45.78000     -3.5428428E-08
   45.84000     -3.4287037E-08
   45.90000     -3.3206916E-08
   45.96000     -3.2210092E-08
   46.02000     -3.1309039E-08
   46.08000     -3.0504655E-08
   46.14000     -2.9787717E-08
   46.20000     -2.9142518E-08
   46.26000     -2.8550573E-08
   46.32000     -2.7992908E-08
   46.38000     -2.7451037E-08
   46.44000     -2.6908232E-08
   46.50000     -2.6352639E-08
   46.56000     -2.5782514E-08
   46.62000     -2.5211834E-08
   46.68000     -2.4673573E-08
   46.74000     -2.4218449E-08
   46.80000     -2.3908713E-08
   46.86000     -2.3808653E-08
   46.92000     -2.3974520E-08
   46.98000     -2.4446594E-08
   47.04000     -2.5245262E-08
   47.10000     -2.6372192E-08
   47.16000     -2.7817039E-08
   47.22000     -2.9569440E-08
   47.28000     -3.1634695E-08
   47.34000     -3.4049904E-08
   47.40000     -3.6895994E-08
   47.46000     -4.0301412E-08
   47.52000     -4.4435829E-08
   47.58000     -4.9495924E-08
   47.64000     -5.5688766E-08
   47.70000     -6.3219687E-08
   47.76000     -7.2289964E-08
   47.82000     -8.3105981E-08
   47.88000     -9.5897875E-08
   47.94000     -1.1094270E-07
   48.00000     -1.2858655E-07
   48.06000     -1.4926093E-07
   48.12000     -1.7349073E-07
   48.18000     -2.0189353E-07
   48.24000     -2.3517272E-07
   48.30000     -2.7411011E-07
   48.36000     -3.1956390E-07
   48.42000     -3.7247852E-07
   48.48000     -4.3390830E-07
   48.54000     -5.0505287E-07
   48.60000     -5.8729717E-07
   48.66000     -6.8224745E-07
   48.72000     -7.9175652E-07
   48.78000     -9.1793652E-07
   48.84000     -1.0631628E-06
   48.90000     -1.2300765E-06
   48.96000     -1.4215915E-06
   49.02000     -1.6409109E-06
   49.08000     -1.8915503E-06
   49.14000     -2.1773701E-06
   49.20000     -2.5026122E-06
   49.26000     -2.8719392E-06
   49.32000     -3.2904757E-06
   49.38000     -3.7638433E-06
   49.44000     -4.2981928E-06
   49.50000     -4.9002251E-06
   49.56000     -5.5772025E-06
   49.62000     -6.3369580E-06
   49.68000     -7.1878985E-06
   49.74000     -8.1390190E-06
   49.80000     -9.1999154E-06
   49.86000     -1.0380808E-05
   49.92000     -1.1692550E-05
   49.98000     -1.3146637E-05
   50.04000     -1.4755195E-05
   50.10000     -1.6530961E-05
   50.16000     -1.8487257E-05
   50.22000     -2.0637952E-05
   50.28000     -2.2997418E-05
   50.34000     -2.5580488E-05
   50.40000     -2.8402390E-05
   50.46000     -3.1478696E-05
   50.52000     -3.4825225E-05
   50.58000     -3.8457991E-05
   50.64000     -4.2393083E-05
   50.70000     -4.6646601E-05
   50.76000     -5.1234503E-05
   50.82000     -5.6172499E-05
   50.88000     -6.1475883E-05
   50.94000     -6.7159359E-05
   51.00000     -7.3236879E-05
   51.06000     -7.9721503E-05
   51.12000     -8.6625208E-05
   51.18000     -9.3958726E-05
   51.24000     -1.0173143E-04
   51.30000     -1.0995111E-04
   51.36000     -1.1862387E-04
   51.42000     -1.2775398E-04
   51.48000     -1.3734365E-04
   51.54000     -1.4739293E-04
   51.60000     -1.5789951E-04
   51.66000     -1.6885866E-04
   51.72000     -1.8026303E-04
   51.78000     -1.9210257E-04
   51.84000     -2.0436442E-04
   51.90000     -2.1703303E-04
   51.96000     -2.3008991E-04
   52.02000     -2.4351383E-04
   52.08000     -2.5728077E-04
   52.14000     -2.7136394E-04
   52.20000     -2.8573407E-04
   52.26000     -3.0035921E-04
   52.32000     -3.1520516E-04
   52.38000     -3.3023540E-04
   52.44000     -3.4541145E-04
   52.50000     -3.6069288E-04
   52.56000     -3.7603790E-04
   52.62000     -3.9140339E-04
   52.68000     -4.0674550E-04
   52.74000     -4.2201980E-04
   52.80000     -4.3718168E-04
   52.86000     -4.5218682E-04
   52.92000     -4.6699125E-04
   52.98000     -4.8155180E-04
   53.04000     -4.9582665E-04
   53.10000     -5.0977553E-04
   53.16000     -5.2336004E-04
   53.22000     -5.3654436E-04
   53.28000     -5.4929493E-04
   53.34000     -5.6158158E-04
   53.40000     -5.7337712E-04
   53.46000     -5.8465806E-04
   53.52000     -5.9540465E-04
   53.58000     -6.0560124E-04
   53.64000     -6.1523600E-04
   53.70000     -6.2430149E-04
   53.76000     -6.3279422E-04
   53.82000     -6.4071506E-04
   53.88000     -6.4806896E-04
   53.94000     -6.5486471E-04
   54.00000     -6.6111522E-04
   54.06000     -6.6683709E-04
   54.12000     -6.7205075E-04
   54.18000     -6.7678001E-04
   54.24000     -6.8105152E-04
   54.30000     -6.8489468E-04
   54.36000     -6.8834098E-04
   54.42000     -6.9142389E-04
   54.48000     -6.9417845E-04
   54.54000     -6.9664064E-04
   54.60000     -6.9884717E-04
   54.66000     -7.0083508E-04
   54.72000     -7.0264121E-04
   54.78000     -7.0430175E-04
   54.84000     -7.0585200E-04
   54.90000     -7.0732576E-04
   54.96000     -7.0875534E-04
   55.02000     -7.1017083E-04
   55.08000     -7.1160001E-04
   55.14000     -7.1306783E-04
   55.20000     -7.1459636E-04
   55.26000     -7.1620476E-04
   55.32000     -7.1790873E-04
   55.38000     -7.1972114E-04
   55.44000     -7.2165142E-04
   55.50000     -7.2370574E-04
   55.56000     -7.2588708E-04