 -0.750000000       0.00000000    
 -0.689999998       0.00000000    
 -0.629999995       0.00000000    
 -0.569999993       0.00000000    
 -0.509999990       0.00000000    
 -0.449999988       0.00000000    
 -0.389999986       0.00000000    
 -0.330000013       0.00000000    
 -0.270000011       0.00000000    
 -0.209999993       0.00000000    
 -0.150000006       6.74440824E-31
  -9.00000036E-02   2.49620066E-29
  -2.99999993E-02   2.88508374E-28
   2.99999993E-02   1.84837486E-27
   9.00000036E-02   7.75601571E-27
  0.150000006       2.22591141E-26
  0.209999993       4.00991403E-26
  0.270000011       1.57849264E-26
  0.330000013      -1.77135351E-25
  0.389999986      -7.25727085E-25
  0.449999988      -1.65139511E-24
  0.509999990      -2.27395625E-24
  0.569999993      -6.08233698E-25
  0.629999995       6.39297019E-24
  0.689999998       2.03478877E-23
  0.750000000       3.61430224E-23
  0.810000002       3.64534486E-23
  0.870000005      -6.51886569E-24
  0.930000007      -1.12635327E-22
  0.990000010      -2.56786771E-22
   1.04999995      -3.32292119E-22
   1.11000001      -1.60420217E-22
   1.16999996       4.01202035E-22
   1.23000002       1.24483755E-21
   1.28999996       1.80029802E-21
   1.35000002       1.06497242E-21
   1.40999997      -1.85032306E-21
   1.47000003      -6.60856846E-21
   1.52999997      -1.04489988E-20
   1.59000003      -8.02944625E-21
   1.64999998       6.33892010E-21
   1.71000004       3.35552246E-20
   1.76999998       6.33845821E-20
   1.83000004       7.14555190E-20
   1.88999999       2.56817964E-20
   1.95000005      -9.42017322E-20
   2.00999999      -2.68082154E-19
   2.06999993      -4.13215749E-19
   2.13000011      -3.91788074E-19
   2.19000006      -6.76916533E-20
   2.25000000       5.90895385E-19
   2.30999994       1.40435033E-18
   2.36999989       1.94553955E-18
   2.43000007       1.65288791E-18
   2.49000001       1.17021500E-19
   2.54999995      -2.54183586E-18
   2.60999990      -5.40594873E-18
   2.67000008      -6.85180709E-18
   2.73000002      -5.15855638E-18
   2.78999996       4.64237645E-19
   2.84999990       8.85895795E-18
   2.91000009       1.65702872E-17
   2.97000003       1.87401705E-17
   3.02999997       1.13292658E-17
   3.08999991      -6.04544413E-18
   3.15000010      -2.80950208E-17
   3.21000004      -4.42786705E-17
   3.26999998      -4.25389740E-17
   3.32999992      -1.56366914E-17
   3.39000010       3.24899339E-17
   3.45000005       8.40388900E-17
   3.50999999       1.11447037E-16
   3.56999993       8.87693110E-17
   3.63000011       6.86203476E-18
   3.69000006      -1.14634567E-16
   3.75000000      -2.26452776E-16
   3.80999994      -2.64771144E-16
   3.86999989      -1.79993654E-16
   3.93000007       3.12956406E-17
   3.99000001       3.07269540E-16
   4.05000019       5.29516400E-16
   4.11000013       5.64600505E-16
   4.17000008       3.28031323E-16
   4.23000002      -1.55139789E-16
   4.28999996      -7.25569905E-16
   4.34999990      -1.12512053E-15
   4.40999985      -1.09389784E-15
   4.46999979      -4.99483629E-16
   4.53000021       5.55817514E-16
   4.59000015       1.70891057E-15
   4.65000010       2.42777430E-15
   4.71000004       2.21198398E-15
   4.76999998       8.39045956E-16
   4.82999992      -1.44443438E-15
   4.88999987      -3.88959223E-15
   4.94999981      -5.42968871E-15
   5.01000023      -5.06163299E-15
   5.07000017      -2.31307757E-15
   5.13000011       2.38400176E-15
   5.19000006       7.60294741E-15
   5.25000000       1.12398926E-14
   5.30999994       1.12270490E-14
   5.36999989       6.45574335E-15
   5.42999983      -2.42914014E-15
   5.48999977      -1.27593714E-14
   5.55000019      -2.03964212E-14
   5.61000013      -2.11367501E-14
   5.67000008      -1.26156808E-14
   5.73000002       4.00360287E-15
   5.78999996       2.34224871E-14
   5.84999990       3.73382186E-14
   5.90999985       3.73658895E-14
   5.96999979       1.89578018E-14
   6.03000021      -1.52199013E-14
   6.09000015      -5.42326770E-14
   6.15000010      -8.13665677E-14
   6.21000004      -8.00538631E-14
   6.26999998      -4.14558253E-14
   6.32999992       2.93626275E-14
   6.38999987       1.11887381E-13
   6.44999981       1.75109466E-13
   6.51000023       1.88271518E-13
   6.57000017       1.33854042E-13
   6.63000011       1.74565054E-14
   6.69000006      -1.30414532E-13
   6.75000000      -2.62850478E-13
   6.80999994      -3.33182158E-13
   6.86999989      -3.13475808E-13
   6.92999983      -2.06755945E-13
   6.98999977      -4.65841423E-14
   7.05000019       1.17218179E-13
   7.11000013       2.41270057E-13
   7.17000008       3.09225003E-13
   7.23000002       3.39029613E-13
   7.28999996       3.70550351E-13
   7.34999990       4.36497111E-13
   7.40999985       5.29344472E-13
   7.46999979       5.82426468E-13
   7.53000021       4.80829352E-13
   7.59000015       1.06517910E-13
   7.65000010      -5.94174612E-13
   7.71000004      -1.54723510E-12
   7.76999998      -2.52396498E-12
   7.82999992      -3.17424559E-12
   7.88999987      -3.12296131E-12
   7.94999981      -2.10552669E-12
   8.01000023      -9.67262091E-14
   8.06999969       2.61886519E-12
   8.13000011       5.47158846E-12
   8.18999958       7.73082900E-12
   8.25000000       8.69500392E-12
   8.31000042       7.88639119E-12
   8.36999989       5.18569822E-12
   8.43000031       8.64037195E-13
   8.48999977      -4.48894437E-12
   8.55000019      -1.01005810E-11
   8.60999966      -1.51520099E-11
   8.67000008      -1.88628592E-11
   8.72999954      -2.05078905E-11
   8.78999996      -1.93982660E-11
   8.85000038      -1.48948267E-11
   8.90999985      -6.52015074E-12
   8.97000027       5.80585840E-12
   9.02999973       2.14518438E-11
   9.09000015       3.87948736E-11
   9.14999962       5.51189996E-11
   9.21000004       6.68122641E-11
   9.27000046       6.99010710E-11
   9.32999992       6.08500542E-11
   9.39000034       3.74561493E-11
   9.44999981      -3.82902938E-13
   9.51000023      -5.02216671E-11
   9.56999969      -1.07048335E-10
   9.63000011      -1.63679209E-10
   9.68999958      -2.11443738E-10
   9.75000000      -2.40983150E-10
   9.81000042      -2.43004339E-10
   9.86999989      -2.08906892E-10
   9.93000031      -1.31300956E-10
   9.98999977      -4.50468916E-12
   10.0500002       1.74878306E-10
   10.1099997       4.07265999E-10
   10.1700001       6.89366231E-10
   10.2299995       1.01359876E-09
   10.2900000       1.36792433E-09
   10.3500004       1.73630399E-09
   10.4099998       2.09987849E-09
   10.4700003       2.43876941E-09
   10.5299997       2.73420975E-09
   10.5900002       2.97059288E-09
   10.6499996       3.13703663E-09
   10.7100000       3.22818194E-09
   10.7700005       3.24415872E-09
   10.8299999       3.18986570E-09
   10.8900003       3.07384918E-09
   10.9499998       2.90708102E-09
   11.0100002       2.70183342E-09
   11.0699997       2.47068388E-09
   11.1300001       2.22553842E-09
   11.1899996       1.97652361E-09
   11.2500000       1.73068704E-09
   11.3100004       1.49063994E-09
   11.3699999       1.25347177E-09
   11.4300003       1.01039443E-09
   11.4899998       7.47505169E-10
   11.5500002       4.47823473E-10
   11.6099997       9.43913767E-11
   11.6700001      -3.26137228E-10
   11.7299995      -8.20217116E-10
   11.7900000      -1.38523482E-09
   11.8500004      -2.00896788E-09
   11.9099998      -2.67078293E-09
   11.9700003      -3.34421357E-09
   12.0299997      -4.00022326E-09
   12.0900002      -4.61037652E-09
   12.1499996      -5.14930232E-09
   12.2100000      -5.59620750E-09
   12.2700005      -5.93556004E-09
   12.3299999      -6.15732398E-09
   12.3900003      -6.25714547E-09
   12.4499998      -6.23664898E-09
   12.5100002      -6.10369355E-09
   12.5699997      -5.87213389E-09
   12.6300001      -5.56057378E-09
   12.6899996      -5.18984811E-09
   12.7500000      -4.77941642E-09
   12.8100004      -4.34340341E-09
   12.8699999      -3.88734511E-09
   12.9300003      -3.40674311E-09
   12.9899998      -2.88809043E-09
   13.0500002      -2.31234387E-09
   13.1099997      -1.66005987E-09
   13.1700001      -9.16840603E-10
   13.2299995      -7.76395129E-11
   13.2900000       8.51172688E-10
   13.3500004       1.85234306E-09
   13.4099998       2.90041524E-09
   13.4700003       3.96548083E-09
   13.5299997       5.01674391E-09
   13.5900002       6.02494499E-09
   13.6499996       6.96335167E-09
   13.7100000       7.80772780E-09
   13.7700005       8.53617355E-09
   13.8299999       9.12973785E-09
   13.8900003       9.57422408E-09
   13.9499998       9.86284032E-09
   14.0100002       9.99867655E-09
   14.0699997       9.99562744E-09
   14.1300001       9.87672433E-09
   14.1899996       9.66967661E-09
   14.2500000       9.40051681E-09
   14.3100004       9.08722519E-09
   14.3699999       8.73547989E-09
   14.4300003       8.33826519E-09
   14.4899998       7.87984611E-09
   14.5500002       7.34319183E-09
   14.6099997       6.71865408E-09
   14.6700001       6.01118755E-09
   14.7299995       5.24378363E-09
   14.7900000       4.45599113E-09
   14.8500004       3.69794861E-09
   14.9099998       3.02173619E-09
   14.9700003       2.47252530E-09
   15.0299997       2.08184026E-09
   15.0900002       1.86427052E-09
   15.1499996       1.81771986E-09
   15.2100000       1.92615879E-09
   15.2700005       2.16334572E-09
   15.3299999       2.49618259E-09
   15.3900003       2.88711988E-09
   15.4499998       3.29589667E-09
   15.5100002       3.68146846E-09
   15.5699997       4.00494526E-09
   15.6300001       4.23375557E-09
   15.6899996       4.34636460E-09
   15.7500000       4.33613323E-09
   15.8100004       4.21271507E-09
   15.8699999       3.99989064E-09
   15.9300003       3.72984132E-09
   15.9899998       3.43507756E-09
   16.0499992       3.14018256E-09
   16.1100006       2.85573432E-09
   16.1700001       2.57617172E-09
   16.2299995       2.28213093E-09
   16.2900009       1.94633998E-09
   16.3500004       1.54103663E-09
   16.4099998       1.04447939E-09
   16.4699993       4.44596471E-10
   16.5300007      -2.61020539E-10
   16.5900002      -1.06815745E-09
   16.6499996      -1.97032701E-09
   16.7099991      -2.96234570E-09
   16.7700005      -4.04159550E-09
   16.8299999      -5.20661647E-09
   16.8899994      -6.45398623E-09
   16.9500008      -7.77527287E-09
   17.0100002      -9.15580234E-09
   17.0699997      -1.05760281E-08
   17.1299992      -1.20149508E-08
   17.1900005      -1.34538016E-08
   17.2500000      -1.48779460E-08
   17.3099995      -1.62755835E-08
   17.3700008      -1.76333668E-08
   17.4300003      -1.89306455E-08
   17.4899998      -2.01350474E-08
   17.5499992      -2.12019078E-08
   17.6100006      -2.20788046E-08
   17.6700001      -2.27144525E-08
   17.7299995      -2.30693953E-08
   17.7900009      -2.31249953E-08
   17.8500004      -2.28877219E-08
   17.9099998      -2.23872600E-08
   17.9699993      -2.16693188E-08
   18.0300007      -2.07859188E-08
   18.0900002      -1.97868708E-08
   18.1499996      -1.87155038E-08
   18.2099991      -1.76098300E-08
   18.2700005      -1.65078795E-08
   18.3299999      -1.54538906E-08
   18.3899994      -1.45015306E-08
   18.4500008      -1.37113156E-08
   18.5100002      -1.31419053E-08
   18.5699997      -1.28376767E-08
   18.6299992      -1.28169022E-08
   18.6900005      -1.30650575E-08
   18.7500000      -1.35360816E-08
   18.8099995      -1.41615253E-08
   18.8700008      -1.48645869E-08
   18.9300003      -1.55743560E-08
   18.9899998      -1.62357097E-08
   19.0499992      -1.68122387E-08
   19.1100006      -1.72823356E-08
   19.1700001      -1.76311428E-08
   19.2299995      -1.78422805E-08
   19.2900009      -1.78928676E-08
   19.3500004      -1.77535853E-08
   19.4099998      -1.73932584E-08
   19.4699993      -1.67856467E-08
   19.5300007      -1.59153881E-08
   19.5900002      -1.47808086E-08
   19.6499996      -1.33927847E-08
   19.7099991      -1.17706014E-08
   19.7700005      -9.93689842E-09
   19.8299999      -7.91385002E-09
   19.8899994      -5.72187453E-09
   19.9500008      -3.38082318E-09
   20.0100002      -9.12434184E-10
   20.0699997       1.65755054E-09
   20.1299992       4.29875247E-09
   20.1900005       6.97715574E-09
   20.2500000       9.65696678E-09
   20.3099995       1.23022081E-08
   20.3700008       1.48772994E-08
   20.4300003       1.73467392E-08
   20.4899998       1.96748182E-08
   20.5499992       2.18265139E-08
   20.6100006       2.37701627E-08
   20.6700001       2.54815991E-08
   20.7299995       2.69484026E-08
   20.7900009       2.81725718E-08
   20.8500004       2.91703053E-08
   20.9099998       2.99685752E-08
   20.9699993       3.05993417E-08
   21.0300007       3.10930730E-08
   21.0900002       3.14733200E-08
   21.1499996       3.17537214E-08
   21.2099991       3.19377982E-08
   21.2700005       3.20210454E-08
   21.3299999       3.19942579E-08
   21.3899994       3.18467492E-08
   21.4500008       3.15686783E-08
   21.5100002       3.11520658E-08
   21.5699997       3.05909467E-08
   21.6299992       2.98814200E-08
   21.6900005       2.90224804E-08
   21.7500000       2.80180092E-08
   21.8099995       2.68796576E-08
   21.8700008       2.56296264E-08
   21.9300003       2.43019773E-08
   21.9899998       2.29413306E-08
   22.0499992       2.15986642E-08
   22.1100006       2.03248458E-08
   22.1700001       1.91635969E-08
   22.2299995       1.81458688E-08
   22.2900009       1.72872472E-08
   22.3500004       1.65890359E-08
   22.4099998       1.60424012E-08
   22.4699993       1.56339173E-08
   22.5300007       1.53504960E-08
   22.5900002       1.51820210E-08
   22.6499996       1.51210173E-08
   22.7099991       1.51599675E-08
   22.7700005       1.52878226E-08
   22.8299999       1.54876201E-08
   22.8899994       1.57366262E-08
   22.9500008       1.60092988E-08
   23.0100002       1.62821134E-08
   23.0699997       1.65384417E-08
   23.1299992       1.67715406E-08
   23.1900005       1.69845364E-08
   23.2500000       1.71875207E-08
   23.3099995       1.73929706E-08
   23.3700008       1.76113559E-08
   23.4300003       1.78483699E-08
   23.4899998       1.81042683E-08
   23.5499992       1.83747133E-08
   23.6100006       1.86518196E-08
   23.6700001       1.89241973E-08
   23.7299995       1.91756300E-08
   23.7900009       1.93830285E-08
   23.8500004       1.95150474E-08
   23.9099998       1.95328056E-08
   23.9699993       1.93934380E-08
   24.0300007       1.90561327E-08
   24.0900002       1.84892972E-08
   24.1499996       1.76770367E-08
   24.2099991       1.66232699E-08
   24.2700005       1.53526738E-08
   24.3299999       1.39085330E-08
   24.3899994       1.23483952E-08
   24.4500008       1.07388498E-08
   24.5100002       9.15055676E-09
   24.5699997       7.65415820E-09
   24.6299992       6.31704511E-09
   24.6900005       5.20041610E-09
   24.7500000       4.35593339E-09
   24.8099995       3.82162613E-09
   24.8700008       3.61737285E-09
   24.9300003       3.74104703E-09
   24.9899998       4.16689838E-09
   25.0499992       4.84752594E-09
   25.1100006       5.71995118E-09
   25.1700001       6.71493172E-09
   25.2299995       7.76739384E-09
   25.2900009       8.82520990E-09
   25.3500004       9.85394433E-09
   25.4099998       1.08365192E-08
   25.4699993       1.17685284E-08
   25.5300007       1.26514097E-08
   25.5900002       1.34862663E-08
   25.6499996       1.42705154E-08
   25.7099991       1.49981307E-08
   25.7700005       1.56625877E-08
   25.8299999       1.62605751E-08
   25.8899994       1.67944272E-08
   25.9500008       1.72720345E-08
   26.0100002       1.77043198E-08
   26.0699997       1.81014670E-08
   26.1299992       1.84695832E-08
   26.1900005       1.88091747E-08
   26.2500000       1.91158946E-08
   26.3099995       1.93830783E-08
   26.3700008       1.96049186E-08
   26.4300003       1.97790424E-08
   26.4899998       1.99077519E-08
   26.5499992       1.99978114E-08
   26.6100006       2.00592289E-08
   26.6700001       2.01035615E-08
   26.7299995       2.01421511E-08
   26.7900009       2.01841672E-08
   26.8500004       2.02343351E-08
   26.9099998       2.02903063E-08
   26.9699993       2.03402148E-08
   27.0300007       2.03615240E-08
   27.0900002       2.03222594E-08
   27.1499996       2.01852526E-08
   27.2099991       1.99146886E-08
   27.2700005       1.94831831E-08
   27.3299999       1.88768592E-08
   27.3899994       1.80963671E-08
   27.4500008       1.71532974E-08
   27.5100002       1.60632911E-08
   27.5699997       1.48386494E-08
   27.6299992       1.34835982E-08
   27.6900005       1.19943042E-08
   27.7500000       1.03637028E-08
   27.8099995       8.58910010E-09
   27.8700008       6.67923761E-09
   27.9300003       4.65762362E-09
   27.9899998       2.56040167E-09
   28.0499992       4.29210001E-10
   28.1100006      -1.69846370E-09
   28.1700001      -3.79786824E-09
   28.2299995      -5.86124349E-09
   28.2900009      -7.89601096E-09
   28.3500004      -9.91736293E-09
   28.4099998      -1.19377752E-08
   28.4699993      -1.39570995E-08
   28.5300007      -1.59567577E-08
   28.5900002      -1.79000796E-08
   28.6499996      -1.97386889E-08
   28.7099991      -2.14226752E-08
   28.7700005      -2.29110082E-08
   28.8299999      -2.41786431E-08
   28.8899994      -2.52180623E-08
   28.9500008      -2.60350994E-08
   29.0100002      -2.66409881E-08
   29.0699997      -2.70438996E-08
   29.1299992      -2.72433205E-08
   29.1900005      -2.72294240E-08
   29.2500000      -2.69876139E-08
   29.3099995      -2.65064735E-08
   29.3700008      -2.57860826E-08
   29.4300003      -2.48435637E-08
   29.4899998      -2.37139020E-08
   29.5499992      -2.24457875E-08
   29.6100006      -2.10940154E-08
   29.6700001      -1.97109316E-08
   29.7299995      -1.83393993E-08
   29.7900009      -1.70087393E-08
   29.8500004      -1.57338391E-08
   29.9099998      -1.45164814E-08
   29.9699993      -1.33475915E-08
   30.0300007      -1.22093944E-08
   30.0900002      -1.10771712E-08
   30.1499996      -9.92088012E-09
   30.2099991      -8.70713102E-09
   30.2700005      -7.40179917E-09
   30.3299999      -5.97311445E-09
   30.3899994      -4.39481029E-09
   30.4500008      -2.64884936E-09
   30.5100002      -7.27486904E-10
   30.5699997       1.36533695E-09
   30.6299992       3.61318997E-09
   30.6900005       5.98696293E-09
   30.7500000       8.44556869E-09
   30.8099995       1.09379199E-08
   30.8700008       1.34064733E-08
   30.9300003       1.57922777E-08
   30.9899998       1.80409714E-08
   31.0499992       2.01086952E-08
   31.1100006       2.19666259E-08
   31.1700001       2.36029454E-08
   31.2299995       2.50215049E-08
   31.2900009       2.62372613E-08
   31.3500004       2.72696106E-08
   31.4099998       2.81354460E-08
   31.4699993       2.88442088E-08
   31.5300007       2.93965208E-08
   31.5900002       2.97868343E-08
   31.6499996       3.00088736E-08
   31.7099991       3.00613863E-08
   31.7700005       2.99515364E-08
   31.8299999       2.96941618E-08
   31.8899994       2.93070439E-08
   31.9500008       2.88042283E-08
   32.0099983       2.81904668E-08
   32.0699997       2.74594960E-08
   32.1300011       2.65972364E-08
   32.1899986       2.55888075E-08
   32.2500000       2.44265230E-08
   32.3100014       2.31156285E-08
   32.3699989       2.16754490E-08
   32.4300003       2.01355945E-08
   32.4900017       1.85287572E-08
   32.5499992       1.68829573E-08
   32.6100006       1.52160524E-08
   32.6699982       1.35343203E-08
   32.7299995       1.18352430E-08
   32.7900009       1.01130269E-08
   32.8499985       8.36448422E-09
   32.9099998       6.59288091E-09
   32.9700012       4.80823070E-09
   33.0299988       3.02398573E-09
   33.0900002       1.25150368E-09
   33.1500015      -5.05361863E-10
   33.2099991      -2.25315366E-09
   33.2700005      -4.00765376E-09
   33.3300018      -5.78869130E-09
   33.3899994      -7.61247065E-09
   33.4500008      -9.48395051E-09
   33.5099983      -1.13917835E-08
   33.5699997      -1.33073303E-08
   33.6300011      -1.51878599E-08
   33.6899986      -1.69827334E-08
   33.7500000      -1.86407512E-08
   33.8100014      -2.01170334E-08
   33.8699989      -2.13783675E-08
   33.9300003      -2.24066365E-08
   33.9900017      -2.32001920E-08
   34.0499992      -2.37730440E-08
   34.1100006      -2.41516673E-08
   34.1699982      -2.43695926E-08
   34.2299995      -2.44606202E-08
   34.2900009      -2.44524099E-08
   34.3499985      -2.43625156E-08
   34.4099998      -2.41984388E-08
   34.4700012      -2.39617712E-08
   34.5299988      -2.36547226E-08
   34.5900002      -2.32860504E-08
   34.6500015      -2.28734081E-08
   34.7099991      -2.24406147E-08
   34.7700005      -2.20106262E-08
   34.8300018      -2.15971738E-08
   34.8899994      -2.11989271E-08
   34.9500008      -2.07991899E-08
   35.0099983      -2.03720152E-08
   35.0699997      -1.98927470E-08
   35.1300011      -1.93490948E-08
   35.1899986      -1.87483380E-08
   35.2500000      -1.81176656E-08
   35.3100014      -1.74973067E-08
   35.3699989      -1.69289294E-08
   35.4300003      -1.64437850E-08
   35.4900017      -1.60550719E-08
   35.5499992      -1.57574416E-08
   35.6100006      -1.55334892E-08
   35.6699982      -1.53642237E-08
   35.7299995      -1.52388022E-08
   35.7900009      -1.51591912E-08
   35.8499985      -1.51377186E-08
   35.9099998      -1.51888244E-08
   35.9700012      -1.53190012E-08
   36.0299988      -1.55199409E-08
   36.0900002      -1.57684941E-08
   36.1500015      -1.60338995E-08
   36.2099991      -1.62893006E-08
   36.2700005      -1.65224474E-08
   36.3300018      -1.67406089E-08
   36.3899994      -1.69672472E-08
   36.4500008      -1.72316277E-08
   36.5099983      -1.75557080E-08
   36.5699997      -1.79439326E-08
   36.6300011      -1.83803852E-08
   36.6899986      -1.88345464E-08
   36.7500000      -1.92732692E-08
   36.8100014      -1.96738181E-08
   36.8699989      -2.00322550E-08
   36.9300003      -2.03634070E-08
   36.9900017      -2.06921360E-08
   37.0499992      -2.10394511E-08
   37.1100006      -2.14093223E-08
   37.1699982      -2.17820055E-08
   37.2299995      -2.21171348E-08
   37.2900009      -2.23658141E-08
   37.3499985      -2.24871641E-08
   37.4099998      -2.24628085E-08
   37.4700012      -2.23036078E-08
   37.5299988      -2.20460858E-08
   37.5900002      -2.17402114E-08
   37.6500015      -2.14335536E-08
   37.7099991      -2.11581277E-08
   37.7700005      -2.09246984E-08
   37.8300018      -2.07260591E-08
   37.8899994      -2.05470183E-08
   37.9500008      -2.03762216E-08
   38.0099983      -2.02145074E-08
   38.0699997      -2.00762287E-08
   38.1300011      -1.99830588E-08
   38.1899986      -1.99530028E-08
   38.2500000      -1.99893133E-08
   38.3100014      -2.00741077E-08
   38.3699989      -2.01696935E-08
   38.4300003      -2.02275796E-08
   38.4900017      -2.02020409E-08
   38.5499992      -2.00631600E-08
   38.6100006      -1.98043342E-08
   38.6699982      -1.94412859E-08
   38.7299995      -1.90030391E-08
   38.7900009      -1.85186675E-08
   38.8499985      -1.80053998E-08
   38.9099998      -1.74631172E-08
   38.9700012      -1.68774807E-08
   39.0299988      -1.62299951E-08
   39.0900002      -1.55102793E-08
   39.1500015      -1.47247059E-08
   39.2099991      -1.38974245E-08
   39.2700005      -1.30632465E-08
   39.3300018      -1.22556933E-08
   39.3899994      -1.14956320E-08
   39.4500008      -1.07854561E-08
   39.5099983      -1.01110906E-08
   39.5699997      -9.45044398E-09
   39.6300011      -8.78422401E-09
   39.6899986      -8.10439715E-09
   39.7500000      -7.41710293E-09
   39.8100014      -6.73965905E-09
   39.8699989      -6.09380901E-09
   39.9300003      -5.49852919E-09
   39.9900017      -4.96515673E-09
   40.0499992      -4.49589965E-09
   40.1100006      -4.08502121E-09
   40.1699982      -3.72103881E-09
   40.2299995      -3.38847661E-09
   40.2900009      -3.06869863E-09
   40.3499985      -2.74043122E-09
   40.4099998      -2.38106801E-09
   40.4700012      -1.96951921E-09
   40.5299988      -1.49039725E-09
   40.5900002      -9.38298217E-10
   40.6500015      -3.20396043E-10
   40.7099991       3.44162004E-10
   40.7700005       1.02849629E-09
   40.8300018       1.70487380E-09
   40.8899994       2.35199860E-09
   40.9500008       2.96006042E-09
   41.0099983       3.53153840E-09
   41.0699997       4.07731493E-09
   41.1300011       4.60952609E-09
   41.1899986       5.13393683E-09
   41.2500000       5.64486990E-09
   41.3100014       6.12460926E-09
   41.3699989       6.54730714E-09
   41.4300003       6.88552726E-09
   41.4900017       7.11661796E-09
   41.5499992       7.22646565E-09
   41.6100006       7.20958582E-09
   41.6699982       7.06621162E-09
   41.7299995       6.79816914E-09
   41.7900009       6.40544773E-09
   41.8499985       5.88463012E-09
   41.9099998       5.22929255E-09
   41.9700012       4.43175718E-09
   42.0299988       3.48542240E-09
   42.0900002       2.38718800E-09
   42.1500015       1.13977106E-09
   42.2099991      -2.46282439E-10
   42.2700005      -1.75137849E-09
   42.3300018      -3.34715988E-09
   42.3899994      -4.99883734E-09
   42.4500008      -6.66941169E-09
   42.5099983      -8.32473290E-09
   42.5699997      -9.93775195E-09
   42.6300011      -1.14904779E-08
   42.6899986      -1.29730875E-08
   42.7500000      -1.43808467E-08
   42.8100014      -1.57104676E-08
   42.8699989      -1.69575767E-08
   42.9300003      -1.81162640E-08
   42.9900017      -1.91804883E-08
   43.0499992      -2.01461958E-08
   43.1100006      -2.10127364E-08
   43.1699982      -2.17827161E-08
   43.2299995      -2.24603340E-08
   43.2900009      -2.30490453E-08
   43.3499985      -2.35496707E-08
   43.4099998      -2.39597462E-08
   43.4700012      -2.42744154E-08
   43.5299988      -2.44885658E-08
   43.5900002      -2.45997622E-08
   43.6500015      -2.46114347E-08
   43.7099991      -2.45357104E-08
   43.7700005      -2.43949945E-08
   43.8300018      -2.42212259E-08
   43.8899994      -2.40518467E-08
   43.9500008      -2.39224143E-08
   44.0099983      -2.38572291E-08
   44.0699997      -2.38609168E-08
   44.1300011      -2.39145006E-08
   44.1899986      -2.39786093E-08
   44.2500000      -2.40041746E-08
   44.3100014      -2.39478268E-08
   44.3699989      -2.37869671E-08
   44.4300003      -2.35290170E-08
   44.4900017      -2.32111308E-08
   44.5499992      -2.28901307E-08
   44.6100006      -2.26260077E-08
   44.6699982      -2.24646470E-08
   44.7299995      -2.24256347E-08
   44.7900009      -2.24989947E-08
   44.8499985      -2.26514150E-08
   44.9099998      -2.28392771E-08
   44.9700012      -2.30237038E-08
   45.0299988      -2.31823591E-08
   45.0900002      -2.33142377E-08
   45.1500015      -2.34362361E-08
   45.2099991      -2.35732802E-08
   45.2700005      -2.37460291E-08
   45.3300018      -2.39608795E-08
   45.3899994      -2.42060025E-08
   45.4500008      -2.44546126E-08
   45.5099983      -2.46738470E-08
   45.5699997      -2.48355096E-08
   45.6300011      -2.49245335E-08
   45.6899986      -2.49422829E-08
   45.7500000      -2.49041854E-08
   45.8100014      -2.48334402E-08
   45.8699989      -2.47537280E-08
   45.9300003      -2.46835867E-08
   45.9900017      -2.46338718E-08
   46.0499992      -2.46080916E-08
   46.1100006      -2.46044696E-08
   46.1699982      -2.46182115E-08
   46.2299995      -2.46430361E-08
   46.2900009      -2.46716425E-08
   46.3499985      -2.46954759E-08
   46.4099998      -2.47044305E-08
   46.4700012      -2.46871128E-08
   46.5299988      -2.46319978E-08
   46.5900002      -2.45293190E-08
   46.6500015      -2.43730547E-08
   46.7099991      -2.41621940E-08
   46.7700005      -2.39006450E-08
   46.8300018      -2.35958026E-08
   46.8899994      -2.32567299E-08
   46.9500008      -2.28932198E-08
   47.0099983      -2.25166819E-08
   47.0699997      -2.21425260E-08
   47.1300011      -2.17924256E-08
   47.1899986      -2.14941878E-08
   47.2500000      -2.12778506E-08
   47.3100014      -2.11686704E-08
   47.3699989      -2.11798472E-08
   47.4300003      -2.13087432E-08
   47.4900017      -2.15392255E-08
   47.5499992      -2.18498073E-08
   47.6100006      -2.22241994E-08
   47.6699982      -2.26592203E-08
   47.7299995      -2.31660966E-08
   47.7900009      -2.37642634E-08
   47.8499985      -2.44704150E-08
   47.9099998      -2.52878269E-08
   47.9700012      -2.62005173E-08
   48.0299988      -2.71743996E-08
   48.0900002      -2.81642265E-08
   48.1500015      -2.91228925E-08
   48.2099991      -3.00092253E-08
   48.2700005      -3.07916750E-08
   48.3300018      -3.14473105E-08
   48.3899994      -3.19570681E-08
   48.4500008      -3.22989528E-08
   48.5099983      -3.24408873E-08
   48.5699997      -3.23344800E-08
   48.6300011      -3.19106839E-08
   48.6899986      -3.10778852E-08
   48.7500000      -2.97221465E-08
   48.8100014      -2.77086318E-08
   48.8699989      -2.48824126E-08
   48.9300003      -2.10668869E-08
   48.9900017      -1.60588396E-08
   49.0499992      -9.62053814E-09
   49.1100006      -1.47041579E-09
   49.1699982       8.72584405E-09
   49.2299995       2.13626983E-08
   49.2900009       3.69010138E-08
   49.3499985       5.58750841E-08
   49.4099998       7.89027794E-08
   49.4700012       1.06700767E-07
   49.5299988       1.40105499E-07
   49.5900002       1.80099022E-07
   49.6500015       2.27837319E-07
   49.7099991       2.84678976E-07
   49.7700005       3.52212965E-07
   49.8300018       4.32285219E-07
   49.8899994       5.27027339E-07
   49.9500008       6.38889503E-07
   50.0099983       7.70681538E-07
   50.0699997       9.25622487E-07
   50.1300011       1.10739791E-06
   50.1899986       1.32022126E-06
   50.2500000       1.56889678E-06
   50.3100014       1.85888302E-06
   50.3699989       2.19635876E-06
   50.4300003       2.58829346E-06
   50.4900017       3.04252967E-06
   50.5499992       3.56787632E-06
   50.6100006       4.17421279E-06