 -0.750000000       0.00000000    
 -0.689999998       0.00000000    
 -0.629999995       0.00000000    
 -0.569999993       0.00000000    
 -0.509999990       0.00000000    
 -0.449999988       0.00000000    
 -0.389999986       0.00000000    
 -0.330000013       0.00000000    
 -0.270000011       0.00000000    
 -0.209999993       0.00000000    
 -0.150000006      -1.06686795E-30
  -9.00000036E-02  -1.43497956E-29
  -2.99999993E-02  -9.14249537E-29
   2.99999993E-02  -3.47563910E-28
   9.00000036E-02  -7.56909053E-28
  0.150000006      -2.06266206E-28
  0.209999993       5.39034550E-27
  0.270000011       2.37249270E-26
  0.330000013       5.85539402E-26
  0.389999986       8.54523961E-26
  0.449999988       1.72041149E-26
  0.509999990      -2.93690499E-25
  0.569999993      -9.24804220E-25
  0.629999995      -1.57436314E-24
  0.689999998      -1.24576816E-24
  0.750000000       1.52423813E-24
  0.810000002       7.18423278E-24
  0.870000005       1.24531570E-23
  0.930000007       8.40206284E-24
  0.990000010      -1.62996018E-23
   1.04999995      -6.28879851E-23
   1.11000001      -1.03189412E-22
   1.16999996      -6.88419790E-23
   1.23000002       1.24368415E-22
   1.28999996       4.97499611E-22
   1.35000002       8.94958835E-22
   1.40999997       9.21497782E-22
   1.47000003       5.87426851E-23
   1.52999997      -1.95845713E-21
   1.59000003      -4.61155776E-21
   1.64999998      -6.28266536E-21
   1.71000004      -4.66339872E-21
   1.76999998       1.84050756E-21
   1.83000004       1.21528891E-20
   1.88999999       2.13564496E-20
   1.95000005       2.19929036E-20
   2.00999999       8.55041090E-21
   2.06999993      -1.65330689E-20
   2.13000011      -3.96570839E-20
   2.19000006      -4.05588239E-20
   2.25000000      -6.02704433E-21
   2.30999994       5.28590674E-20
   2.36999989       9.27745031E-20
   2.43000007       5.30431733E-20
   2.49000001      -1.03403412E-19
   2.54999995      -3.39428756E-19
   2.60999990      -5.18153277E-19
   2.67000008      -4.38559063E-19
   2.73000002       5.74806192E-20
   2.78999996       9.43689312E-19
   2.84999990       1.91404631E-18
   2.91000009       2.42102034E-18
   2.97000003       1.88430772E-18
   3.02999997       1.23060015E-20
   3.08999991      -2.91174731E-18
   3.15000010      -5.95229615E-18
   3.21000004      -7.75295295E-18
   3.26999998      -7.03059018E-18
   3.32999992      -3.14338973E-18
   3.39000010       3.50734713E-18
   3.45000005       1.14078149E-17
   3.50999999       1.82104771E-17
   3.56999993       2.12537673E-17
   3.63000011       1.82010473E-17
   3.69000006       7.75299348E-18
   3.75000000      -9.56667466E-18
   3.80999994      -3.06671918E-17
   3.86999989      -4.95823375E-17
   3.93000007      -5.82329526E-17
   3.99000001      -4.87749497E-17
   4.05000019      -1.73535346E-17
   4.11000013       3.20269609E-17
   4.17000008       8.57369926E-17
   4.23000002       1.23021715E-16
   4.28999996       1.23391948E-16
   4.34999990       7.68250413E-17
   4.40999985      -7.91627563E-18
   4.46999979      -1.02312375E-16
   4.53000021      -1.67603799E-16
   4.59000015      -1.72758709E-16
   4.65000010      -1.12990953E-16
   4.71000004      -1.78202580E-17
   4.76999998       5.96783614E-17
   4.82999992       7.18693559E-17
   4.88999987       1.12985973E-17
   4.94999981      -6.98196024E-17
   5.01000023      -7.46719365E-17
   5.07000017       8.41100540E-17
   5.13000011       4.10888589E-16
   5.19000006       7.74683946E-16
   5.25000000       9.22933664E-16
   5.30999994       5.83617559E-16
   5.36999989      -3.67893593E-16
   5.42999983      -1.75098630E-15
   5.48999977      -3.02998572E-15
   5.55000019      -3.44759138E-15
   5.61000013      -2.34033763E-15
   5.67000008       4.67691571E-16
   5.73000002       4.37555367E-15
   5.78999996       8.00702363E-15
   5.84999990       9.59531035E-15
   5.90999985       7.67563046E-15
   5.96999979       1.83961982E-15
   6.03000021      -6.78207211E-15
   6.09000015      -1.55881286E-14
   6.15000010      -2.12109078E-14
   6.21000004      -2.06795894E-14
   6.26999998      -1.26451872E-14
   6.32999992       1.80688348E-15
   6.38999987       1.91237153E-14
   6.44999981       3.41397239E-14
   6.51000023       4.16110594E-14
   6.57000017       3.79589752E-14
   6.63000011       2.26357680E-14
   6.69000006      -1.39758425E-15
   6.75000000      -2.83333402E-14
   6.80999994      -5.11883457E-14
   6.86999989      -6.39603455E-14
   6.92999983      -6.34850787E-14
   6.98999977      -5.02278815E-14
   7.05000019      -2.76130183E-14
   7.11000013      -1.39996084E-16
   7.17000008       2.87911547E-14
   7.23000002       5.80842679E-14
   7.28999996       8.82119695E-14
   7.34999990       1.18525822E-13
   7.40999985       1.43862407E-13
   7.46999979       1.52623180E-13
   7.53000021       1.28438967E-13
   7.59000015       5.61966109E-14
   7.65000010      -6.90156482E-14
   7.71000004      -2.33620686E-13
   7.76999998      -4.02362415E-13
   7.82999992      -5.23482895E-13
   7.88999987      -5.42468848E-13
   7.94999981      -4.20747069E-13
   8.01000023      -1.52836606E-13
   8.06999969       2.24948464E-13
   8.13000011       6.38613511E-13
   8.18999958       9.93138731E-13
   8.25000000       1.19656650E-12
   8.31000042       1.18353721E-12
   8.36999989       9.30711237E-13
   8.43000031       4.60082059E-13
   8.48999977      -1.68744508E-13
   8.55000019      -8.72070699E-13
   8.60999966      -1.55491451E-12
   8.67000008      -2.11879060E-12
   8.72999954      -2.46461445E-12
   8.78999996      -2.49519914E-12
   8.85000038      -2.12353724E-12
   8.90999985      -1.29100712E-12
   8.97000027       5.52738550E-15
   9.02999973       1.68468614E-12
   9.09000015       3.56052774E-12
   9.14999962       5.34246822E-12
   9.21000004       6.66214913E-12
   9.27000046       7.12766781E-12
   9.32999992       6.39861081E-12
   9.39000034       4.26975512E-12
   9.44999981       7.47938441E-13
   9.51000023      -3.89457173E-12
   9.56999969      -9.10585583E-12
   9.63000011      -1.40912291E-11
   9.68999958      -1.79060950E-11
   9.75000000      -1.95988867E-11
   9.81000042      -1.83853714E-11
   9.86999989      -1.38242039E-11
   9.93000031      -5.95780283E-12
   9.98999977       4.61412809E-12
   10.0500002       1.67488506E-11
   10.1099997       2.88648411E-11
   10.1700001       3.91195236E-11
   10.2299995       4.56299235E-11
   10.2900000       4.66991862E-11
   10.3500004       4.10123359E-11
   10.4099998       2.77705393E-11
   10.4700003       6.74114237E-12
   10.5299997      -2.17877036E-11
   10.5900002      -5.71450214E-11
   10.6499996      -9.84863580E-11
   10.7100000      -1.45033624E-10
   10.7700005      -1.96288374E-10
   10.8299999      -2.52158155E-10
   10.8900003      -3.12949472E-10
   10.9499998      -3.79211357E-10
   11.0100002      -4.51454374E-10
   11.0699997      -5.29806810E-10
   11.1300001      -6.13688100E-10
   11.1899996      -7.01575298E-10
   11.2500000      -7.90909338E-10
   11.3100004      -8.78154049E-10
   11.3699999      -9.58989665E-10
   11.4300003      -1.02861319E-09
   11.4899998      -1.08212894E-09
   11.5500002      -1.11502574E-09
   11.6099997      -1.12374676E-09
   11.6700001      -1.10633347E-09
   11.7299995      -1.06308640E-09
   11.7900000      -9.97121719E-10
   11.8500004      -9.14674669E-10
   11.9099998      -8.25002011E-10
   11.9700003      -7.39799944E-10
   12.0299997      -6.72157108E-10
   12.0900002      -6.35180908E-10
   12.1499996      -6.40525188E-10
   12.2100000      -6.97095381E-10
   12.2700005      -8.10189693E-10
   12.3299999      -9.81273951E-10
   12.3900003      -1.20849464E-09
   12.4499998      -1.48792778E-09
   12.5100002      -1.81543902E-09
   12.5699997      -2.18890372E-09
   12.6300001      -2.61041122E-09
   12.6899996      -3.08798498E-09
   12.7500000      -3.63631503E-09
   12.8100004      -4.27609725E-09
   12.8699999      -5.03177588E-09
   12.9300003      -5.92780847E-09
   12.9899998      -6.98392055E-09
   13.0500002      -8.21010726E-09
   13.1099997      -9.60230029E-09
   13.1700001      -1.11395568E-08
   13.2299995      -1.27834001E-08
   13.2900000      -1.44796131E-08
   13.3500004      -1.61623266E-08
   13.4099998      -1.77599428E-08
   13.4700003      -1.92021403E-08
   13.5299997      -2.04270822E-08
   13.5900002      -2.13879652E-08
   13.6499996      -2.20580993E-08
   13.7100000      -2.24339622E-08
   13.7700005      -2.25358487E-08
   13.8299999      -2.24059953E-08
   13.8900003      -2.21043628E-08
   13.9499998      -2.17024372E-08
   14.0100002      -2.12756248E-08
   14.0699997      -2.08949427E-08
   14.1300001      -2.06188169E-08
   14.1899996      -2.04859703E-08
   14.2500000      -2.05102548E-08
   14.3100004      -2.06784048E-08
   14.3699999      -2.09513082E-08
   14.4300003      -2.12690079E-08
   14.4899998      -2.15590550E-08
   14.5500002      -2.17471037E-08
   14.6099997      -2.17681109E-08
   14.6700001      -2.15762004E-08
   14.7299995      -2.11514486E-08
   14.7900000      -2.05023785E-08
   14.8500004      -1.96638936E-08
   14.9099998      -1.86912992E-08
   14.9700003      -1.76518338E-08
   15.0299997      -1.66154148E-08
   15.0900002      -1.56462718E-08
   15.1499996      -1.47966057E-08
   15.2100000      -1.41027865E-08
   15.2700005      -1.35840121E-08
   15.3299999      -1.32429259E-08
   15.3900003      -1.30675977E-08
   15.4499998      -1.30342901E-08
   15.5100002      -1.31106734E-08
   15.5699997      -1.32592985E-08
   15.6300001      -1.34412739E-08
   15.6899996      -1.36201006E-08
   15.7500000      -1.37654981E-08
   15.8100004      -1.38569582E-08
   15.8699999      -1.38865541E-08
   15.9300003      -1.38604772E-08
   15.9899998      -1.37987390E-08
   16.0499992      -1.37326710E-08
   16.1100006      -1.37001699E-08
   16.1700001      -1.37391192E-08
   16.2299995      -1.38798883E-08
   16.2900009      -1.41382479E-08
   16.3500004      -1.45101948E-08
   16.4099998      -1.49700519E-08
   16.4699993      -1.54727076E-08
   16.5300007      -1.59600511E-08
   16.5900002      -1.63706986E-08
   16.6499996      -1.66512191E-08
   16.7099991      -1.67664638E-08
   16.7700005      -1.67065899E-08
   16.8299999      -1.64889773E-08
   16.8899994      -1.61544236E-08
   16.9500008      -1.57584328E-08
   17.0100002      -1.53598005E-08
   17.0699997      -1.50093911E-08
   17.1299992      -1.47419437E-08
   17.1900005      -1.45728460E-08
   17.2500000      -1.45002117E-08
   17.3099995      -1.45110564E-08
   17.3700008      -1.45890890E-08
   17.4300003      -1.47212571E-08
   17.4899998      -1.49007180E-08
   17.5499992      -1.51252930E-08
   17.6100006      -1.53921249E-08
   17.6700001      -1.56907856E-08
   17.7299995      -1.59979123E-08
   17.7900009      -1.62760632E-08
   17.8500004      -1.64782552E-08
   17.9099998      -1.65575695E-08
   17.9699993      -1.64792304E-08
   18.0300007      -1.62313025E-08
   18.0900002      -1.58301443E-08
   18.1499996      -1.53180899E-08
   18.2099991      -1.47531471E-08
   18.2700005      -1.41930547E-08
   18.3299999      -1.36779583E-08
   18.3899994      -1.32166287E-08
   18.4500008      -1.27803803E-08
   18.5100002      -1.23068249E-08
   18.5699997      -1.17129533E-08
   18.6299992      -1.09145226E-08
   18.6900005      -9.84694726E-09
   18.7500000      -8.48239790E-09
   18.8099995      -6.83868961E-09
   18.8700008      -4.97766006E-09
   18.9300003      -2.99352787E-09
   18.9899998      -9.94451299E-10
   19.0499992       9.17610765E-10
   19.1100006       2.66329692E-09
   19.1700001       4.19434754E-09
   19.2299995       5.49267298E-09
   19.2900009       6.56148114E-09
   19.3500004       7.41242356E-09
   19.4099998       8.05374434E-09
   19.4699993       8.48373816E-09
   19.5300007       8.69166961E-09
   19.5900002       8.66552874E-09
   19.6499996       8.40342285E-09
   19.7099991       7.92404720E-09
   19.7700005       7.27168370E-09
   19.8299999       6.51283116E-09
   19.8899994       5.72416115E-09
   19.9500008       4.97441066E-09
   20.0100002       4.30520952E-09
   20.0699997       3.71682796E-09
   20.1299992       3.16406945E-09
   20.1900005       2.56493538E-09
   20.2500000       1.82097659E-09
   20.3099995       8.44448511E-10
   20.3700008      -4.15227741E-10
   20.4300003      -1.95362038E-09
   20.4899998      -3.70791087E-09
   20.5499992      -5.56977797E-09
   20.6100006      -7.41152606E-09
   20.6700001      -9.11836029E-09
   20.7299995      -1.06177040E-08
   20.7900009      -1.18972068E-08
   20.8500004      -1.30062690E-08
   20.9099998      -1.40407179E-08
   20.9699993      -1.51151358E-08
   21.0300007      -1.63308442E-08
   21.0900002      -1.77486843E-08
   21.1499996      -1.93741556E-08
   21.2099991      -2.11586251E-08
   21.2700005      -2.30154331E-08
   21.3299999      -2.48452938E-08
   21.3899994      -2.65627840E-08
   21.4500008      -2.81157728E-08
   21.5100002      -2.94923108E-08
   21.5699997      -3.07138279E-08
   21.6299992      -3.18179829E-08
   21.6900005      -3.28377254E-08
   21.7500000      -3.37839943E-08
   21.8099995      -3.46377433E-08
   21.8700008      -3.53536826E-08
   21.9300003      -3.58738248E-08
   21.9899998      -3.61458952E-08
   22.0499992      -3.61402428E-08
   22.1100006      -3.58595820E-08
   22.1700001      -3.53385516E-08
   22.2299995      -3.46335156E-08
   22.2900009      -3.38060708E-08
   22.3500004      -3.29057279E-08
   22.4099998      -3.19571605E-08
   22.4699993      -3.09559383E-08
   22.5300007      -2.98737532E-08
   22.5900002      -2.86712361E-08
   22.6499996      -2.73142184E-08
   22.7099991      -2.57884825E-08
   22.7700005      -2.41086582E-08
   22.8299999      -2.23188970E-08
   22.8899994      -2.04854231E-08
   22.9500008      -1.86833393E-08
   23.0100002      -1.69814101E-08
   23.0699997      -1.54288795E-08
   23.1299992      -1.40475231E-08
   23.1900005      -1.28305855E-08
   23.2500000      -1.17484946E-08
   23.3099995      -1.07596314E-08
   23.3700008      -9.82333592E-09
   23.4300003      -8.91199470E-09
   23.4899998      -8.01934252E-09
   23.5499992      -7.16301152E-09
   23.6100006      -6.38068487E-09
   23.6700001      -5.72068792E-09
   23.7299995      -5.22921706E-09
   23.7900009      -4.93737673E-09
   23.8500004      -4.85147833E-09
   23.9099998      -4.94947461E-09
   23.9699993      -5.18499865E-09
   24.0300007      -5.49840706E-09
   24.0900002      -5.83209570E-09
   24.1499996      -6.14576479E-09
   24.2099991      -6.42691811E-09
   24.2700005      -6.69298350E-09
   24.3299999      -6.98388147E-09
   24.3899994      -7.34694705E-09
   24.4500008      -7.81877851E-09
   24.5100002      -8.40991543E-09
   24.5699997      -9.09762576E-09
   24.6299992      -9.82965265E-09
   24.6900005      -1.05383187E-08
   24.7500000      -1.11609504E-08
   24.8099995      -1.16603820E-08
   24.8700008      -1.20389707E-08
   24.9300003      -1.23412383E-08
   24.9899998      -1.26434410E-08
   25.0499992      -1.30322784E-08
   25.1100006      -1.35783109E-08
   25.1700001      -1.43116594E-08
   25.2299995      -1.52073873E-08
   25.2900009      -1.61856626E-08
   25.3500004      -1.71276398E-08
   25.4099998      -1.79034760E-08
   25.4699993      -1.84049824E-08
   25.5300007      -1.85737452E-08
   25.5900002      -1.84166176E-08
   25.6499996      -1.80040445E-08
   25.7099991      -1.74518036E-08
   25.7700005      -1.68915459E-08
   25.8299999      -1.64387011E-08
   25.8899994      -1.61668527E-08
   25.9500008      -1.60954112E-08
   26.0100002      -1.61932725E-08
   26.0699997      -1.63963723E-08
   26.1299992      -1.66330150E-08
   26.1900005      -1.68488405E-08
   26.2500000      -1.70236980E-08
   26.3099995      -1.71754788E-08
   26.3700008      -1.73502155E-08
   26.4300003      -1.76021899E-08
   26.4899998      -1.79711854E-08
   26.5499992      -1.84648030E-08
   26.6100006      -1.90522105E-08
   26.6700001      -1.96716758E-08
   26.7299995      -2.02495105E-08
   26.7900009      -2.07240571E-08
   26.8500004      -2.10665210E-08
   26.9099998      -2.12914575E-08
   26.9699993      -2.14532001E-08
   27.0300007      -2.16292086E-08
   27.0900002      -2.18956533E-08
   27.1499996      -2.23030874E-08
   27.2099991      -2.28600516E-08
   27.2700005      -2.35297879E-08
   27.3299999      -2.42411229E-08
   27.3899994      -2.49100669E-08
   27.4500008      -2.54654307E-08
   27.5100002      -2.58706585E-08
   27.5699997      -2.61354138E-08
   27.6299992      -2.63138276E-08
   27.6900005      -2.64903921E-08
   27.7500000      -2.67580837E-08
   27.8099995      -2.71952665E-08
   27.8700008      -2.78477650E-08
   27.9300003      -2.87204767E-08
   27.9899998      -2.97798302E-08
   28.0499992      -3.09652499E-08
   28.1100006      -3.22054881E-08
   28.1700001      -3.34348869E-08
   28.2299995      -3.46050548E-08
   28.2900009      -3.56893395E-08
   28.3500004      -3.66797970E-08
   28.4099998      -3.75787401E-08
   28.4699993      -3.83884782E-08
   28.5300007      -3.91031527E-08
   28.5900002      -3.97057391E-08
   28.6499996      -4.01710913E-08
   28.7099991      -4.04737293E-08
   28.7700005      -4.05973033E-08
   28.8299999      -4.05421403E-08
   28.8899994      -4.03281106E-08
   28.9500008      -3.99918925E-08
   29.0100002      -3.95796818E-08
   29.0699997      -3.91378521E-08
   29.1299992      -3.87044707E-08
   29.1900005      -3.83038952E-08
   29.2500000      -3.79454832E-08
   29.3099995      -3.76260836E-08
   29.3700008      -3.73349422E-08
   29.4300003      -3.70593796E-08
   29.4899998      -3.67896824E-08
   29.5499992      -3.65221346E-08
   29.6100006      -3.62599515E-08
   29.6700001      -3.60122954E-08
   29.7299995      -3.57920271E-08
   29.7900009      -3.56129739E-08
   29.8500004      -3.54872327E-08
   29.9099998      -3.54229002E-08
   29.9699993      -3.54222145E-08
   30.0300007      -3.54803227E-08
   30.0900002      -3.55847085E-08
   30.1499996      -3.57159990E-08
   30.2099991      -3.58504693E-08
   30.2700005      -3.59645931E-08
   30.3299999      -3.60411150E-08
   30.3899994      -3.60753702E-08
   30.4500008      -3.60799639E-08
   30.5100002      -3.60858436E-08
   30.5699997      -3.61386654E-08
   30.6299992      -3.62904515E-08
   30.6900005      -3.65881689E-08
   30.7500000      -3.70620690E-08
   30.8099995      -3.77171041E-08
   30.8700008      -3.85301817E-08
   30.9300003      -3.94546227E-08
   30.9899998      -4.04311535E-08
   31.0499992      -4.14026431E-08
   31.1100006      -4.23285407E-08
   31.1700001      -4.31946674E-08
   31.2299995      -4.40151808E-08
   31.2900009      -4.48258781E-08
   31.3500004      -4.56706353E-08
   31.4099998      -4.65852459E-08
   31.4699993      -4.75837929E-08
   31.5300007      -4.86521579E-08
   31.5900002      -4.97509944E-08
   31.6499996      -5.08274702E-08
   31.7099991      -5.18321492E-08
   31.7700005      -5.27356434E-08
   31.8299999      -5.35396367E-08
   31.8899994      -5.42785195E-08
   31.9500008      -5.50108510E-08
   32.0099983      -5.58027722E-08
   32.0699997      -5.67081067E-08
   32.1300011      -5.77508281E-08
   32.1899986      -5.89149529E-08
   32.2500000      -6.01449841E-08
   32.3100014      -6.13570421E-08
   32.3699989      -6.24577865E-08
   32.4300003      -6.33659880E-08
   32.4900017      -6.40308215E-08
   32.5499992      -6.44414797E-08
   32.6100006      -6.46256169E-08
   32.6699982      -6.46371916E-08
   32.7299995      -6.45376730E-08
   32.7900009      -6.43765716E-08
   32.8499985      -6.41775557E-08
   32.9099998      -6.39342304E-08
   32.9700012      -6.36164756E-08
   33.0299988      -6.31846717E-08
   33.0900002      -6.26066594E-08
   33.1500015      -6.18715532E-08
   33.2099991      -6.09959585E-08
   33.2700005      -6.00207599E-08
   33.3300018      -5.89998770E-08
   33.3899994      -5.79846215E-08
   33.4500008      -5.70088403E-08
   33.5099983      -5.60793012E-08
   33.5699997      -5.51742296E-08
   33.6300011      -5.42503962E-08
   33.6899986      -5.32564748E-08
   33.7500000      -5.21486534E-08
   33.8100014      -5.09036155E-08
   33.8699989      -4.95250525E-08
   33.9300003      -4.80418265E-08
   33.9900017      -4.64986378E-08
   34.0499992      -4.49425634E-08
   34.1100006      -4.34100826E-08
   34.1699982      -4.19189128E-08
   34.2299995      -4.04672207E-08
   34.2900009      -3.90400743E-08
   34.3499985      -3.76206479E-08
   34.4099998      -3.62019001E-08
   34.4700012      -3.47946489E-08
   34.5299988      -3.34291066E-08
   34.5900002      -3.21493054E-08
   34.6500015      -3.10023083E-08
   34.7099991      -3.00258236E-08
   34.7700005      -2.92382438E-08
   34.8300018      -2.86343909E-08
   34.8899994      -2.81880865E-08
   34.9500008      -2.78604588E-08
   35.0099983      -2.76110086E-08
   35.0699997      -2.74078715E-08
   35.1300011      -2.72342966E-08
   35.1899986      -2.70900209E-08
   35.2500000      -2.69879834E-08
   35.3100014      -2.69480864E-08
   35.3699989      -2.69901665E-08
   35.4300003      -2.71278662E-08
   35.4900017      -2.73645071E-08
   35.5499992      -2.76913390E-08
   35.6100006      -2.80883263E-08
   35.6699982      -2.85273867E-08
   35.7299995      -2.89777748E-08
   35.7900009      -2.94127762E-08
   35.8499985      -2.98161993E-08
   35.9099998      -3.01869107E-08
   35.9700012      -3.05398693E-08
   36.0299988      -3.09031201E-08
   36.0900002      -3.13113873E-08
   36.1500015      -3.17980238E-08
   36.2099991      -3.23874190E-08
   36.2700005      -3.30895347E-08
   36.3300018      -3.38974786E-08
   36.3899994      -3.47882221E-08
   36.4500008      -3.57258934E-08
   36.5099983      -3.66670569E-08
   36.5699997      -3.75672613E-08
   36.6300011      -3.83879950E-08
   36.6899986      -3.91028010E-08
   36.7500000      -3.97011846E-08
   36.8100014      -4.01889046E-08
   36.8699989      -4.05841405E-08
   36.9300003      -4.09103187E-08
   36.9900017      -4.11876080E-08
   37.0499992      -4.14259809E-08
   37.1100006      -4.16223962E-08
   37.1699982      -4.17633039E-08
   37.2299995      -4.18318926E-08
   37.2900009      -4.18174828E-08
   37.3499985      -4.17235988E-08
   37.4099998      -4.15715640E-08
   37.4700012      -4.13978078E-08
   37.5299988      -4.12452472E-08
   37.5900002      -4.11511323E-08
   37.6500015      -4.11350527E-08
   37.7099991      -4.11908800E-08
   37.7700005      -4.12854568E-08
   37.8300018      -4.13647641E-08
   37.8899994      -4.13663628E-08
   37.9500008      -4.12348626E-08
   38.0099983      -4.09363388E-08
   38.0699997      -4.04676399E-08
   38.1300011      -3.98577811E-08
   38.1899986      -3.91607671E-08
   38.2500000      -3.84415202E-08
   38.3100014      -3.77587561E-08
   38.3699989      -3.71497570E-08
   38.4300003      -3.66216071E-08
   38.4900017      -3.61516967E-08
   38.5499992      -3.56973437E-08
   38.6100006      -3.52114817E-08
   38.6699982      -3.46591804E-08
   38.7299995      -3.40296324E-08
   38.7900009      -3.33395498E-08
   38.8499985      -3.26270246E-08
   38.9099998      -3.19380611E-08
   38.9700012      -3.13104245E-08
   39.0299988      -3.07602228E-08
   39.0900002      -3.02756611E-08
   39.1500015      -2.98200611E-08
   39.2099991      -2.93432745E-08
   39.2700005      -2.87980875E-08
   39.3300018      -2.81567321E-08
   39.3899994      -2.74222849E-08
   39.4500008      -2.66312448E-08
   39.5099983      -2.58458179E-08
   39.5699997      -2.51376520E-08
   39.6300011      -2.45674432E-08
   39.6899986      -2.41665425E-08
   39.7500000      -2.39264146E-08
   39.8100014      -2.37996023E-08
   39.8699989      -2.37122748E-08
   39.9300003      -2.35846986E-08
   39.9900017      -2.33533637E-08
   40.0499992      -2.29881305E-08
   40.1100006      -2.24994405E-08
   40.1699982      -2.19340190E-08
   40.2299995      -2.13609539E-08
   40.2900009      -2.08527826E-08
   40.3499985      -2.04672244E-08
   40.4099998      -2.02345500E-08
   40.4700012      -2.01536121E-08
   40.5299988      -2.01970334E-08
   40.5900002      -2.03234141E-08
   40.6500015      -2.04926156E-08
   40.7099991      -2.06793480E-08
   40.7700005      -2.08809308E-08
   40.8300018      -2.11168842E-08
   40.8899994      -2.14206270E-08
   40.9500008      -2.18261196E-08
   41.0099983      -2.23538521E-08
   41.0699997      -2.30007302E-08
   41.1300011      -2.37371207E-08
   41.1899986      -2.45119960E-08
   41.2500000      -2.52647894E-08
   41.3100014      -2.59406772E-08
   41.3699989      -2.65052620E-08
   41.4300003      -2.69547478E-08
   41.4900017      -2.73188334E-08
   41.5499992      -2.76551972E-08
   41.6100006      -2.80366539E-08
   41.6699982      -2.85340676E-08
   41.7299995      -2.91995885E-08
   41.7900009      -3.00551193E-08
   41.8499985      -3.10894990E-08
   41.9099998      -3.22654472E-08
   41.9700012      -3.35340751E-08
   42.0299988      -3.48523450E-08
   42.0900002      -3.61980810E-08
   42.1500015      -3.75778697E-08
   42.2099991      -3.90258528E-08
   42.2700005      -4.05939815E-08
   42.3300018      -4.23367510E-08
   42.3899994      -4.42947474E-08
   42.4500008      -4.64811656E-08
   42.5099983      -4.88748952E-08
   42.5699997      -5.14218286E-08
   42.6300011      -5.40443601E-08
   42.6899986      -5.66566776E-08
   42.7500000      -5.91817582E-08
   42.8100014      -6.15652453E-08
   42.8699989      -6.37819397E-08
   42.9300003      -6.58329569E-08
   42.9900017      -6.77347316E-08
   43.0499992      -6.95037983E-08
   43.1100006      -7.11431980E-08
   43.1699982      -7.26352027E-08
   43.2299995      -7.39433332E-08
   43.2900009      -7.50226334E-08
   43.3499985      -7.58347127E-08
   43.4099998      -7.63621628E-08
   43.4700012      -7.66172690E-08
   43.5299988      -7.66421522E-08
   43.5900002      -7.64999868E-08
   43.6500015      -7.62600152E-08
   43.7099991      -7.59811059E-08
   43.7700005      -7.56989209E-08
   43.8300018      -7.54207647E-08
   43.8899994      -7.51299964E-08
   43.9500008      -7.47984146E-08
   44.0099983      -7.44029194E-08
   44.0699997      -7.39407113E-08
   44.1300011      -7.34381516E-08
   44.1899986      -7.29501437E-08
   44.2500000      -7.25498950E-08
   44.3100014      -7.23118490E-08
   44.3699989      -7.22926856E-08
   44.4300003      -7.25154905E-08
   44.4900017      -7.29614982E-08
   44.5499992      -7.35712788E-08
   44.6100006      -7.42552118E-08
   44.6699982      -7.49103393E-08
   44.7299995      -7.54395018E-08
   44.7900009      -7.57681278E-08
   44.8499985      -7.58548140E-08
   44.9099998      -7.56935918E-08
   44.9700012      -7.53079448E-08
   45.0299988      -7.47387929E-08
   45.0900002      -7.40300550E-08
   45.1500015      -7.32158227E-08
   45.2099991      -7.23123534E-08
   45.2700005      -7.13166699E-08
   45.3300018      -7.02113923E-08
   45.3899994      -6.89740389E-08
   45.4500008      -6.75875285E-08
   45.5099983      -6.60488482E-08
   45.5699997      -6.43731823E-08
   45.6300011      -6.25925978E-08
   45.6899986      -6.07498478E-08
   45.7500000      -5.88896611E-08
   45.8100014      -5.70504284E-08
   45.8699989      -5.52589192E-08
   45.9300003      -5.35294902E-08
   45.9900017      -5.18673744E-08
   46.0499992      -5.02742701E-08
   46.1100006      -4.87537690E-08
   46.1699982      -4.73146393E-08
   46.2299995      -4.59710847E-08
   46.2900009      -4.47403501E-08
   46.3499985      -4.36389271E-08
   46.4099998      -4.26787174E-08
   46.4700012      -4.18640766E-08
   46.5299988      -4.11900984E-08
   46.5900002      -4.06421954E-08
   46.6500015      -4.01969409E-08
   46.7099991      -3.98245419E-08
   46.7700005      -3.94930915E-08
   46.8300018      -3.91745729E-08
   46.8899994      -3.88516099E-08
   46.9500008      -3.85233072E-08
   47.0099983      -3.82079897E-08
   47.0699997      -3.79412626E-08
   47.1300011      -3.77690910E-08
   47.1899986      -3.77373048E-08
   47.2500000      -3.78803833E-08
   47.3100014      -3.82130843E-08
   47.3699989      -3.87277339E-08
   47.4300003      -3.93984116E-08
   47.4900017      -4.01908835E-08
   47.5499992      -4.10753209E-08
   47.6100006      -4.20375379E-08
   47.6699982      -4.30850520E-08
   47.7299995      -4.42456702E-08
   47.7900009      -4.55587958E-08
   47.8499985      -4.70619455E-08
   47.9099998      -4.87765277E-08
   47.9700012      -5.06971816E-08
   48.0299988      -5.27879429E-08
   48.0900002      -5.49865184E-08
   48.1500015      -5.72157184E-08
   48.2099991      -5.93990386E-08
   48.2700005      -6.14763209E-08
   48.3300018      -6.34152997E-08
   48.3899994      -6.52158860E-08
   48.4500008      -6.69060540E-08
   48.5099983      -6.85305395E-08
   48.5699997      -7.01361316E-08
   48.6300011      -7.17584356E-08
   48.6899986      -7.34151371E-08
   48.7500000      -7.51085949E-08
   48.8100014      -7.68373809E-08
   48.8699989      -7.86130201E-08
   48.9300003      -8.04759210E-08
   48.9900017      -8.25046413E-08
   49.0499992      -8.48148289E-08
   49.1100006      -8.75482016E-08
   49.1699982      -9.08555009E-08
   49.2299995      -9.48798231E-08
   49.2900009      -9.97466856E-08
   49.3499985      -1.05564993E-07
   49.4099998      -1.12440077E-07
   49.4700012      -1.20495926E-07
   49.5299988      -1.29901736E-07
   49.5900002      -1.40896447E-07
   49.6500015      -1.53805829E-07
   49.7099991      -1.69048761E-07
   49.7700005      -1.87133310E-07
   49.8300018      -2.08645673E-07
   49.8899994      -2.34238826E-07
   49.9500008      -2.64627630E-07
   50.0099983      -3.00595985E-07
   50.0699997      -3.43017263E-07
   50.1300011      -3.92885738E-07
   50.1899986      -4.51352605E-07
   50.2500000      -5.19758771E-07
   50.3100014      -5.99659188E-07
   50.3699989      -6.92837148E-07
   50.4300003      -8.01310648E-07
   50.4900017      -9.27337169E-07
   50.5499992      -1.07342441E-06
   50.6100006      -1.24235055E-06