 -0.750000000       0.00000000    
 -0.689999998       0.00000000    
 -0.629999995       0.00000000    
 -0.569999993       0.00000000    
 -0.509999990       0.00000000    
 -0.449999988       0.00000000    
 -0.389999986       0.00000000    
 -0.330000013       0.00000000    
 -0.270000011       0.00000000    
 -0.209999993       0.00000000    
 -0.150000006      -4.95383224E-30
  -9.00000036E-02  -6.17073612E-29
  -2.99999993E-02  -3.57949897E-28
   2.99999993E-02  -1.19402591E-27
   9.00000036E-02  -1.97035633E-27
  0.150000006       2.08820630E-27
  0.209999993       2.41161296E-26
  0.270000011       8.04683853E-26
  0.330000013       1.55551143E-25
  0.389999986       1.26427286E-25
  0.449999988      -2.98542807E-25
  0.509999990      -1.45839210E-24
  0.569999993      -3.21476044E-24
  0.629999995      -4.03936424E-24
  0.689999998      -4.15953783E-25
  0.750000000       1.18774787E-23
  0.810000002       3.29874683E-23
  0.870000005       5.12211866E-23
  0.930000007       3.76311201E-23
  0.990000010      -4.64152535E-23
   1.04999995      -2.17943386E-22
   1.11000001      -4.18815014E-22
   1.16999996      -4.68390870E-22
   1.23000002      -8.27587412E-23
   1.28999996       9.69538881E-22
   1.35000002       2.55549231E-21
   1.40999997       3.82279177E-21
   1.47000003       3.10117908E-21
   1.52999997      -1.52342526E-21
   1.59000003      -1.06947587E-20
   1.64999998      -2.16534332E-20
   1.71000004      -2.67746005E-20
   1.76999998      -1.49031838E-20
   1.83000004       2.26392096E-20
   1.88999999       8.18007567E-20
   1.95000005       1.36064322E-19
   2.00999999       1.36396564E-19
   2.06999993       3.04735115E-20
   2.13000011      -1.97017995E-19
   2.19000006      -4.77864825E-19
   2.25000000      -6.41157309E-19
   2.30999994      -4.61117106E-19
   2.36999989       2.10837443E-19
   2.43000007       1.26762989E-18
   2.49000001       2.22680578E-18
   2.54999995       2.30804381E-18
   2.60999990       7.93881009E-19
   2.67000008      -2.39750732E-18
   2.73000002      -6.20848556E-18
   2.78999996      -8.42337374E-18
   2.84999990      -6.46207722E-18
   2.91000009       1.07161197E-18
   2.97000003       1.27159365E-17
   3.02999997       2.34318099E-17
   3.08999991       2.58638566E-17
   3.15000010       1.38171563E-17
   3.21000004      -1.31718876E-17
   3.26999998      -4.65758073E-17
   3.32999992      -6.96544375E-17
   3.39000010      -6.37079420E-17
   3.45000005      -1.84576652E-17
   3.50999999       5.79433468E-17
   3.56999993       1.35479413E-16
   3.63000011       1.70276267E-16
   3.69000006       1.24101523E-16
   3.75000000      -1.12792727E-17
   3.80999994      -1.96946489E-16
   3.86999989      -3.49483597E-16
   3.93000007      -3.69707779E-16
   3.99000001      -1.91555455E-16
   4.05000019       1.68162258E-16
   4.11000013       5.86120065E-16
   4.17000008       8.57806889E-16
   4.23000002       7.76677491E-16
   4.28999996       2.44728015E-16
   4.34999990      -6.33243420E-16
   4.40999985      -1.52855047E-15
   4.46999979      -1.97944527E-15
   4.53000021      -1.58666519E-15
   4.59000015      -2.47188302E-16
   4.65000010       1.68567667E-15
   4.71000004       3.42871970E-15
   4.76999998       4.03386609E-15
   4.82999992       2.83211416E-15
   4.88999987      -1.22405949E-16
   4.94999981      -3.84908204E-15
   5.01000023      -6.66859468E-15
   5.07000017      -6.87855128E-15
   5.13000011      -3.65250644E-15
   5.19000006       2.25712596E-15
   5.25000000       8.45592144E-15
   5.30999994       1.17130748E-14
   5.36999989       9.45803850E-15
   5.42999983       1.36041146E-15
   5.48999977      -9.83641150E-15
   5.55000019      -1.88897732E-14
   5.61000013      -2.01308222E-14
   5.67000008      -1.03533701E-14
   5.73000002       8.77490134E-15
   5.78999996       3.01563211E-14
   5.84999990       4.33275208E-14
   5.90999985       3.87616541E-14
   5.96999979       1.28153578E-14
   6.03000021      -2.89446371E-14
   6.09000015      -7.19905431E-14
   6.15000010      -9.72925963E-14
   6.21000004      -8.87576891E-14
   6.26999998      -4.08203981E-14
   6.32999992       3.71654645E-14
   6.38999987       1.22135876E-13
   6.44999981       1.84349294E-13
   6.51000023       1.97925796E-13
   6.57000017       1.50810151E-13
   6.63000011       4.99912747E-14
   6.69000006      -8.03894915E-14
   6.75000000      -2.07385351E-13
   6.80999994      -3.00463186E-13
   6.86999989      -3.40594116E-13
   6.92999983      -3.23142500E-13
   6.98999977      -2.53540407E-13
   7.05000019      -1.38622647E-13
   7.11000013       2.06824270E-14
   7.17000008       2.29502262E-13
   7.23000002       4.89351832E-13
   7.28999996       7.81379139E-13
   7.34999990       1.05056805E-12
   7.40999985       1.20144552E-12
   7.46999979       1.11363859E-12
   7.53000021       6.78697658E-13
   7.59000015      -1.49883551E-13
   7.65000010      -1.30983820E-12
   7.71000004      -2.60619347E-12
   7.76999998      -3.72598220E-12
   7.82999992      -4.29654359E-12
   7.88999987      -3.97798244E-12
   7.94999981      -2.56741611E-12
   8.01000023      -8.59623313E-14
   8.06999969       3.17826061E-12
   8.13000011       6.68704588E-12
   8.18999958       9.72921136E-12
   8.25000000       1.15430382E-11
   8.31000042       1.14593196E-11
   8.36999989       9.03826840E-12
   8.43000031       4.17860668E-12
   8.48999977      -2.81431432E-12
   8.55000019      -1.12068532E-11
   8.60999966      -1.98639924E-11
   8.67000008      -2.73281918E-11
   8.72999954      -3.19566769E-11
   8.78999996      -3.21237897E-11
   8.85000038      -2.64876714E-11
   8.90999985      -1.43040536E-11
   8.97000027       4.25326614E-12
   9.02999973       2.78285884E-11
   9.09000015       5.37541019E-11
   9.14999962       7.81265955E-11
   9.21000004       9.61394575E-11
   9.27000046       1.02674327E-10
   9.32999992       9.31023869E-11
   9.39000034       6.41934492E-11
   9.44999981       1.49946028E-11
   9.51000023      -5.24703198E-11
   9.56999969      -1.32811442E-10
   9.63000011      -2.17281373E-10
   9.68999958      -2.94212321E-10
   9.75000000      -3.49852952E-10
   9.81000042      -3.69527575E-10
   9.86999989      -3.39005823E-10
   9.93000031      -2.45956977E-10
   9.98999977      -8.13580731E-11
   10.0500002       1.59269667E-10
   10.1099997       4.74917661E-10
   10.1700001       8.58551175E-10
   10.2299995       1.29707167E-09
   10.2900000       1.77184467E-09
   10.3500004       2.25980834E-09
   10.4099998       2.73510503E-09
   10.4700003       3.17110427E-09
   10.5299997       3.54260887E-09
   10.5900002       3.82800014E-09
   10.6499996       4.01107236E-09
   10.7100000       4.08235667E-09
   10.7700005       4.03980271E-09
   10.8299999       3.88878352E-09
   10.8900003       3.64145336E-09
   10.9499998       3.31554006E-09
   11.0100002       2.93266900E-09
   11.0699997       2.51631094E-09
   11.1300001       2.08947282E-09
   11.1899996       1.67227554E-09
   11.2500000       1.27964794E-09
   11.3100004       9.19424925E-10
   11.3699999       5.91188487E-10
   11.4300003       2.86160068E-10
   11.4899998      -1.16700573E-11
   11.5500002      -3.23195998E-10
   11.6099997      -6.70898170E-10
   11.6700001      -1.07508435E-09
   11.7299995      -1.55029611E-09
   11.7900000      -2.10251305E-09
   11.8500004      -2.72764455E-09
   11.9099998      -3.41155881E-09
   11.9700003      -4.13159595E-09
   12.0299997      -4.85925344E-09
   12.0900002      -5.56354651E-09
   12.1499996      -6.21448315E-09
   12.2100000      -6.78617429E-09
   12.2700005      -7.25921057E-09
   12.3299999      -7.62214381E-09
   12.3900003      -7.87205501E-09
   12.4499998      -8.01427724E-09
   12.5100002      -8.06141731E-09
   12.5699997      -8.03178146E-09
   12.6300001      -7.94730681E-09
   12.6899996      -7.83113130E-09
   12.7500000      -7.70494601E-09
   12.8100004      -7.58637686E-09
   12.8699999      -7.48673390E-09
   12.9300003      -7.40947970E-09
   12.9899998      -7.34973993E-09
   13.0500002      -7.29503480E-09
   13.1099997      -7.22717797E-09
   13.1700001      -7.12503079E-09
   13.2299995      -6.96760782E-09
   13.2900000      -6.73694700E-09
   13.3500004      -6.42024034E-09
   13.4099998      -6.01095751E-09
   13.4700003      -5.50896972E-09
   13.5299997      -4.91995067E-09
   13.5900002      -4.25443103E-09
   13.6499996      -3.52683638E-09
   13.7100000      -2.75461254E-09
   13.7700005      -1.95732119E-09
   13.8299999      -1.15541499E-09
   13.8900003      -3.68430009E-10
   13.9499998       3.87447047E-10
   14.0100002       1.10213227E-09
   14.0699997       1.77409143E-09
   14.1300001       2.41168929E-09
   14.1899996       3.03276093E-09
   14.2500000       3.66209973E-09
   14.3100004       4.32712088E-09
   14.3699999       5.05250686E-09
   14.4300003       5.85503912E-09
   14.4899998       6.73990019E-09
   14.5500002       7.69942687E-09
   14.6099997       8.71475603E-09
   14.6700001       9.76004344E-09
   14.7299995       1.08082832E-08
   14.7900000       1.18373213E-08
   14.8500004       1.28345814E-08
   14.9099998       1.37993208E-08
   14.9700003       1.47418833E-08
   15.0299997       1.56801114E-08
   15.0900002       1.66338054E-08
   15.1499996       1.76185537E-08
   15.2100000       1.86404439E-08
   15.2700005       1.96929495E-08
   15.3299999       2.07568611E-08
   15.3900003       2.18034586E-08
   15.4499998       2.28004335E-08
   15.5100002       2.37193412E-08
   15.5699997       2.45428762E-08
   15.6300001       2.52701042E-08
   15.6899996       2.59180482E-08
   15.7500000       2.65187676E-08
   15.8100004       2.71122129E-08
   15.8699999       2.77362737E-08
   15.9300003       2.84164958E-08
   15.9899998       2.91582261E-08
   16.0499992       2.99435712E-08
   16.1100006       3.07343804E-08
   16.1700001       3.14808233E-08
   16.2299995       3.21335705E-08
   16.2900009       3.26563345E-08
   16.3500004       3.30353060E-08
   16.4099998       3.32826673E-08
   16.4699993       3.34329933E-08
   16.5300007       3.35332579E-08
   16.5900002       3.36291315E-08
   16.6499996       3.37515189E-08
   16.7099991       3.39072379E-08
   16.7700005       3.40769226E-08
   16.8299999       3.42209248E-08
   16.8899994       3.42917517E-08
   16.9500008       3.42494886E-08
   17.0100002       3.40756152E-08
   17.0699997       3.37810135E-08
   17.1299992       3.34057120E-08
   17.1900005       3.30101528E-08
   17.2500000       3.26604521E-08
   17.3099995       3.24117053E-08
   17.3700008       3.22939009E-08
   17.4300003       3.23041647E-08
   17.4899998       3.24072253E-08
   17.5499992       3.25435927E-08
   17.6100006       3.26430651E-08
   17.6700001       3.26398215E-08
   17.7299995       3.24853247E-08
   17.7900009       3.21561302E-08
   17.8500004       3.16553610E-08
   17.9099998       3.10082662E-08
   17.9699993       3.02538474E-08
   18.0300007       2.94350020E-08
   18.0900002       2.85897883E-08
   18.1499996       2.77453758E-08
   18.2099991       2.69154565E-08
   18.2700005       2.61008033E-08
   18.3299999       2.52921257E-08
   18.3899994       2.44741241E-08
   18.4500008       2.36297240E-08
   18.5100002       2.27437269E-08
   18.5699997       2.18053788E-08
   18.6299992       2.08096900E-08
   18.6900005       1.97575680E-08
   18.7500000       1.86551556E-08
   18.8099995       1.75128481E-08
   18.8700008       1.63445364E-08
   18.9300003       1.51672968E-08
   18.9899998       1.40013769E-08
   19.0499992       1.28698243E-08
   19.1100006       1.17970291E-08
   19.1700001       1.08055085E-08
   19.2299995       9.91099292E-09
   19.2900009       9.11665765E-09
   19.3500004       8.40816483E-09
   19.4099998       7.75150255E-09
   19.4699993       7.09525683E-09
   19.5300007       6.37788844E-09
   19.5900002       5.53910118E-09
   19.6499996       4.53281990E-09
   19.7099991       3.33839534E-09
   19.7700005       1.96663397E-09
   19.8299999       4.58438454E-10
   19.8899994      -1.12415088E-09
   19.9500008      -2.71242406E-09
   20.0100002      -4.24710889E-09
   20.0699997      -5.69161340E-09
   20.1299992      -7.03872027E-09
   20.1900005      -8.30906011E-09
   20.2500000      -9.54225055E-09
   20.3099995      -1.07838112E-08
   20.3700008      -1.20721380E-08
   20.4300003      -1.34295446E-08
   20.4899998      -1.48598227E-08
   20.5499992      -1.63524696E-08
   20.6100006      -1.78915247E-08
   20.6700001      -1.94653875E-08
   20.7299995      -2.10738058E-08
   20.7900009      -2.27291590E-08
   20.8500004      -2.44512162E-08
   20.9099998      -2.62568616E-08
   20.9699993      -2.81481558E-08
   21.0300007      -3.01031164E-08
   21.0900002      -3.20728653E-08
   21.1499996      -3.39871029E-08
   21.2099991      -3.57671297E-08
   21.2700005      -3.73431135E-08
   21.3299999      -3.86707200E-08
   21.3899994      -3.97420976E-08
   21.4500008      -4.05877358E-08
   21.5100002      -4.12682972E-08
   21.5699997      -4.18585344E-08
   21.6299992      -4.24275832E-08
   21.6900005      -4.30211173E-08
   21.7500000      -4.36501644E-08
   21.8099995      -4.42896351E-08
   21.8700008      -4.48868818E-08
   21.9300003      -4.53777957E-08
   21.9899998      -4.57060239E-08
   22.0499992      -4.58399398E-08
   22.1100006      -4.57827198E-08
   22.1700001      -4.55727864E-08
   22.2299995      -4.52745965E-08
   22.2900009      -4.49625084E-08
   22.3500004      -4.47023361E-08
   22.4099998      -4.45357138E-08
   22.4699993      -4.44715340E-08
   22.5300007      -4.44863311E-08
   22.5900002      -4.45329782E-08
   22.6499996      -4.45546320E-08
   22.7099991      -4.44995898E-08
   22.7700005      -4.43328325E-08
   22.8299999      -4.40414389E-08
   22.8899994      -4.36331149E-08
   22.9500008      -4.31293188E-08
   23.0100002      -4.25559428E-08
   23.0699997      -4.19350670E-08
   23.1299992      -4.12803765E-08
   23.1900005      -4.05975022E-08
   23.2500000      -3.98885120E-08
   23.3099995      -3.91584187E-08
   23.3700008      -3.84209855E-08
   23.4300003      -3.77014331E-08
   23.4899998      -3.70350151E-08
   23.5499992      -3.64618273E-08
   23.6100006      -3.60194363E-08
   23.6700001      -3.57356669E-08
   23.7299995      -3.56233514E-08
   23.7900009      -3.56782159E-08
   23.8500004      -3.58798893E-08
   23.9099998      -3.61950896E-08
   23.9699993      -3.65816284E-08
   24.0300007      -3.69920343E-08
   24.0900002      -3.73762283E-08
   24.1499996      -3.76834102E-08
   24.2099991      -3.78640479E-08
   24.2700005      -3.78729048E-08
   24.3299999      -3.76736580E-08
   24.3899994      -3.72445861E-08
   24.4500008      -3.65838417E-08
   24.5100002      -3.57121444E-08
   24.5699997      -3.46709541E-08
   24.6299992      -3.35153523E-08
   24.6900005      -3.23026832E-08
   24.7500000      -3.10797432E-08
   24.8099995      -2.98721901E-08
   24.8700008      -2.86795228E-08
   24.9300003      -2.74773964E-08
   24.9899998      -2.62266973E-08
   25.0499992      -2.48867487E-08
   25.1100006      -2.34287931E-08
   25.1700001      -2.18459952E-08
   25.2299995      -2.01575503E-08
   25.2900009      -1.84063218E-08
   25.3500004      -1.66514074E-08
   25.4099998      -1.49581254E-08
   25.4699993      -1.33883526E-08
   25.5300007      -1.19934702E-08
   25.5900002      -1.08110081E-08
   25.6499996      -9.86473392E-09
   25.7099991      -9.16675180E-09
   25.7700005      -8.71977868E-09
   25.8299999      -8.51798010E-09
   25.8899994      -8.54578630E-09
   25.9500008      -8.77536088E-09
   26.0100002      -9.16447984E-09
   26.0699997      -9.65693125E-09
   26.1299992      -1.01869828E-08
   26.1900005      -1.06880567E-08
   26.2500000      -1.11041008E-08
   26.3099995      -1.14008030E-08
   26.3700008      -1.15734062E-08
   26.4300003      -1.16485319E-08
   26.4899998      -1.16790586E-08
   26.5499992      -1.17330279E-08
   26.6100006      -1.18792123E-08
   26.6700001      -1.21728618E-08
   26.7299995      -1.26449171E-08
   26.7900009      -1.32969342E-08
   26.8500004      -1.41022367E-08
   26.9099998      -1.50122776E-08
   26.9699993      -1.59658917E-08
   27.0300007      -1.68988219E-08
   27.0900002      -1.77512991E-08
   27.1499996      -1.84724342E-08
   27.2099991      -1.90215168E-08
   27.2700005      -1.93672083E-08
   27.3299999      -1.94862046E-08
   27.3899994      -1.93627265E-08
   27.4500008      -1.89895975E-08
   27.5100002      -1.83707822E-08
   27.5699997      -1.75244423E-08
   27.6299992      -1.64851226E-08
   27.6900005      -1.53036268E-08
   27.7500000      -1.40435530E-08
   27.8099995      -1.27743487E-08
   27.8700008      -1.15617409E-08
   27.9300003      -1.04574278E-08
   27.9899998      -9.49053813E-09
   28.0499992      -8.66331540E-09
   28.1100006      -7.95262078E-09
   28.1700001      -7.31729521E-09
   28.2299995      -6.70967815E-09
   28.2900009      -6.08820505E-09
   28.3500004      -5.42758682E-09
   28.4099998      -4.72382444E-09
   28.4699993      -3.99299216E-09
   28.5300007      -3.26472449E-09
   28.5900002      -2.57291877E-09
   28.6499996      -1.94679917E-09
   28.7099991      -1.40500800E-09
   28.7700005      -9.54119339E-10
   28.8299999      -5.91418969E-10
   28.8899994      -3.10514198E-10
   28.9500008      -1.07665273E-10
   29.0100002       1.32783671E-11
   29.0699997       3.89046469E-11
   29.1299992      -5.20904223E-11
   29.1900005      -2.83923052E-10
   29.2500000      -6.76738499E-10
   29.3099995      -1.23961574E-09
   29.3700008      -1.96577110E-09
   29.4300003      -2.83174106E-09
   29.4899998      -3.80127529E-09
   29.5499992      -4.83322493E-09
   29.6100006      -5.89134919E-09
   29.6700001      -6.95317226E-09
   29.7299995      -8.01513789E-09
   29.7900009      -9.09233933E-09
   29.8500004      -1.02127391E-08
   29.9099998      -1.14074519E-08
   29.9699993      -1.26998358E-08
   30.0300007      -1.40964360E-08
   30.0900002      -1.55822608E-08
   30.1499996      -1.71215930E-08
   30.2099991      -1.86640321E-08
   30.2700005      -2.01541557E-08
   30.3299999      -2.15422240E-08
   30.3899994      -2.27932375E-08
   30.4500008      -2.38921736E-08
   30.5100002      -2.48442600E-08
   30.5699997      -2.56706034E-08
   30.6299992      -2.64007447E-08
   30.6900005      -2.70645284E-08
   30.7500000      -2.76858501E-08
   30.8099995      -2.82800148E-08
   30.8700008      -2.88552133E-08
   30.9300003      -2.94170359E-08
   30.9899998      -2.99738829E-08
   31.0499992      -3.05407610E-08
   31.1100006      -3.11395638E-08
   31.1700001      -3.17954019E-08
   31.2299995      -3.25301919E-08
   31.2900009      -3.33559669E-08
   31.3500004      -3.42706734E-08
   31.4099998      -3.52583776E-08
   31.4699993      -3.62941535E-08
   31.5300007      -3.73520308E-08
   31.5900002      -3.84130665E-08
   31.6499996      -3.94704784E-08
   31.7099991      -4.05298621E-08
   31.7700005      -4.16042205E-08
   31.8299999      -4.27056150E-08
   31.8899994      -4.38364225E-08
   31.9500008      -4.49834481E-08
   32.0099983      -4.61170870E-08
   32.0699997      -4.71963126E-08
   32.1300011      -4.81781690E-08
   32.1899986      -4.90291967E-08
   32.2500000      -4.97353874E-08
   32.3100014      -5.03076087E-08
   32.3699989      -5.07806277E-08
   32.4300003      -5.12056921E-08
   32.4900017      -5.16386542E-08
   32.5499992      -5.21271453E-08
   32.6100006      -5.27007167E-08
   32.6699982      -5.33669464E-08
   32.7299995      -5.41145013E-08
   32.7900009      -5.49215997E-08
   32.8499985      -5.57664599E-08
   32.9099998      -5.66356100E-08
   32.9700012      -5.75269432E-08
   33.0299988      -5.84464317E-08
   33.0900002      -5.93999268E-08
   33.1500015      -6.03832717E-08
   33.2099991      -6.13746849E-08
   33.2700005      -6.23325391E-08
   33.3300018      -6.32000265E-08
   33.3899994      -6.39158131E-08
   33.4500008      -6.44278657E-08
   33.5099983      -6.47063914E-08
   33.5699997      -6.47515606E-08
   33.6300011      -6.45933369E-08
   33.6899986      -6.42827089E-08
   33.7500000      -6.38766764E-08
   33.8100014      -6.34213038E-08
   33.8699989      -6.29384544E-08
   33.9300003      -6.24203764E-08
   33.9900017      -6.18343634E-08
   34.0499992      -6.11358502E-08
   34.1100006      -6.02860126E-08
   34.1699982      -5.92682419E-08
   34.2299995      -5.80983368E-08
   34.2900009      -5.68254030E-08
   34.3499985      -5.55231559E-08
   34.4099998      -5.42740999E-08
   34.4700012      -5.31509379E-08
   34.5299988      -5.22002459E-08
   34.5900002      -5.14327390E-08
   34.6500015      -5.08227096E-08
   34.7099991      -5.03167534E-08
   34.7700005      -4.98493584E-08
   34.8300018      -4.93610095E-08
   34.8899994      -4.88138276E-08
   34.9500008      -4.82002989E-08
   35.0099983      -4.75428159E-08
   35.0699997      -4.68843560E-08
   35.1300011      -4.62730618E-08
   35.1899986      -4.57453844E-08
   35.2500000      -4.53126248E-08
   35.3100014      -4.49549518E-08
   35.3699989      -4.46249295E-08
   35.4300003      -4.42599770E-08
   35.4900017      -4.38006751E-08
   35.5499992      -4.32098695E-08
   35.6100006      -4.24869171E-08
   35.6699982      -4.16723154E-08
   35.7299995      -4.08405860E-08
   35.7900009      -4.00827815E-08
   35.8499985      -3.94834068E-08
   35.9099998      -3.90985342E-08
   35.9700012      -3.89418204E-08
   36.0299988      -3.89826802E-08
   36.0900002      -3.91569941E-08
   36.1500015      -3.93868014E-08
   36.2099991      -3.96026500E-08
   36.2700005      -3.97618933E-08
   36.3300018      -3.98576425E-08
   36.3899994      -3.99163440E-08
   36.4500008      -3.99853413E-08
   36.5099983      -4.01146742E-08
   36.5699997      -4.03387119E-08
   36.6300011      -4.06630747E-08
   36.6899986      -4.10605523E-08
   36.7500000      -4.14772074E-08
   36.8100014      -4.18466222E-08
   36.8699989      -4.21080415E-08
   36.9300003      -4.22227906E-08
   36.9900017      -4.21838848E-08
   37.0499992      -4.20159267E-08
   37.1100006      -4.17654675E-08
   37.1699982      -4.14852295E-08
   37.2299995      -4.12174721E-08
   37.2900009      -4.09819414E-08
   37.3499985      -4.07720684E-08
   37.4099998      -4.05602023E-08
   37.4700012      -4.03095903E-08
   37.5299988      -3.99888549E-08
   37.5900002      -3.95841084E-08
   37.6500015      -3.91049895E-08
   37.7099991      -3.85828223E-08
   37.7700005      -3.80614367E-08
   37.8300018      -3.75834155E-08
   37.8899994      -3.71755888E-08
   37.9500008      -3.68381272E-08
   38.0099983      -3.65407793E-08
   38.0699997      -3.62280730E-08
   38.1300011      -3.58328300E-08
   38.1899986      -3.52947289E-08
   38.2500000      -3.45786795E-08
   38.3100014      -3.36873178E-08
   38.3699989      -3.26630882E-08
   38.4300003      -3.15785975E-08
   38.4900017      -3.05176400E-08
   38.5499992      -2.95524156E-08
   38.6100006      -2.87242976E-08
   38.6699982      -2.80343606E-08
   38.7299995      -2.74469709E-08
   38.7900009      -2.69054610E-08
   38.8499985      -2.63547193E-08
   38.9099998      -2.57632689E-08
   38.9700012      -2.51371670E-08
   39.0299988      -2.45207712E-08
   39.0900002      -2.39835458E-08
   39.1500015      -2.35968507E-08
   39.2099991      -2.34081909E-08
   39.2700005      -2.34216770E-08
   39.3300018      -2.35917490E-08
   39.3899994      -2.38330635E-08
   39.4500008      -2.40441267E-08
   39.5099983      -2.41374263E-08
   39.5699997      -2.40663418E-08
   39.6300011      -2.38398385E-08
   39.6899986      -2.35197923E-08
   39.7500000      -2.32014976E-08
   39.8100014      -2.29835901E-08
   39.8699989      -2.29372255E-08
   39.9300003      -2.30847128E-08
   39.9900017      -2.33946729E-08
   40.0499992      -2.37952715E-08
   40.1100006      -2.42010536E-08
   40.1699982      -2.45442049E-08
   40.2299995      -2.47997018E-08
   40.2900009      -2.49956660E-08
   40.3499985      -2.52052779E-08
   40.4099998      -2.55227413E-08
   40.4700012      -2.60311577E-08
   40.5299988      -2.67729288E-08
   40.5900002      -2.77326233E-08
   40.6500015      -2.88381479E-08
   40.7099991      -2.99801854E-08
   40.7700005      -3.10438750E-08
   40.8300018      -3.19426725E-08
   40.8899994      -3.26436762E-08
   40.9500008      -3.31762671E-08
   41.0099983      -3.36212622E-08
   41.0699997      -3.40841062E-08
   41.1300011      -3.46605624E-08
   41.1899986      -3.54058756E-08
   41.2500000      -3.63171537E-08
   41.3100014      -3.73344555E-08
   41.3699989      -3.83599534E-08
   41.4300003      -3.92889490E-08
   41.4900017      -4.00425151E-08
   41.5499992      -4.05914129E-08
   41.6100006      -4.09637479E-08
   41.6699982      -4.12340206E-08
   41.7299995      -4.14973513E-08
   41.7900009      -4.18372075E-08
   41.8499985      -4.22969428E-08
   41.9099998      -4.28642046E-08
   41.9700012      -4.34731859E-08
   42.0299988      -4.40237677E-08
   42.0900002      -4.44114470E-08
   42.1500015      -4.45583694E-08
   42.2099991      -4.44355628E-08
   42.2700005      -4.40696120E-08
   42.3300018      -4.35320509E-08
   42.3899994      -4.29155094E-08
   42.4500008      -4.23047091E-08
   42.5099983      -4.17517754E-08
   42.5699997      -4.12634087E-08
   42.6300011      -4.08033678E-08
   42.6899986      -4.03086489E-08
   42.7500000      -3.97134343E-08
   42.8100014      -3.89727184E-08
   42.8699989      -3.80778324E-08
   42.9300003      -3.70588040E-08
   42.9900017      -3.59729206E-08
   43.0499992      -3.48833993E-08
   43.1100006      -3.38356401E-08
   43.1699982      -3.28395124E-08
   43.2299995      -3.18644453E-08
   43.2900009      -3.08496908E-08
   43.3499985      -2.97266816E-08
   43.4099998      -2.84459833E-08
   43.4700012      -2.69992686E-08
   43.5299988      -2.54284576E-08
   43.5900002      -2.38184725E-08
   43.6500015      -2.22758203E-08
   43.7099991      -2.08999396E-08
   43.7700005      -1.97565324E-08
   43.8300018      -1.88612255E-08
   43.8899994      -1.81783903E-08
   43.9500008      -1.76351573E-08
   44.0099983      -1.71461174E-08
   44.0699997      -1.66409944E-08
   44.1300011      -1.60867994E-08
   44.1899986      -1.54975641E-08
   44.2500000      -1.49285011E-08
   44.3100014      -1.44562202E-08
   44.3699989      -1.41512917E-08
   44.4300003      -1.40521283E-08
   44.4900017      -1.41490704E-08
   44.5499992      -1.43843524E-08
   44.6100006      -1.46683314E-08
   44.6699982      -1.49068118E-08
   44.7299995      -1.50304764E-08
   44.7900009      -1.50167576E-08
   44.8499985      -1.48970773E-08
   44.9099998      -1.47473527E-08
   44.9700012      -1.46650878E-08
   45.0299988      -1.47405688E-08
   45.0900002      -1.50312740E-08
   45.1500015      -1.55472115E-08
   45.2099991      -1.62511746E-08
   45.2700005      -1.70730257E-08
   45.3300018      -1.79326634E-08
   45.3899994      -1.87638438E-08
   45.4500008      -1.95311305E-08
   45.5099983      -2.02349781E-08
   45.5699997      -2.09043680E-08
   45.6300011      -2.15805933E-08
   45.6899986      -2.22987389E-08
   45.7500000      -2.30735058E-08
   45.8100014      -2.38939659E-08
   45.8699989      -2.47282692E-08
   45.9300003      -2.55356944E-08
   45.9900017      -2.62812190E-08
   46.0499992      -2.69472960E-08
   46.1100006      -2.75390324E-08
   46.1699982      -2.80813257E-08
   46.2299995      -2.86093105E-08
   46.2900009      -2.91555047E-08
   46.3499985      -2.97379810E-08
   46.4099998      -3.03534939E-08
   46.4700012      -3.09777235E-08
   46.5299988      -3.15725615E-08
   46.5900002      -3.20979474E-08
   46.6500015      -3.25243796E-08
   46.7099991      -3.28421059E-08
   46.7700005      -3.30643068E-08
   46.8300018      -3.32236674E-08
   46.8899994      -3.33638006E-08
   46.9500008      -3.35284263E-08
   47.0099983      -3.37513413E-08
   47.0699997      -3.40495845E-08
   47.1300011      -3.44210669E-08
   47.1899986      -3.48466251E-08
   47.2500000      -3.52956242E-08
   47.3100014      -3.57336347E-08
   47.3699989      -3.61302952E-08
   47.4300003      -3.64656039E-08
   47.4900017      -3.67330806E-08
   47.5499992      -3.69392694E-08
   47.6100006      -3.70998983E-08
   47.6699982      -3.72341376E-08
   47.7299995      -3.73588946E-08
   47.7900009      -3.74849698E-08
   47.8499985      -3.76160294E-08
   47.9099998      -3.77503113E-08
   47.9700012      -3.78840355E-08
   48.0299988      -3.80149174E-08
   48.0900002      -3.81445631E-08
   48.1500015      -3.82788059E-08
   48.2099991      -3.84261511E-08
   48.2700005      -3.85950791E-08
   48.3300018      -3.87913879E-08
   48.3899994      -3.90169284E-08
   48.4500008      -3.92704216E-08
   48.5099983      -3.95505175E-08
   48.5699997      -3.98601578E-08
   48.6300011      -4.02106650E-08
   48.6899986      -4.06238385E-08
   48.7500000      -4.11309600E-08
   48.8100014      -4.17687858E-08
   48.8699989      -4.25739195E-08
   48.9300003      -4.35779270E-08
   48.9900017      -4.48056099E-08
   49.0499992      -4.62777336E-08
   49.1100006      -4.80180660E-08
   49.1699982      -5.00629120E-08
   49.2299995      -5.24703800E-08
   49.2900009      -5.53268649E-08
   49.3499985      -5.87493254E-08
   49.4099998      -6.28835721E-08
   49.4700012      -6.79003378E-08
   49.5299988      -7.39914157E-08
   49.5900002      -8.13682774E-08
   49.6500015      -9.02643293E-08
   49.7099991      -1.00940987E-07
   49.7700005      -1.13696771E-07
   49.8300018      -1.28877858E-07
   49.8899994      -1.46888723E-07
   49.9500008      -1.68202078E-07
   50.0099983      -1.93367512E-07
   50.0699997      -2.23019384E-07
   50.1300011      -2.57885006E-07
   50.1899986      -2.98794077E-07
   50.2500000      -3.46690967E-07
   50.3100014      -4.02649846E-07
   50.3699989      -4.67892477E-07
   50.4300003      -5.43806891E-07
   50.4900017      -6.31965293E-07
   50.5499992      -7.34140031E-07
   50.6100006      -8.52317100E-07