 -0.750000000       0.00000000    
 -0.689999998       0.00000000    
 -0.629999995       0.00000000    
 -0.569999993       0.00000000    
 -0.509999990       0.00000000    
 -0.449999988       0.00000000    
 -0.389999986       0.00000000    
 -0.330000013       0.00000000    
 -0.270000011       0.00000000    
 -0.209999993       0.00000000    
 -0.150000006       0.00000000    
  -9.00000036E-02   0.00000000    
  -2.99999993E-02   1.00750537E-33
   2.99999993E-02   1.09190003E-32
   9.00000036E-02   3.58880894E-32
  0.150000006      -1.24398371E-31
  0.209999993      -1.77567261E-30
  0.270000011      -8.81435468E-30
  0.330000013      -2.48088681E-29
  0.389999986      -2.94762194E-29
  0.449999988       8.40323017E-29
  0.509999990       5.70652561E-28
  0.569999993       1.67109571E-27
  0.629999995       2.78245493E-27
  0.689999998       7.41645673E-28
  0.750000000      -1.14800470E-26
  0.810000002      -4.13162201E-26
  0.870000005      -8.18952436E-26
  0.930000007      -8.50342197E-26
  0.990000010       5.86884287E-26
   1.04999995       4.81528289E-25
   1.11000001       1.17719001E-24
   1.16999996       1.71371946E-24
   1.23000002       9.98515581E-25
   1.28999996      -2.48289158E-24
   1.35000002      -9.45638885E-24
   1.40999997      -1.76274598E-23
   1.47000003      -1.95544782E-23
   1.52999997      -3.25372307E-24
   1.59000003       4.13199852E-23
   1.64999998       1.09055842E-22
   1.71000004       1.64881358E-22
   1.76999998       1.40318047E-22
   1.83000004      -4.19265119E-23
   1.88999999      -4.07015624E-22
   1.95000005      -8.47368283E-22
   2.00999999      -1.07417470E-21
   2.06999993      -6.76175268E-22
   2.13000011       6.59442379E-22
   2.19000006       2.79570669E-21
   2.25000000       4.83451767E-21
   2.30999994       5.13615143E-21
   2.36999989       1.94634265E-21
   2.43000007      -5.34496203E-21
   2.49000001      -1.47754071E-20
   2.54999995      -2.11944369E-20
   2.60999990      -1.76013468E-20
   2.67000008       1.04288522E-21
   2.73000002       3.25381608E-20
   2.78999996       6.36345457E-20
   2.84999990       7.17116930E-20
   2.91000009       3.47297047E-20
   2.97000003      -5.20942129E-20
   3.02999997      -1.60680157E-19
   3.08999991      -2.27998145E-19
   3.15000010      -1.78270334E-19
   3.21000004       3.07577417E-20
   3.26999998       3.55728169E-19
   3.32999992       6.43928054E-19
   3.39000010       6.72573008E-19
   3.45000005       2.61228445E-19
   3.50999999      -5.78819375E-19
   3.56999993      -1.54117717E-18
   3.63000011      -2.06376951E-18
   3.69000006      -1.56162725E-18
   3.75000000       2.01489823E-19
   3.80999994       2.77794505E-18
   3.86999989       4.97504388E-18
   3.93000007       5.24030788E-18
   3.99000001       2.45931363E-18
   4.05000019      -3.14380352E-18
   4.11000013      -9.51366231E-18
   4.17000008      -1.31604485E-17
   4.23000002      -1.05977255E-17
   4.28999996      -4.21901248E-19
   4.34999990       1.49028714E-17
   4.40999985       2.87077101E-17
   4.46999979       3.20466048E-17
   4.53000021       1.77921355E-17
   4.59000015      -1.44253499E-17
   4.65000010      -5.47930559E-17
   4.71000004      -8.39931833E-17
   4.76999998      -7.95291609E-17
   4.82999992      -2.68893091E-17
   4.88999987       6.83302934E-17
   4.94999981       1.73687375E-16
   5.01000023       2.35042987E-16
   5.07000017       1.96605916E-16
   5.13000011       3.17754716E-17
   5.19000006      -2.27735899E-16
   5.25000000      -4.82340212E-16
   5.30999994      -5.89676545E-16
   5.36999989      -4.26165437E-16
   5.42999983       3.42097582E-17
   5.48999977       6.62498720E-16
   5.55000019       1.18218726E-15
   5.61000013       1.26525695E-15
   5.67000008       6.97904803E-16
   5.73000002      -4.52777491E-16
   5.78999996      -1.76853693E-15
   5.84999990      -2.58481040E-15
   5.90999985      -2.27599934E-15
   5.96999979      -6.22073649E-16
   6.03000021       1.92623085E-15
   6.09000015       4.27138979E-15
   6.15000010       5.06613963E-15
   6.21000004       3.37995305E-15
   6.26999998      -6.56334861E-16
   6.32999992      -5.59679476E-15
   6.38999987      -9.07611727E-15
   6.44999981      -8.82348631E-15
   6.51000023      -3.90974442E-15
   6.57000017       4.39068803E-15
   6.63000011       1.26922517E-14
   6.69000006       1.67379911E-14
   6.75000000       1.34057736E-14
   6.80999994       2.59816917E-15
   6.86999989      -1.20069487E-14
   6.92999983      -2.39916170E-14
   6.98999977      -2.68656930E-14
   7.05000019      -1.73306888E-14
   7.11000013       2.41519396E-15
   7.17000008       2.46971074E-14
   7.23000002       3.91466678E-14
   7.28999996       3.73622303E-14
   7.34999990       1.74468611E-14
   7.40999985      -1.38775261E-14
   7.46999979      -4.30801126E-14
   7.53000021      -5.53635168E-14
   7.59000015      -4.18525823E-14
   7.65000010      -5.14820569E-15
   7.71000004       3.98248498E-14
   7.76999998       7.09905970E-14
   7.82999992       6.89099927E-14
   7.88999987       2.72447690E-14
   7.94999981      -4.11353318E-14
   8.01000023      -1.06294720E-13
   8.06999969      -1.32281325E-13
   8.13000011      -9.35718788E-14
   8.18999958       9.88243335E-15
   8.25000000       1.46474385E-13
   8.31000042       2.60343342E-13
   8.36999989       2.91605661E-13
   8.43000031       2.02554133E-13
   8.48999977      -9.94129642E-16
   8.55000019      -2.63621156E-13
   8.60999966      -4.94651737E-13
   8.67000008      -5.99639099E-13
   8.72999954      -5.17608688E-13
   8.78999996      -2.48714542E-13
   8.85000038       1.40468569E-13
   8.90999985       5.38087587E-13
   8.97000027       8.27182615E-13
   9.02999973       9.28326751E-13
   9.09000015       8.25937138E-13
   9.14999962       5.65959768E-13
   9.21000004       2.25679406E-13
   9.27000046      -1.29600066E-13
   9.32999992      -4.80093667E-13
   9.39000034      -8.54825596E-13
   9.44999981      -1.29754074E-12
   9.51000023      -1.80733824E-12
   9.56999969      -2.28273368E-12
   9.63000011      -2.50327471E-12
   9.68999958      -2.17258785E-12
   9.75000000      -1.02292914E-12
   9.81000042       1.04734851E-12
   9.86999989       3.85350172E-12
   9.93000031       6.87524950E-12
   9.98999977       9.31508776E-12
   10.0500002       1.02659504E-11
   10.1099997       8.95124599E-12
   10.1700001       4.97186493E-12
   10.2299995      -1.51193966E-12
   10.2900000      -9.71800418E-12
   10.3500004      -1.83180433E-11
   10.4099998      -2.56322533E-11
   10.4700003      -2.98959989E-11
   10.5299997      -2.95449915E-11
   10.5900002      -2.34777510E-11
   10.6499996      -1.12760235E-11
   10.7100000       6.61934960E-12
   10.7700005       2.87781396E-11
   10.8299999       5.27138611E-11
   10.8900003       7.49237200E-11
   10.9499998       9.10972964E-11
   11.0100002       9.65501568E-11
   11.0699997       8.69001190E-11
   11.1300001       5.89371191E-11
   11.1899996       1.15609163E-11
   11.2500000      -5.33978556E-11
   11.3100004      -1.30674860E-10
   11.3699999      -2.11549001E-10
   11.4300003      -2.84370083E-10
   11.4899998      -3.35590361E-10
   11.5500002      -3.51144142E-10
   11.6099997      -3.17954107E-10
   11.6700001      -2.25339969E-10
   11.7299995      -6.61621591E-11
   11.7900000       1.62376737E-10
   11.8500004       4.58265037E-10
   11.9099998       8.14498857E-10
   11.9700003       1.21914323E-09
   12.0299997       1.65565672E-09
   12.0900002       2.10356110E-09
   12.1499996       2.53955701E-09
   12.2100000       2.93914848E-09
   12.2700005       3.27870331E-09
   12.3299999       3.53771679E-09
   12.3900003       3.70090336E-09
   12.4499998       3.75967835E-09
   12.5100002       3.71266795E-09
   12.5699997       3.56508201E-09
   12.6300001       3.32706263E-09
   12.6899996       3.01138314E-09
   12.7500000       2.63105382E-09
   12.8100004       2.19738250E-09
   12.8699999       1.71890990E-09
   12.9300003       1.20134702E-09
   12.9899998       6.48366194E-10
   13.0500002       6.28767802E-11
   13.1099997      -5.51658941E-10
   13.1700001      -1.19022858E-09
   13.2299995      -1.84576265E-09
   13.2900000      -2.50908117E-09
   13.3500004      -3.16912141E-09
   13.4099998      -3.81326393E-09
   13.4700003      -4.42767512E-09
   13.5299997      -4.99773734E-09
   13.5900002      -5.50875257E-09
   13.6499996      -5.94708816E-09
   13.7100000      -6.30178443E-09
   13.7700005      -6.56640475E-09
   13.8299999      -6.74068312E-09
   13.8900003      -6.83141987E-09
   13.9499998      -6.85216772E-09
   14.0100002      -6.82154511E-09
   14.0699997      -6.76036560E-09
   14.1300001      -6.68817401E-09
   14.1899996      -6.61994370E-09
   14.2500000      -6.56371890E-09
   14.3100004      -6.51972565E-09
   14.3699999      -6.48113874E-09
   14.4300003      -6.43627018E-09
   14.4899998      -6.37164899E-09
   14.5500002      -6.27527941E-09
   14.6099997      -6.13940099E-09
   14.6700001      -5.96223249E-09
   14.7299995      -5.74843773E-09
   14.7900000      -5.50835333E-09
   14.8500004      -5.25623323E-09
   14.9099998      -5.00791275E-09
   14.9700003      -4.77834972E-09
   15.0299997      -4.57944438E-09
   15.0900002      -4.41847403E-09
   15.1499996      -4.29737890E-09
   15.2100000      -4.21301127E-09
   15.2700005      -4.15835055E-09
   15.3299999      -4.12446299E-09
   15.3900003      -4.10278567E-09
   15.4499998      -4.08709466E-09
   15.5100002      -4.07444345E-09
   15.5699997      -4.06454204E-09
   15.6300001      -4.05747524E-09
   15.6899996      -4.05032141E-09
   15.7500000      -4.03381240E-09
   15.8100004      -3.99050171E-09
   15.8699999      -3.89567845E-09
   15.9300003      -3.72148268E-09
   15.9899998      -3.44355389E-09
   16.0499992      -3.04844172E-09
   16.1100006      -2.53937094E-09
   16.1700001      -1.93811522E-09
   16.2299995      -1.28172306E-09
   16.2900009      -6.14376328E-10
   16.3500004       2.37072809E-11
   16.4099998       6.07299044E-10
   16.4699993       1.13384746E-09
   16.5300007       1.62536418E-09
   16.5900002       2.12365503E-09
   16.6499996       2.67998734E-09
   16.7099991       3.34194827E-09
   16.7700005       4.14113321E-09
   16.8299999       5.08506970E-09
   16.8899994       6.15554407E-09
   16.9500008       7.31358041E-09
   17.0100002       8.50937543E-09
   17.0699997       9.69409442E-09
   17.1299992       1.08300338E-08
   17.1900005       1.18964181E-08
   17.2500000       1.28895765E-08
   17.3099995       1.38181750E-08
   17.3700008       1.46955994E-08
   17.4300003       1.55323701E-08
   17.4899998       1.63311000E-08
   17.5499992       1.70855063E-08
   17.6100006       1.77833996E-08
   17.6700001       1.84123579E-08
   17.7299995       1.89658955E-08
   17.7900009       1.94479188E-08
   17.8500004       1.98739549E-08
   17.9099998       2.02686650E-08
   17.9699993       2.06603747E-08
   18.0300007       2.10742339E-08
   18.0900002       2.15259632E-08
   18.1499996       2.20179732E-08
   18.2099991       2.25388135E-08
   18.2700005       2.30659758E-08
   18.3299999       2.35711095E-08
   18.3899994       2.40261731E-08
   18.4500008       2.44089371E-08
   18.5100002       2.47067113E-08
   18.5699997       2.49177745E-08
   18.6299992       2.50506567E-08
   18.6900005       2.51217642E-08
   18.7500000       2.51520635E-08
   18.8099995       2.51634091E-08
   18.8700008       2.51751295E-08
   18.9300003       2.52013077E-08
   18.9899998       2.52492836E-08
   19.0499992       2.53196735E-08
   19.1100006       2.54078216E-08
   19.1700001       2.55060932E-08
   19.2299995       2.56059351E-08
   19.2900009       2.56985473E-08
   19.3500004       2.57735167E-08
   19.4099998       2.58157495E-08
   19.4699993       2.58021657E-08
   19.5300007       2.57003592E-08
   19.5900002       2.54711114E-08
   19.6499996       2.50755399E-08
   19.7099991       2.44856935E-08
   19.7700005       2.36956001E-08
   19.8299999       2.27288002E-08
   19.8899994       2.16388809E-08
   19.9500008       2.05013517E-08
   20.0100002       1.93979446E-08
   20.0699997       1.83971807E-08
   20.1299992       1.75365873E-08
   20.1900005       1.68120451E-08
   20.2500000       1.61778893E-08
   20.3099995       1.55584523E-08
   20.3700008       1.48683448E-08
   20.4300003       1.40361349E-08
   20.4899998       1.30249234E-08
   20.5499992       1.18439827E-08
   20.6100006       1.05480469E-08
   20.6700001       9.22421428E-09
   20.7299995       7.96995270E-09
   20.7900009       6.86831347E-09
   20.8500004       5.96732574E-09
   20.9099998       5.26940669E-09
   20.9699993       4.73368278E-09
   21.0300007       4.29018199E-09
   21.0900002       3.86118426E-09
   21.1499996       3.38279715E-09
   21.2099991       2.81989587E-09
   21.2700005       2.16998841E-09
   21.3299999       1.45550971E-09
   21.3899994       7.08140602E-10
   21.4500008      -4.85477665E-11
   21.5100002      -8.11504641E-10
   21.5699997      -1.60118641E-09
   21.6299992      -2.45436893E-09
   21.6900005      -3.40987838E-09
   21.7500000      -4.49284432E-09
   21.8099995      -5.70343195E-09
   21.8700008      -7.01419545E-09
   21.9300003      -8.37711145E-09
   21.9899998      -9.73806369E-09
   22.0499992      -1.10542313E-08
   22.1100006      -1.23089361E-08
   22.1700001      -1.35192542E-08
   22.2299995      -1.47336259E-08
   22.2900009      -1.60193387E-08
   22.3500004      -1.74425203E-08
   22.4099998      -1.90455758E-08
   22.4699993      -2.08280575E-08
   22.5300007      -2.27367245E-08
   22.5900002      -2.46683598E-08
   22.6499996      -2.64856936E-08
   22.7099991      -2.80430132E-08
   22.7700005      -2.92151832E-08
   22.8299999      -2.99227096E-08
   22.8899994      -3.01466514E-08
   22.9500008      -2.99302343E-08
   23.0100002      -2.93677846E-08
   23.0699997      -2.85848127E-08
   23.1299992      -2.77149752E-08
   23.1900005      -2.68793769E-08
   23.2500000      -2.61721382E-08
   23.3099995      -2.56538222E-08
   23.3700008      -2.53521328E-08
   23.4300003      -2.52677932E-08
   23.4899998      -2.53828816E-08
   23.5499992      -2.56691468E-08
   23.6100006      -2.60943711E-08
   23.6700001      -2.66259850E-08
   23.7299995      -2.72319518E-08
   23.7900009      -2.78799455E-08
   23.8500004      -2.85362542E-08
   23.9099998      -2.91658591E-08
   23.9699993      -2.97346059E-08
   24.0300007      -3.02134566E-08
   24.0900002      -3.05837133E-08
   24.1499996      -3.08414592E-08
   24.2099991      -3.09992281E-08
   24.2700005      -3.10836867E-08
   24.3299999      -3.11290762E-08
   24.3899994      -3.11678967E-08
   24.4500008      -3.12211768E-08
   24.5100002      -3.12912363E-08
   24.5699997      -3.13593524E-08
   24.6299992      -3.13893160E-08
   24.6900005      -3.13362101E-08
   24.7500000      -3.11581836E-08
   24.8099995      -3.08279908E-08
   24.8700008      -3.03413152E-08
   24.9300003      -2.97197342E-08
   24.9899998      -2.90077349E-08
   25.0499992      -2.82647115E-08
   25.1100006      -2.75540977E-08
   25.1700001      -2.69322946E-08
   25.2299995      -2.64400413E-08
   25.2900009      -2.60980393E-08
   25.3500004      -2.59075836E-08
   25.4099998      -2.58554937E-08
   25.4699993      -2.59213966E-08
   25.5300007      -2.60846615E-08
   25.5900002      -2.63284825E-08
   25.6499996      -2.66396434E-08
   25.7099991      -2.70043028E-08
   25.7700005      -2.74018941E-08
   25.8299999      -2.78001249E-08
   25.8899994      -2.81538615E-08
   25.9500008      -2.84091879E-08
   26.0100002      -2.85119359E-08
   26.0699997      -2.84182011E-08
   26.1299992      -2.81036527E-08
   26.1900005      -2.75687722E-08
   26.2500000      -2.68385705E-08
   26.3099995      -2.59569717E-08
   26.3700008      -2.49775258E-08
   26.4300003      -2.39529427E-08
   26.4899998      -2.29261090E-08
   26.5499992      -2.19247269E-08
   26.6100006      -2.09606608E-08
   26.6700001      -2.00337240E-08
   26.7299995      -1.91383993E-08
   26.7900009      -1.82710149E-08
   26.8500004      -1.74349797E-08
   26.9099998      -1.66424812E-08
   26.9699993      -1.59125459E-08
   27.0300007      -1.52667852E-08
   27.0900002      -1.47247770E-08
   27.1499996      -1.43008609E-08
   27.2099991      -1.40029961E-08
   27.2700005      -1.38331995E-08
   27.3299999      -1.37884504E-08
   27.3899994      -1.38611256E-08
   27.4500008      -1.40387906E-08
   27.5100002      -1.43040149E-08
   27.5699997      -1.46351971E-08
   27.6299992      -1.50090269E-08
   27.6900005      -1.54043782E-08
   27.7500000      -1.58065969E-08
   27.8099995      -1.62107430E-08
   27.8700008      -1.66224332E-08
   27.9300003      -1.70556760E-08
   27.9899998      -1.75280306E-08
   28.0499992      -1.80543278E-08
   28.1100006      -1.86408666E-08
   28.1700001      -1.92821421E-08
   28.2299995      -1.99615240E-08
   28.2900009      -2.06561559E-08
   28.3500004      -2.13447411E-08
   28.4099998      -2.20156959E-08
   28.4699993      -2.26726620E-08
   28.5300007      -2.33352342E-08
   28.5900002      -2.40343869E-08
   28.6499996      -2.48040486E-08
   28.7099991      -2.56716248E-08
   28.7700005      -2.66505751E-08
   28.8299999      -2.77371548E-08
   28.8899994      -2.89119608E-08
   28.9500008      -3.01453298E-08
   29.0100002      -3.14046567E-08
   29.0699997      -3.26613581E-08
   29.1299992      -3.38956205E-08
   29.1900005      -3.50977452E-08
   29.2500000      -3.62659343E-08
   29.3099995      -3.74013922E-08
   29.3700008      -3.85024919E-08
   29.4300003      -3.95601987E-08
   29.4899998      -4.05566070E-08
   29.5499992      -4.14674268E-08
   29.6100006      -4.22676933E-08
   29.6700001      -4.29386873E-08
   29.7299995      -4.34735554E-08
   29.7900009      -4.38794849E-08
   29.8500004      -4.41757706E-08
   29.9099998      -4.43885497E-08
   29.9699993      -4.45440982E-08
   30.0300007      -4.46629116E-08
   30.0900002      -4.47563409E-08
   30.1499996      -4.48264075E-08
   30.2099991      -4.48685142E-08
   30.2700005      -4.48758861E-08
   30.3299999      -4.48441391E-08
   30.3899994      -4.47745130E-08
   30.4500008      -4.46748096E-08
   30.5100002      -4.45578188E-08
   30.5699997      -4.44378827E-08
   30.6299992      -4.43268817E-08
   30.6900005      -4.42309869E-08
   30.7500000      -4.41490968E-08
   30.8099995      -4.40730581E-08
   30.8700008      -4.39891217E-08
   30.9300003      -4.38797372E-08
   30.9899998      -4.37251408E-08
   31.0499992      -4.35045706E-08
   31.1100006      -4.31976979E-08
   31.1700001      -4.27867057E-08
   31.2299995      -4.22592343E-08
   31.2900009      -4.16119192E-08
   31.3500004      -4.08535747E-08
   31.4099998      -4.00070377E-08
   31.4699993      -3.91088228E-08
   31.5300007      -3.82061494E-08
   31.5900002      -3.73514908E-08
   31.6499996      -3.65954733E-08
   31.7099991      -3.59795180E-08
   31.7700005      -3.55300251E-08
   31.8299999      -3.52557912E-08
   31.8899994      -3.51497640E-08
   31.9500008      -3.51948231E-08
   32.0099983      -3.53719649E-08
   32.0699997      -3.56680161E-08
   32.1300011      -3.60801486E-08
   32.1899986      -3.66151873E-08
   32.2500000      -3.72837725E-08
   32.3100014      -3.80912333E-08
   32.3699989      -3.90283184E-08
   32.4300003      -4.00650926E-08
   32.4900017      -4.11502405E-08
   32.5499992      -4.22163495E-08
   32.6100006      -4.31899529E-08
   32.6699982      -4.40037518E-08
   32.7299995      -4.46079618E-08
   32.7900009      -4.49782362E-08
   32.8499985      -4.51184334E-08
   32.9099998      -4.50579627E-08
   32.9700012      -4.48446258E-08
   33.0299988      -4.45346799E-08
   33.0900002      -4.41824319E-08
   33.1500015      -4.38314309E-08
   33.2099991      -4.35091536E-08
   33.2700005      -4.32263008E-08
   33.3300018      -4.29808438E-08
   33.3899994      -4.27657945E-08
   33.4500008      -4.25782787E-08
   33.5099983      -4.24267235E-08
   33.5699997      -4.23328785E-08
   33.6300011      -4.23267217E-08
   33.6899986      -4.24348165E-08
   33.7500000      -4.26653770E-08
   33.8100014      -4.29954916E-08
   33.8699989      -4.33661533E-08
   33.9300003      -4.36887007E-08
   33.9900017      -4.38626238E-08
   34.0499992      -4.38005117E-08
   34.1100006      -4.34527614E-08
   34.1699982      -4.28240980E-08
   34.2299995      -4.19757740E-08
   34.2900009      -4.10116634E-08
   34.3499985      -4.00513684E-08
   34.4099998      -3.91979462E-08
   34.4700012      -3.85099739E-08
   34.5299988      -3.79867160E-08
   34.5900002      -3.75713967E-08
   34.6500015      -3.71717910E-08
   34.7099991      -3.66916595E-08
   34.7700005      -3.60629926E-08
   34.8300018      -3.52686271E-08
   34.8899994      -3.43483073E-08
   34.9500008      -3.33868115E-08
   35.0099983      -3.24887353E-08
   35.0699997      -3.17485664E-08
   35.1300011      -3.12255501E-08
   35.1899986      -3.09306358E-08
   35.2500000      -3.08285202E-08
   35.3100014      -3.08531085E-08
   35.3699989      -3.09309094E-08
   35.4300003      -3.10050261E-08
   35.4900017      -3.10525721E-08
   35.5499992      -3.10903658E-08
   35.6100006      -3.11674313E-08
   35.6699982      -3.13466906E-08
   35.7299995      -3.16817967E-08
   35.7900009      -3.21968443E-08
   35.8499985      -3.28757110E-08
   35.9099998      -3.36647510E-08
   35.9700012      -3.44877336E-08
   36.0299988      -3.52678491E-08
   36.0900002      -3.59491530E-08
   36.1500015      -3.65105315E-08
   36.2099991      -3.69680713E-08
   36.2700005      -3.73659006E-08
   36.3300018      -3.77590013E-08
   36.3899994      -3.81936935E-08
   36.4500008      -3.86915779E-08
   36.5099983      -3.92412218E-08
   36.5699997      -3.97997617E-08
   36.6300011      -4.03037674E-08
   36.6899986      -4.06864444E-08
   36.7500000      -4.08963672E-08
   36.8100014      -4.09125036E-08
   36.8699989      -4.07510434E-08
   36.9300003      -4.04620373E-08
   36.9900017      -4.01168307E-08
   37.0499992      -3.97902298E-08
   37.1100006      -3.95427584E-08
   37.1699982      -3.94080963E-08
   37.2299995      -3.93888619E-08
   37.2900009      -3.94611526E-08
   37.3499985      -3.95857178E-08
   37.4099998      -3.97220212E-08
   37.4700012      -3.98408950E-08
   37.5299988      -3.99322424E-08
   37.5900002      -4.00055740E-08
   37.6500015      -4.00834637E-08
   37.7099991      -4.01900593E-08
   37.7700005      -4.03388434E-08
   37.8300018      -4.05244052E-08
   37.8899994      -4.07220355E-08
   37.9500008      -4.08962322E-08
   38.0099983      -4.10158307E-08
   38.0699997      -4.10704750E-08
   38.1300011      -4.10820995E-08
   38.1899986      -4.11065741E-08
   38.2500000      -4.12237817E-08
   38.3100014      -4.15185326E-08
   38.3699989      -4.20577315E-08
   38.4300003      -4.28705427E-08
   38.4900017      -4.39375114E-08
   38.5499992      -4.51921558E-08
   38.6100006      -4.65352166E-08
   38.6699982      -4.78584283E-08
   38.7299995      -4.90718755E-08
   38.7900009      -5.01275856E-08
   38.8499985      -5.10323197E-08
   38.9099998      -5.18449994E-08
   38.9700012      -5.26584394E-08
   39.0299988      -5.35701226E-08
   39.0900002      -5.46506449E-08
   39.1500015      -5.59199371E-08
   39.2099991      -5.73392391E-08
   39.2700005      -5.88217688E-08
   39.3300018      -6.02585715E-08
   39.3899994      -6.15507929E-08
   39.4500008      -6.26373975E-08
   39.5099983      -6.35088995E-08
   39.5699997      -6.42027018E-08
   39.6300011      -6.47821281E-08
   39.6899986      -6.53064589E-08
   39.7500000      -6.58027943E-08
   39.8100014      -6.62493136E-08
   39.8699989      -6.65758080E-08
   39.9300003      -6.66813733E-08
   39.9900017      -6.64632225E-08
   40.0499992      -6.58470185E-08
   40.1100006      -6.48086740E-08
   40.1699982      -6.33806323E-08
   40.2299995      -6.16410958E-08
   40.2900009      -5.96905352E-08
   40.3499985      -5.76237120E-08
   40.4099998      -5.55065789E-08
   40.4700012      -5.33649427E-08
   40.5299988      -5.11875484E-08
   40.5900002      -4.89410112E-08
   40.6500015      -4.65904435E-08
   40.7099991      -4.41183552E-08
   40.7700005      -4.15354542E-08
   40.8300018      -3.88802803E-08
   40.8899994      -3.62085295E-08
   40.9500008      -3.35763168E-08
   41.0099983      -3.10237596E-08
   41.0699997      -2.85649762E-08
   41.1300011      -2.61883137E-08
   41.1899986      -2.38668800E-08
   41.2500000      -2.15754703E-08
   41.3100014      -1.93074268E-08
   41.3699989      -1.70846945E-08
   41.4300003      -1.49567967E-08
   41.4900017      -1.29885818E-08
   41.5499992      -1.12408625E-08
   41.6100006      -9.75085790E-09
   41.6699982      -8.51937632E-09
   41.7299995      -7.50931939E-09
   41.7900009      -6.65611566E-09
   41.8499985      -5.88673688E-09
   41.9099998      -5.14126919E-09
   41.9700012      -4.39039871E-09
   42.0299988      -3.64351216E-09
   42.0900002      -2.94500624E-09
   42.1500015      -2.35990361E-09
   42.2099991      -1.95310434E-09
   42.2700005      -1.76864390E-09
   42.3300018      -1.81548798E-09
   42.3899994      -2.06449680E-09
   42.4500008      -2.45763498E-09
   42.5099983      -2.92641844E-09
   42.5699997      -3.41339401E-09
   42.6300011      -3.88936439E-09
   42.6899986      -4.36056169E-09
   42.7500000      -4.86351937E-09
   42.8100014      -5.44967227E-09
   42.8699989      -6.16521145E-09
   42.9300003      -7.03319047E-09
   42.9900017      -8.04395395E-09
   43.0499992      -9.15702447E-09
   43.1100006      -1.03136468E-08
   43.1699982      -1.14556444E-08
   43.2299995      -1.25441026E-08
   43.2900009      -1.35714933E-08
   43.3499985      -1.45630814E-08
   43.4099998      -1.55671902E-08
   43.4700012      -1.66377081E-08
   43.5299988      -1.78149193E-08
   43.5900002      -1.91111447E-08
   43.6500015      -2.05057855E-08
   43.7099991      -2.19510046E-08
   43.7700005      -2.33856028E-08
   43.8300018      -2.47522696E-08
   43.8899994      -2.60126392E-08
   43.9500008      -2.71558260E-08
   44.0099983      -2.81984534E-08
   44.0699997      -2.91767712E-08
   44.1300011      -3.01337764E-08
   44.1899986      -3.11054471E-08
   44.2500000      -3.21103286E-08
   44.3100014      -3.31455752E-08
   44.3699989      -3.41903252E-08
   44.4300003      -3.52149101E-08
   44.4900017      -3.61921941E-08
   44.5499992      -3.71067550E-08
   44.6100006      -3.79585501E-08
   44.6699982      -3.87602093E-08
   44.7299995      -3.95296809E-08
   44.7900009      -4.02817477E-08
   44.8499985      -4.10221297E-08
   44.9099998      -4.17460626E-08
   44.9700012      -4.24413642E-08
   45.0299988      -4.30938307E-08
   45.0900002      -4.36925944E-08
   45.1500015      -4.42334418E-08
   45.2099991      -4.47196484E-08
   45.2700005      -4.51608315E-08
   45.3300018      -4.55708147E-08
   45.3899994      -4.59652014E-08
   45.4500008      -4.63589060E-08
   45.5099983      -4.67635957E-08
   45.5699997      -4.71851784E-08
   45.6300011      -4.76217501E-08
   45.6899986      -4.80627662E-08
   45.7500000      -4.84900404E-08
   45.8100014      -4.88807039E-08
   45.8699989      -4.92115966E-08
   45.9300003      -4.94640311E-08
   45.9900017      -4.96275874E-08
   46.0499992      -4.97017965E-08
   46.1100006      -4.96953021E-08
   46.1699982      -4.96226207E-08
   46.2299995      -4.94996435E-08
   46.2900009      -4.93392136E-08
   46.3499985      -4.91481487E-08
   46.4099998      -4.89264025E-08
   46.4700012      -4.86682552E-08
   46.5299988      -4.83646154E-08
   46.5900002      -4.80053366E-08
   46.6500015      -4.75807873E-08
   46.7099991      -4.70825938E-08
   46.7700005      -4.65039989E-08
   46.8300018      -4.58404266E-08
   46.8899994      -4.50903421E-08
   46.9500008      -4.42560690E-08
   47.0099983      -4.33437748E-08
   47.0699997      -4.23624158E-08
   47.1300011      -4.13220533E-08
   47.1899986      -4.02326705E-08
   47.2500000      -3.91043855E-08
   47.3100014      -3.79492491E-08
   47.3699989      -3.67835895E-08
   47.4300003      -3.56291032E-08
   47.4900017      -3.45114728E-08
   47.5499992      -3.34563310E-08
   47.6100006      -3.24840990E-08
   47.6699982      -3.16058326E-08
   47.7299995      -3.08217700E-08
   47.7900009      -3.01227878E-08
   47.8499985      -2.94935489E-08
   47.9099998      -2.89155722E-08
   47.9700012      -2.83691968E-08
   48.0299988      -2.78347478E-08
   48.0900002      -2.72943286E-08
   48.1500015      -2.67354370E-08
   48.2099991      -2.61563979E-08
   48.2700005      -2.55719375E-08
   48.3300018      -2.50163268E-08
   48.3899994      -2.45419773E-08
   48.4500008      -2.42130298E-08
   48.5099983      -2.40954012E-08
   48.5699997      -2.42461109E-08
   48.6300011      -2.47048852E-08
   48.6899986      -2.54903654E-08
   48.7500000      -2.66020805E-08
   48.8100014      -2.80282784E-08
   48.8699989      -2.97586471E-08
   48.9300003      -3.17998357E-08
   48.9900017      -3.41906734E-08
   49.0499992      -3.70132014E-08
   49.1100006      -4.03960598E-08
   49.1699982      -4.45087238E-08
   49.2299995      -4.95480954E-08
   49.2900009      -5.57222997E-08
   49.3499985      -6.32379269E-08
   49.4099998      -7.22966504E-08
   49.4700012      -8.31037710E-08
   49.5299988      -9.58872732E-08
   49.5900002      -1.10922393E-07
   49.6500015      -1.28554987E-07
   49.7099991      -1.49217911E-07
   49.7700005      -1.73437712E-07
   49.8300018      -2.01832222E-07
   49.8899994      -2.35103272E-07
   49.9500008      -2.74030157E-07
   50.0099983      -3.19469905E-07
   50.0699997      -3.72368618E-07
   50.1300011      -4.33784891E-07
   50.1899986      -5.04922809E-07
   50.2500000      -5.87170121E-07
   50.3100014      -6.82132111E-07
   50.3699989      -7.91658067E-07
   50.4300003      -9.17856084E-07
   50.4900017      -1.06309915E-06
   50.5499992      -1.23002792E-06
   50.6100006      -1.42155659E-06