  -2.400000      0.0000000E+00
  -2.340000      0.0000000E+00
  -2.280000      0.0000000E+00
  -2.220000      0.0000000E+00
  -2.160000      0.0000000E+00
  -2.100000      0.0000000E+00
  -2.040000      0.0000000E+00
  -1.980000      0.0000000E+00
  -1.920000      0.0000000E+00
  -1.860000      0.0000000E+00
  -1.800000     -1.1321207E-30
  -1.740000     -1.5103776E-29
  -1.680000     -9.4993082E-29
  -1.620000     -3.5280218E-28
  -1.560000     -7.2334067E-28
  -1.500000      5.0365785E-29
  -1.440000      6.2999564E-27
  -1.380000      2.5583030E-26
  -1.320000      5.9585789E-26
  -1.260000      7.7634594E-26
  -1.200000     -1.7023623E-26
  -1.140000     -3.7212159E-25
  -1.080000     -1.0246068E-24
  -1.020000     -1.5537469E-24
 -0.9600000     -7.7962344E-25
 -0.9000000      2.8463663E-24
 -0.8400000      9.3951693E-24
 -0.7800000      1.4333237E-23
 -0.7200000      6.6520207E-24
 -0.6600000     -2.6653928E-23
 -0.6000000     -8.5360221E-23
 -0.5400000     -1.3353810E-22
 -0.4800000     -8.8187461E-23
 -0.4200000      1.5059226E-22
 -0.3600000      6.0688132E-22
 -0.3000000      1.0988399E-21
 -0.2400000      1.1687570E-21
 -0.1800000      2.1669163E-22
 -0.1200000     -2.0782325E-21
 -5.9999999E-02 -5.1729662E-21
  0.0000000E+00 -7.3190621E-21
  5.9999999E-02 -6.0067526E-21
  0.1200000      5.4507916E-22
  0.1800000      1.1368756E-20
  0.2400000      2.1625779E-20
  0.3000000      2.4073111E-20
  0.3600000      1.3649115E-20
  0.4200000     -6.8449713E-21
  0.4800000     -2.4541845E-20
  0.5400000     -2.2451074E-20
  0.6000000      6.0596562E-21
  0.6600000      4.1687777E-20
  0.7200000      3.6676901E-20
  0.7800000     -6.1813268E-20
  0.8400000     -2.6337082E-19
  0.9000000     -4.8454891E-19
  0.9600000     -5.3918129E-19
   1.020000     -2.0601665E-19
   1.080000      6.2576968E-19
   1.140000      1.7915524E-18
   1.200000      2.7737386E-18
   1.260000      2.8161790E-18
   1.320000      1.2584838E-18
   1.380000     -2.0120145E-18
   1.440000     -6.2116764E-18
   1.500000     -9.6625143E-18
   1.560000     -1.0278148E-17
   1.620000     -6.4418642E-18
   1.680000      2.0481827E-18
   1.740000      1.3402502E-17
   1.800000      2.3978545E-17
   1.860000      2.9216092E-17
   1.920000      2.5138394E-17
   1.980000      9.9692304E-18
   2.040000     -1.4630261E-17
   2.100000     -4.3109600E-17
   2.160000     -6.6633236E-17
   2.220000     -7.4891344E-17
   2.280000     -5.9096959E-17
   2.340000     -1.5787758E-17
   2.400000      4.9556625E-17
   2.460000      1.2072742E-16
   2.520000      1.7269688E-16
   2.580000      1.7833831E-16
   2.640000      1.1914036E-16
   2.700000     -3.4706596E-18
   2.760000     -1.6154533E-16
   2.820000     -3.0394136E-16
   2.880000     -3.7158711E-16
   2.940000     -3.2112994E-16
   3.000000     -1.4775047E-16
   3.060000      1.0460104E-16
   3.120000      3.5407306E-16
   3.180000      5.1233423E-16
   3.240000      5.2441345E-16
   3.300000      3.9677006E-16
   3.360000      1.9493329E-16
   3.420000      5.4385157E-18
   3.480000     -1.2222745E-16
   3.540000     -2.1994485E-16
   3.600000     -3.9536729E-16
   3.660000     -7.6064803E-16
   3.720000     -1.3183637E-15
   3.780000     -1.8663689E-15
   3.840000     -1.9975786E-15
   3.900000     -1.2420023E-15
   3.960000      6.7111924E-16
   4.020000      3.5354912E-15
   4.080000      6.5286864E-15
   4.140000      8.3443138E-15
   4.200000      7.6250507E-15
   4.260000      3.5774242E-15
   4.320000     -3.4759210E-15
   4.380000     -1.1880910E-14
   4.440000     -1.8949747E-14
   4.500000     -2.1749267E-14
   4.560000     -1.8142356E-14
   4.620000     -7.7116446E-15
   4.680000      7.7922940E-15
   4.740000      2.4680580E-14
   4.800000      3.8205330E-14
   4.860000      4.3848019E-14
   4.920000      3.8653600E-14
   4.980000      2.2235824E-14
   5.040000     -2.8393461E-15
   5.100000     -3.1443066E-14
   5.160000     -5.7012900E-14
   5.220000     -7.3178808E-14
   5.280000     -7.5442446E-14
   5.340000     -6.2359907E-14
   5.400000     -3.5767301E-14
   5.460000      7.3986667E-17
   5.520000      4.0033786E-14
   5.580000      7.9557915E-14
   5.640000      1.1511561E-13
   5.700000      1.4323078E-13
   5.760000      1.5857645E-13
   5.820000      1.5251515E-13
   5.880000      1.1379468E-13
   5.940000      3.2449897E-14
   6.000000     -9.3624476E-14
   6.060000     -2.5183867E-13
   6.120000     -4.1139905E-13
   6.180000     -5.2634351E-13
   6.240000     -5.4620279E-13
   6.300000     -4.3213805E-13
   6.360000     -1.7345394E-13
   6.420000      2.0182147E-13
   6.480000      6.2722120E-13
   6.540000      1.0102760E-12
   6.600000      1.2539084E-12
   6.660000      1.2802202E-12
   6.720000      1.0493854E-12
   6.780000      5.6864376E-13
   6.840000     -1.0945992E-13
   6.900000     -8.9646612E-13
   6.960000     -1.6800735E-12
   7.020000     -2.3351245E-12
   7.080000     -2.7330670E-12
   7.140000     -2.7528318E-12
   7.200000     -2.2972013E-12
   7.260000     -1.3164966E-12
   7.320000      1.6344552E-13
   7.380000      2.0171237E-12
   7.440000      4.0096667E-12
   7.500000      5.8104519E-12
   7.560000      7.0332737E-12
   7.620000      7.2989774E-12
   7.680000      6.3102748E-12
   7.740000      3.9253449E-12
   7.800000      2.1691520E-13
   7.860000     -4.4944070E-12
   7.920000     -9.6412661E-12
   7.980000     -1.4451306E-11
   8.040000     -1.8032225E-11
   8.100000     -1.9496849E-11
   8.160000     -1.8116118E-11
   8.220000     -1.3477771E-11
   8.280000     -5.6207404E-12
   8.340000      4.8860538E-12
   8.400000      1.6944446E-11
   8.460000      2.9016062E-11
   8.520000      3.9289343E-11
   8.580000      4.5896779E-11
   8.640000      4.7143442E-11
   8.700000      4.1705181E-11
   8.760000      2.8760782E-11
   8.820000      8.0343744E-12
   8.880000     -2.0259463E-11
   8.940000     -5.5557132E-11
   9.000000     -9.7145306E-11
   9.060000     -1.4437433E-10
   9.120000     -1.9683362E-10
   9.180000     -2.5443964E-10
   9.240000     -3.1740355E-10
   9.300000     -3.8607337E-10
   9.360000     -4.6067894E-10
   9.420000     -5.4103572E-10
   9.480000     -6.2627620E-10
   9.540000     -7.1467038E-10
   9.600000     -8.0357204E-10
   9.660000     -8.8949492E-10
   9.720000     -9.6829988E-10
   9.780000     -1.0354666E-09
   9.840000     -1.0864367E-09
   9.900000     -1.1170330E-09
   9.960000     -1.1239701E-09
   10.02000     -1.1054504E-09
   10.08000     -1.0617998E-09
   10.14000     -9.9603092E-10
   10.20000     -9.1418406E-10
   10.26000     -8.2528584E-10
   10.32000     -7.4082945E-10
   10.38000     -6.7377420E-10
   10.44000     -6.3719163E-10
   10.50000     -6.4278510E-10
   10.56000     -6.9956402E-10
   10.62000     -8.1294727E-10
   10.68000     -9.8450292E-10
   10.74000     -1.2124380E-09
   10.80000     -1.4928335E-09
   10.86000     -1.8214994E-09
   10.92000     -2.1961983E-09
   10.98000     -2.6188605E-09
   11.04000     -3.0973297E-09
   11.10000     -3.6461367E-09
   11.16000     -4.2858908E-09
   11.22000     -5.0410707E-09
   11.28000     -5.9363221E-09
   11.34000     -6.9917054E-09
   11.40000     -8.2176514E-09
   11.46000     -9.6105461E-09
   11.52000     -1.1149809E-08
   11.58000     -1.2797148E-08
   11.64000     -1.4498268E-08
   11.70000     -1.6186940E-08
   11.76000     -1.7790937E-08
   11.82000     -1.9239097E-08
   11.88000     -2.0468633E-08
   11.94000     -2.1431788E-08
   12.00000     -2.2101053E-08
   12.06000     -2.2472326E-08
   12.12000     -2.2565660E-08
   12.18000     -2.2423443E-08
   12.24000     -2.2106194E-08
   12.30000     -2.1686343E-08
   12.36000     -2.1240520E-08
   12.42000     -2.0841123E-08
   12.48000     -2.0547981E-08
   12.54000     -2.0401062E-08
   12.60000     -2.0415207E-08
   12.66000     -2.0577788E-08
   12.72000     -2.0849976E-08
   12.78000     -2.1171774E-08
   12.84000     -2.1470434E-08
   12.90000     -2.1671143E-08
   12.96000     -2.1708260E-08
   13.02000     -2.1535207E-08
   13.08000     -2.1131262E-08
   13.14000     -2.0504052E-08
   13.20000     -1.9687544E-08
   13.26000     -1.8736124E-08
   13.32000     -1.7716200E-08
   13.38000     -1.6697038E-08
   13.44000     -1.5742391E-08
   13.50000     -1.4904142E-08
   13.56000     -1.4218441E-08
   13.62000     -1.3704317E-08
   13.68000     -1.3364285E-08
   13.74000     -1.3186365E-08
   13.80000     -1.3146916E-08
   13.86000     -1.3213898E-08
   13.92000     -1.3350351E-08
   13.98000     -1.3518020E-08
   14.04000     -1.3681104E-08
   14.10000     -1.3810017E-08
   14.16000     -1.3884895E-08
   14.22000     -1.3898438E-08
   14.28000     -1.3857473E-08
   14.34000     -1.3782679E-08
   14.40000     -1.3706036E-08
   14.46000     -1.3665967E-08
   14.52000     -1.3700602E-08
   14.58000     -1.3840157E-08
   14.64000     -1.4099804E-08
   14.70000     -1.4474578E-08
   14.76000     -1.4937680E-08
   14.82000     -1.5442961E-08
   14.88000     -1.5931596E-08
   14.94000     -1.6341907E-08
   15.00000     -1.6620570E-08
   15.06000     -1.6732770E-08
   15.12000     -1.6669050E-08
   15.18000     -1.6447075E-08
   15.24000     -1.6107803E-08
   15.30000     -1.5706892E-08
   15.36000     -1.5303431E-08
   15.42000     -1.4948851E-08
   15.48000     -1.4678731E-08
   15.54000     -1.4509394E-08
   15.60000     -1.4439705E-08
   15.66000     -1.4456931E-08
   15.72000     -1.4544336E-08
   15.78000     -1.4687711E-08
   15.84000     -1.4878573E-08
   15.90000     -1.5112983E-08
   15.96000     -1.5386638E-08
   16.02000     -1.5688334E-08
   16.08000     -1.5994749E-08
   16.14000     -1.6269219E-08
   16.20000     -1.6466005E-08
   16.26000     -1.6539518E-08
   16.32000     -1.6456069E-08
   16.38000     -1.6204400E-08
   16.44000     -1.5801145E-08
   16.50000     -1.5288657E-08
   16.56000     -1.4724902E-08
   16.62000     -1.4167616E-08
   16.68000     -1.3656954E-08
   16.74000     -1.3201584E-08
   16.80000     -1.2772449E-08
   16.86000     -1.2306467E-08
   16.92000     -1.1719723E-08
   16.98000     -1.0927074E-08
   17.04000     -9.8633217E-09
   17.10000     -8.5005052E-09
   17.16000     -6.8568129E-09
   17.22000     -4.9947908E-09
   17.28000     -3.0093730E-09
   17.34000     -1.0091041E-09
   17.40000      9.0423219E-10
   17.46000      2.6520215E-09
   17.52000      4.1870889E-09
   17.58000      5.4923563E-09
   17.64000      6.5715438E-09
   17.70000      7.4360567E-09
   17.76000      8.0931990E-09
   17.82000      8.5400140E-09
   17.88000      8.7647658E-09
   17.94000      8.7551530E-09
   18.00000      8.5098417E-09
   18.06000      8.0485947E-09
   18.12000      7.4166300E-09
   18.18000      6.6805650E-09
   18.24000      5.9159992E-09
   18.30000      5.1895550E-09
   18.36000      4.5402930E-09
   18.42000      3.9662478E-09
   18.48000      3.4209142E-09
   18.54000      2.8220735E-09
   18.60000      2.0718582E-09
   18.66000      1.0833756E-09
   18.72000     -1.9330339E-10
   18.78000     -1.7534838E-09
   18.84000     -3.5343175E-09
   18.90000     -5.4273479E-09
   18.96000     -7.3043132E-09
   19.02000     -9.0493053E-09
   19.08000     -1.0588233E-08
   19.14000     -1.1907164E-08
   19.20000     -1.3054228E-08
   19.26000     -1.4124597E-08
   19.32000     -1.5232906E-08
   19.38000     -1.6481131E-08
   19.44000     -1.7931061E-08
   19.50000     -1.9589022E-08
   19.56000     -2.1406706E-08
   19.62000     -2.3297039E-08
   19.68000     -2.5159618E-08
   19.74000     -2.6907481E-08
   19.80000     -2.8486937E-08
   19.86000     -2.9884863E-08
   19.92000     -3.1122070E-08
   19.98000     -3.2236109E-08
   20.04000     -3.3260111E-08
   20.10000     -3.4205222E-08
   20.16000     -3.5052540E-08
   20.22000     -3.5756873E-08
   20.28000     -3.6260456E-08
   20.34000     -3.6511548E-08
   20.40000     -3.6481396E-08
   20.46000     -3.6173923E-08
   20.52000     -3.5625177E-08
   20.58000     -3.4892903E-08
   20.64000     -3.4039857E-08
   20.70000     -3.3116258E-08
   20.76000     -3.2146854E-08
   20.82000     -3.1126568E-08
   20.88000     -3.0025831E-08
   20.94000     -2.8803713E-08
   21.00000     -2.7424722E-08
   21.06000     -2.5874007E-08
   21.12000     -2.4166539E-08
   21.18000     -2.2347727E-08
   21.24000     -2.0485567E-08
   21.30000     -1.8656884E-08
   21.36000     -1.6931626E-08
   21.42000     -1.5359465E-08
   21.48000     -1.3961901E-08
   21.54000     -1.2731488E-08
   21.60000     -1.1637858E-08
   21.66000     -1.0638694E-08
   21.72000     -9.6928092E-09
   21.78000     -8.7722070E-09
   21.84000     -7.8703586E-09
   21.90000     -7.0047625E-09
   21.96000     -6.2131837E-09
   22.02000     -5.5442997E-09
   22.08000     -5.0449165E-09
   22.14000     -4.7468633E-09
   22.20000     -4.6570565E-09
   22.26000     -4.7536908E-09
   22.32000     -4.9901256E-09
   22.38000     -5.3059566E-09
   22.44000     -5.6425447E-09
   22.50000     -5.9586212E-09
   22.56000     -6.2411067E-09
   22.62000     -6.5074142E-09
   22.68000     -6.7979977E-09
   22.74000     -7.1610784E-09
   22.80000     -7.6342284E-09
   22.86000     -8.2288159E-09
   22.92000     -8.9226431E-09
   22.98000     -9.6636192E-09
   23.04000     -1.0383797E-08
   23.10000     -1.1019733E-08
   23.16000     -1.1532976E-08
   23.22000     -1.1924224E-08
   23.28000     -1.2236304E-08
   23.34000     -1.2544249E-08
   23.40000     -1.2934467E-08
   23.46000     -1.3478363E-08
   23.52000     -1.4207844E-08
   23.58000     -1.5100136E-08
   23.64000     -1.6077248E-08
   23.70000     -1.7021327E-08
   23.76000     -1.7802481E-08
   23.82000     -1.8311660E-08
   23.88000     -1.8489228E-08
   23.94000     -1.8340957E-08
   24.00000     -1.7936703E-08
   24.06000     -1.7392264E-08
   24.12000     -1.6839833E-08
   24.18000     -1.6395706E-08
   24.24000     -1.6134381E-08
   24.30000     -1.6075937E-08
   24.36000     -1.6189489E-08
   24.42000     -1.6410628E-08
   24.48000     -1.6666860E-08
   24.54000     -1.6902812E-08
   24.60000     -1.7097463E-08
   24.66000     -1.7268226E-08
   24.72000     -1.7461108E-08
   24.78000     -1.7730693E-08
   24.84000     -1.8117104E-08
   24.90000     -1.8628080E-08
   24.96000     -1.9232569E-08
   25.02000     -1.9868242E-08
   25.08000     -2.0460503E-08
   25.14000     -2.0946571E-08
   25.20000     -2.1296485E-08
   25.26000     -2.1523867E-08
   25.32000     -2.1682718E-08
   25.38000     -2.1851115E-08
   25.44000     -2.2106940E-08
   25.50000     -2.2503311E-08
   25.56000     -2.3051525E-08
   25.62000     -2.3716913E-08
   25.68000     -2.4429024E-08
   25.74000     -2.5103020E-08
   25.80000     -2.5665628E-08
   25.86000     -2.6077725E-08
   25.92000     -2.6346687E-08
   25.98000     -2.6525090E-08
   26.04000     -2.6696622E-08
   26.10000     -2.6953950E-08
   26.16000     -2.7375313E-08
   26.22000     -2.8006497E-08
   26.28000     -2.8852558E-08
   26.34000     -2.9880468E-08
   26.40000     -3.1030638E-08
   26.46000     -3.2233089E-08
   26.52000     -3.3423365E-08
   26.58000     -3.4553956E-08
   26.64000     -3.5598685E-08
   26.70000     -3.6549849E-08
   26.76000     -3.7409997E-08
   26.82000     -3.8181767E-08
   26.88000     -3.8859742E-08
   26.94000     -3.9427213E-08
   27.00000     -3.9859117E-08
   27.06000     -4.0129866E-08
   27.12000     -4.0223078E-08
   27.18000     -4.0139469E-08
   27.24000     -3.9899884E-08
   27.30000     -3.9542496E-08
   27.36000     -3.9115054E-08
   27.42000     -3.8665043E-08
   27.48000     -3.8230731E-08
   27.54000     -3.7835630E-08
   27.60000     -3.7487442E-08
   27.66000     -3.7180996E-08
   27.72000     -3.6903739E-08
   27.78000     -3.6641801E-08
   27.84000     -3.6385067E-08
   27.90000     -3.6130125E-08
   27.96000     -3.5880866E-08
   28.02000     -3.5647073E-08
   28.08000     -3.5441829E-08
   28.14000     -3.5278607E-08
   28.20000     -3.5168657E-08
   28.26000     -3.5119026E-08
   28.32000     -3.5131102E-08
   28.38000     -3.5199648E-08
   28.44000     -3.5312386E-08
   28.50000     -3.5450608E-08
   28.56000     -3.5591476E-08
   28.62000     -3.5712336E-08
   28.68000     -3.5796763E-08
   28.74000     -3.5841008E-08
   28.80000     -3.5858807E-08
   28.86000     -3.5882501E-08
   28.92000     -3.5959136E-08
   28.98000     -3.6141689E-08
   29.04000     -3.6477193E-08
   29.10000     -3.6994834E-08
   29.16000     -3.7697440E-08
   29.22000     -3.8559122E-08
   29.28000     -3.9530310E-08
   29.34000     -4.0549242E-08
   29.40000     -4.1557140E-08
   29.46000     -4.2512788E-08
   29.52000     -4.3402345E-08
   29.58000     -4.4241151E-08
   29.64000     -4.5066756E-08
   29.70000     -4.5925024E-08
   29.76000     -4.6853533E-08
   29.82000     -4.7867545E-08
   29.88000     -4.8953215E-08
   29.94000     -5.0070504E-08
   30.00000     -5.1165060E-08
   30.06000     -5.2185495E-08
   30.12000     -5.3100511E-08
   30.18000     -5.3910409E-08
   30.24000     -5.4649121E-08
   30.30000     -5.5375821E-08
   30.36000     -5.6158317E-08
   30.42000     -5.7052851E-08
   30.48000     -5.8086098E-08
   30.54000     -5.9244499E-08
   30.60000     -6.0474179E-08
   30.66000     -6.1691757E-08
   30.72000     -6.2803238E-08
   30.78000     -6.3725835E-08
   30.84000     -6.4406599E-08
   30.90000     -6.4832626E-08
   30.96000     -6.5029880E-08
   31.02000     -6.5051246E-08
   31.08000     -6.4957817E-08
   31.14000     -6.4799373E-08
   31.20000     -6.4600137E-08
   31.26000     -6.4354325E-08
   31.32000     -6.4032136E-08
   31.38000     -6.3593973E-08
   31.44000     -6.3007377E-08
   31.50000     -6.2261158E-08
   31.56000     -6.1371878E-08
   31.62000     -6.0380863E-08
   31.68000     -5.9342828E-08
   31.74000     -5.8310061E-08
   31.80000     -5.7317106E-08
   31.86000     -5.6370848E-08
   31.92000     -5.5448943E-08
   31.98000     -5.4507115E-08
   32.04000     -5.3493004E-08
   32.10000     -5.2362225E-08
   32.16000     -5.1091710E-08
   32.22000     -4.9686221E-08
   32.28000     -4.8176140E-08
   32.34000     -4.6607610E-08
   32.40000     -4.5028475E-08
   32.46000     -4.3474969E-08
   32.52000     -4.1963556E-08
   32.58000     -4.0490516E-08
   32.64000     -3.9039040E-08
   32.70000     -3.7591061E-08
   32.76000     -3.6139379E-08
   32.82000     -3.4695756E-08
   32.88000     -3.3292164E-08
   32.94000     -3.1974650E-08
   33.00000     -3.0791966E-08
   33.06000     -2.9782742E-08
   33.12000     -2.8965436E-08
   33.18000     -2.8334254E-08
   33.24000     -2.7862111E-08
   33.30000     -2.7509385E-08
   33.36000     -2.7235343E-08
   33.42000     -2.7008548E-08
   33.48000     -2.6813302E-08
   33.54000     -2.6650762E-08
   33.60000     -2.6535277E-08
   33.66000     -2.6487740E-08
   33.72000     -2.6528221E-08
   33.78000     -2.6669730E-08
   33.84000     -2.6914227E-08
   33.90000     -2.7251312E-08
   33.96000     -2.7659526E-08
   34.02000     -2.8110097E-08
   34.08000     -2.8572533E-08
   34.14000     -2.9021148E-08
   34.20000     -2.9441111E-08
   34.26000     -2.9832389E-08
   34.32000     -3.0210373E-08
   34.38000     -3.0602745E-08
   34.44000     -3.1043303E-08
   34.50000     -3.1564309E-08
   34.56000     -3.2189227E-08
   34.62000     -3.2927410E-08
   34.68000     -3.3771617E-08
   34.74000     -3.4698505E-08
   34.80000     -3.5671782E-08
   34.86000     -3.6647467E-08
   34.92000     -3.7580516E-08
   34.98000     -3.8431839E-08
   35.04000     -3.9174498E-08
   35.10000     -3.9797584E-08
   35.16000     -4.0306510E-08
   35.22000     -4.0719289E-08
   35.28000     -4.1059518E-08
   35.34000     -4.1347985E-08
   35.40000     -4.1595669E-08
   35.46000     -4.1800636E-08
   35.52000     -4.1950191E-08
   35.58000     -4.2027768E-08
   35.64000     -4.2022286E-08
   35.70000     -4.1936470E-08
   35.76000     -4.1790830E-08
   35.82000     -4.1621298E-08
   35.88000     -4.1470713E-08
   35.94000     -4.1376527E-08
   36.00000     -4.1358572E-08
   36.06000     -4.1410832E-08
   36.12000     -4.1500087E-08
   36.18000     -4.1572253E-08
   36.24000     -4.1564970E-08
   36.30000     -4.1423139E-08
   36.36000     -4.1113285E-08
   36.42000     -4.0632745E-08
   36.48000     -4.0010896E-08
   36.54000     -3.9301863E-08
   36.60000     -3.8570363E-08
   36.66000     -3.7874511E-08
   36.72000     -3.7250604E-08
   36.78000     -3.6704556E-08
   36.84000     -3.6212732E-08
   36.90000     -3.5732093E-08
   36.96000     -3.5216274E-08
   37.02000     -3.4632301E-08
   37.08000     -3.3972263E-08
   37.14000     -3.3256015E-08
   37.20000     -3.2524195E-08
   37.26000     -3.1823969E-08
   37.32000     -3.1192563E-08
   37.38000     -3.0643985E-08
   37.44000     -3.0163392E-08
   37.50000     -2.9710975E-08
   37.56000     -2.9234220E-08
   37.62000     -2.8684948E-08
   37.68000     -2.8036029E-08
   37.74000     -2.7292559E-08
   37.80000     -2.6493762E-08
   37.86000     -2.5704404E-08
   37.92000     -2.4997744E-08
   37.98000     -2.4434708E-08
   38.04000     -2.4045592E-08
   38.10000     -2.3820048E-08
   38.16000     -2.3708823E-08
   38.22000     -2.3636934E-08
   38.28000     -2.3524420E-08
   38.34000     -2.3308363E-08
   38.40000     -2.2959620E-08
   38.46000     -2.2489550E-08
   38.52000     -2.1945342E-08
   38.58000     -2.1395950E-08
   38.64000     -2.0913241E-08
   38.70000     -2.0553980E-08
   38.76000     -2.0347501E-08
   38.82000     -2.0292083E-08
   38.88000     -2.0360270E-08
   38.94000     -2.0511060E-08
   39.00000     -2.0704915E-08
   39.06000     -2.0916968E-08
   39.12000     -2.1144460E-08
   39.18000     -2.1406235E-08
   39.24000     -2.1734628E-08
   39.30000     -2.2162446E-08
   39.36000     -2.2709266E-08
   39.42000     -2.3371435E-08
   39.48000     -2.4119029E-08
   39.54000     -2.4900825E-08
   39.60000     -2.5656071E-08
   39.66000     -2.6329836E-08
   39.72000     -2.6887843E-08
   39.78000     -2.7326697E-08
   39.84000     -2.7676611E-08
   39.90000     -2.7995602E-08
   39.96000     -2.8356398E-08
   40.02000     -2.8829394E-08
   40.08000     -2.9466239E-08
   40.14000     -3.0288813E-08
   40.20000     -3.1286771E-08
   40.26000     -3.2424460E-08
   40.32000     -3.3654967E-08
   40.38000     -3.4936988E-08
   40.44000     -3.6249293E-08
   40.50000     -3.7598593E-08
   40.56000     -3.9018548E-08
   40.62000     -4.0560543E-08
   40.68000     -4.2278867E-08
   40.74000     -4.4214396E-08
   40.80000     -4.6381114E-08
   40.86000     -4.8758888E-08
   40.92000     -5.1294546E-08
   40.98000     -5.3911112E-08
   41.04000     -5.6522968E-08
   41.10000     -5.9052841E-08
   41.16000     -6.1445718E-08
   41.22000     -6.3675550E-08
   41.28000     -6.5742611E-08
   41.34000     -6.7662683E-08
   41.40000     -6.9451900E-08
   41.46000     -7.1113028E-08
   41.52000     -7.2628005E-08
   41.58000     -7.3959839E-08
   41.64000     -7.5062964E-08
   41.70000     -7.5898448E-08
   41.76000     -7.6448543E-08
   41.82000     -7.6725478E-08
   41.88000     -7.6771315E-08
   41.94000     -7.6648917E-08
   42.00000     -7.6426900E-08
   42.06000     -7.6163282E-08
   42.12000     -7.5893105E-08
   42.18000     -7.5623745E-08
   42.24000     -7.5339514E-08
   42.30000     -7.5013808E-08
   42.36000     -7.4625163E-08
   42.42000     -7.4171957E-08
   42.48000     -7.3680965E-08
   42.54000     -7.3206841E-08
   42.60000     -7.2822253E-08
   42.66000     -7.2601203E-08
   42.72000     -7.2600109E-08
   42.78000     -7.2841921E-08
   42.84000     -7.3307504E-08
   42.90000     -7.3936732E-08
   42.96000     -7.4638955E-08
   43.02000     -7.5310176E-08
   43.08000     -7.5852498E-08
   43.14000     -7.6191100E-08
   43.20000     -7.6284820E-08
   43.26000     -7.6128146E-08
   43.32000     -7.5744914E-08
   43.38000     -7.5176040E-08
   43.44000     -7.4464978E-08
   43.50000     -7.3644976E-08
   43.56000     -7.2731346E-08
   43.62000     -7.1720329E-08
   43.68000     -7.0594304E-08
   43.74000     -6.9331108E-08
   43.80000     -6.7914627E-08
   43.86000     -6.6343112E-08
   43.92000     -6.4633042E-08
   43.98000     -6.2817428E-08
   44.04000     -6.0939513E-08
   44.10000     -5.9044019E-08
   44.16000     -5.7169061E-08
   44.22000     -5.5341172E-08
   44.28000     -5.3574773E-08
   44.34000     -5.1875649E-08
   44.40000     -5.0246527E-08
   44.46000     -4.8692357E-08
   44.52000     -4.7223267E-08
   44.58000     -4.5854424E-08
   44.64000     -4.4603382E-08
   44.70000     -4.3486221E-08
   44.76000     -4.2513886E-08
   44.82000     -4.1689606E-08
   44.88000     -4.1007571E-08
   44.94000     -4.0452733E-08
   45.00000     -4.0001670E-08
   45.06000     -3.9624869E-08
   45.12000     -3.9290779E-08
   45.18000     -3.8971582E-08
   45.24000     -3.8649905E-08
   45.30000     -3.8324636E-08
   45.36000     -3.8013717E-08
   45.42000     -3.7752304E-08
   45.48000     -3.7585991E-08
   45.54000     -3.7560387E-08
   45.60000     -3.7709974E-08
   45.66000     -3.8049631E-08
   45.72000     -3.8571756E-08
   45.78000     -3.9250217E-08
   45.84000     -4.0050306E-08
   45.90000     -4.0941650E-08
   45.96000     -4.1909800E-08
   46.02000     -4.2962572E-08
   46.08000     -4.4128608E-08
   46.14000     -4.5448370E-08
   46.20000     -4.6960206E-08
   46.26000     -4.8685830E-08
   46.32000     -5.0619718E-08
   46.38000     -5.2725493E-08
   46.44000     -5.4940447E-08
   46.50000     -5.7186934E-08
   46.56000     -5.9387723E-08
   46.62000     -6.1481536E-08
   46.68000     -6.3434832E-08
   46.74000     -6.5246645E-08
   46.80000     -6.6945034E-08
   46.86000     -6.8575901E-08
   46.92000     -7.0187625E-08
   46.98000     -7.1817013E-08
   47.04000     -7.3481729E-08
   47.10000     -7.5182932E-08
   47.16000     -7.6917594E-08
   47.22000     -7.8696296E-08
   47.28000     -8.0559658E-08
   47.34000     -8.2587377E-08
   47.40000     -8.4896385E-08
   47.46000     -8.7628990E-08
   47.52000     -9.0935721E-08
   47.58000     -9.4959155E-08
   47.64000     -9.9824561E-08
   47.70000     -1.0564117E-07
   47.76000     -1.1251471E-07
   47.82000     -1.2056910E-07
   47.88000     -1.2997276E-07
   47.94000     -1.4096352E-07
   48.00000     -1.5386651E-07
   48.06000     -1.6910096E-07
   48.12000     -1.8717574E-07
   48.18000     -2.0867760E-07
   48.24000     -2.3425895E-07
   48.30000     -2.6463320E-07
   48.36000     -3.0058294E-07
   48.42000     -3.4298156E-07
   48.48000     -3.9282534E-07
   48.54000     -4.5126816E-07
   48.60000     -5.1965299E-07
   48.66000     -5.9953510E-07
   48.72000     -6.9269595E-07
   48.78000     -8.0115154E-07
   48.84000     -9.2715857E-07
   48.90000     -1.0732253E-06
   48.96000     -1.2421317E-06
   49.02000     -1.4369596E-06
   49.08000     -1.6611344E-06
   49.14000     -1.9184720E-06
   49.20000     -2.2132258E-06
   49.26000     -2.5501308E-06
   49.32000     -2.9344369E-06
   49.38000     -3.3719373E-06
   49.44000     -3.8689923E-06
   49.50000     -4.4325579E-06
   49.56000     -5.0702156E-06
   49.62000     -5.7902107E-06
   49.68000     -6.6014950E-06
   49.74000     -7.5137636E-06
   49.80000     -8.5374950E-06
   49.86000     -9.6839749E-06
   49.92000     -1.0965318E-05
   49.98000     -1.2394478E-05
   50.04000     -1.3985248E-05
   50.10000     -1.5752252E-05
   50.16000     -1.7710934E-05
   50.22000     -1.9877531E-05
   50.28000     -2.2269078E-05
   50.34000     -2.4903375E-05
   50.40000     -2.7798962E-05
   50.46000     -3.0975094E-05
   50.52000     -3.4451656E-05
   50.58000     -3.8249098E-05
   50.64000     -4.2388314E-05
   50.70000     -4.6890538E-05
   50.76000     -5.1777188E-05
   50.82000     -5.7069759E-05
   50.88000     -6.2789644E-05
   50.94000     -6.8958005E-05
   51.00000     -7.5595628E-05
   51.06000     -8.2722712E-05
   51.12000     -9.0358684E-05
   51.18000     -9.8522018E-05
   51.24000     -1.0723001E-04
   51.30000     -1.1649852E-04
   51.36000     -1.2634177E-04
   51.42000     -1.3677207E-04
   51.48000     -1.4779961E-04
   51.54000     -1.5943224E-04
   51.60000     -1.7167523E-04
   51.66000     -1.8453111E-04
   51.72000     -1.9799944E-04
   51.78000     -2.1207666E-04
   51.84000     -2.2675583E-04
   51.90000     -2.4202657E-04
   51.96000     -2.5787496E-04
   52.02000     -2.7428340E-04
   52.08000     -2.9123056E-04
   52.14000     -3.0869141E-04
   52.20000     -3.2663724E-04
   52.26000     -3.4503563E-04
   52.32000     -3.6385059E-04
   52.38000     -3.8304264E-04
   52.44000     -4.0256899E-04
   52.50000     -4.2238375E-04
   52.56000     -4.4243821E-04
   52.62000     -4.6268111E-04
   52.68000     -4.8305906E-04
   52.74000     -5.0351687E-04
   52.80000     -5.2399799E-04
   52.86000     -5.4444472E-04
   52.92000     -5.6479895E-04
   52.98000     -5.8500236E-04
   53.04000     -6.0499733E-04
   53.10000     -6.2472711E-04
   53.16000     -6.4413639E-04
   53.22000     -6.6317193E-04
   53.28000     -6.8178290E-04
   53.34000     -6.9992139E-04
   53.40000     -7.1754260E-04
   53.46000     -7.3460600E-04
   53.52000     -7.5107510E-04
   53.58000     -7.6691806E-04
   53.64000     -7.8210805E-04
   53.70000     -7.9662359E-04
   53.76000     -8.1044831E-04
   53.82000     -8.2357175E-04
   53.88000     -8.3598879E-04
   53.94000     -8.4769988E-04
   54.00000     -8.5871114E-04
   54.06000     -8.6903386E-04
   54.12000     -8.7868475E-04
   54.18000     -8.8768546E-04
   54.24000     -8.9606229E-04
   54.30000     -9.0384611E-04
   54.36000     -9.1107131E-04
   54.42000     -9.1777585E-04
   54.48000     -9.2400028E-04
   54.54000     -9.2978770E-04
   54.60000     -9.3518262E-04
   54.66000     -9.4023068E-04
   54.72000     -9.4497763E-04
   54.78000     -9.4946922E-04
   54.84000     -9.5375010E-04
   54.90000     -9.5786358E-04
   54.96000     -9.6185086E-04
   55.02000     -9.6575031E-04
   55.08000     -9.6959743E-04
   55.14000     -9.7342365E-04
   55.20000     -9.7725668E-04
   55.26000     -9.8111934E-04
   55.32000     -9.8502985E-04
   55.38000     -9.8900124E-04
   55.44000     -9.9304167E-04
   55.50000     -9.9715369E-04
   55.56000     -1.0013350E-03