  -2.400000      0.0000000E+00
  -2.340000      0.0000000E+00
  -2.280000      0.0000000E+00
  -2.220000      0.0000000E+00
  -2.160000      0.0000000E+00
  -2.100000      0.0000000E+00
  -2.040000      0.0000000E+00
  -1.980000      0.0000000E+00
  -1.920000      0.0000000E+00
  -1.860000      0.0000000E+00
  -1.800000      6.6250542E-31
  -1.740000      2.5317481E-29
  -1.680000      2.9459383E-28
  -1.620000      1.8906902E-27
  -1.560000      7.9266477E-27
  -1.500000      2.2658962E-26
  -1.440000      4.0329673E-26
  -1.380000      1.3510013E-26
  -1.320000     -1.8787382E-25
  -1.260000     -7.5197170E-25
  -1.200000     -1.6851323E-24
  -1.140000     -2.2560899E-24
  -1.080000     -3.9370778E-25
  -1.020000      6.9905414E-24
 -0.9600000      2.1306911E-23
 -0.9000000      3.6729200E-23
 -0.8400000      3.4731583E-23
 -0.7800000     -1.3348869E-23
 -0.7200000     -1.2594747E-22
 -0.6600000     -2.7186946E-22
 -0.6000000     -3.3335692E-22
 -0.5400000     -1.2094820E-22
 -0.4800000      5.0507530E-22
 -0.4200000      1.4042618E-21
 -0.3600000      1.9365900E-21
 -0.3000000      1.0141970E-21
 -0.2400000     -2.2902577E-21
 -0.1800000     -7.5416569E-21
 -0.1200000     -1.1681867E-20
 -5.9999999E-02 -8.9148664E-21
  0.0000000E+00  6.8486508E-21
  5.9999999E-02  3.6500430E-20
  0.1200000      6.9042536E-20
  0.1800000      7.8499860E-20
  0.2400000      3.0764702E-20
  0.3000000     -9.5879306E-20
  0.3600000     -2.8091612E-19
  0.4200000     -4.3835723E-19
  0.4800000     -4.2433117E-19
  0.5400000     -9.5413358E-20
  0.6000000      5.8575968E-19
  0.6600000      1.4395664E-18
  0.7200000      2.0302178E-18
  0.7800000      1.7780533E-18
  0.8400000      2.4924947E-19
  0.9000000     -2.4591836E-18
  0.9600000     -5.4402201E-18
   1.020000     -7.0566604E-18
   1.080000     -5.5423099E-18
   1.140000     -3.3342697E-20
   1.200000      8.3953389E-18
   1.260000      1.6348077E-17
   1.320000      1.8967038E-17
   1.380000      1.2129685E-17
   1.440000     -4.7092848E-18
   1.500000     -2.6463591E-17
   1.560000     -4.2773860E-17
   1.620000     -4.1684218E-17
   1.680000     -1.5947050E-17
   1.740000      3.0613620E-17
   1.800000      8.0402425E-17
   1.860000      1.0617434E-16
   1.920000      8.2483076E-17
   1.980000      9.3425097E-19
   2.040000     -1.1788878E-16
   2.100000     -2.2391456E-16
   2.160000     -2.5331545E-16
   2.220000     -1.5808850E-16
   2.280000      6.1497418E-17
   2.340000      3.3824498E-16
   2.400000      5.4839624E-16
   2.460000      5.5604161E-16
   2.520000      2.8011872E-16
   2.580000     -2.4337210E-16
   2.640000     -8.3801633E-16
   2.700000     -1.2276035E-15
   2.760000     -1.1410509E-15
   2.820000     -4.4950853E-16
   2.880000      7.2232677E-16
   2.940000      1.9730929E-15
   3.000000      2.7274323E-15
   3.060000      2.4525818E-15
   3.120000      9.2033539E-16
   3.180000     -1.5933959E-15
   3.240000     -4.2792431E-15
   3.300000     -5.9952708E-15
   3.360000     -5.6727033E-15
   3.420000     -2.8059675E-15
   3.480000      2.1612791E-15
   3.540000      7.7490614E-15
   3.600000      1.1775698E-14
   3.660000      1.2093786E-14
   3.720000      7.5304541E-15
   3.780000     -1.3138184E-15
   3.840000     -1.1802499E-14
   3.900000     -1.9824074E-14
   3.960000     -2.1191809E-14
   4.020000     -1.3520342E-14
   4.080000      2.1270149E-15
   4.140000      2.0662318E-14
   4.200000      3.4093218E-14
   4.260000      3.4369324E-14
   4.320000      1.7169426E-14
   4.380000     -1.4865613E-14
   4.440000     -5.1164392E-14
   4.500000     -7.5681228E-14
   4.560000     -7.2653499E-14
   4.620000     -3.3927739E-14
   4.680000      3.5112013E-14
   4.740000      1.1412931E-13
   4.800000      1.7274767E-13
   4.860000      1.8110959E-13
   4.920000      1.2262835E-13
   4.980000      3.7005408E-15
   5.040000     -1.4455398E-13
   5.100000     -2.7476895E-13
   5.160000     -3.3998826E-13
   5.220000     -3.1232842E-13
   5.280000     -1.9551462E-13
   5.340000     -2.4757425E-14
   5.400000      1.4750606E-13
   5.460000      2.7479446E-13
   5.520000      3.3816312E-13
   5.580000      3.5466411E-13
   5.640000      3.6586915E-13
   5.700000      4.0886676E-13
   5.760000      4.8218601E-13
   5.820000      5.2504154E-13
   5.880000      4.2617131E-13
   5.940000      6.7540408E-14
   6.000000     -6.0831911E-13
   6.060000     -1.5337375E-12
   6.120000     -2.4867066E-12
   6.180000     -3.1218942E-12
   6.240000     -3.0656801E-12
   6.300000     -2.0516948E-12
   6.360000     -5.0994982E-14
   6.420000      2.6554715E-12
   6.480000      5.4997187E-12
   6.540000      7.7499691E-12
   6.600000      8.7011015E-12
   6.660000      7.8711595E-12
   6.720000      5.1382527E-12
   6.780000      7.7476556E-13
   6.840000     -4.6231569E-12
   6.900000     -1.0271274E-11
   6.960000     -1.5336014E-11
   7.020000     -1.9022818E-11
   7.080000     -2.0597453E-11
   7.140000     -1.9371822E-11
   7.200000     -1.4720159E-11
   7.260000     -6.1910021E-12
   7.320000      6.2609848E-12
   7.380000      2.1967865E-11
   7.440000      3.9276978E-11
   7.500000      5.5457687E-11
   7.560000      6.6903989E-11
   7.620000      6.9670568E-11
   7.680000      6.0270275E-11
   7.740000      3.6562340E-11
   7.800000     -1.4876194E-12
   7.860000     -5.1371189E-11
   7.920000     -1.0803042E-10
   7.980000     -1.6426482E-10
   8.040000     -2.1142740E-10
   8.100000     -2.4022942E-10
   8.160000     -2.4149155E-10
   8.220000     -2.0675715E-10
   8.280000     -1.2878509E-10
   8.340000     -2.0165521E-12
   8.400000      1.7687708E-10
   8.460000      4.0832043E-10
   8.520000      6.8910572E-10
   8.580000      1.0118018E-09
   8.640000      1.3645588E-09
   8.700000      1.7315396E-09
   8.760000      2.0940767E-09
   8.820000      2.4324596E-09
   8.880000      2.7280584E-09
   8.940000      2.9653715E-09
   9.000000      3.1335827E-09
   9.060000      3.2273495E-09
   9.120000      3.2467555E-09
   9.180000      3.1965797E-09
   9.240000      3.0851692E-09
   9.300000      2.9232254E-09
   9.360000      2.7226990E-09
   9.420000      2.4958182E-09
   9.480000      2.2541431E-09
   9.540000      2.0074860E-09
   9.600000      1.7626347E-09
   9.660000      1.5220140E-09
   9.720000      1.2826110E-09
   9.780000      1.0356245E-09
   9.840000      7.6722700E-10
   9.900000      4.6060075E-10
   9.960000      9.9035773E-11
   10.02000     -3.3047995E-10
   10.08000     -8.3398571E-10
   10.14000     -1.4083896E-09
   10.20000     -2.0409683E-09
   10.26000     -2.7106262E-09
   10.32000     -3.3905410E-09
   10.38000     -4.0514805E-09
   10.44000     -4.6649800E-09
   10.50000     -5.2057709E-09
   10.56000     -5.6532068E-09
   10.62000     -5.9918661E-09
   10.68000     -6.2117351E-09
   10.74000     -6.3083991E-09
   10.80000     -6.2834080E-09
   10.86000     -6.1446230E-09
   10.92000     -5.9060383E-09
   10.98000     -5.5865503E-09
   11.04000     -5.2073865E-09
   11.10000     -4.7884181E-09
   11.16000     -4.3441255E-09
   11.22000     -3.8803263E-09
   11.28000     -3.3927554E-09
   11.34000     -2.8681391E-09
   11.40000     -2.2877045E-09
   11.46000     -1.6322900E-09
   11.52000     -8.8772251E-10
   11.58000     -4.9032726E-11
   11.64000      8.7753482E-10
   11.70000      1.8750468E-09
   11.76000      2.9184819E-09
   11.82000      3.9783661E-09
   11.88000      5.0242348E-09
   11.94000      6.0270069E-09
   12.00000      6.9599930E-09
   12.06000      7.7989286E-09
   12.12000      8.5218890E-09
   12.18000      9.1099572E-09
   12.24000      9.5490416E-09
   12.30000      9.8325090E-09
   12.36000      9.9636157E-09
   12.42000      9.9564001E-09
   12.48000      9.8339976E-09
   12.54000      9.6241708E-09
   12.60000      9.3529815E-09
   12.66000      9.0384180E-09
   12.72000      8.6861576E-09
   12.78000      8.2891436E-09
   12.84000      7.8315248E-09
   12.90000      7.2960198E-09
   12.96000      6.6725505E-09
   13.02000      5.9654699E-09
   13.08000      5.1970739E-09
   13.14000      4.4062864E-09
   13.20000      3.6428969E-09
   13.26000      2.9590883E-09
   13.32000      2.4006577E-09
   13.38000      2.0001820E-09
   13.44000      1.7734909E-09
   13.50000      1.7195961E-09
   13.56000      1.8231738E-09
   13.62000      2.0581794E-09
   13.68000      2.3913129E-09
   13.74000      2.7847118E-09
   13.80000      3.1980241E-09
   13.86000      3.5905561E-09
   13.92000      3.9241943E-09
   13.98000      4.1672941E-09
   14.04000      4.2989576E-09
   14.10000      4.3124739E-09
   14.16000      4.2165040E-09
   14.22000      4.0330392E-09
   14.28000      3.7920964E-09
   14.34000      3.5242271E-09
   14.40000      3.2527556E-09
   14.46000      2.9879133E-09
   14.52000      2.7245459E-09
   14.58000      2.4439959E-09
   14.64000      2.1194539E-09
   14.70000      1.7230052E-09
   14.76000      1.2321120E-09
   14.82000      6.3360117E-10
   14.88000     -7.5791158E-11
   14.94000     -8.9194918E-10
   15.00000     -1.8074956E-09
   15.06000     -2.8155347E-09
   15.12000     -3.9114081E-09
   15.18000     -5.0918940E-09
   15.24000     -6.3525487E-09
   15.30000     -7.6848021E-09
   15.36000     -9.0745154E-09
   15.42000     -1.0502930E-08
   15.48000     -1.1949659E-08
   15.54000     -1.3396147E-08
   15.60000     -1.4827586E-08
   15.66000     -1.6231841E-08
   15.72000     -1.7595321E-08
   15.78000     -1.8897378E-08
   15.84000     -2.0105837E-08
   15.90000     -2.1176238E-08
   15.96000     -2.2056195E-08
   16.02000     -2.2694215E-08
   16.08000     -2.3050498E-08
   16.14000     -2.3106203E-08
   16.20000     -2.2867981E-08
   16.26000     -2.2366208E-08
   16.32000     -2.1647667E-08
   16.38000     -2.0765491E-08
   16.44000     -1.9770232E-08
   16.50000     -1.8705222E-08
   16.56000     -1.7607663E-08
   16.62000     -1.6514127E-08
   16.68000     -1.5467192E-08
   16.74000     -1.4519156E-08
   16.80000     -1.3729861E-08
   16.86000     -1.3158137E-08
   16.92000     -1.2849237E-08
   16.98000     -1.2822685E-08
   17.04000     -1.3065176E-08
   17.10000     -1.3531529E-08
   17.16000     -1.4153695E-08
   17.22000     -1.4854863E-08
   17.28000     -1.5563867E-08
   17.34000     -1.6225265E-08
   17.40000     -1.6802367E-08
   17.46000     -1.7273338E-08
   17.52000     -1.7623089E-08
   17.58000     -1.7834957E-08
   17.64000     -1.7885725E-08
   17.70000     -1.7745739E-08
   17.76000     -1.7383572E-08
   17.82000     -1.6772832E-08
   17.88000     -1.5898122E-08
   17.94000     -1.4757771E-08
   18.00000     -1.3362643E-08
   18.06000     -1.1731997E-08
   18.12000     -9.8884625E-09
   18.18000     -7.8543243E-09
   18.24000     -5.6503264E-09
   18.30000     -3.2969170E-09
   18.36000     -8.1669083E-10
   18.42000      1.7635684E-09
   18.48000      4.4123989E-09
   18.54000      7.0948487E-09
   18.60000      9.7745341E-09
   18.66000      1.2415391E-08
   18.72000      1.4982316E-08
   18.78000      1.7440755E-08
   18.84000      1.9756165E-08
   18.90000      2.1894568E-08
   18.96000      2.3824901E-08
   19.02000      2.5522988E-08
   19.08000      2.6975865E-08
   19.14000      2.8184711E-08
   19.20000      2.9164992E-08
   19.26000      2.9943294E-08
   19.32000      3.0551654E-08
   19.38000      3.1020932E-08
   19.44000      3.1375222E-08
   19.50000      3.1628691E-08
   19.56000      3.1785326E-08
   19.62000      3.1841129E-08
   19.68000      3.1787589E-08
   19.74000      3.1615009E-08
   19.80000      3.1314723E-08
   19.86000      3.0879917E-08
   19.92000      3.0305497E-08
   19.98000      2.9587923E-08
   20.04000      2.8725925E-08
   20.10000      2.7722605E-08
   20.16000      2.6588559E-08
   20.22000      2.5344971E-08
   20.28000      2.4025173E-08
   20.34000      2.2673506E-08
   20.40000      2.1341018E-08
   20.46000      2.0078817E-08
   20.52000      1.8930780E-08
   20.58000      1.7927761E-08
   20.64000      1.7085057E-08
   20.70000      1.6403703E-08
   20.76000      1.5874926E-08
   20.82000      1.5485861E-08
   20.88000      1.5224366E-08
   20.94000      1.5081261E-08
   21.00000      1.5049466E-08
   21.06000      1.5120897E-08
   21.12000      1.5282922E-08
   21.18000      1.5516378E-08
   21.24000      1.5796390E-08
   21.30000      1.6096028E-08
   21.36000      1.6391507E-08
   21.42000      1.6666986E-08
   21.48000      1.6917072E-08
   21.54000      1.7146126E-08
   21.60000      1.7364815E-08
   21.66000      1.7585350E-08
   21.72000      1.7817303E-08
   21.78000      1.8065315E-08
   21.84000      1.8329004E-08
   21.90000      1.8604146E-08
   21.96000      1.8883727E-08
   22.02000      1.9157627E-08
   22.08000      1.9410720E-08
   22.14000      1.9620261E-08
   22.20000      1.9754205E-08
   22.26000      1.9772086E-08
   22.32000      1.9629130E-08
   22.38000      1.9283062E-08
   22.44000      1.8701932E-08
   22.50000      1.7870800E-08
   22.56000      1.6795539E-08
   22.62000      1.5503062E-08
   22.68000      1.4038357E-08
   22.74000      1.2459674E-08
   22.80000      1.0833314E-08
   22.86000      9.2291721E-09
   22.92000      7.7173574E-09
   22.98000      6.3654788E-09
   23.04000      5.2357794E-09
   23.10000      4.3813912E-09
   23.16000      3.8415524E-09
   23.22000      3.6364824E-09
   23.28000      3.7633043E-09
   23.34000      4.1946953E-09
   23.40000      4.8815010E-09
   23.46000      5.7595040E-09
   23.52000      6.7591439E-09
   23.58000      7.8158635E-09
   23.64000      8.8783567E-09
   23.70000      9.9126076E-09
   23.76000      1.0901067E-08
   23.82000      1.1837967E-08
   23.88000      1.2723051E-08
   23.94000      1.3556208E-08
   24.00000      1.4334827E-08
   24.06000      1.5054196E-08
   24.12000      1.5709995E-08
   24.18000      1.6301115E-08
   24.24000      1.6831232E-08
   24.30000      1.7308317E-08
   24.36000      1.7742357E-08
   24.42000      1.8142321E-08
   24.48000      1.8513649E-08
   24.54000      1.8857168E-08
   24.60000      1.9169738E-08
   24.66000      1.9446126E-08
   24.72000      1.9681407E-08
   24.78000      1.9872971E-08
   24.84000      2.0021719E-08
   24.90000      2.0132291E-08
   24.96000      2.0212550E-08
   25.02000      2.0272536E-08
   25.08000      2.0322966E-08
   25.14000      2.0373172E-08
   25.20000      2.0428338E-08
   25.26000      2.0486347E-08
   25.32000      2.0534968E-08
   25.38000      2.0550697E-08
   25.44000      2.0500362E-08
   25.50000      2.0345912E-08
   25.56000      2.0051459E-08
   25.62000      1.9590535E-08
   25.68000      1.8950889E-08
   25.74000      1.8134946E-08
   25.80000      1.7155612E-08
   25.86000      1.6029070E-08
   25.92000      1.4767524E-08
   25.98000      1.3375030E-08
   26.04000      1.1848104E-08
   26.10000      1.0180890E-08
   26.16000      8.3725897E-09
   26.22000      6.4339494E-09
   26.28000      4.3899027E-09
   26.34000      2.2770270E-09
   26.40000      1.3646104E-10
   26.46000     -1.9952864E-09
   26.52000     -4.0943893E-09
   26.58000     -6.1536491E-09
   26.64000     -8.1807485E-09
   26.70000     -1.0191147E-08
   26.76000     -1.2197876E-08
   26.82000     -1.4201682E-08
   26.88000     -1.6184980E-08
   26.94000     -1.8111878E-08
   27.00000     -1.9934413E-08
   27.06000     -2.1602840E-08
   27.12000     -2.3076353E-08
   27.18000     -2.4330458E-08
   27.24000     -2.5358526E-08
   27.30000     -2.6167381E-08
   27.36000     -2.6769031E-08
   27.42000     -2.7172041E-08
   27.48000     -2.7376016E-08
   27.54000     -2.7371229E-08
   27.60000     -2.7143315E-08
   27.66000     -2.6681047E-08
   27.72000     -2.5984148E-08
   27.78000     -2.5068376E-08
   27.84000     -2.3966201E-08
   27.90000     -2.2723118E-08
   27.96000     -2.1390964E-08
   28.02000     -2.0020302E-08
   28.08000     -1.8653834E-08
   28.14000     -1.7322051E-08
   28.20000     -1.6041438E-08
   28.26000     -1.4814791E-08
   28.32000     -1.3632899E-08
   28.38000     -1.2476885E-08
   28.44000     -1.1320771E-08
   28.50000     -1.0134062E-08
   28.56000     -8.8843333E-09
   28.62000     -7.5397342E-09
   28.68000     -6.0713701E-09
   28.74000     -4.4554795E-09
   28.80000     -2.6754328E-09
   28.86000     -7.2360851E-10
   28.92000      1.3968368E-09
   28.98000      3.6704759E-09
   29.04000      6.0687819E-09
   29.10000      8.5505016E-09
   29.16000      1.1063721E-08
   29.22000      1.3549803E-08
   29.28000      1.5948942E-08
   29.34000      1.8206549E-08
   29.40000      2.0279289E-08
   29.46000      2.2139456E-08
   29.52000      2.3776526E-08
   29.58000      2.5195307E-08
   29.64000      2.6410977E-08
   29.70000      2.7442235E-08
   29.76000      2.8304592E-08
   29.82000      2.9005884E-08
   29.88000      2.9545566E-08
   29.94000      2.9917871E-08
   30.00000      3.0117477E-08
   30.06000      3.0145049E-08
   30.12000      3.0010149E-08
   30.18000      2.9729859E-08
   30.24000      2.9323543E-08
   30.30000      2.8805914E-08
   30.36000      2.8181551E-08
   30.42000      2.7443475E-08
   30.48000      2.6576727E-08
   30.54000      2.5565702E-08
   30.60000      2.4402292E-08
   30.66000      2.3091522E-08
   30.72000      2.1652486E-08
   30.78000      2.0114250E-08
   30.84000      1.8508528E-08
   30.90000      1.6862026E-08
   30.96000      1.5191366E-08
   31.02000      1.3502189E-08
   31.08000      1.1792315E-08
   31.14000      1.0057264E-08
   31.20000      8.2956424E-09
   31.26000      6.5122006E-09
   31.32000      4.7174433E-09
   31.38000      2.9240983E-09
   31.44000      1.1420239E-09
   31.50000     -6.2629452E-10
   31.56000     -2.3877236E-09
   31.62000     -4.1569108E-09
   31.68000     -5.9514171E-09
   31.74000     -7.7849487E-09
   31.80000     -9.6607229E-09
   31.86000     -1.1566936E-08
   31.92000     -1.3475600E-08
   31.98000     -1.5345009E-08
   32.04000     -1.7125100E-08
   32.10000     -1.8764426E-08
   32.16000     -2.0217296E-08
   32.22000     -2.1449868E-08
   32.28000     -2.2444334E-08
   32.34000     -2.3200604E-08
   32.40000     -2.3735158E-08
   32.46000     -2.4077078E-08
   32.52000     -2.4261785E-08
   32.58000     -2.4323770E-08
   32.64000     -2.4290218E-08
   32.70000     -2.4177547E-08
   32.76000     -2.3992062E-08
   32.82000     -2.3734589E-08
   32.88000     -2.3407168E-08
   32.94000     -2.3018869E-08
   33.00000     -2.2587857E-08
   33.06000     -2.2138360E-08
   33.12000     -2.1693404E-08
   33.18000     -2.1266393E-08
   33.24000     -2.0855348E-08
   33.30000     -2.0442908E-08
   33.36000     -2.0002782E-08
   33.42000     -1.9510603E-08
   33.48000     -1.8955109E-08
   33.54000     -1.8345089E-08
   33.60000     -1.7709187E-08
   33.66000     -1.7088425E-08
   33.72000     -1.6524218E-08
   33.78000     -1.6046547E-08
   33.84000     -1.5666846E-08
   33.90000     -1.5378268E-08
   33.96000     -1.5162867E-08
   34.02000     -1.5002350E-08
   34.08000     -1.4887574E-08
   34.14000     -1.4822551E-08
   34.20000     -1.4821236E-08
   34.26000     -1.4898659E-08
   34.32000     -1.5060694E-08
   34.38000     -1.5297482E-08
   34.44000     -1.5583971E-08
   34.50000     -1.5887819E-08
   34.56000     -1.6181401E-08
   34.62000     -1.6452612E-08
   34.68000     -1.6709494E-08
   34.74000     -1.6976339E-08
   34.80000     -1.7282687E-08
   34.86000     -1.7649873E-08
   34.92000     -1.8080868E-08
   34.98000     -1.8557884E-08
   35.04000     -1.9048764E-08
   35.10000     -1.9519463E-08
   35.16000     -1.9947246E-08
   35.22000     -2.0328843E-08
   35.28000     -2.0679932E-08
   35.34000     -2.1026015E-08
   35.40000     -2.1388328E-08
   35.46000     -2.1770830E-08
   35.52000     -2.2153873E-08
   35.58000     -2.2497609E-08
   35.64000     -2.2754223E-08
   35.70000     -2.2884329E-08
   35.76000     -2.2871113E-08
   35.82000     -2.2726660E-08
   35.88000     -2.2488047E-08
   35.94000     -2.2204954E-08
   36.00000     -2.1923862E-08
   36.06000     -2.1675119E-08
   36.12000     -2.1467644E-08
   36.18000     -2.1292637E-08
   36.24000     -2.1133918E-08
   36.30000     -2.0979861E-08
   36.36000     -2.0831580E-08
   36.42000     -2.0703842E-08
   36.48000     -2.0618479E-08
   36.54000     -2.0593182E-08
   36.60000     -2.0630548E-08
   36.66000     -2.0712077E-08
   36.72000     -2.0799892E-08
   36.78000     -2.0845905E-08
   36.84000     -2.0805171E-08
   36.90000     -2.0648457E-08
   36.96000     -2.0369308E-08
   37.02000     -1.9982910E-08
   37.08000     -1.9517353E-08
   37.14000     -1.9000961E-08
   37.20000     -1.8450967E-08
   37.26000     -1.7868242E-08
   37.32000     -1.7240183E-08
   37.38000     -1.6550180E-08
   37.44000     -1.5789226E-08
   37.50000     -1.4964190E-08
   37.56000     -1.4098907E-08
   37.62000     -1.3227497E-08
   37.68000     -1.2382952E-08
   37.74000     -1.1586105E-08
   37.80000     -1.0839801E-08
   37.86000     -1.0130576E-08
   37.92000     -9.4366861E-09
   37.98000     -8.7386676E-09
   38.04000     -8.0278264E-09
   38.10000     -7.3094628E-09
   38.16000     -6.6002697E-09
   38.22000     -5.9218928E-09
   38.28000     -5.2938276E-09
   38.34000     -4.7284514E-09
   38.40000     -4.2293067E-09
   38.46000     -3.7920453E-09
   38.52000     -3.4064076E-09
   38.58000     -3.0577707E-09
   38.64000     -2.7278040E-09
   38.70000     -2.3948845E-09
   38.76000     -2.0354642E-09
   38.82000     -1.6271992E-09
   38.88000     -1.1535761E-09
   38.94000     -6.0861638E-10
   39.00000      3.5678790E-13
   39.06000      6.5351502E-10
   39.12000      1.3232583E-09
   39.18000      1.9816182E-09
   39.24000      2.6078051E-09
   39.30000      3.1930929E-09
   39.36000      3.7411265E-09
   39.42000      4.2635206E-09
   39.48000      4.7724869E-09
   39.54000      5.2734248E-09
   39.60000      5.7603611E-09
   39.66000      6.2158314E-09
   39.72000      6.6149202E-09
   39.78000      6.9315056E-09
   39.84000      7.1440645E-09
   39.90000      7.2389095E-09
   39.96000      7.2100974E-09
   40.02000      7.0567241E-09
   40.08000      6.7792572E-09
   40.14000      6.3765611E-09
   40.20000      5.8445915E-09
   40.26000      5.1768261E-09
   40.32000      4.3658863E-09
   40.38000      3.4056966E-09
   40.44000      2.2937474E-09
   40.50000      1.0332936E-09
   40.56000     -3.6472467E-10
   40.62000     -1.8804867E-09
   40.68000     -3.4855099E-09
   40.74000     -5.1448183E-09
   40.80000     -6.8210078E-09
   40.86000     -8.4792697E-09
   40.92000     -1.0091846E-08
   40.98000     -1.1640330E-08
   41.04000     -1.3115080E-08
   41.10000     -1.4512172E-08
   41.16000     -1.5829441E-08
   41.22000     -1.7063407E-08
   41.28000     -1.8208398E-08
   41.34000     -1.9257925E-08
   41.40000     -2.0207185E-08
   41.46000     -2.1055115E-08
   41.52000     -2.1804688E-08
   41.58000     -2.2461263E-08
   41.64000     -2.3029768E-08
   41.70000     -2.3512138E-08
   41.76000     -2.3906219E-08
   41.82000     -2.4206654E-08
   41.88000     -2.4407431E-08
   41.94000     -2.4505384E-08
   42.00000     -2.4503725E-08
   42.06000     -2.4414826E-08
   42.12000     -2.4261476E-08
   42.18000     -2.4075842E-08
   42.24000     -2.3895318E-08
   42.30000     -2.3755359E-08
   42.36000     -2.3680396E-08
   42.42000     -2.3675568E-08
   42.48000     -2.3722597E-08
   42.54000     -2.3782645E-08
   42.60000     -2.3806638E-08
   42.66000     -2.3750596E-08
   42.72000     -2.3590998E-08
   42.78000     -2.3334454E-08
   42.84000     -2.3017755E-08
   42.90000     -2.2697765E-08
   42.96000     -2.2434600E-08
   43.02000     -2.2273987E-08
   43.08000     -2.2234969E-08
   43.14000     -2.2306907E-08
   43.20000     -2.2456208E-08
   43.26000     -2.2639799E-08
   43.32000     -2.2820164E-08
   43.38000     -2.2976719E-08
   43.44000     -2.3109950E-08
   43.50000     -2.3237469E-08
   43.56000     -2.3384080E-08
   43.62000     -2.3569832E-08
   43.68000     -2.3800515E-08
   43.74000     -2.4063990E-08
   43.80000     -2.4333341E-08
   43.86000     -2.4575398E-08
   43.92000     -2.4761132E-08
   43.98000     -2.4874121E-08
   44.04000     -2.4914209E-08
   44.10000     -2.4895725E-08
   44.16000     -2.4841617E-08
   44.22000     -2.4776227E-08
   44.28000     -2.4719357E-08
   44.34000     -2.4683162E-08
   44.40000     -2.4672048E-08
   44.46000     -2.4684462E-08
   44.52000     -2.4715215E-08
   44.58000     -2.4757231E-08
   44.64000     -2.4802366E-08
   44.70000     -2.4841489E-08
   44.76000     -2.4864397E-08
   44.82000     -2.4860087E-08
   44.88000     -2.4817693E-08
   44.94000     -2.4727935E-08
   45.00000     -2.4584725E-08
   45.06000     -2.4386255E-08
   45.12000     -2.4135092E-08
   45.18000     -2.3837330E-08
   45.24000     -2.3501350E-08
   45.30000     -2.3137241E-08
   45.36000     -2.2757590E-08
   45.42000     -2.2379382E-08
   45.48000     -2.2025658E-08
   45.54000     -2.1724947E-08
   45.60000     -2.1507264E-08
   45.66000     -2.1397250E-08
   45.72000     -2.1407228E-08
   45.78000     -2.1533758E-08
   45.84000     -2.1760288E-08
   45.90000     -2.2065541E-08
   45.96000     -2.2434111E-08
   46.02000     -2.2864169E-08
   46.08000     -2.3368214E-08
   46.14000     -2.3966161E-08
   46.20000     -2.4673945E-08
   46.26000     -2.5492922E-08
   46.32000     -2.6404807E-08
   46.38000     -2.7373911E-08
   46.44000     -2.8354901E-08
   46.50000     -2.9302143E-08
   46.56000     -3.0176693E-08
   46.62000     -3.0948772E-08
   46.68000     -3.1595878E-08
   46.74000     -3.2097919E-08
   46.80000     -3.2431068E-08
   46.86000     -3.2561569E-08
   46.92000     -3.2440280E-08
   46.98000     -3.1998507E-08
   47.04000     -3.1145838E-08
   47.10000     -2.9769872E-08
   47.16000     -2.7737187E-08
   47.22000     -2.4893776E-08
   47.28000     -2.1063173E-08
   47.34000     -1.6041389E-08
   47.40000     -9.5892432E-09
   47.46000     -1.4237437E-09
   47.52000      8.7898782E-09
   47.58000      2.1444958E-08
   47.64000      3.6999943E-08
   47.70000      5.5986678E-08
   47.76000      7.9022172E-08
   47.82000      1.0682468E-07
   47.88000      1.4023422E-07
   47.94000      1.8023643E-07
   48.00000      2.2798885E-07
   48.06000      2.8484871E-07
   48.12000      3.5240126E-07
   48.18000      4.3248878E-07
   48.24000      5.2724090E-07
   48.30000      6.3910835E-07
   48.36000      7.7090317E-07
   48.42000      9.2584622E-07
   48.48000      1.1076237E-06
   48.54000      1.3204485E-06
   48.60000      1.5691252E-06
   48.66000      1.8591124E-06
   48.72000      2.1965900E-06
   48.78000      2.5885283E-06
   48.84000      3.0427693E-06
   48.90000      3.5681203E-06
   48.96000      4.1744597E-06
   49.02000      4.8728489E-06
   49.08000      5.6756471E-06
   49.14000      6.5966242E-06
   49.20000      7.6510705E-06
   49.26000      8.8559136E-06
   49.32000      1.0229841E-05
   49.38000      1.1793431E-05
   49.44000      1.3569294E-05
   49.50000      1.5582214E-05
   49.56000      1.7859285E-05
   49.62000      2.0430041E-05
   49.68000      2.3326564E-05
   49.74000      2.6583599E-05
   49.80000      3.0238638E-05
   49.86000      3.4332006E-05
   49.92000      3.8906943E-05
   49.98000      4.4009648E-05
   50.04000      4.9689352E-05
   50.10000      5.5998356E-05
   50.16000      6.2992032E-05
   50.22000      7.0728805E-05
   50.28000      7.9270081E-05
   50.34000      8.8680143E-05
   50.40000      9.9025994E-05
   50.46000      1.1037717E-04
   50.52000      1.2280555E-04
   50.58000      1.3638499E-04
   50.64000      1.5119114E-04
   50.70000      1.6730103E-04
   50.76000      1.8479269E-04
   50.82000      2.0374471E-04
   50.88000      2.2423566E-04
   50.94000      2.4634358E-04
   51.00000      2.7014542E-04
   51.06000      2.9571637E-04
   51.12000      3.2312909E-04
   51.18000      3.5245315E-04
   51.24000      3.8375412E-04
   51.30000      4.1709293E-04
   51.36000      4.5252516E-04
   51.42000      4.9009989E-04
   51.48000      5.2985939E-04
   51.54000      5.7183800E-04
   51.60000      6.1606138E-04
   51.66000      6.6254614E-04
   51.72000      7.1129837E-04
   51.78000      7.6231384E-04
   51.84000      8.1557682E-04
   51.90000      8.7105989E-04
   51.96000      9.2872331E-04
   52.02000      9.8851498E-04
   52.08000      1.0503699E-03
   52.14000      1.1142105E-03
   52.20000      1.1799460E-03
   52.26000      1.2474732E-03
   52.32000      1.3166765E-03
   52.38000      1.3874281E-03
   52.44000      1.4595884E-03
   52.50000      1.5330070E-03
   52.56000      1.6075235E-03
   52.62000      1.6829689E-03
   52.68000      1.7591661E-03
   52.74000      1.8359309E-03
   52.80000      1.9130741E-03
   52.86000      1.9904021E-03
   52.92000      2.0677184E-03
   52.98000      2.1448266E-03
   53.04000      2.2215298E-03
   53.10000      2.2976347E-03
   53.16000      2.3729505E-03
   53.22000      2.4472927E-03
   53.28000      2.5204839E-03
   53.34000      2.5923559E-03
   53.40000      2.6627504E-03
   53.46000      2.7315209E-03
   53.52000      2.7985335E-03
   53.58000      2.8636693E-03
   53.64000      2.9268232E-03
   53.70000      2.9879073E-03
   53.76000      3.0468493E-03
   53.82000      3.1035945E-03
   53.88000      3.1581065E-03
   53.94000      3.2103646E-03
   54.00000      3.2603657E-03
   54.06000      3.3081239E-03
   54.12000      3.3536698E-03
   54.18000      3.3970475E-03
   54.24000      3.4383172E-03
   54.30000      3.4775517E-03
   54.36000      3.5148358E-03
   54.42000      3.5502645E-03
   54.48000      3.5839418E-03
   54.54000      3.6159782E-03
   54.60000      3.6464895E-03
   54.66000      3.6755938E-03
   54.72000      3.7034105E-03
   54.78000      3.7300591E-03
   54.84000      3.7556558E-03
   54.90000      3.7803131E-03
   54.96000      3.8041370E-03
   55.02000      3.8272256E-03
   55.08000      3.8496675E-03
   55.14000      3.8715401E-03
   55.20000      3.8929086E-03
   55.26000      3.9138249E-03
   55.32000      3.9343289E-03
   55.38000      3.9544436E-03
   55.44000      3.9741797E-03
   55.50000      3.9935312E-03
   55.56000      4.0124780E-03