 -0.750000000       0.00000000    
 -0.689999998       0.00000000    
 -0.629999995       0.00000000    
 -0.569999993       0.00000000    
 -0.509999990       0.00000000    
 -0.449999988       0.00000000    
 -0.389999986       0.00000000    
 -0.330000013      -1.94984781E-24
 -0.270000011      -2.73141668E-23
 -0.209999993      -1.67737615E-22
 -0.150000006      -5.86171060E-22
  -9.00000036E-02  -1.13296037E-21
  -2.99999993E-02  -2.47667135E-22
   2.99999993E-02   5.96331629E-21
   9.00000036E-02   2.10302932E-20
  0.150000006       3.76359198E-20
  0.209999993       2.24981785E-20
  0.270000011      -8.29278420E-20
  0.330000013      -3.12348414E-19
  0.389999986      -5.63818713E-19
  0.449999988      -4.95922643E-19
  0.509999990       4.02504768E-19
  0.569999993       2.40076703E-18
  0.629999995       4.82862381E-18
  0.689999998       5.57828809E-18
  0.750000000       1.62356508E-18
  0.810000002      -8.89056866E-18
  0.870000005      -2.35762472E-17
  0.930000007      -3.39052730E-17
  0.990000010      -2.73403061E-17
   1.04999995       5.23505487E-18
   1.11000001       5.95138716E-17
   1.16999996       1.12139989E-16
   1.23000002       1.26993095E-16
   1.28999996       7.50609628E-17
   1.35000002      -4.11330085E-17
   1.40999997      -1.76133474E-16
   1.47000003      -2.58362784E-16
   1.52999997      -2.33526904E-16
   1.59000003      -1.09720711E-16
   1.64999998       3.29501574E-17
   1.71000004       9.07878368E-17
   1.76999998       2.46381718E-17
   1.83000004      -7.36089564E-17
   1.88999999      -6.08602933E-18
   1.95000005       3.92867248E-16
   2.00999999       1.07219495E-15
   2.06999993       1.67028926E-15
   2.13000011       1.63440523E-15
   2.19000006       5.54392593E-16
   2.25000000      -1.45990417E-15
   2.30999994      -3.63124846E-15
   2.36999989      -4.79826843E-15
   2.43000007      -4.07486629E-15
   2.49000001      -1.52796062E-15
   2.54999995       1.62011505E-15
   2.60999990       3.56862011E-15
   2.67000008       3.12086918E-15
   2.73000002       7.93747163E-16
   2.78999996      -9.95904282E-16
   2.84999990       8.66100506E-16
   2.91000009       7.96707078E-15
   2.97000003       1.83241009E-14
   3.02999997       2.59975265E-14
   3.08999991       2.32190298E-14
   3.15000010       4.55406375E-15
   3.21000004      -2.87760809E-14
   3.26999998      -6.69018673E-14
   3.32999992      -9.34396129E-14
   3.39000010      -9.16898664E-14
   3.45000005      -5.26399501E-14
   3.50999999       1.88907965E-14
   3.56999993       1.03360957E-13
   3.63000011       1.72235381E-13
   3.69000006       1.98667295E-13
   3.75000000       1.68813246E-13
   3.80999994       8.85226950E-14
   3.86999989      -1.83739708E-14
   3.93000007      -1.20385811E-13
   3.99000001      -1.93191735E-13
   4.05000019      -2.31769112E-13
   4.11000013      -2.52457235E-13
   4.17000008      -2.81192739E-13
   4.23000002      -3.30733325E-13
   4.28999996      -3.76829508E-13
   4.34999990      -3.47604080E-13
   4.40999985      -1.38778881E-13
   4.46999979       3.41323188E-13
   4.53000021       1.10696803E-12
   4.59000015       2.03441365E-12
   4.65000010       2.83711379E-12
   4.71000004       3.10381278E-12
   4.76999998       2.40846904E-12
   4.82999992       4.73366409E-13
   4.88999987      -2.66081645E-12
   4.94999981      -6.52020278E-12
   5.01000023      -1.01957678E-11
   5.07000017      -1.24845308E-11
   5.13000011      -1.21612078E-11
   5.19000006      -8.32316074E-12
   5.25000000      -7.21703621E-13
   5.30999994       1.00109114E-11
   5.36999989       2.23057909E-11
   5.42999983       3.37983426E-11
   5.48999977       4.16478345E-11
   5.55000019       4.29875684E-11
   5.61000013       3.54471522E-11
   5.67000008       1.76918064E-11
   5.73000002      -1.00731931E-11
   5.78999996      -4.56954960E-11
   5.84999990      -8.48554699E-11
   5.90999985      -1.21151492E-10
   5.96999979      -1.46614831E-10
   6.03000021      -1.52733118E-10
   6.09000015      -1.31955905E-10
   6.15000010      -7.95065472E-11
   6.21000004       4.82301352E-12
   6.26999998       1.15308964E-10
   6.32999992       2.39764014E-10
   6.38999987       3.60106250E-10
   6.44999981       4.54074861E-10
   6.51000023       4.97887176E-10
   6.57000017       4.69424721E-10
   6.63000011       3.51427470E-10
   6.69000006       1.34191866E-10
   6.75000000      -1.82617393E-10
   6.80999994      -5.89259697E-10
   6.86999989      -1.06636100E-09
   6.92999983      -1.58641744E-09
   6.98999977      -2.11618101E-09
   7.05000019      -2.61969646E-09
   7.11000013      -3.06171910E-09
   7.17000008      -3.41121154E-09
   7.23000002      -3.64457531E-09
   7.28999996      -3.74827325E-09
   7.34999990      -3.72051456E-09
   7.40999985      -3.57177821E-09
   7.46999979      -3.32407457E-09
   7.53000021      -3.00902792E-09
   7.59000015      -2.66500688E-09
   7.65000010      -2.33366304E-09
   7.71000004      -2.05626538E-09
   7.76999998      -1.87019555E-09
   7.82999992      -1.80587645E-09
   7.88999987      -1.88429672E-09
   7.94999981      -2.11518603E-09
   8.01000023      -2.49586174E-09
   8.06999969      -3.01078096E-09
   8.13000011      -3.63190389E-09
   8.18999958      -4.32006031E-09
   8.25000000      -5.02753661E-09
   8.31000042      -5.70201175E-09
   8.36999989      -6.29177066E-09
   8.43000031      -6.75175915E-09
   8.48999977      -7.04969505E-09
   8.55000019      -7.17117787E-09
   8.60999966      -7.12265491E-09
   8.67000008      -6.93137192E-09
   8.72999954      -6.64192790E-09
   8.78999996      -6.30977048E-09
   8.85000038      -5.99266992E-09
   8.90999985      -5.74172265E-09
   8.97000027      -5.59359847E-09
   9.02999973      -5.56551294E-09
   9.09000015      -5.65383251E-09
   9.14999962      -5.83643089E-09
   9.21000004      -6.07818640E-09
   9.27000046      -6.33839958E-09
   9.32999992      -6.57866517E-09
   9.39000034      -6.76977452E-09
   9.44999981      -6.89651269E-09
   9.51000023      -6.95971192E-09
   9.56999969      -6.97538960E-09
   9.63000011      -6.97129865E-09
   9.68999958      -6.98155844E-09
   9.75000000      -7.04033187E-09
   9.81000042      -7.17562010E-09
   9.86999989      -7.40424388E-09
   9.93000031      -7.72886732E-09
   9.98999977      -8.13754308E-09
   10.0500002      -8.60575877E-09
   10.1099997      -9.10043418E-09
   10.1700001      -9.58492130E-09
   10.2299995      -1.00239044E-08
   10.2900000      -1.03871836E-08
   10.3500004      -1.06517408E-08
   10.4099998      -1.08019629E-08
   10.4700003      -1.08284119E-08
   10.5299997      -1.07258753E-08
   10.5900002      -1.04915419E-08
   10.6499996      -1.01240119E-08
   10.7100000      -9.62347801E-09
   10.7700005      -8.99292285E-09
   10.8299999      -8.23973245E-09
   10.8900003      -7.37682981E-09
   10.9499998      -6.42247100E-09
   11.0100002      -5.39823430E-09
   11.0699997      -4.32537339E-09
   11.1300001      -3.22038773E-09
   11.1899996      -2.09112327E-09
   11.2500000      -9.34705979E-10
   11.3100004       2.61855232E-10
   11.3699999       1.51840363E-09
   11.4300003       2.85653967E-09
   11.4899998       4.29409486E-09
   11.5500002       5.84062310E-09
   11.6099997       7.49494866E-09
   11.6700001       9.24513532E-09
   11.7299995       1.10705454E-08
   11.7900000       1.29452298E-08
   11.8500004       1.48417740E-08
   11.9099998       1.67348304E-08
   11.9700003       1.86038989E-08
   12.0299997       2.04350936E-08
   12.0900002       2.22217906E-08
   12.1499996       2.39641338E-08
   12.2100000       2.56673687E-08
   12.2700005       2.73391283E-08
   12.3299999       2.89860438E-08
   12.3900003       3.06102947E-08
   12.4499998       3.22069802E-08
   12.5100002       3.37631256E-08
   12.5699997       3.52587470E-08
   12.6300001       3.66698281E-08
   12.6899996       3.79722849E-08
   12.7500000       3.91456432E-08
   12.8100004       4.01751592E-08
   12.8699999       4.10518588E-08
   12.9300003       4.17706438E-08
   12.9899998       4.23277413E-08
   13.0500002       4.27187281E-08
   13.1099997       4.29381615E-08
   13.1700001       4.29810108E-08
   13.2299995       4.28451479E-08
   13.2900000       4.25336815E-08
   13.3500004       4.20561612E-08
   13.4099998       4.14281836E-08
   13.4700003       4.06697644E-08
   13.5299997       3.98031368E-08
   13.5900002       3.88507289E-08
   13.6499996       3.78336900E-08
   13.7100000       3.67708957E-08
   13.7700005       3.56783545E-08
   13.8299999       3.45689770E-08
   13.8900003       3.34528210E-08
   13.9499998       3.23381073E-08
   14.0100002       3.12327479E-08
   14.0699997       3.01457703E-08
   14.1300001       2.90876976E-08
   14.1899996       2.80690529E-08
   14.2500000       2.70970446E-08
   14.3100004       2.61715520E-08
   14.3699999       2.52822616E-08
   14.4300003       2.44089478E-08
   14.4899998       2.35257502E-08
   14.5500002       2.26087611E-08
   14.6099997       2.16444658E-08
   14.6700001       2.06358326E-08
   14.7299995       1.96032399E-08
   14.7900000       1.85792963E-08
   14.8500004       1.75987989E-08
   14.9099998       1.66871867E-08
   14.9700003       1.58515423E-08
   15.0299997       1.50774504E-08
   15.0900002       1.43329686E-08
   15.1499996       1.35784344E-08
   15.2100000       1.27788580E-08
   15.2700005       1.19148478E-08
   15.3299999       1.09886509E-08
   15.3900003       1.00236237E-08
   15.4499998       9.05752984E-09
   15.5100002       8.13187651E-09
   15.5699997       7.28043492E-09
   15.6300001       6.52009513E-09
   15.6899996       5.84635895E-09
   15.7500000       5.23446397E-09
   15.8100004       4.64563765E-09
   15.8699999       4.03674205E-09
   15.9300003       3.37072636E-09
   15.9899998       2.62514921E-09
   16.0499992       1.79656101E-09
   16.1100006       8.99679664E-10
   16.1700001      -3.82171829E-11
   16.2299995      -9.85893145E-10
   16.2900009      -1.91712424E-09
   16.3500004      -2.81743384E-09
   16.4099998      -3.68683639E-09
   16.4699993      -4.53820626E-09
   16.5300007      -5.39226797E-09
   16.5900002      -6.27108498E-09
   16.6499996      -7.19206383E-09
   16.7099991      -8.16396284E-09
   16.7700005      -9.18550658E-09
   16.8299999      -1.02464384E-08
   16.8899994      -1.13303882E-08
   16.9500008      -1.24188633E-08
   17.0100002      -1.34957245E-08
   17.0699997      -1.45515484E-08
   17.1299992      -1.55870765E-08
   17.1900005      -1.66148482E-08
   17.2500000      -1.76581274E-08
   17.3099995      -1.87467872E-08
   17.3700008      -1.99107060E-08
   17.4300003      -2.11720810E-08
   17.4899998      -2.25387637E-08
   17.5499992      -2.40005491E-08
   17.6100006      -2.55297206E-08
   17.6700001      -2.70859069E-08
   17.7299995      -2.86242798E-08
   17.7900009      -3.01051344E-08
   17.8500004      -3.15025979E-08
   17.9099998      -3.28103660E-08
   17.9699993      -3.40428201E-08
   18.0300007      -3.52310714E-08
   18.0900002      -3.64146047E-08
   18.1499996      -3.76305387E-08
   18.2099991      -3.89034653E-08
   18.2700005      -4.02388096E-08
   18.3299999      -4.16217780E-08
   18.3899994      -4.30220908E-08
   18.4500008      -4.44028814E-08
   18.5100002      -4.57306797E-08
   18.5699997      -4.69832067E-08
   18.6299992      -4.81527493E-08
   18.6900005      -4.92444983E-08
   18.7500000      -5.02708808E-08
   18.8099995      -5.12440153E-08
   18.8700008      -5.21685273E-08
   18.9300003      -5.30364801E-08
   18.9899998      -5.38254525E-08
   19.0499992      -5.45000240E-08
   19.1100006      -5.50163541E-08
   19.1700001      -5.53290818E-08
   19.2299995      -5.53991626E-08
   19.2900009      -5.52011308E-08
   19.3500004      -5.47279839E-08
   19.4099998      -5.39924621E-08
   19.4699993      -5.30241522E-08
   19.5300007      -5.18630543E-08
   19.5900002      -5.05510833E-08
   19.6499996      -4.91236349E-08
   19.7099991      -4.76033968E-08
   19.7700005      -4.59981564E-08
   19.8299999      -4.43033201E-08
   19.8899994      -4.25086242E-08
   19.9500008      -4.06072971E-08
   20.0100002      -3.86049130E-08
   20.0699997      -3.65251545E-08
   20.1299992      -3.44103945E-08
   20.1900005      -3.23166880E-08
   20.2500000      -3.03045482E-08
   20.3099995      -2.84281807E-08
   20.3700008      -2.67261608E-08
   20.4300003      -2.52156322E-08
   20.4899998      -2.38909283E-08
   20.5499992      -2.27260752E-08
   20.6100006      -2.16801244E-08
   20.6700001      -2.07042454E-08
   20.7299995      -1.97497112E-08
   20.7900009      -1.87758928E-08
   20.8500004      -1.77570403E-08
   20.9099998      -1.66861813E-08
   20.9699993      -1.55746971E-08
   21.0300007      -1.44471546E-08
   21.0900002      -1.33327074E-08
   21.1499996      -1.22558363E-08
   21.2099991      -1.12297283E-08
   21.2700005      -1.02545510E-08
   21.3299999      -9.32085609E-09
   21.3899994      -8.41617709E-09
   21.4500008      -7.53169971E-09
   21.5100002      -6.66625244E-09
   21.5699997      -5.82638782E-09
   21.6299992      -5.02323338E-09
   21.6900005      -4.26805569E-09
   21.7500000      -3.56862051E-09
   21.8099995      -2.92759328E-09
   21.8700008      -2.34305553E-09
   21.9300003      -1.81033621E-09
   21.9899998      -1.32410338E-09
   22.0499992      -8.79946616E-10
   22.1100006      -4.75099793E-10
   22.1700001      -1.08256286E-10
   22.2299995       2.21449289E-10
   22.2900009       5.16104659E-10
   22.3500004       7.80887577E-10
   22.4099998       1.02534115E-09
   22.4699993       1.26309763E-09
   22.5300007       1.50940127E-09
   22.5900002       1.77665471E-09
   22.6499996       2.06930029E-09
   22.7099991       2.38008502E-09
   22.7700005       2.68961320E-09
   22.8299999       2.96997116E-09
   22.8899994       3.19156057E-09
   22.9500008       3.33090111E-09
   23.0100002       3.37673911E-09
   23.0699997       3.33254291E-09
   23.1299992       3.21493787E-09
   23.1900005       3.04909631E-09
   23.2500000       2.86285151E-09
   23.3099995       2.68117772E-09
   23.3700008       2.52201948E-09
   23.4300003       2.39379694E-09
   23.4899998       2.29464692E-09
   23.5499992       2.21350360E-09
   23.6100006       2.13311679E-09
   23.6700001       2.03471107E-09
   23.7299995       1.90327532E-09
   23.7900009       1.73185544E-09
   23.8500004       1.52324386E-09
   23.9099998       1.28832156E-09
   23.9699993       1.04164266E-09
   24.0300007       7.96010924E-10
   24.0900002       5.58132984E-10
   24.1499996       3.26832533E-10
   24.2099991       9.41494382E-11
   24.2700005      -1.51427287E-10
   24.3299999      -4.20885743E-10
   24.3899994      -7.21027682E-10
   24.4500008      -1.05211351E-09
   24.5100002      -1.40732426E-09
   24.5699997      -1.77421111E-09
   24.6299992      -2.13788387E-09
   24.6900005      -2.48514898E-09
   24.7500000      -2.80828449E-09
   24.8099995      -3.10702286E-09
   24.8700008      -3.38782025E-09
   24.9300003      -3.66052189E-09
   24.9899998      -3.93356814E-09
   25.0499992      -4.20935864E-09
   25.1100006      -4.48110926E-09
   25.1700001      -4.73179851E-09
   25.2299995      -4.93517405E-09
   25.2900009      -5.05864595E-09
   25.3500004      -5.06808506E-09
   25.4099998      -4.93449059E-09
   25.4699993      -4.64181404E-09
   25.5300007      -4.19405932E-09
   25.5900002      -3.61892449E-09
   25.6499996      -2.96557734E-09
   25.7099991      -2.29591257E-09
   25.7700005      -1.67118142E-09
   25.8299999      -1.13788845E-09
   25.8899994      -7.17250426E-10
   25.9500008      -4.01119360E-10
   26.0100002      -1.54918092E-10
   26.0699997       7.39328182E-11
   26.1299992       3.44543699E-10
   26.1900005       7.10315196E-10
   26.2500000       1.20762145E-09
   26.3099995       1.84681470E-09
   26.3700008       2.60703148E-09
   26.4300003       3.43625994E-09
   26.4899998       4.25738733E-09
   26.5499992       4.97944619E-09
   26.6100006       5.51162493E-09
   26.6700001       5.77674797E-09
   26.7299995       5.72137138E-09
   26.7900009       5.32109778E-09
   26.8500004       4.58134597E-09
   26.9099998       3.53473117E-09
   26.9699993       2.23623697E-09
   27.0300007       7.56922913E-10
   27.0900002      -8.23367596E-10
   27.1499996      -2.42361398E-09
   27.2099991      -3.96850730E-09
   27.2700005      -5.39355360E-09
   27.3299999      -6.64797373E-09
   27.3899994      -7.69586617E-09
   27.4500008      -8.51672066E-09
   27.5100002      -9.10607323E-09
   27.5699997      -9.47627665E-09
   27.6299992      -9.65649960E-09
   27.6900005      -9.69103375E-09
   27.7500000      -9.63564517E-09
   27.8099995      -9.55263957E-09
   27.8700008      -9.50566026E-09
   27.9300003      -9.55478274E-09
   27.9899998      -9.75164038E-09
   28.0499992      -1.01340420E-08
   28.1100006      -1.07202593E-08
   28.1700001      -1.15045200E-08
   28.2299995      -1.24561561E-08
   28.2900009      -1.35243763E-08
   28.3500004      -1.46486387E-08
   28.4099998      -1.57720805E-08
   28.4699993      -1.68539174E-08
   28.5300007      -1.78771185E-08
   28.5900002      -1.88497111E-08
   28.6499996      -1.98005736E-08
   28.7099991      -2.07721271E-08
   28.7700005      -2.18122125E-08
   28.8299999      -2.29663684E-08
   28.8899994      -2.42705163E-08
   28.9500008      -2.57441357E-08
   29.0100002      -2.73847274E-08
   29.0699997      -2.91654469E-08
   29.1299992      -3.10376507E-08
   29.1900005      -3.29387397E-08
   29.2500000      -3.48034774E-08
   29.3099995      -3.65753294E-08
   29.3700008      -3.82141607E-08
   29.4300003      -3.96982216E-08
   29.4899998      -4.10209005E-08
   29.5499992      -4.21846913E-08
   29.6100006      -4.31957226E-08
   29.6700001      -4.40611139E-08
   29.7299995      -4.47896724E-08
   29.7900009      -4.53945397E-08
   29.8500004      -4.58953942E-08
   29.9099998      -4.63182346E-08
   29.9699993      -4.66920582E-08
   30.0300007      -4.70433719E-08
   30.0900002      -4.73906212E-08
   30.1499996      -4.77408193E-08
   30.2099991      -4.80895785E-08
   30.2700005      -4.84244822E-08
   30.3299999      -4.87301044E-08
   30.3899994      -4.89926570E-08
   30.4500008      -4.92026651E-08
   30.5100002      -4.93553500E-08
   30.5699997      -4.94496817E-08
   30.6299992      -4.94874826E-08
   30.6900005      -4.94735488E-08
   30.7500000      -4.94165278E-08
   30.8099995      -4.93292731E-08
   30.8700008      -4.92274097E-08
   30.9300003      -4.91255534E-08
   30.9899998      -4.90323551E-08
   31.0499992      -4.89464753E-08
   31.1100006      -4.88554548E-08
   31.1700001      -4.87384106E-08
   31.2299995      -4.85714260E-08
   31.2900009      -4.83332983E-08
   31.3500004      -4.80091700E-08
   31.4099998      -4.75907100E-08
   31.4699993      -4.70734811E-08
   31.5300007      -4.64535255E-08
   31.5900002      -4.57256135E-08
   31.6499996      -4.48845299E-08
   31.7099991      -4.39292052E-08
   31.7700005      -4.28677218E-08
   31.8299999      -4.17209769E-08
   31.8899994      -4.05230409E-08
   31.9500008      -3.93179356E-08
   32.0099983      -3.81537859E-08
   32.0699997      -3.70760489E-08
   32.1300011      -3.61214987E-08
   32.1899986      -3.53137715E-08
   32.2500000      -3.46609070E-08
   32.3100014      -3.41549651E-08
   32.3699989      -3.37742350E-08
   32.4300003      -3.34884689E-08
   32.4900017      -3.32671952E-08
   32.5499992      -3.30896199E-08
   32.6100006      -3.29531176E-08
   32.6699982      -3.28768017E-08
   32.7299995      -3.28974963E-08
   32.7900009      -3.30585088E-08
   32.8499985      -3.33946915E-08
   32.9099998      -3.39194877E-08
   32.9700012      -3.46193616E-08
   33.0299988      -3.54578091E-08
   33.0900002      -3.63871777E-08
   33.1500015      -3.73629412E-08
   33.2099991      -3.83545498E-08
   33.2700005      -3.93489579E-08
   33.3300018      -4.03466167E-08
   33.3899994      -4.13530792E-08
   33.4500008      -4.23705941E-08
   33.5099983      -4.33930651E-08
   33.5699997      -4.44054855E-08
   33.6300011      -4.53870328E-08
   33.6899986      -4.63160887E-08
   33.7500000      -4.71759449E-08
   33.8100014      -4.79605085E-08
   33.8699989      -4.86793503E-08
   33.9300003      -4.93607715E-08
   33.9900017      -5.00508506E-08
   34.0499992      -5.08067117E-08
   34.1100006      -5.16841219E-08
   34.1699982      -5.27221715E-08
   34.2299995      -5.39301048E-08
   34.2900009      -5.52815180E-08
   34.3499985      -5.67191947E-08
   34.4099998      -5.81695936E-08
   34.4700012      -5.95623497E-08
   34.5299988      -6.08477748E-08
   34.5900002      -6.20061229E-08
   34.6500015      -6.30457322E-08
   34.7099991      -6.39915640E-08
   34.7700005      -6.48690843E-08
   34.8300018      -6.56900525E-08
   34.8899994      -6.64450681E-08
   34.9500008      -6.71045868E-08
   35.0099983      -6.76266367E-08
   35.0699997      -6.79671999E-08
   35.1300011      -6.80894416E-08
   35.1899986      -6.79694665E-08
   35.2500000      -6.75986982E-08
   35.3100014      -6.69842422E-08
   35.3699989      -6.61482531E-08
   35.4300003      -6.51264429E-08
   35.4900017      -6.39644355E-08
   35.5499992      -6.27112726E-08
   35.6100006      -6.14107023E-08
   35.6699982      -6.00927450E-08
   35.7299995      -5.87689719E-08
   35.7900009      -5.74336383E-08
   35.8499985      -5.60701068E-08
   35.9099998      -5.46594414E-08
   35.9700012      -5.31871009E-08
   36.0299988      -5.16451450E-08
   36.0900002      -5.00303940E-08
   36.1500015      -4.83417182E-08
   36.2099991      -4.65797996E-08
   36.2700005      -4.47508981E-08
   36.3300018      -4.28727311E-08
   36.3899994      -4.09784526E-08
   36.4500008      -3.91150188E-08
   36.5099983      -3.73351803E-08
   36.5699997      -3.56858081E-08
   36.6300011      -3.41975621E-08
   36.6899986      -3.28801448E-08
   36.7500000      -3.17243547E-08
   36.8100014      -3.07087120E-08
   36.8699989      -2.98066070E-08
   36.9300003      -2.89907423E-08
   36.9900017      -2.82343624E-08
   37.0499992      -2.75114402E-08
   37.1100006      -2.67987836E-08
   37.1699982      -2.60813842E-08
   37.2299995      -2.53593608E-08
   37.2900009      -2.46525182E-08
   37.3499985      -2.39986129E-08
   37.4099998      -2.34440485E-08
   37.4700012      -2.30297328E-08
   37.5299988      -2.27776766E-08
   37.5900002      -2.26841603E-08
   37.6500015      -2.27224870E-08
   37.7099991      -2.28538024E-08
   37.7700005      -2.30408563E-08
   37.8300018      -2.32585826E-08
   37.8899994      -2.34974618E-08
   37.9500008      -2.37596751E-08
   38.0099983      -2.40514684E-08
   38.0699997      -2.43763942E-08
   38.1300011      -2.47325058E-08
   38.1899986      -2.51135344E-08
   38.2500000      -2.55116035E-08
   38.3100014      -2.59185811E-08
   38.3699989      -2.63249031E-08
   38.4300003      -2.67170535E-08
   38.4900017      -2.70761635E-08
   38.5499992      -2.73794729E-08
   38.6100006      -2.76041838E-08
   38.6699982      -2.77313159E-08
   38.7299995      -2.77471326E-08
   38.7900009      -2.76415850E-08
   38.8499985      -2.74059158E-08
   38.9099998      -2.70327085E-08
   38.9700012      -2.65203699E-08
   39.0299988      -2.58806203E-08
   39.0900002      -2.51444394E-08
   39.1500015      -2.43612899E-08
   39.2099991      -2.35892355E-08
   39.2700005      -2.28785773E-08
   39.3300018      -2.22557865E-08
   39.3899994      -2.17154152E-08
   39.4500008      -2.12242934E-08
   39.5099983      -2.07365982E-08
   39.5699997      -2.02131503E-08
   39.6300011      -1.96365804E-08
   39.6899986      -1.90162730E-08
   39.7500000      -1.83821083E-08
   39.8100014      -1.77709367E-08
   39.8699989      -1.72122281E-08
   39.9300003      -1.67185341E-08
   39.9900017      -1.62834439E-08
   40.0499992      -1.58862932E-08
   40.1100006      -1.55008699E-08
   40.1699982      -1.51050727E-08
   40.2299995      -1.46892782E-08
   40.2900009      -1.42622101E-08
   40.3499985      -1.38534064E-08
   40.4099998      -1.35114089E-08
   40.4700012      -1.32969245E-08
   40.5299988      -1.32712312E-08
   40.5900002      -1.34818201E-08
   40.6500015      -1.39490668E-08
   40.7099991      -1.46584114E-08
   40.7700005      -1.55614757E-08
   40.8300018      -1.65867515E-08
   40.8899994      -1.76571167E-08
   40.9500008      -1.87087821E-08
   41.0099983      -1.97056433E-08
   41.0699997      -2.06447321E-08
   41.1300011      -2.15515747E-08
   41.1899986      -2.24676935E-08
   41.2500000      -2.34345681E-08
   41.3100014      -2.44788154E-08
   41.3699989      -2.56021089E-08
   41.4300003      -2.67776912E-08
   41.4900017      -2.79537549E-08
   41.5499992      -2.90629423E-08
   41.6100006      -3.00364924E-08
   41.6699982      -3.08205053E-08
   41.7299995      -3.13906803E-08
   41.7900009      -3.17611786E-08
   41.8499985      -3.19838485E-08
   41.9099998      -3.21366507E-08
   41.9700012      -3.23037739E-08
   42.0299988      -3.25535296E-08
   42.0900002      -3.29214309E-08
   42.1500015      -3.34043158E-08
   42.2099991      -3.39670265E-08
   42.2700005      -3.45583722E-08
   42.3300018      -3.51296663E-08
   42.3899994      -3.56487107E-08
   42.4500008      -3.61046908E-08
   42.5099983      -3.65035220E-08
   42.5699997      -3.68569069E-08
   42.6300011      -3.71702988E-08
   42.6899986      -3.74347913E-08
   42.7500000      -3.76260019E-08
   42.8100014      -3.77103788E-08
   42.8699989      -3.76569744E-08
   42.9300003      -3.74507110E-08
   42.9900017      -3.71025948E-08
   43.0499992      -3.66528710E-08
   43.1100006      -3.61649661E-08
   43.1699982      -3.57112881E-08
   43.2299995      -3.53548160E-08
   43.2900009      -3.51323912E-08
   43.3499985      -3.50455487E-08
   43.4099998      -3.50621789E-08
   43.4700012      -3.51285898E-08
   43.5299988      -3.51879557E-08
   43.5900002      -3.51987772E-08
   43.6500015      -3.51473055E-08
   43.7099991      -3.50500891E-08
   43.7700005      -3.49461118E-08
   43.8300018      -3.48815128E-08
   43.8899994      -3.48922384E-08
   43.9500008      -3.49904887E-08
   44.0099983      -3.51596618E-08
   44.0699997      -3.53596015E-08
   44.1300011      -3.55406016E-08
   44.1899986      -3.56613157E-08
   44.2500000      -3.57044705E-08
   44.3100014      -3.56847174E-08
   44.3699989      -3.56457832E-08
   44.4300003      -3.56475276E-08
   44.4900017      -3.57470213E-08
   44.5499992      -3.59794470E-08
   44.6100006      -3.63447796E-08
   44.6699982      -3.68043693E-08
   44.7299995      -3.72888032E-08
   44.7900009      -3.77151714E-08
   44.8499985      -3.80090839E-08
   44.9099998      -3.81248952E-08
   44.9700012      -3.80577099E-08
   45.0299988      -3.78429093E-08
   45.0900002      -3.75429394E-08
   45.1500015      -3.72257958E-08
   45.2099991      -3.69428150E-08
   45.2700005      -3.67136508E-08
   45.3300018      -3.65234101E-08
   45.3899994      -3.63318904E-08
   45.4500008      -3.60903698E-08
   45.5099983      -3.57591254E-08
   45.5699997      -3.53199994E-08
   45.6300011      -3.47811984E-08
   45.6899986      -3.41748816E-08
   45.7500000      -3.35496182E-08
   45.8100014      -3.29600418E-08
   45.8699989      -3.24550911E-08
   45.9300003      -3.20662430E-08
   45.9900017      -3.17977928E-08
   46.0499992      -3.16223705E-08
   46.1100006      -3.14846247E-08
   46.1699982      -3.13138990E-08
   46.2299995      -3.10430899E-08
   46.2900009      -3.06276675E-08
   46.3499985      -3.00580218E-08
   46.4099998      -2.93605069E-08
   46.4700012      -2.85871700E-08
   46.5299988      -2.77987322E-08
   46.5900002      -2.70477685E-08
   46.6500015      -2.63682018E-08
   46.7099991      -2.57738257E-08
   46.7700005      -2.52644270E-08
   46.8300018      -2.48351792E-08
   46.8899994      -2.44844056E-08
   46.9500008      -2.42164973E-08
   47.0099983      -2.40395472E-08
   47.0699997      -2.39597142E-08
   47.1300011      -2.39754705E-08
   47.1899986      -2.40746001E-08
   47.2500000      -2.42352129E-08
   47.3100014      -2.44304488E-08
   47.3699989      -2.46352752E-08
   47.4300003      -2.48334775E-08
   47.4900017      -2.50231995E-08
   47.5499992      -2.52197783E-08
   47.6100006      -2.54548649E-08
   47.6699982      -2.57708646E-08
   47.7299995      -2.62102979E-08
   47.7900009      -2.68011426E-08
   47.8499985      -2.75414536E-08
   47.9099998      -2.83886781E-08
   47.9700012      -2.92592972E-08
   48.0299988      -3.00421483E-08
   48.0900002      -3.06237276E-08
   48.1500015      -3.09185708E-08
   48.2099991      -3.08943946E-08
   48.2700005      -3.05826831E-08
   48.3300018      -3.00703178E-08
   48.3899994      -2.94749327E-08
   48.4500008      -2.89125239E-08
   48.5099983      -2.84680883E-08
   48.5699997      -2.81778636E-08
   48.6300011      -2.80267987E-08
   48.6899986      -2.79595032E-08
   48.7500000      -2.78994516E-08
   48.8100014      -2.77702306E-08
   48.8699989      -2.75137175E-08
   48.9300003      -2.71017040E-08
   48.9900017      -2.65392384E-08
   49.0499992      -2.58593200E-08
   49.1100006      -2.51102055E-08
   49.1699982      -2.43385649E-08
   49.2299995      -2.35734117E-08
   49.2900009      -2.28163586E-08
   49.3499985      -2.20422578E-08
   49.4099998      -2.12109565E-08
   49.4700012      -2.02865227E-08
   49.5299988      -1.92570013E-08
   49.5900002      -1.81467907E-08
   49.6500015      -1.70160064E-08
   49.7099991      -1.59459432E-08
   49.7700005      -1.50151944E-08
   49.8300018      -1.42749492E-08
   49.8899994      -1.37329259E-08
   49.9500008      -1.33525235E-08
   50.0099983      -1.30682913E-08
   50.0699997      -1.28126096E-08
   50.1300011      -1.25441257E-08
   50.1899986      -1.22677672E-08
   50.2500000      -1.20394050E-08
   50.3100014      -1.19541781E-08
   50.3699989      -1.21234160E-08
   50.4300003      -1.26488118E-08
   50.4900017      -1.36023903E-08
   50.5499992      -1.50176422E-08
   50.6100006      -1.68925762E-08