  -2.400000      0.0000000E+00
  -2.340000      0.0000000E+00
  -2.280000      0.0000000E+00
  -2.220000      0.0000000E+00
  -2.160000      0.0000000E+00
  -2.100000      0.0000000E+00
  -2.040000      0.0000000E+00
  -1.980000      5.5727353E-25
  -1.920000     -9.8972248E-24
  -1.860000     -1.3799721E-22
  -1.800000     -7.6223987E-22
  -1.740000     -2.4679277E-21
  -1.680000     -4.7963248E-21
  -1.620000     -3.1715333E-21
  -1.560000      1.3571219E-20
  -1.500000      5.7327061E-20
  -1.440000      1.1787183E-19
  -1.380000      1.2863687E-19
  -1.320000     -4.1686339E-20
  -1.260000     -5.0974866E-19
  -1.200000     -1.1804371E-18
  -1.140000     -1.5261688E-18
  -1.080000     -6.0352912E-19
  -1.020000      2.3897010E-18
 -0.9600000      6.9981548E-18
 -0.9000000      1.0445105E-17
 -0.8400000      7.8455409E-18
 -0.7800000     -5.1843818E-18
 -0.7200000     -2.7780384E-17
 -0.6600000     -4.9558343E-17
 -0.6000000     -5.1228467E-17
 -0.5400000     -1.3578068E-17
 -0.4800000      6.6510331E-17
 -0.4200000      1.6141252E-16
 -0.3600000      2.1248924E-16
 -0.3000000      1.5379036E-16
 -0.2400000     -4.3979244E-17
 -0.1800000     -3.3091359E-16
 -0.1200000     -5.6920545E-16
 -5.9999999E-02 -5.8218533E-16
  0.0000000E+00 -2.5445187E-16
  5.9999999E-02  3.6322872E-16
  0.1200000      1.0142190E-15
  0.1800000      1.3155991E-15
  0.2400000      9.5182765E-16
  0.3000000     -1.0027292E-16
  0.3600000     -1.4475912E-15
  0.4200000     -2.3704571E-15
  0.4800000     -2.1417084E-15
  0.5400000     -4.5657215E-16
  0.6000000      2.2439292E-15
  0.6600000      4.7698674E-15
  0.7200000      5.5886010E-15
  0.7800000      3.5304479E-15
  0.8400000     -1.4939721E-15
  0.9000000     -8.1151703E-15
  0.9600000     -1.3718782E-14
   1.020000     -1.5280461E-14
   1.080000     -1.0585539E-14
   1.140000      5.9957688E-16
   1.200000      1.5887744E-14
   1.260000      3.0524245E-14
   1.320000      3.8625366E-14
   1.380000      3.5148364E-14
   1.440000      1.8011766E-14
   1.500000     -1.0407057E-14
   1.560000     -4.3117101E-14
   1.620000     -7.0067196E-14
   1.680000     -8.1169019E-14
   1.740000     -6.9887936E-14
   1.800000     -3.6067388E-14
   1.860000      1.3279428E-14
   1.920000      6.5812373E-14
   1.980000      1.0786461E-13
   2.040000      1.2907050E-13
   2.100000      1.2559084E-13
   2.160000      1.0031585E-13
   2.220000      5.9726970E-14
   2.280000      8.8232779E-15
   2.340000     -5.3088034E-14
   2.400000     -1.3263520E-13
   2.460000     -2.3676615E-13
   2.520000     -3.6196041E-13
   2.580000     -4.8214248E-13
   2.640000     -5.4173999E-13
   2.700000     -4.6091977E-13
   2.760000     -1.5762309E-13
   2.820000      4.1457563E-13
   2.880000      1.2214728E-12
   2.940000      2.1121952E-12
   3.000000      2.8120093E-12
   3.060000      2.9609301E-12
   3.120000      2.2039289E-12
   3.180000      3.2065924E-13
   3.240000     -2.6370349E-12
   3.300000     -6.2456967E-12
   3.360000     -9.6961718E-12
   3.420000     -1.1896789E-11
   3.480000     -1.1695547E-11
   3.540000     -8.1859970E-12
   3.600000     -1.0294245E-12
   3.660000      9.2897365E-12
   3.720000      2.1351601E-11
   3.780000      3.2880556E-11
   3.840000      4.1026772E-11
   3.900000      4.2820397E-11
   3.960000      3.5739807E-11
   4.020000      1.8318319E-11
   4.080000     -9.2951306E-12
   4.140000     -4.4912761E-11
   4.200000     -8.4121508E-11
   4.260000     -1.2043601E-10
   4.320000     -1.4587906E-10
   4.380000     -1.5202958E-10
   4.440000     -1.3149067E-10
   4.500000     -7.9612594E-11
   4.560000      3.8117682E-12
   4.620000      1.1324067E-10
   4.680000      2.3682739E-10
   4.740000      3.5688028E-10
   4.800000      4.5142334E-10
   4.860000      4.9671756E-10
   4.920000      4.7039100E-10
   4.980000      3.5468761E-10
   5.040000      1.3930966E-10
   5.100000     -1.7659367E-10
   5.160000     -5.8358135E-10
   5.220000     -1.0623145E-09
   5.280000     -1.5851064E-09
   5.340000     -2.1184139E-09
   5.400000     -2.6259752E-09
   5.460000     -3.0722791E-09
   5.520000     -3.4260437E-09
   5.580000     -3.6633878E-09
   5.640000     -3.7703973E-09
   5.700000     -3.7448094E-09
   5.760000     -3.5966021E-09
   5.820000     -3.3473748E-09
   5.880000     -3.0285539E-09
   5.940000     -2.6786122E-09
   6.000000     -2.3396225E-09
   6.060000     -2.0535420E-09
   6.120000     -1.8586099E-09
   6.180000     -1.7861604E-09
   6.240000     -1.8580333E-09
   6.300000     -2.0846549E-09
   6.360000     -2.4638156E-09
   6.420000     -2.9801752E-09
   6.480000     -3.6056163E-09
   6.540000     -4.3006283E-09
   6.600000     -5.0169344E-09
   6.660000     -5.7014722E-09
   6.720000     -6.3016437E-09
   6.780000     -6.7713990E-09
   6.840000     -7.0774049E-09
   6.900000     -7.2042656E-09
   6.960000     -7.1576829E-09
   7.020000     -6.9646457E-09
   7.080000     -6.6702053E-09
   7.140000     -6.3310566E-09
   7.200000     -6.0068883E-09
   7.260000     -5.7510370E-09
   7.320000     -5.6022316E-09
   7.380000     -5.5790625E-09
   7.440000     -5.6782370E-09
   7.500000     -5.8768559E-09
   7.560000     -6.1381029E-09
   7.620000     -6.4190480E-09
   7.680000     -6.6789623E-09
   7.740000     -6.8865758E-09
   7.800000     -7.0250943E-09
   7.860000     -7.0943189E-09
   7.920000     -7.1097803E-09
   7.980000     -7.0992643E-09
   8.040000     -7.0974440E-09
   8.100000     -7.1395578E-09
   8.160000     -7.2551520E-09
   8.220000     -7.4628952E-09
   8.280000     -7.7673263E-09
   8.340000     -8.1580556E-09
   8.400000     -8.6115257E-09
   8.460000     -9.0948680E-09
   8.520000     -9.5709947E-09
   8.580000     -1.0003730E-08
   8.640000     -1.0361938E-08
   8.700000     -1.0621855E-08
   8.760000     -1.0767448E-08
   8.820000     -1.0789169E-08
   8.880000     -1.0681887E-08
   8.940000     -1.0442946E-08
   9.000000     -1.0071083E-08
   9.060000     -9.5665671E-09
   9.120000     -8.9323882E-09
   9.180000     -8.1758573E-09
   9.240000     -7.3097564E-09
   9.300000     -6.3522139E-09
   9.360000     -5.3248272E-09
   9.420000     -4.2491854E-09
   9.480000     -3.1425316E-09
   9.540000     -2.0137974E-09
   9.600000     -8.6128055E-10
   9.660000      3.2711739E-10
   9.720000      1.5709430E-09
   9.780000      2.8922147E-09
   9.840000      4.3097539E-09
   9.900000      5.8343455E-09
   9.960000      7.4659301E-09
   10.02000      9.1933554E-09
   10.08000      1.0996436E-08
   10.14000      1.2849532E-08
   10.20000      1.4725620E-08
   10.26000      1.6599975E-08
   10.32000      1.8452917E-08
   10.38000      2.0271377E-08
   10.44000      2.2049260E-08
   10.50000      2.3786708E-08
   10.56000      2.5488301E-08
   10.62000      2.7160482E-08
   10.68000      2.8808451E-08
   10.74000      3.0433206E-08
   10.80000      3.2029334E-08
   10.86000      3.3584243E-08
   10.92000      3.5079157E-08
   10.98000      3.6491670E-08
   11.04000      3.7799193E-08
   11.10000      3.8982126E-08
   11.16000      4.0025853E-08
   11.22000      4.0920867E-08
   11.28000      4.1661234E-08
   11.34000      4.2242291E-08
   11.40000      4.2658694E-08
   11.46000      4.2903942E-08
   11.52000      4.2971603E-08
   11.58000      4.2857888E-08
   11.64000      4.2564366E-08
   11.70000      4.2099746E-08
   11.76000      4.1479971E-08
   11.82000      4.0726583E-08
   11.88000      3.9864112E-08
   11.94000      3.8917186E-08
   12.00000      3.7908240E-08
   12.06000      3.6856122E-08
   12.12000      3.5775606E-08
   12.18000      3.4677747E-08
   12.24000      3.3570885E-08
   12.30000      3.2462168E-08
   12.36000      3.1359242E-08
   12.42000      3.0271444E-08
   12.48000      2.9209755E-08
   12.54000      2.8184987E-08
   12.60000      2.7204358E-08
   12.66000      2.6267662E-08
   12.72000      2.5364727E-08
   12.78000      2.4476005E-08
   12.84000      2.3576931E-08
   12.90000      2.2645287E-08
   12.96000      2.1669209E-08
   13.02000      2.0652715E-08
   13.08000      1.9616278E-08
   13.14000      1.8591525E-08
   13.20000      1.7611448E-08
   13.26000      1.6699296E-08
   13.32000      1.5860055E-08
   13.38000      1.5077653E-08
   13.44000      1.4319108E-08
   13.50000      1.3544432E-08
   13.56000      1.2719112E-08
   13.62000      1.1825102E-08
   13.68000      1.0866842E-08
   13.74000      9.8704236E-09
   13.80000      8.8762961E-09
   13.86000      7.9278610E-09
   13.92000      7.0594393E-09
   13.98000      6.2870860E-09
   14.04000      5.6046430E-09
   14.10000      4.9857931E-09
   14.16000      4.3911359E-09
   14.22000      3.7780699E-09
   14.28000      3.1107472E-09
   14.34000      2.3676077E-09
   14.40000      1.5448706E-09
   14.46000      6.5546574E-10
   14.52000     -2.7595962E-10
   14.58000     -1.2204487E-09
   14.64000     -2.1525648E-09
   14.70000     -3.0566685E-09
   14.76000     -3.9301620E-09
   14.82000     -4.7830788E-09
   14.88000     -5.6343934E-09
   14.94000     -6.5062706E-09
   15.00000     -7.4179316E-09
   15.06000     -8.3807459E-09
   15.12000     -9.3956718E-09
   15.18000     -1.0453427E-08
   15.24000     -1.1537144E-08
   15.30000     -1.2626757E-08
   15.36000     -1.3704202E-08
   15.42000     -1.4758412E-08
   15.48000     -1.5789118E-08
   15.54000     -1.6808503E-08
   15.60000     -1.7840012E-08
   15.66000     -1.8914099E-08
   15.72000     -2.0061485E-08
   15.78000     -2.1305313E-08
   15.84000     -2.2654195E-08
   15.90000     -2.4098188E-08
   15.96000     -2.5609106E-08
   16.02000     -2.7145516E-08
   16.08000     -2.8661390E-08
   16.14000     -3.0116389E-08
   16.20000     -3.1485172E-08
   16.26000     -3.2763275E-08
   16.32000     -3.3967851E-08
   16.38000     -3.5132899E-08
   16.44000     -3.6300055E-08
   16.50000     -3.7507302E-08
   16.56000     -3.8778758E-08
   16.62000     -4.0118444E-08
   16.68000     -4.1509800E-08
   16.74000     -4.2920881E-08
   16.80000     -4.4313403E-08
   16.86000     -4.5652570E-08
   16.92000     -4.6914646E-08
   16.98000     -4.8090151E-08
   17.04000     -4.9182308E-08
   17.10000     -5.0201759E-08
   17.16000     -5.1159475E-08
   17.22000     -5.2059868E-08
   17.28000     -5.2895768E-08
   17.34000     -5.3646147E-08
   17.40000     -5.4277105E-08
   17.46000     -5.4746067E-08
   17.52000     -5.5008595E-08
   17.58000     -5.5026632E-08
   17.64000     -5.4776269E-08
   17.70000     -5.4253000E-08
   17.76000     -5.3472807E-08
   17.82000     -5.2468501E-08
   17.88000     -5.1282246E-08
   17.94000     -4.9956260E-08
   18.00000     -4.8524299E-08
   18.06000     -4.7006253E-08
   18.12000     -4.5407162E-08
   18.18000     -4.3720910E-08
   18.24000     -4.1937462E-08
   18.30000     -4.0051759E-08
   18.36000     -3.8071782E-08
   18.42000     -3.6023454E-08
   18.48000     -3.3950684E-08
   18.54000     -3.1910151E-08
   18.60000     -2.9962063E-08
   18.66000     -2.8159345E-08
   18.72000     -2.6538116E-08
   18.78000     -2.5111930E-08
   18.84000     -2.3870770E-08
   18.90000     -2.2784437E-08
   18.96000     -2.1808926E-08
   19.02000     -2.0894232E-08
   19.08000     -1.9992308E-08
   19.14000     -1.9064277E-08
   19.20000     -1.8086061E-08
   19.26000     -1.7051399E-08
   19.32000     -1.5971235E-08
   19.38000     -1.4869072E-08
   19.44000     -1.3773212E-08
   19.50000     -1.2708197E-08
   19.56000     -1.1688353E-08
   19.62000     -1.0715761E-08
   19.68000     -9.7831014E-09
   19.74000     -8.8797236E-09
   19.80000     -7.9979916E-09
   19.86000     -7.1371349E-09
   19.92000     -6.3033241E-09
   19.98000     -5.5066542E-09
   20.04000     -4.7570192E-09
   20.10000     -4.0609436E-09
   20.16000     -3.4204737E-09
   20.22000     -2.8339600E-09
   20.28000     -2.2977498E-09
   20.34000     -1.8078000E-09
   20.40000     -1.3606910E-09
   20.46000     -9.5401820E-10
   20.52000     -5.8624466E-10
   20.58000     -2.5594429E-10
   20.64000      3.9684870E-11
   20.70000      3.0679706E-10
   20.76000      5.5647698E-10
   20.82000      8.0460666E-10
   20.88000      1.0690416E-09
   20.94000      1.3642967E-09
   21.00000      1.6954405E-09
   21.06000      2.0538187E-09
   21.12000      2.4168865E-09
   21.18000      2.7528448E-09
   21.24000      3.0286980E-09
   21.30000      3.2188716E-09
   21.36000      3.3114069E-09
   21.42000      3.3099459E-09
   21.48000      3.2315184E-09
   21.54000      3.1015592E-09
   21.60000      2.9480436E-09
   21.66000      2.7961835E-09
   21.72000      2.6643781E-09
   21.78000      2.5616016E-09
   21.84000      2.4864004E-09
   21.90000      2.4278120E-09
   21.96000      2.3684261E-09
   22.02000      2.2892255E-09
   22.08000      2.1750250E-09
   22.14000      2.0187900E-09
   22.20000      1.8232947E-09
   22.26000      1.5995147E-09
   22.32000      1.3623889E-09
   22.38000      1.1255538E-09
   22.44000      8.9691804E-10
   22.50000      6.7647987E-10
   22.56000      4.5691542E-10
   22.62000      2.2655031E-10
   22.68000     -2.6340279E-11
   22.74000     -3.0928463E-10
   22.80000     -6.2276856E-10
   22.86000     -9.5973407E-10
   22.92000     -1.3076276E-09
   22.98000     -1.6522875E-09
   23.04000     -1.9822348E-09
   23.10000     -2.2917535E-09
   23.16000     -2.5816871E-09
   23.22000     -2.8578713E-09
   23.28000     -3.1280278E-09
   23.34000     -3.3982850E-09
   23.40000     -3.6701544E-09
   23.46000     -3.9382049E-09
   23.52000     -4.1884038E-09
   23.58000     -4.3974313E-09
   23.64000     -4.5338688E-09
   23.70000     -4.5623847E-09
   23.76000     -4.4512194E-09
   23.82000     -4.1816426E-09
   23.88000     -3.7563783E-09
   23.94000     -3.2034753E-09
   24.00000     -2.5732594E-09
   24.06000     -1.9285131E-09
   24.12000     -1.3306117E-09
   24.18000     -8.2578849E-10
   24.24000     -4.3534126E-10
   24.30000     -1.5190757E-10
   24.36000      5.8064286E-11
   24.42000      2.4686922E-10
   24.48000      4.7480669E-10
   24.54000      7.9779477E-10
   24.60000      1.2550438E-09
   24.66000      1.8588358E-09
   24.72000      2.5886746E-09
   24.78000      3.3916063E-09
   24.84000      4.1891157E-09
   24.90000      4.8891491E-09
   24.96000      5.4003308E-09
   25.02000      5.6451155E-09
   25.08000      5.5694596E-09
   25.14000      5.1480691E-09
   25.20000      4.3855364E-09
   25.26000      3.3141920E-09
   25.32000      1.9894815E-09
   25.38000      4.8346743E-10
   25.44000     -1.1228305E-09
   25.50000     -2.7472591E-09
   25.56000     -4.3133426E-09
   25.62000     -5.7552443E-09
   25.68000     -7.0207680E-09
   25.74000     -8.0729929E-09
   25.80000     -8.8913144E-09
   25.86000     -9.4722816E-09
   25.92000     -9.8299253E-09
   25.98000     -9.9949578E-09
   26.04000     -1.0012464E-08
   26.10000     -9.9382325E-09
   26.16000     -9.8343724E-09
   26.22000     -9.7646717E-09
   26.28000     -9.7897113E-09
   26.34000     -9.9613766E-09
   26.40000     -1.0316740E-08
   26.46000     -1.0872233E-08
   26.52000     -1.1620004E-08
   26.58000     -1.2528523E-08
   26.64000     -1.3548444E-08
   26.70000     -1.4622862E-08
   26.76000     -1.5699369E-08
   26.82000     -1.6740607E-08
   26.88000     -1.7730763E-08
   26.94000     -1.8677000E-08
   27.00000     -1.9606421E-08
   27.06000     -2.0560012E-08
   27.12000     -2.1584912E-08
   27.18000     -2.2726033E-08
   27.24000     -2.4017814E-08
   27.30000     -2.5477053E-08
   27.36000     -2.7098283E-08
   27.42000     -2.8853020E-08
   27.48000     -3.0693659E-08
   27.54000     -3.2561378E-08
   27.60000     -3.4396052E-08
   27.66000     -3.6145554E-08
   27.72000     -3.7771844E-08
   27.78000     -3.9252683E-08
   27.84000     -4.0579291E-08
   27.90000     -4.1751683E-08
   27.96000     -4.2774108E-08
   28.02000     -4.3652530E-08
   28.08000     -4.4394938E-08
   28.14000     -4.5013582E-08
   28.20000     -4.5527269E-08
   28.26000     -4.5961549E-08
   28.32000     -4.6345797E-08
   28.38000     -4.6707719E-08
   28.44000     -4.7067449E-08
   28.50000     -4.7433701E-08
   28.56000     -4.7803617E-08
   28.62000     -4.8166086E-08
   28.68000     -4.8506724E-08
   28.74000     -4.8812140E-08
   28.80000     -4.9071982E-08
   28.86000     -4.9278825E-08
   28.92000     -4.9427332E-08
   28.98000     -4.9514270E-08
   29.04000     -4.9540045E-08
   29.10000     -4.9510746E-08
   29.16000     -4.9438913E-08
   29.22000     -4.9341665E-08
   29.28000     -4.9236011E-08
   29.34000     -4.9133096E-08
   29.40000     -4.9033822E-08
   29.46000     -4.8927845E-08
   29.52000     -4.8796377E-08
   29.58000     -4.8617476E-08
   29.64000     -4.8371408E-08
   29.70000     -4.8043862E-08
   29.76000     -4.7625992E-08
   29.82000     -4.7112028E-08
   29.88000     -4.6496282E-08
   29.94000     -4.5771710E-08
   30.00000     -4.4931380E-08
   30.06000     -4.3972630E-08
   30.12000     -4.2902339E-08
   30.18000     -4.1740972E-08
   30.24000     -4.0523393E-08
   30.30000     -3.9295770E-08
   30.36000     -3.8109249E-08
   30.42000     -3.7012271E-08
   30.48000     -3.6043588E-08
   30.54000     -3.5227309E-08
   30.60000     -3.4570565E-08
   30.66000     -3.4063813E-08
   30.72000     -3.3683801E-08
   30.78000     -3.3399239E-08
   30.84000     -3.3179088E-08
   30.90000     -3.3002113E-08
   30.96000     -3.2865152E-08
   31.02000     -3.2786669E-08
   31.08000     -3.2803136E-08
   31.14000     -3.2958205E-08
   31.20000     -3.3288018E-08
   31.26000     -3.3808117E-08
   31.32000     -3.4507327E-08
   31.38000     -3.5351089E-08
   31.44000     -3.6292679E-08
   31.50000     -3.7287307E-08
   31.56000     -3.8303192E-08
   31.62000     -3.9325567E-08
   31.68000     -4.0353246E-08
   31.74000     -4.1390500E-08
   31.80000     -4.2438657E-08
   31.86000     -4.3490822E-08
   31.92000     -4.4531156E-08
   31.98000     -4.5538016E-08
   32.04000     -4.6489244E-08
   32.10000     -4.7368090E-08
   32.16000     -4.8168829E-08
   32.22000     -4.8901434E-08
   32.28000     -4.9594124E-08
   32.34000     -5.0292243E-08
   32.40000     -5.1051902E-08
   32.46000     -5.1928371E-08
   32.52000     -5.2961411E-08
   32.58000     -5.4162129E-08
   32.64000     -5.5506430E-08
   32.70000     -5.6938671E-08
   32.76000     -5.8385361E-08
   32.82000     -5.9774706E-08
   32.88000     -6.1055083E-08
   32.94000     -6.2205558E-08
   33.00000     -6.3234815E-08
   33.06000     -6.4169541E-08
   33.12000     -6.5037455E-08
   33.18000     -6.5852070E-08
   33.24000     -6.6604727E-08
   33.30000     -6.7265709E-08
   33.36000     -6.7792428E-08
   33.42000     -6.8140125E-08
   33.48000     -6.8270950E-08
   33.54000     -6.8159466E-08
   33.60000     -6.7794872E-08
   33.66000     -6.7181766E-08
   33.72000     -6.6340377E-08
   33.78000     -6.5305862E-08
   33.84000     -6.4125011E-08
   33.90000     -6.2849367E-08
   33.96000     -6.1525725E-08
   34.02000     -6.0186835E-08
   34.08000     -5.8846190E-08
   34.14000     -5.7499037E-08
   34.20000     -5.6128858E-08
   34.26000     -5.4716075E-08
   34.32000     -5.3244825E-08
   34.38000     -5.1705303E-08
   34.44000     -5.0092343E-08
   34.50000     -4.8403212E-08
   34.56000     -4.6637837E-08
   34.62000     -4.4802722E-08
   34.68000     -4.2916660E-08
   34.74000     -4.1014285E-08
   34.80000     -3.9144130E-08
   34.86000     -3.7360369E-08
   34.92000     -3.5711107E-08
   34.98000     -3.4227938E-08
   35.04000     -3.2920983E-08
   35.10000     -3.1780758E-08
   35.16000     -3.0784715E-08
   35.22000     -2.9904616E-08
   35.28000     -2.9111360E-08
   35.34000     -2.8376585E-08
   35.40000     -2.7673082E-08
   35.46000     -2.6976931E-08
   35.52000     -2.6272863E-08
   35.58000     -2.5561254E-08
   35.64000     -2.4862791E-08
   35.70000     -2.4216671E-08
   35.76000     -2.3670927E-08
   35.82000     -2.3267660E-08
   35.88000     -2.3029074E-08
   35.94000     -2.2950532E-08
   36.00000     -2.3003727E-08
   36.06000     -2.3148237E-08
   36.12000     -2.3345869E-08
   36.18000     -2.3571260E-08
   36.24000     -2.3814790E-08
   36.30000     -2.4078163E-08
   36.36000     -2.4366662E-08
   36.42000     -2.4682887E-08
   36.48000     -2.5024775E-08
   36.54000     -2.5387344E-08
   36.60000     -2.5765237E-08
   36.66000     -2.6153241E-08
   36.72000     -2.6544001E-08
   36.78000     -2.6924864E-08
   36.84000     -2.7276585E-08
   36.90000     -2.7575435E-08
   36.96000     -2.7797748E-08
   37.02000     -2.7923948E-08
   37.08000     -2.7939599E-08
   37.14000     -2.7833291E-08
   37.20000     -2.7594041E-08
   37.26000     -2.7211858E-08
   37.32000     -2.6683201E-08
   37.38000     -2.6019459E-08
   37.44000     -2.5253261E-08
   37.50000     -2.4437250E-08
   37.56000     -2.3633175E-08
   37.62000     -2.2894405E-08
   37.68000     -2.2249182E-08
   37.74000     -2.1692427E-08
   37.80000     -2.1190289E-08
   37.86000     -2.0695694E-08
   37.92000     -2.0167992E-08
   37.98000     -1.9588224E-08
   38.04000     -1.8964098E-08
   38.10000     -1.8323815E-08
   38.16000     -1.7702851E-08
   38.22000     -1.7129993E-08
   38.28000     -1.6618184E-08
   38.34000     -1.6162515E-08
   38.40000     -1.5744572E-08
   38.46000     -1.5340470E-08
   38.52000     -1.4929762E-08
   38.58000     -1.4503398E-08
   38.64000     -1.4069685E-08
   38.70000     -1.3657334E-08
   38.76000     -1.3314361E-08
   38.82000     -1.3101657E-08
   38.88000     -1.3081228E-08
   38.94000     -1.3301160E-08
   39.00000     -1.3781533E-08
   39.06000     -1.4506274E-08
   39.12000     -1.5424641E-08
   39.18000     -1.6462826E-08
   39.24000     -1.7542408E-08
   39.30000     -1.8599740E-08
   39.36000     -1.9600000E-08
   39.42000     -2.0541853E-08
   39.48000     -2.1452033E-08
   39.54000     -2.2372523E-08
   39.60000     -2.3344770E-08
   39.66000     -2.4395343E-08
   39.72000     -2.5526189E-08
   39.78000     -2.6711026E-08
   39.84000     -2.7898269E-08
   39.90000     -2.9020081E-08
   39.96000     -3.0006397E-08
   40.02000     -3.0801512E-08
   40.08000     -3.1379354E-08
   40.14000     -3.1752851E-08
   40.20000     -3.1973382E-08
   40.26000     -3.2119171E-08
   40.32000     -3.2275288E-08
   40.38000     -3.2511416E-08
   40.44000     -3.2864865E-08
   40.50000     -3.3334480E-08
   40.56000     -3.3886955E-08
   40.62000     -3.4472286E-08
   40.68000     -3.5041918E-08
   40.74000     -3.5562667E-08
   40.80000     -3.6021962E-08
   40.86000     -3.6423842E-08
   40.92000     -3.6778619E-08
   40.98000     -3.7091208E-08
   41.04000     -3.7352994E-08
   41.10000     -3.7540346E-08
   41.16000     -3.7620531E-08
   41.22000     -3.7563122E-08
   41.28000     -3.7353306E-08
   41.34000     -3.7002295E-08
   41.40000     -3.6550855E-08
   41.46000     -3.6063536E-08
   41.52000     -3.5614434E-08
   41.58000     -3.5268275E-08
   41.64000     -3.5063032E-08
   41.70000     -3.5000053E-08
   41.76000     -3.5045460E-08
   41.82000     -3.5142666E-08
   41.88000     -3.5231675E-08
   41.94000     -3.5268574E-08
   42.00000     -3.5238603E-08
   42.06000     -3.5158628E-08
   42.12000     -3.5068741E-08
   42.18000     -3.5016310E-08
   42.24000     -3.5038187E-08
   42.30000     -3.5147206E-08
   42.36000     -3.5327368E-08
   42.42000     -3.5539291E-08
   42.48000     -3.5734015E-08
   42.54000     -3.5870539E-08
   42.60000     -3.5931155E-08
   42.66000     -3.5929318E-08
   42.72000     -3.5907174E-08
   42.78000     -3.5923197E-08
   42.84000     -3.6033637E-08
   42.90000     -3.6273512E-08
   42.96000     -3.6643083E-08
   43.02000     -3.7104204E-08
   43.08000     -3.7588119E-08
   43.14000     -3.8012754E-08
   43.20000     -3.8304755E-08
   43.26000     -3.8419468E-08
   43.32000     -3.8352571E-08
   43.38000     -3.8139234E-08
   43.44000     -3.7840955E-08
   43.50000     -3.7524408E-08
   43.56000     -3.7239818E-08
   43.62000     -3.7006401E-08
   43.68000     -3.6809539E-08
   43.74000     -3.6609720E-08
   43.80000     -3.6358820E-08
   43.86000     -3.6017337E-08
   43.92000     -3.5566885E-08
   43.98000     -3.5015251E-08
   44.04000     -3.4394230E-08
   44.10000     -3.3752315E-08
   44.16000     -3.3144392E-08
   44.22000     -3.2619965E-08
   44.28000     -3.2211254E-08
   44.34000     -3.1923378E-08
   44.40000     -3.1729748E-08
   44.46000     -3.1575592E-08
   44.52000     -3.1390542E-08
   44.58000     -3.1107493E-08
   44.64000     -3.0681722E-08
   44.70000     -3.0103347E-08
   44.76000     -2.9398427E-08
   44.82000     -2.8618695E-08
   44.88000     -2.7824520E-08
   44.94000     -2.7068115E-08
   45.00000     -2.6383137E-08
   45.06000     -2.5783326E-08
   45.12000     -2.5268628E-08
   45.18000     -2.4834462E-08
   45.24000     -2.4479323E-08
   45.30000     -2.4207649E-08
   45.36000     -2.4027530E-08
   45.42000     -2.3945182E-08
   45.48000     -2.3959208E-08
   45.54000     -2.4057348E-08
   45.60000     -2.4217211E-08
   45.66000     -2.4410930E-08
   45.72000     -2.4612339E-08
   45.78000     -2.4804679E-08
   45.84000     -2.4986720E-08
   45.90000     -2.5175583E-08
   45.96000     -2.5405042E-08
   46.02000     -2.5718784E-08
   46.08000     -2.6158935E-08
   46.14000     -2.6751538E-08
   46.20000     -2.7492286E-08
   46.26000     -2.8337270E-08
   46.32000     -2.9203482E-08
   46.38000     -2.9981752E-08
   46.44000     -3.0560741E-08
   46.50000     -3.0855791E-08
   46.56000     -3.0833395E-08
   46.62000     -3.0522322E-08
   46.68000     -3.0006657E-08
   46.74000     -2.9402541E-08
   46.80000     -2.8826333E-08
   46.86000     -2.8364724E-08
   46.92000     -2.8055881E-08
   46.98000     -2.7885935E-08
   47.04000     -2.7799674E-08
   47.10000     -2.7720107E-08
   47.16000     -2.7570371E-08
   47.22000     -2.7292272E-08
   47.28000     -2.6857881E-08
   47.34000     -2.6272554E-08
   47.40000     -2.5569380E-08
   47.46000     -2.4796448E-08
   47.52000     -2.4000146E-08
   47.58000     -2.3209152E-08
   47.64000     -2.2424635E-08
   47.70000     -2.1620819E-08
   47.76000     -2.0756874E-08
   47.82000     -1.9796605E-08
   47.88000     -1.8728796E-08
   47.94000     -1.7579872E-08
   48.00000     -1.6412894E-08
   48.06000     -1.5312052E-08
   48.12000     -1.4357644E-08
   48.18000     -1.3600760E-08
   48.24000     -1.3047498E-08
   48.30000     -1.2659146E-08
   48.36000     -1.2368780E-08
   48.42000     -1.2108473E-08
   48.48000     -1.1837361E-08
   48.54000     -1.1560729E-08
   48.60000     -1.1333971E-08
   48.66000     -1.1250967E-08
   48.72000     -1.1421900E-08
   48.78000     -1.1948490E-08
   48.84000     -1.2904438E-08
   48.90000     -1.4325964E-08
   48.96000     -1.6213564E-08
   49.02000     -1.8542869E-08
   49.08000     -2.1280956E-08
   49.14000     -2.4404294E-08
   49.20000     -2.7915192E-08
   49.26000     -3.1854213E-08
   49.32000     -3.6306567E-08
   49.38000     -4.1401300E-08
   49.44000     -4.7303821E-08
   49.50000     -5.4204669E-08
   49.56000     -6.2309425E-08
   49.62000     -7.1835359E-08
   49.68000     -8.3017916E-08
   49.74000     -9.6126328E-08
   49.80000     -1.1148316E-07
   49.86000     -1.2948050E-07
   49.92000     -1.5058770E-07
   49.98000     -1.7534998E-07
   50.04000     -2.0438351E-07
   50.10000     -2.3837498E-07
   50.16000     -2.7809261E-07
   50.22000     -3.2441028E-07
   50.28000     -3.7833942E-07
   50.34000     -4.4106091E-07
   50.40000     -5.1394852E-07
   50.46000     -5.9858201E-07
   50.52000     -6.9675247E-07
   50.58000     -8.1046556E-07
   50.64000     -9.4195047E-07
   50.70000     -1.0936764E-06
   50.76000     -1.2683755E-06
   50.82000     -1.4690717E-06
   50.88000     -1.6991105E-06
   50.94000     -1.9621916E-06
   51.00000     -2.2624056E-06
   51.06000     -2.6042730E-06
   51.12000     -2.9927871E-06
   51.18000     -3.4334573E-06
   51.24000     -3.9323459E-06
   51.30000     -4.4960966E-06
   51.36000     -5.1319589E-06
   51.42000     -5.8477963E-06
   51.48000     -6.6521047E-06
   51.54000     -7.5540192E-06
   51.60000     -8.5633383E-06
   51.66000     -9.6905442E-06
   51.72000     -1.0946833E-05
   51.78000     -1.2344145E-05
   51.84000     -1.3895185E-05
   51.90000     -1.5613434E-05
   51.96000     -1.7513141E-05
   52.02000     -1.9609328E-05
   52.08000     -2.1917755E-05
   52.14000     -2.4454899E-05
   52.20000     -2.7237935E-05
   52.26000     -3.0284678E-05
   52.32000     -3.3613531E-05
   52.38000     -3.7243411E-05
   52.44000     -4.1193667E-05
   52.50000     -4.5483983E-05
   52.56000     -5.0134298E-05
   52.62000     -5.5164703E-05
   52.68000     -6.0595350E-05
   52.74000     -6.6446344E-05
   52.80000     -7.2737566E-05
   52.86000     -7.9488564E-05
   52.92000     -8.6718363E-05
   52.98000     -9.4445284E-05
   53.04000     -1.0268678E-04
   53.10000     -1.1145926E-04
   53.16000     -1.2077782E-04
   53.22000     -1.3065618E-04
   53.28000     -1.4110634E-04
   53.34000     -1.5213853E-04
   53.40000     -1.6376088E-04
   53.46000     -1.7597935E-04
   53.52000     -1.8879752E-04
   53.58000     -2.0221641E-04
   53.64000     -2.1623445E-04
   53.70000     -2.3084716E-04
   53.76000     -2.4604716E-04
   53.82000     -2.6182391E-04
   53.88000     -2.7816376E-04
   53.94000     -2.9504977E-04
   54.00000     -3.1246169E-04
   54.06000     -3.3037597E-04
   54.12000     -3.4876575E-04
   54.18000     -3.6760099E-04
   54.24000     -3.8684838E-04
   54.30000     -4.0647160E-04
   54.36000     -4.2643145E-04
   54.42000     -4.4668588E-04
   54.48000     -4.6719026E-04
   54.54000     -4.8789760E-04
   54.60000     -5.0875882E-04
   54.66000     -5.2972301E-04
   54.72000     -5.5073766E-04
   54.78000     -5.7174917E-04
   54.84000     -5.9270312E-04
   54.90000     -6.1354431E-04
   54.96000     -6.3421781E-04
   55.02000     -6.5466890E-04
   55.08000     -6.7484356E-04
   55.14000     -6.9468899E-04
   55.20000     -7.1415369E-04
   55.26000     -7.3318789E-04
   55.32000     -7.5174420E-04
   55.38000     -7.6977763E-04
   55.44000     -7.8724604E-04
   55.50000     -8.0411066E-04
   55.56000     -8.2033640E-04