 -0.750000000       0.00000000    
 -0.689999998       0.00000000    
 -0.629999995       0.00000000    
 -0.569999993       0.00000000    
 -0.509999990       0.00000000    
 -0.449999988       0.00000000    
 -0.389999986       0.00000000    
 -0.330000013      -8.38740659E-24
 -0.270000011      -6.75740334E-23
 -0.209999993      -2.21653809E-22
 -0.150000006      -1.96665232E-22
  -9.00000036E-02   1.25866759E-21
  -2.99999993E-02   6.33745396E-21
   2.99999993E-02   1.49707380E-20
   9.00000036E-02   1.71633983E-20
  0.150000006      -1.31121617E-20
  0.209999993      -1.05601037E-19
  0.270000011      -2.46330638E-19
  0.330000013      -3.08957749E-19
  0.389999986      -3.81545814E-20
  0.449999988       8.03583580E-19
  0.509999990       2.08337225E-18
  0.569999993       2.91609497E-18
  0.629999995       1.69024794E-18
  0.689999998      -3.03827761E-18
  0.750000000      -1.08119454E-17
  0.810000002      -1.76619952E-17
  0.870000005      -1.63600559E-17
  0.930000007       7.11855027E-20
  0.990000010       3.21560441E-17
   1.04999995       6.84906143E-17
   1.11000001       8.60606452E-17
   1.16999996       5.96422897E-17
   1.23000002      -2.19494328E-17
   1.28999996      -1.41399776E-16
   1.35000002      -2.51131875E-16
   1.40999997      -2.89756207E-16
   1.47000003      -2.10879745E-16
   1.52999997      -8.57693486E-18
   1.59000003       2.75872808E-16
   1.64999998       5.68708138E-16
   1.71000004       7.86120902E-16
   1.76999998       8.45420991E-16
   1.83000004       6.61043306E-16
   1.88999999       1.48258665E-16
   1.95000005      -7.29913808E-16
   2.00999999      -1.86319847E-15
   2.06999993      -2.89479884E-15
   2.13000011      -3.23131317E-15
   2.19000006      -2.25838783E-15
   2.25000000       2.55944663E-16
   2.30999994       3.76375448E-15
   2.36999989       6.85678973E-15
   2.43000007       7.74322114E-15
   2.49000001       5.22223679E-15
   2.54999995      -3.03507946E-16
   2.60999990      -6.47607002E-15
   2.67000008      -9.81522890E-15
   2.73000002      -7.63316700E-15
   2.78999996      -1.26789318E-16
   2.84999990       8.72249203E-15
   2.91000009       1.24951395E-14
   2.97000003       5.83111626E-15
   3.02999997      -1.14880614E-14
   3.08999991      -3.23504109E-14
   3.15000010      -4.40750037E-14
   3.21000004      -3.43145685E-14
   3.26999998       1.23747967E-15
   3.32999992       5.34580348E-14
   3.39000010       1.00605654E-13
   3.45000005       1.16602176E-13
   3.50999999       8.40633512E-14
   3.56999993       5.99793432E-15
   3.63000011      -9.05906345E-14
   3.69000006      -1.63058491E-13
   3.75000000      -1.71691844E-13
   3.80999994      -1.00982231E-13
   3.86999989       2.68393130E-14
   3.93000007       1.54544631E-13
   3.99000001       2.10893274E-13
   4.05000019       1.43146996E-13
   4.11000013      -5.24141243E-14
   4.17000008      -3.16844858E-13
   4.23000002      -5.41052337E-13
   4.28999996      -6.02988417E-13
   4.34999990      -4.16514886E-13
   4.40999985       2.78490508E-14
   4.46999979       6.48262097E-13
   4.53000021       1.29040626E-12
   4.59000015       1.77234952E-12
   4.65000010       1.93590716E-12
   4.71000004       1.68262182E-12
   4.76999998       9.82221249E-13
   4.82999992      -1.40935413E-13
   4.88999987      -1.62210165E-12
   4.94999981      -3.34655871E-12
   5.01000023      -5.10655190E-12
   5.07000017      -6.54349101E-12
   5.13000011      -7.12164572E-12
   5.19000006      -6.18783540E-12
   5.25000000      -3.14850663E-12
   5.30999994       2.25633618E-12
   5.36999989       9.66386086E-12
   5.42999983       1.79056683E-11
   5.48999977       2.50472924E-11
   5.55000019       2.87057513E-11
   5.61000013       2.66053637E-11
   5.67000008       1.72383392E-11
   5.73000002       4.45395565E-13
   5.78999996      -2.22539487E-11
   5.84999990      -4.76781496E-11
   5.90999985      -7.13450618E-11
   5.96999979      -8.80943443E-11
   6.03000021      -9.28549182E-11
   6.09000015      -8.14590756E-11
   6.15000010      -5.14443106E-11
   6.21000004      -2.80555180E-12
   6.26999998       6.13626788E-11
   6.32999992       1.34456238E-10
   6.38999987       2.06366868E-10
   6.44999981       2.64095412E-10
   6.51000023       2.93083530E-10
   6.57000017       2.79208989E-10
   6.63000011       2.11185139E-10
   6.69000006       8.29383645E-11
   6.75000000      -1.04526422E-10
   6.80999994      -3.42189582E-10
   6.86999989      -6.13244011E-10
   6.92999983      -8.94477381E-10
   6.98999977      -1.15858079E-09
   7.05000019      -1.37701051E-09
   7.11000013      -1.52298296E-09
   7.17000008      -1.57422742E-09
   7.23000002      -1.51522339E-09
   7.28999996      -1.33876343E-09
   7.34999990      -1.04678910E-09
   7.40999985      -6.50516196E-10
   7.46999979      -1.69896958E-10
   7.53000021       3.67543163E-10
   7.59000015       9.28476018E-10
   7.65000010       1.47613910E-09
   7.71000004       1.97325845E-09
   7.76999998       2.38537878E-09
   7.82999992       2.68431499E-09
   7.88999987       2.85129320E-09
   7.94999981       2.87928636E-09
   8.01000023       2.77411871E-09
   8.06999969       2.55412314E-09
   8.13000011       2.24841568E-09
   8.18999958       1.89413929E-09
   8.25000000       1.53313939E-09
   8.31000042       1.20851207E-09
   8.36999989       9.61260960E-10
   8.43000031       8.27097280E-10
   8.48999977       8.33327962E-10
   8.55000019       9.95880378E-10
   8.60999966       1.31679123E-09
   8.67000008       1.78278792E-09
   8.72999954       2.36570075E-09
   8.78999996       3.02523495E-09
   8.85000038       3.71406861E-09
   8.90999985       4.38451586E-09
   8.97000027       4.99536057E-09
   9.02999973       5.51723556E-09
   9.09000015       5.93523231E-09
   9.14999962       6.24820373E-09
   9.21000004       6.46523546E-09
   9.27000046       6.60056187E-09
   9.32999992       6.66856392E-09
   9.39000034       6.68022970E-09
   9.44999981       6.64173339E-09
   9.51000023       6.55493082E-09
   9.56999969       6.41895692E-09
   9.63000011       6.23191365E-09
   9.68999958       5.99198202E-09
   9.75000000       5.69784842E-09
   9.81000042       5.34889333E-09
   9.86999989       4.94576913E-09
   9.93000031       4.49178827E-09
   9.98999977       3.99499323E-09
   10.0500002       3.47021478E-09
   10.1099997       2.94009239E-09
   10.1700001       2.43415732E-09
   10.2299995       1.98562811E-09
   10.2900000       1.62636538E-09
   10.3500004       1.38117406E-09
   10.4099998       1.26304855E-09
   10.4700003       1.27081867E-09
   10.5299997       1.39000977E-09
   10.5900002       1.59673141E-09
   10.6499996       1.86341254E-09
   10.7100000       2.16457718E-09
   10.7700005       2.48087639E-09
   10.8299999       2.80030044E-09
   10.8900003       3.11666515E-09
   10.9499998       3.42660833E-09
   11.0100002       3.72694231E-09
   11.0699997       4.01393940E-09
   11.1300001       4.28505986E-09
   11.1899996       4.54218174E-09
   11.2500000       4.79434759E-09
   11.3100004       5.05785813E-09
   11.3699999       5.35256506E-09
   11.4300003       5.69494318E-09
   11.4899998       6.09025586E-09
   11.5500002       6.52699272E-09
   11.6099997       6.97625024E-09
   11.6700001       7.39703276E-09
   11.7299995       7.74614151E-09
   11.7900000       7.98950506E-09
   11.8500004       8.11114109E-09
   11.9099998       8.11679080E-09
   11.9700003       8.03125477E-09
   12.0299997       7.89073784E-09
   12.0900002       7.73325493E-09
   12.1499996       7.59059660E-09
   12.2100000       7.48444418E-09
   12.2700005       7.42736139E-09
   12.3299999       7.42724238E-09
   12.3900003       7.49244844E-09
   12.4499998       7.63458896E-09
   12.5100002       7.86717891E-09
   12.5699997       8.20037727E-09
   12.6300001       8.63414762E-09
   12.6899996       9.15322484E-09
   12.7500000       9.72687708E-09
   12.8100004       1.03144870E-08
   12.8699999       1.08753770E-08
   12.9300003       1.13791883E-08
   12.9899998       1.18125190E-08
   13.0500002       1.21789139E-08
   13.1099997       1.24920394E-08
   13.1700001       1.27648558E-08
   13.2299995       1.29993607E-08
   13.2900000       1.31812499E-08
   13.3500004       1.32816806E-08
   13.4099998       1.32652707E-08
   13.4700003       1.31008866E-08
   13.5299997       1.27708644E-08
   13.5900002       1.22752750E-08
   13.6499996       1.16302461E-08
   13.7100000       1.08619096E-08
   13.7700005       9.99914107E-09
   13.8299999       9.06828035E-09
   13.8900003       8.09161005E-09
   13.9499998       7.08932291E-09
   14.0100002       6.08301143E-09
   14.0699997       5.09809839E-09
   14.1300001       4.16333545E-09
   14.1899996       3.30706196E-09
   14.2500000       2.55162735E-09
   14.3100004       1.90842964E-09
   14.3699999       1.37593925E-09
   14.4300003       9.41901446E-10
   14.4899998       5.89133131E-10
   14.5500002       3.02739972E-10
   14.6099997       7.58633226E-11
   14.6700001      -8.84384788E-11
   14.7299995      -1.80059301E-10
   14.7900000      -1.88402752E-10
   14.8500004      -1.10045334E-10
   14.9099998       4.55732570E-11
   14.9700003       2.54753746E-10
   15.0299997       4.83069751E-10
   15.0900002       6.92541691E-10
   15.1499996       8.49817272E-10
   15.2100000       9.32490307E-10
   15.2700005       9.31626887E-10
   15.3299999       8.50280402E-10
   15.3900003       6.99484914E-10
   15.4499998       4.94162544E-10
   15.5100002       2.51141996E-10
   15.5699997      -9.84685857E-12
   15.6300001      -2.63156941E-10
   15.6899996      -4.74558337E-10
   15.7500000      -6.01578731E-10
   15.8100004      -5.98419758E-10
   15.8699999      -4.24981939E-10
   15.9300003      -5.74449793E-11
   15.9899998       5.03281583E-10
   16.0499992       1.22854604E-09
   16.1100006       2.06590212E-09
   16.1700001       2.94909852E-09
   16.2299995       3.81114429E-09
   16.2900009       4.59658400E-09
   16.3500004       5.26968913E-09
   16.4099998       5.81683590E-09
   16.4699993       6.24332008E-09
   16.5300007       6.56641763E-09
   16.5900002       6.80732271E-09
   16.6499996       6.98454405E-09
   16.7099991       7.11058412E-09
   16.7700005       7.19254878E-09
   16.8299999       7.23600735E-09
   16.8899994       7.25032345E-09
   16.9500008       7.25316696E-09
   17.0100002       7.27226324E-09
   17.0699997       7.34364392E-09
   17.1299992       7.50720996E-09
   17.1900005       7.80162690E-09
   17.2500000       8.26074231E-09
   17.3099995       8.91264218E-09
   17.3700008       9.78074155E-09
   17.4300003       1.08848885E-08
   17.4899998       1.22402728E-08
   17.5499992       1.38532492E-08
   17.6100006       1.57152815E-08
   17.6700001       1.77978468E-08
   17.7299995       2.00513206E-08
   17.7900009       2.24092940E-08
   17.8500004       2.47972487E-08
   17.9099998       2.71426099E-08
   17.9699993       2.93826776E-08
   18.0300007       3.14683888E-08
   18.0900002       3.33640813E-08
   18.1499996       3.50453071E-08
   18.2099991       3.64970205E-08
   18.2700005       3.77134839E-08
   18.3299999       3.86991879E-08
   18.3899994       3.94690893E-08
   18.4500008       4.00463449E-08
   18.5100002       4.04572909E-08
   18.5699997       4.07249132E-08
   18.6299992       4.08633234E-08
   18.6900005       4.08753245E-08
   18.7500000       4.07539602E-08
   18.8099995       4.04871621E-08
   18.8700008       4.00635543E-08
   18.9300003       3.94772748E-08
   18.9899998       3.87305228E-08
   19.0499992       3.78335621E-08
   19.1100006       3.68029163E-08
   19.1700001       3.56587009E-08
   19.2299995       3.44219409E-08
   19.2900009       3.31123644E-08
   19.3500004       3.17467297E-08
   19.4099998       3.03376915E-08
   19.4699993       2.88932718E-08
   19.5300007       2.74171192E-08
   19.5900002       2.59096957E-08
   19.6499996       2.43704896E-08
   19.7099991       2.28009220E-08
   19.7700005       2.12073576E-08
   19.8299999       1.96033536E-08
   19.8899994       1.80104234E-08
   19.9500008       1.64569638E-08
   20.0100002       1.49754857E-08
   20.0699997       1.35988074E-08
   20.1299992       1.23559740E-08
   20.1900005       1.12684528E-08
   20.2500000       1.03469269E-08
   20.3099995       9.58874580E-09
   20.3700008       8.97633878E-09
   20.4300003       8.47721804E-09
   20.4899998       8.04634848E-09
   20.5499992       7.63126007E-09
   20.6100006       7.17925452E-09
   20.6700001       6.64490507E-09
   20.7299995       5.99556360E-09
   20.7900009       5.21323296E-09
   20.8500004       4.29281277E-09
   20.9099998       3.23860583E-09
   20.9699993       2.06178674E-09
   21.0300007       7.80759069E-10
   21.0900002      -5.75921144E-10
   21.1499996      -1.96668282E-09
   21.2099991      -3.33769345E-09
   21.2700005      -4.62946437E-09
   21.3299999      -5.78843506E-09
   21.3899994      -6.77944367E-09
   21.4500008      -7.59360486E-09
   21.5100002      -8.24755197E-09
   21.5699997      -8.77377726E-09
   21.6299992      -9.20598175E-09
   21.6900005      -9.56572332E-09
   21.7500000      -9.85597204E-09
   21.8099995      -1.00637472E-08
   21.8700008      -1.01697664E-08
   21.9300003      -1.01600763E-08
   21.9899998      -1.00343973E-08
   22.0499992      -9.80827064E-09
   22.1100006      -9.50947232E-09
   22.1700001      -9.17184106E-09
   22.2299995      -8.83017037E-09
   22.2900009      -8.51829896E-09
   22.3500004      -8.27008062E-09
   22.4099998      -8.12089063E-09
   22.4699993      -8.10693290E-09
   22.5300007      -8.26088797E-09
   22.5900002      -8.60454286E-09
   22.6499996      -9.14093690E-09
   22.7099991      -9.84921478E-09
   22.7700005      -1.06846088E-08
   22.8299999      -1.15841656E-08
   22.8899994      -1.24768746E-08
   22.9500008      -1.32954971E-08
   23.0100002      -1.39871519E-08
   23.0699997      -1.45203440E-08
   23.1299992      -1.48873989E-08
   23.1900005      -1.51023869E-08
   23.2500000      -1.51955124E-08
   23.3099995      -1.52052966E-08
   23.3700008      -1.51701247E-08
   23.4300003      -1.51206887E-08
   23.4899998      -1.50748871E-08
   23.5499992      -1.50362691E-08
   23.6100006      -1.49963189E-08
   23.6700001      -1.49396584E-08
   23.7299995      -1.48502792E-08
   23.7900009      -1.47165249E-08
   23.8500004      -1.45332697E-08
   23.9099998      -1.43011833E-08
   23.9699993      -1.40243461E-08
   24.0300007      -1.37080916E-08
   24.0900002      -1.33582940E-08
   24.1499996      -1.29819124E-08
   24.2099991      -1.25873250E-08
   24.2700005      -1.21828965E-08
   24.3299999      -1.17733823E-08
   24.3899994      -1.13555521E-08
   24.4500008      -1.09156151E-08
   24.5100002      -1.04305800E-08
   24.5699997      -9.87382354E-09
   24.6299992      -9.22272303E-09
   24.6900005      -8.46498072E-09
   24.7500000      -7.60087637E-09
   24.8099995      -6.64111477E-09
   24.8700008      -5.60250646E-09
   24.9300003      -4.50490845E-09
   24.9899998      -3.37175687E-09
   25.0499992      -2.23374075E-09
   25.1100006      -1.13241616E-09
   25.1700001      -1.19700999E-10
   25.2299995       7.49041440E-10
   25.2900009       1.42708212E-09
   25.3500004       1.88896543E-09
   25.4099998       2.13802864E-09
   25.4699993       2.20504925E-09
   25.5300007       2.13833862E-09
   25.5900002       1.98958405E-09
   25.6499996       1.80157067E-09
   25.7099991       1.60254710E-09
   25.7700005       1.40833423E-09
   25.8299999       1.22925736E-09
   25.8899994       1.07680265E-09
   25.9500008       9.65606595E-10
   26.0100002       9.09408326E-10
   26.0699997       9.13242093E-10
   26.1299992       9.66391411E-10
   26.1900005       1.04041720E-09
   26.2500000       1.09413845E-09
   26.3099995       1.08414078E-09
   26.3700008       9.76890013E-10
   26.4300003       7.57943985E-10
   26.4899998       4.35169484E-10
   26.5499992       3.54429160E-11
   26.6100006      -4.03190953E-10
   26.6700001      -8.40522374E-10
   26.7299995      -1.24107069E-09
   26.7900009      -1.57688873E-09
   26.8500004      -1.82618565E-09
   26.9099998      -1.96932537E-09
   26.9699993      -1.98466976E-09
   27.0300007      -1.84669646E-09
   27.0900002      -1.52788748E-09
   27.1499996      -1.00446740E-09
   27.2099991      -2.64597316E-10
   27.2700005       6.83420764E-10
   27.3299999       1.80566873E-09
   27.3899994       3.04206149E-09
   27.4500008       4.31166924E-09
   27.5100002       5.52326940E-09
   27.5699997       6.58901333E-09
   27.6299992       7.43815942E-09
   27.6900005       8.02769851E-09
   27.7500000       8.34745961E-09
   27.8099995       8.41872883E-09
   27.8700008       8.28711677E-09
   27.9300003       8.01183742E-09
   27.9899998       7.65423813E-09
   28.0499992       7.26815852E-09
   28.1100006       6.89370561E-09
   28.1700001       6.55483312E-09
   28.2299995       6.26023100E-09
   28.2900009       6.00674310E-09
   28.3500004       5.78465986E-09
   28.4099998       5.58428503E-09
   28.4699993       5.40280976E-09
   28.5300007       5.24981880E-09
   28.5900002       5.14925125E-09
   28.6499996       5.13612486E-09
   28.7099991       5.24799626E-09
   28.7700005       5.51350610E-09
   28.8299999       5.94217919E-09
   28.8899994       6.51976118E-09
   28.9500008       7.21133553E-09
   29.0100002       7.97110911E-09
   29.0699997       8.75475248E-09
   29.1299992       9.52910817E-09
   29.1900005       1.02756728E-08
   29.2500000       1.09875113E-08
   29.3099995       1.16625865E-08
   29.3700008       1.22979262E-08
   29.4300003       1.28879920E-08
   29.4899998       1.34277558E-08
   29.5499992       1.39179317E-08
   29.6100006       1.43683438E-08
   29.6700001       1.47962336E-08
   29.7299995       1.52189976E-08
   29.7900009       1.56439839E-08
   29.8500004       1.60599409E-08
   29.9099998       1.64346332E-08
   29.9699993       1.67208967E-08
   30.0300007       1.68699561E-08
   30.0900002       1.68477428E-08
   30.1499996       1.66481975E-08
   30.2099991       1.62982996E-08
   30.2700005       1.58523168E-08
   30.3299999       1.53767559E-08
   30.3899994       1.49310750E-08
   30.4500008       1.45508574E-08
   30.5100002       1.42393368E-08
   30.5699997       1.39698475E-08
   30.6299992       1.36977087E-08
   30.6900005       1.33766660E-08
   30.7500000       1.29737661E-08
   30.8099995       1.24778738E-08
   30.8700008       1.18999992E-08
   30.9300003       1.12668861E-08
   30.9899998       1.06115685E-08
   31.0499992       9.96493643E-09
   31.1100006       9.35117406E-09
   31.1700001       8.78777762E-09
   31.2299995       8.28889402E-09
   31.2900009       7.86953436E-09
   31.3500004       7.54822160E-09
   31.4099998       7.34660333E-09
   31.4699993       7.28607974E-09
   31.5300007       7.38291472E-09
   31.5900002       7.64400276E-09
   31.6499996       8.06515565E-09
   31.7099991       8.63252403E-09
   31.7700005       9.32621091E-09
   31.8299999       1.01240838E-08
   31.8899994       1.10038432E-08
   31.9500008       1.19427046E-08
   32.0099983       1.29157165E-08
   32.0699997       1.38949208E-08
   32.1300011       1.48513193E-08
   32.1899986       1.57599462E-08
   32.2500000       1.66061671E-08
   32.3100014       1.73898869E-08
   32.3699989       1.81246804E-08
   32.4300003       1.88309777E-08
   32.4900017       1.95253662E-08
   32.5499992       2.02104093E-08
   32.6100006       2.08696260E-08
   32.6699982       2.14704894E-08
   32.7299995       2.19748397E-08
   32.7900009       2.23529106E-08
   32.8499985       2.25953976E-08
   32.9099998       2.27187424E-08
   32.9700012       2.27615082E-08
   33.0299988       2.27734755E-08
   33.0900002       2.28020216E-08
   33.1500015       2.28812809E-08
   33.2099991       2.30281003E-08
   33.2700005       2.32455459E-08
   33.3300018       2.35313262E-08
   33.3899994       2.38864395E-08
   33.4500008       2.43197533E-08
   33.5099983       2.48466563E-08
   33.5699997       2.54831054E-08
   33.6300011       2.62386965E-08
   33.6899986       2.71124456E-08
   33.7500000       2.80930461E-08
   33.8100014       2.91625941E-08
   33.8699989       3.03007823E-08
   33.9300003       3.14866853E-08
   33.9900017       3.26970202E-08
   34.0499992       3.39024595E-08
   34.1100006       3.50649607E-08
   34.1699982       3.61387364E-08
   34.2299995       3.70753135E-08
   34.2900009       3.78307767E-08
   34.3499985       3.83718337E-08
   34.4099998       3.86781061E-08
   34.4700012       3.87402252E-08
   34.5299988       3.85555481E-08
   34.5900002       3.81245329E-08
   34.6500015       3.74498690E-08
   34.7099991       3.65384238E-08
   34.7700005       3.54040672E-08
   34.8300018       3.40686555E-08
   34.8899994       3.25596972E-08
   34.9500008       3.09054080E-08
   35.0099983       2.91296587E-08
   35.0699997       2.72497811E-08
   35.1300011       2.52786148E-08
   35.1899986       2.32297559E-08
   35.2500000       2.11230073E-08
   35.3100014       1.89866309E-08
   35.3699989       1.68547203E-08
   35.4300003       1.47604746E-08
   35.4900017       1.27284343E-08
   35.5499992       1.07692362E-08
   35.6100006       8.87916318E-09
   35.6699982       7.04446412E-09
   35.7299995       5.24829380E-09
   35.7900009       3.47740436E-09
   35.8499985       1.72639247E-09
   35.9099998      -1.09847667E-12
   35.9700012      -1.69346459E-09
   36.0299988      -3.33326633E-09
   36.0900002      -4.89957941E-09
   36.1500015      -6.37052144E-09
   36.2099991      -7.72624364E-09
   36.2700005      -8.95228958E-09
   36.3300018      -1.00423510E-08
   36.3899994      -1.09989156E-08
   36.4500008      -1.18306946E-08
   36.5099983      -1.25471820E-08
   36.5699997      -1.31524738E-08
   36.6300011      -1.36416096E-08
   36.6899986      -1.40020715E-08
   36.7500000      -1.42207917E-08
   36.8100014      -1.42939642E-08
   36.8699989      -1.42347583E-08
   36.9300003      -1.40742094E-08
   36.9900017      -1.38534997E-08
   37.0499992      -1.36102587E-08
   37.1100006      -1.33653524E-08
   37.1699982      -1.31173534E-08
   37.2299995      -1.28488082E-08
   37.2900009      -1.25425199E-08
   37.3499985      -1.22003998E-08
   37.4099998      -1.18550654E-08
   37.4700012      -1.15670433E-08
   37.5299988      -1.14071330E-08
   37.5900002      -1.14310463E-08
   37.6500015      -1.16577947E-08
   37.7099991      -1.20620971E-08
   37.7700005      -1.25847084E-08
   37.8300018      -1.31561784E-08
   37.8899994      -1.37234162E-08
   37.9500008      -1.42675134E-08
   38.0099983      -1.48059236E-08
   38.0699997      -1.53797100E-08
   38.1300011      -1.60331535E-08
   38.1899986      -1.67955339E-08
   38.2500000      -1.76724519E-08
   38.3100014      -1.86483113E-08
   38.3699989      -1.96959551E-08
   38.4300003      -2.07865938E-08
   38.4900017      -2.18944827E-08
   38.5499992      -2.29949002E-08
   38.6100006      -2.40586111E-08
   38.6699982      -2.50481893E-08
   38.7299995      -2.59205066E-08
   38.7900009      -2.66357141E-08
   38.8499985      -2.71687615E-08
   38.9099998      -2.75173289E-08
   38.9700012      -2.77013648E-08
   39.0299988      -2.77536589E-08
   39.0900002      -2.77058110E-08
   39.1500015      -2.75765526E-08
   39.2099991      -2.73683565E-08
   39.2700005      -2.70737956E-08
   39.3300018      -2.66878608E-08
   39.3899994      -2.62191797E-08
   39.4500008      -2.56939288E-08
   39.5099983      -2.51503778E-08
   39.5699997      -2.46274237E-08
   39.6300011      -2.41536071E-08
   39.6899986      -2.37427020E-08
   39.7500000      -2.33978064E-08
   39.8100014      -2.31210571E-08
   39.8699989      -2.29228263E-08
   39.9300003      -2.28248727E-08
   39.9900017      -2.28553763E-08
   40.0499992      -2.30382007E-08
   40.1100006      -2.33815580E-08
   40.1699982      -2.38710722E-08
   40.2299995      -2.44696921E-08
   40.2900009      -2.51236223E-08
   40.3499985      -2.57713992E-08
   40.4099998      -2.63532112E-08
   40.4700012      -2.68188494E-08
   40.5299988      -2.71340870E-08
   40.5900002      -2.72855392E-08
   40.6500015      -2.72833098E-08
   40.7099991      -2.71596718E-08
   40.7700005      -2.69622369E-08
   40.8300018      -2.67417644E-08
   40.8899994      -2.65376041E-08
   40.9500008      -2.63658961E-08
   41.0099983      -2.62156643E-08
   41.0699997      -2.60552682E-08
   41.1300011      -2.58472213E-08
   41.1899986      -2.55654093E-08
   41.2500000      -2.52072763E-08
   41.3100014      -2.47955398E-08
   41.3699989      -2.43687150E-08
   41.4300003      -2.39647715E-08
   41.4900017      -2.36052902E-08
   41.5499992      -2.32869652E-08
   41.6100006      -2.29837607E-08
   41.6699982      -2.26580461E-08
   41.7299995      -2.22755219E-08
   41.7900009      -2.18176197E-08
   41.8499985      -2.12871036E-08
   41.9099998      -2.07059792E-08
   41.9700012      -2.01079597E-08
   42.0299988      -1.95291321E-08
   42.0900002      -1.90000264E-08
   42.1500015      -1.85406837E-08
   42.2099991      -1.81586817E-08
   42.2700005      -1.78494055E-08
   42.3300018      -1.75979906E-08
   42.3899994      -1.73828028E-08
   42.4500008      -1.71805503E-08
   42.5099983      -1.69725691E-08
   42.5699997      -1.67508869E-08
   42.6300011      -1.65220246E-08
   42.6899986      -1.63066343E-08
   42.7500000      -1.61342086E-08
   42.8100014      -1.60340683E-08
   42.8699989      -1.60255080E-08
   42.9300003      -1.61108922E-08
   42.9900017      -1.62747114E-08
   43.0499992      -1.64895422E-08
   43.1100006      -1.67269594E-08
   43.1699982      -1.69692171E-08
   43.2299995      -1.72167542E-08
   43.2900009      -1.74881105E-08
   43.3499985      -1.78119901E-08
   43.4099998      -1.82147044E-08
   43.4700012      -1.87084037E-08
   43.5299988      -1.92852347E-08
   43.5900002      -1.99198134E-08
   43.6500015      -2.05785504E-08
   43.7099991      -2.12312496E-08
   43.7700005      -2.18596199E-08
   43.8300018      -2.24593943E-08
   43.8899994      -2.30361845E-08
   43.9500008      -2.35984672E-08
   44.0099983      -2.41520404E-08
   44.0699997      -2.46988598E-08
   44.1300011      -2.52399079E-08
   44.1899986      -2.57790784E-08
   44.2500000      -2.63243738E-08
   44.3100014      -2.68845675E-08
   44.3699989      -2.74628640E-08
   44.4300003      -2.80516410E-08
   44.4900017      -2.86325506E-08
   44.5499992      -2.91835125E-08
   44.6100006      -2.96898506E-08
   44.6699982      -3.01536431E-08
   44.7299995      -3.05951851E-08
   44.7900009      -3.10440846E-08
   44.8499985      -3.15232285E-08
   44.9099998      -3.20335225E-08
   44.9700012      -3.25482965E-08
   45.0299988      -3.30220615E-08
   45.0900002      -3.34112293E-08
   45.1500015      -3.36975248E-08
   45.2099991      -3.39022286E-08
   45.2700005      -3.40828841E-08
   45.3300018      -3.43123574E-08
   45.3899994      -3.46488278E-08
   45.4500008      -3.51103715E-08
   45.5099983      -3.56659378E-08
   45.5699997      -3.62467780E-08
   45.6300011      -3.67728212E-08
   45.6899986      -3.71817492E-08
   45.7500000      -3.74481033E-08
   45.8100014      -3.75857212E-08
   45.8699989      -3.76350826E-08
   45.9300003      -3.76438400E-08
   45.9900017      -3.76501106E-08
   46.0499992      -3.76743898E-08
   46.1100006      -3.77199925E-08
   46.1699982      -3.77774150E-08
   46.2299995      -3.78278742E-08
   46.2900009      -3.78441847E-08
   46.3499985      -3.77911533E-08
   46.4099998      -3.76291247E-08
   46.4700012      -3.73223834E-08
   46.5299988      -3.68499720E-08
   46.5900002      -3.62134429E-08
   46.6500015      -3.54362371E-08
   46.7099991      -3.45534197E-08
   46.7700005      -3.35959207E-08
   46.8300018      -3.25767786E-08
   46.8899994      -3.14862838E-08
   46.9500008      -3.02983381E-08
   47.0099983      -2.89845818E-08
   47.0699997      -2.75292340E-08
   47.1300011      -2.59377781E-08
   47.1899986      -2.42364280E-08
   47.2500000      -2.24640146E-08
   47.3100014      -2.06609236E-08
   47.3699989      -1.88599465E-08
   47.4300003      -1.70815149E-08
   47.4900017      -1.53332937E-08
   47.5499992      -1.36124694E-08
   47.6100006      -1.19093784E-08
   47.6699982      -1.02121334E-08
   47.7299995      -8.51245208E-09
   47.7900009      -6.81233558E-09
   47.8499985      -5.12989340E-09
   47.9099998      -3.50168161E-09
   47.9700012      -1.97944483E-09
   48.0299988      -6.21218299E-10
   48.0900002       5.20518850E-10
   48.1500015       1.40911482E-09
   48.2099991       2.02808637E-09
   48.2700005       2.37755526E-09
   48.3300018       2.46440668E-09
   48.3899994       2.29097497E-09
   48.4500008       1.84819660E-09
   48.5099983       1.11754517E-09
   48.5699997       8.21367280E-11
   48.6300011      -1.25722976E-09
   48.6899986      -2.86848012E-09
   48.7500000      -4.68453942E-09
   48.8100014      -6.61334232E-09
   48.8699989      -8.55961702E-09
   48.9300003      -1.04508224E-08
   48.9900017      -1.22568569E-08
   49.0499992      -1.39949110E-08
   49.1100006      -1.57165836E-08
   49.1699982      -1.74817725E-08
   49.2299995      -1.93296259E-08
   49.2900009      -2.12581508E-08
   49.3499985      -2.32203980E-08
   49.4099998      -2.51380392E-08
   49.4700012      -2.69258571E-08
   49.5299988      -2.85165367E-08
   49.5900002      -2.98757783E-08
   49.6500015      -3.10028128E-08
   49.7099991      -3.19180700E-08
   49.7700005      -3.26452643E-08
   49.8300018      -3.31965104E-08
   49.8899994      -3.35666179E-08
   49.9500008      -3.37374004E-08
   50.0099983      -3.36877015E-08
   50.0699997      -3.34023795E-08
   50.1300011      -3.28744498E-08
   50.1899986      -3.20986047E-08
   50.2500000      -3.10587360E-08
   50.3100014      -2.97149807E-08
   50.3699989      -2.79956041E-08
   50.4300003      -2.57959822E-08
   50.4900017      -2.29829329E-08
   50.5499992      -1.93995859E-08
   50.6100006      -1.48657957E-08