  -2.400000      0.0000000E+00
  -2.340000      0.0000000E+00
  -2.280000      0.0000000E+00
  -2.220000      0.0000000E+00
  -2.160000      0.0000000E+00
  -2.100000      0.0000000E+00
  -2.040000      0.0000000E+00
  -1.980000     -1.2946666E-23
  -1.920000     -1.2476209E-22
  -1.860000     -5.5866756E-22
  -1.800000     -1.3870338E-21
  -1.740000     -1.2554070E-21
  -1.680000      4.6761493E-21
  -1.620000      2.4408282E-20
  -1.560000      5.9966827E-20
  -1.500000      8.6054191E-20
  -1.440000      2.9423244E-20
  -1.380000     -2.1346381E-19
  -1.320000     -6.7765727E-19
  -1.260000     -1.1596492E-18
  -1.200000     -1.1017705E-18
  -1.140000      2.4171973E-19
  -1.080000      3.1948594E-18
  -1.020000      6.7862452E-18
 -0.9600000      8.2950780E-18
 -0.9000000      4.1476341E-18
 -0.8400000     -7.4360749E-18
 -0.7800000     -2.3083120E-17
 -0.7200000     -3.2852894E-17
 -0.6600000     -2.3737081E-17
 -0.6000000      1.1256224E-17
 -0.5400000      6.2395312E-17
 -0.4800000      9.9143148E-17
 -0.4200000      8.0806030E-17
 -0.3600000     -1.7211729E-17
 -0.3000000     -1.7303337E-16
 -0.2400000     -3.0541366E-16
 -0.1800000     -2.9837199E-16
 -0.1200000     -6.5497617E-17
 -5.9999999E-02  3.7225743E-16
  0.0000000E+00  8.4366774E-16
  5.9999999E-02  1.0647833E-15
  0.1200000      7.6681422E-16
  0.1800000     -1.3170391E-16
  0.2400000     -1.3997376E-15
  0.3000000     -2.5080849E-15
  0.3600000     -2.8194999E-15
  0.4200000     -1.8973722E-15
  0.4800000      2.0699548E-16
  0.5400000      2.8492111E-15
  0.6000000      4.9650848E-15
  0.6600000      5.4915950E-15
  0.7200000      3.8741610E-15
  0.7800000      4.3072480E-16
  0.8400000     -3.6247263E-15
  0.9000000     -6.5721274E-15
  0.9600000     -6.8920822E-15
   1.020000     -4.0396085E-15
   1.080000      1.0464451E-15
   1.140000      6.0023380E-15
   1.200000      7.8160922E-15
   1.260000      4.1987224E-15
   1.320000     -4.9040235E-15
   1.380000     -1.6375864E-14
   1.440000     -2.4303762E-14
   1.500000     -2.2022569E-14
   1.560000     -5.4380904E-15
   1.620000      2.3646917E-14
   1.680000      5.6028587E-14
   1.740000      7.6981207E-14
   1.800000      7.1814123E-14
   1.860000      3.3469389E-14
   1.920000     -3.1201414E-14
   1.980000     -1.0029331E-13
   2.040000     -1.4313865E-13
   2.100000     -1.3307989E-13
   2.160000     -6.2048897E-14
   2.220000      5.0014876E-14
   2.280000      1.5711676E-13
   2.340000      2.0256267E-13
   2.400000      1.4353728E-13
   2.460000     -2.4755515E-14
   2.520000     -2.5684356E-13
   2.580000     -4.6459126E-13
   2.640000     -5.4470968E-13
   2.700000     -4.1717522E-13
   2.760000     -5.9729016E-14
   2.820000      4.7570698E-13
   2.880000      1.0714498E-12
   2.940000      1.5732028E-12
   3.000000      1.8270624E-12
   3.060000      1.7098336E-12
   3.120000      1.1449206E-12
   3.180000      1.0781474E-13
   3.240000     -1.3654032E-12
   3.300000     -3.1534209E-12
   3.360000     -5.0085474E-12
   3.420000     -6.5193072E-12
   3.480000     -7.1142662E-12
   3.540000     -6.1456764E-12
   3.600000     -3.0691183E-12
   3.660000      2.3067858E-12
   3.720000      9.5726985E-12
   3.780000      1.7573372E-11
   3.840000      2.4457698E-11
   3.900000      2.7968449E-11
   3.960000      2.5940630E-11
   4.020000      1.6901799E-11
   4.080000      6.2177347E-13
   4.140000     -2.1538590E-11
   4.200000     -4.6581020E-11
   4.260000     -7.0152564E-11
   4.320000     -8.7113296E-11
   4.380000     -9.2301514E-11
   4.440000     -8.1398985E-11
   4.500000     -5.1809113E-11
   4.560000     -3.4680065E-12
   4.620000      6.0504761E-11
   4.680000      1.3344152E-10
   4.740000      2.0520283E-10
   4.800000      2.6284125E-10
   4.860000      2.9192818E-10
   4.920000      2.7848360E-10
   4.980000      2.1128090E-10
   5.040000      8.4150596E-11
   5.100000     -1.0216372E-10
   5.160000     -3.3900496E-10
   5.220000     -6.0991667E-10
   5.280000     -8.9191426E-10
   5.340000     -1.1577308E-09
   5.400000     -1.3786818E-09
   5.460000     -1.5277185E-09
   5.520000     -1.5822543E-09
   5.580000     -1.5264584E-09
   5.640000     -1.3528380E-09
   5.700000     -1.0630662E-09
   5.760000     -6.6809286E-10
   5.820000     -1.8760635E-10
   5.880000      3.5110556E-10
   5.940000      9.1488311E-10
   6.000000      1.4670143E-09
   6.060000      1.9701114E-09
   6.120000      2.3894082E-09
   6.180000      2.6961942E-09
   6.240000      2.8709679E-09
   6.300000      2.9058331E-09
   6.360000      2.8057150E-09
   6.420000      2.5881741E-09
   6.480000      2.2818527E-09
   6.540000      1.9238355E-09
   6.600000      1.5563526E-09
   6.660000      1.2232358E-09
   6.720000      9.6639985E-10
   6.780000      8.2244567E-10
   6.840000      8.1941143E-10
   6.900000      9.7376629E-10
   6.960000      1.2879688E-09
   7.020000      1.7491543E-09
   7.080000      2.3296023E-09
   7.140000      2.9894489E-09
   7.200000      3.6816052E-09
   7.260000      4.3581863E-09
   7.320000      4.9771760E-09
   7.380000      5.5078107E-09
   7.440000      5.9334111E-09
   7.500000      6.2510881E-09
   7.560000      6.4686447E-09
   7.620000      6.5998100E-09
   7.680000      6.6592944E-09
   7.740000      6.6590440E-09
   7.800000      6.6064407E-09
   7.860000      6.5044423E-09
   7.920000      6.3529950E-09
   7.980000      6.1508034E-09
   8.040000      5.8967085E-09
   8.100000      5.5904117E-09
   8.160000      5.2327778E-09
   8.220000      4.8262434E-09
   8.280000      4.3757749E-09
   8.340000      3.8904195E-09
   8.400000      3.3849872E-09
   8.460000      2.8809846E-09
   8.520000      2.4059534E-09
   8.580000      1.9907260E-09
   8.640000      1.6648544E-09
   8.700000      1.4512290E-09
   8.760000      1.3614135E-09
   8.820000      1.3932144E-09
   8.880000      1.5314278E-09
   8.940000      1.7516890E-09
   9.000000      2.0262734E-09
   9.060000      2.3299689E-09
   9.120000      2.6441214E-09
   9.180000      2.9577072E-09
   9.240000      3.2655476E-09
   9.300000      3.5650185E-09
   9.360000      3.8532444E-09
   9.420000      4.1264401E-09
   9.480000      4.3818615E-09
   9.540000      4.6213056E-09
   9.600000      4.8539839E-09
   9.660000      5.0965472E-09
   9.720000      5.3691465E-09
   9.780000      5.6882827E-09
   9.840000      6.0589334E-09
   9.900000      6.4691994E-09
   9.960000      6.8900725E-09
   10.02000      7.2810677E-09
   10.08000      7.6002111E-09
   10.14000      7.8151352E-09
   10.20000      7.9115718E-09
   10.26000      7.8965190E-09
   10.32000      7.7953208E-09
   10.38000      7.6440729E-09
   10.44000      7.4803141E-09
   10.50000      7.3353035E-09
   10.56000      7.2303008E-09
   10.62000      7.1774808E-09
   10.68000      7.1842123E-09
   10.74000      7.2580546E-09
   10.80000      7.4096298E-09
   10.86000      7.6515745E-09
   10.92000      7.9936830E-09
   10.98000      8.4363387E-09
   11.04000      8.9654968E-09
   11.10000      9.5521235E-09
   11.16000      1.0157255E-08
   11.22000      1.0741273E-08
   11.28000      1.1273900E-08
   11.34000      1.1740735E-08
   11.40000      1.2143429E-08
   11.46000      1.2493275E-08
   11.52000      1.2800876E-08
   11.58000      1.3066359E-08
   11.64000      1.3274350E-08
   11.70000      1.3395855E-08
   11.76000      1.3396138E-08
   11.82000      1.3245180E-08
   11.88000      1.2926439E-08
   11.94000      1.2440641E-08
   12.00000      1.1803775E-08
   12.06000      1.1040993E-08
   12.12000      1.0179627E-08
   12.18000      9.2444630E-09
   12.24000      8.2568592E-09
   12.30000      7.2371940E-09
   12.36000      6.2084444E-09
   12.42000      5.1982791E-09
   12.48000      4.2378936E-09
   12.54000      3.3575904E-09
   12.60000      2.5807938E-09
   12.66000      1.9191262E-09
   12.72000      1.3708463E-09
   12.78000      9.2357877E-10
   12.84000      5.6043570E-10
   12.90000      2.6716607E-10
   12.96000      3.7480713E-11
   13.02000     -1.2559033E-10
   13.08000     -2.1286853E-10
   13.14000     -2.1546821E-10
   13.20000     -1.3194300E-10
   13.26000      2.6705095E-11
   13.32000      2.3616198E-10
   13.38000      4.6248533E-10
   13.44000      6.6900735E-10
   13.50000      8.2396506E-10
   13.56000      9.0623425E-10
   13.62000      9.0745955E-10
   13.68000      8.3048202E-10
   13.74000      6.8553152E-10
   13.80000      4.8650739E-10
   13.86000      2.4938404E-10
   13.92000     -6.5335844E-12
   13.98000     -2.5554497E-10
   14.04000     -4.6305249E-10
   14.10000     -5.8620736E-10
   14.16000     -5.7914479E-10
   14.22000     -4.0220216E-10
   14.28000     -3.2479856E-11
   14.34000      5.2794669E-10
   14.40000      1.2493775E-09
   14.46000      2.0787709E-09
   14.52000      2.9499003E-09
   14.58000      3.7963450E-09
   14.64000      4.5635051E-09
   14.70000      5.2164708E-09
   14.76000      5.7422000E-09
   14.82000      6.1463528E-09
   14.88000      6.4466001E-09
   14.94000      6.6648997E-09
   15.00000      6.8211246E-09
   15.06000      6.9296795E-09
   15.12000      6.9997155E-09
   15.18000      7.0383837E-09
   15.24000      7.0556094E-09
   15.30000      7.0683757E-09
   15.36000      7.1027269E-09
   15.42000      7.1926545E-09
   15.48000      7.3764062E-09
   15.54000      7.6918738E-09
   15.60000      8.1730063E-09
   15.66000      8.8483993E-09
   15.72000      9.7416999E-09
   15.78000      1.0872208E-08
   15.84000      1.2253735E-08
   15.90000      1.3890895E-08
   15.96000      1.5773759E-08
   16.02000      1.7873374E-08
   16.08000      2.0140819E-08
   16.14000      2.2511157E-08
   16.20000      2.4911447E-08
   16.26000      2.7270112E-08
   16.32000      2.9524520E-08
   16.38000      3.1624868E-08
   16.44000      3.3534405E-08
   16.50000      3.5227771E-08
   16.56000      3.6689595E-08
   16.62000      3.7914418E-08
   16.68000      3.8907459E-08
   16.74000      3.9684547E-08
   16.80000      4.0269654E-08
   16.86000      4.0689770E-08
   16.92000      4.0968374E-08
   16.98000      4.1119840E-08
   17.04000      4.1146890E-08
   17.10000      4.1041883E-08
   17.16000      4.0791321E-08
   17.22000      4.0381710E-08
   17.28000      3.9804792E-08
   17.34000      3.9060705E-08
   17.40000      3.8158685E-08
   17.46000      3.7115701E-08
   17.52000      3.5953747E-08
   17.58000      3.4696694E-08
   17.64000      3.3367272E-08
   17.70000      3.1984563E-08
   17.76000      3.0562333E-08
   17.82000      2.9108376E-08
   17.88000      2.7625022E-08
   17.94000      2.6110808E-08
   18.00000      2.4563125E-08
   18.06000      2.2981471E-08
   18.12000      2.1370681E-08
   18.18000      1.9743394E-08
   18.24000      1.8121073E-08
   18.30000      1.6533095E-08
   18.36000      1.5014004E-08
   18.42000      1.3599337E-08
   18.48000      1.2320837E-08
   18.54000      1.1201877E-08
   18.60000      1.0253678E-08
   18.66000      9.4727248E-09
   18.72000      8.8397094E-09
   18.78000      8.3203950E-09
   18.84000      7.8687936E-09
   18.90000      7.4326536E-09
   18.96000      6.9604695E-09
   19.02000      6.4084089E-09
   19.08000      5.7451870E-09
   19.14000      4.9535980E-09
   19.20000      4.0288417E-09
   19.26000      2.9753628E-09
   19.32000      1.8046424E-09
   19.38000      5.3556348E-10
   19.44000     -8.0298995E-10
   19.50000     -2.1697477E-09
   19.56000     -3.5121015E-09
   19.62000     -4.7725566E-09
   19.68000     -5.8996954E-09
   19.74000     -6.8598269E-09
   19.80000     -7.6442550E-09
   19.86000     -8.2684801E-09
   19.92000     -8.7631395E-09
   19.98000     -9.1603445E-09
   20.04000     -9.4812309E-09
   20.10000     -9.7298836E-09
   20.16000     -9.8956496E-09
   20.22000     -9.9619557E-09
   20.28000     -9.9170299E-09
   20.34000     -9.7617283E-09
   20.40000     -9.5117354E-09
   20.46000     -9.1945154E-09
   20.52000     -8.8437364E-09
   20.58000     -8.4944434E-09
   20.64000     -8.1809706E-09
   20.70000     -7.9373716E-09
   20.76000     -7.7984383E-09
   20.82000     -7.7988789E-09
   20.88000     -7.9693114E-09
   20.94000     -8.3295273E-09
   21.00000     -8.8812113E-09
   21.06000     -9.6030162E-09
   21.12000     -1.0450329E-08
   21.18000     -1.1360545E-08
   21.24000     -1.2262766E-08
   21.30000     -1.3089469E-08
   21.36000     -1.3787193E-08
   21.42000     -1.4323829E-08
   21.48000     -1.4691305E-08
   21.54000     -1.4903671E-08
   21.60000     -1.4991580E-08
   21.66000     -1.4994562E-08
   21.72000     -1.4952599E-08
   21.78000     -1.4898477E-08
   21.84000     -1.4852337E-08
   21.90000     -1.4819578E-08
   21.96000     -1.4792619E-08
   22.02000     -1.4755911E-08
   22.08000     -1.4692439E-08
   22.14000     -1.4589368E-08
   22.20000     -1.4440874E-08
   22.26000     -1.4247651E-08
   22.32000     -1.4014161E-08
   22.38000     -1.3745720E-08
   22.44000     -1.3447085E-08
   22.50000     -1.3122809E-08
   22.56000     -1.2778046E-08
   22.62000     -1.2418005E-08
   22.68000     -1.2045152E-08
   22.74000     -1.1655181E-08
   22.80000     -1.1234246E-08
   22.86000     -1.0759831E-08
   22.92000     -1.0205913E-08
   22.98000     -9.5505168E-09
   23.04000     -8.7822629E-09
   23.10000     -7.9029352E-09
   23.16000     -6.9254216E-09
   23.22000     -5.8691518E-09
   23.28000     -4.7564974E-09
   23.34000     -3.6126462E-09
   23.40000     -2.4687263E-09
   23.46000     -1.3651719E-09
   23.52000     -3.5142070E-10
   23.58000      5.2031923E-10
   23.64000      1.2060939E-09
   23.70000      1.6817555E-09
   23.76000      1.9498247E-09
   23.82000      2.0383171E-09
   23.88000      1.9919060E-09
   23.94000      1.8593348E-09
   24.00000      1.6824787E-09
   24.06000      1.4911610E-09
   24.12000      1.3045837E-09
   24.18000      1.1368348E-09
   24.24000      1.0021223E-09
   24.30000      9.1602409E-10
   24.36000      8.9159669E-10
   24.42000      9.3226693E-10
   24.48000      1.0254481E-09
   24.54000      1.1407904E-09
   24.60000      1.2349933E-09
   24.66000      1.2621565E-09
   24.72000      1.1861320E-09
   24.78000      9.9040987E-10
   24.84000      6.8207673E-10
   24.90000      2.8882591E-10
   24.96000     -1.4924673E-10
   25.02000     -5.8948191E-10
   25.08000     -9.9435782E-10
   25.14000     -1.3346405E-09
   25.20000     -1.5878256E-09
   25.26000     -1.7337678E-09
   25.32000     -1.7504023E-09
   25.38000     -1.6121520E-09
   25.44000     -1.2923020E-09
   25.50000     -7.6895007E-10
   25.56000     -3.2808242E-11
   25.62000      9.0551688E-10
   25.68000      2.0110418E-09
   25.74000      3.2243579E-09
   25.80000      4.4666710E-09
   25.86000      5.6494462E-09
   25.92000      6.6870536E-09
   25.98000      7.5098781E-09
   26.04000      8.0749789E-09
   26.10000      8.3717460E-09
   26.16000      8.4212077E-09
   26.22000      8.2693381E-09
   26.28000      7.9763058E-09
   26.34000      7.6045579E-09
   26.40000      7.2085466E-09
   26.46000      6.8280124E-09
   26.52000      6.4854606E-09
   26.58000      6.1874639E-09
   26.64000      5.9288783E-09
   26.70000      5.6989942E-09
   26.76000      5.4885954E-09
   26.82000      5.2966556E-09
   26.88000      5.1350120E-09
   26.94000      5.0292490E-09
   27.00000      5.0146856E-09
   27.06000      5.1278755E-09
   27.12000      5.3959628E-09
   27.18000      5.8275589E-09
   27.24000      6.4087420E-09
   27.30000      7.1059834E-09
   27.36000      7.8750269E-09
   27.42000      8.6721919E-09
   27.48000      9.4636325E-09
   27.54000      1.0229225E-08
   27.60000      1.0960457E-08
   27.66000      1.1654588E-08
   27.72000      1.2308943E-08
   27.78000      1.2918630E-08
   27.84000      1.3478664E-08
   27.90000      1.3988665E-08
   27.96000      1.4456475E-08
   28.02000      1.4897321E-08
   28.08000      1.5327434E-08
   28.14000      1.5754157E-08
   28.20000      1.6167011E-08
   28.26000      1.6534583E-08
   28.32000      1.6810091E-08
   28.38000      1.6944787E-08
   28.44000      1.6904794E-08
   28.50000      1.6684888E-08
   28.56000      1.6313512E-08
   28.62000      1.5846476E-08
   28.68000      1.5351162E-08
   28.74000      1.4886823E-08
   28.80000      1.4488001E-08
   28.86000      1.4156710E-08
   28.92000      1.3865599E-08
   28.98000      1.3570080E-08
   29.04000      1.3224496E-08
   29.10000      1.2796451E-08
   29.16000      1.2274949E-08
   29.22000      1.1670743E-08
   29.28000      1.1010324E-08
   29.34000      1.0326879E-08
   29.40000      9.6519859E-09
   29.46000      9.0107770E-09
   29.52000      8.4214591E-09
   29.58000      7.8981905E-09
   29.64000      7.4551485E-09
   29.70000      7.1093988E-09
   29.76000      6.8810442E-09
   29.82000      6.7905237E-09
   29.88000      6.8543229E-09
   29.94000      7.0810553E-09
   30.00000      7.4695770E-09
   30.06000      8.0097129E-09
   30.12000      8.6847987E-09
   30.18000      9.4744657E-09
   30.24000      1.0356218E-08
   30.30000      1.1305441E-08
   30.36000      1.2294727E-08
   30.42000      1.3294190E-08
   30.48000      1.4274049E-08
   30.54000      1.5209444E-08
   30.60000      1.6085828E-08
   30.66000      1.6902279E-08
   30.72000      1.7670464E-08
   30.78000      1.8408594E-08
   30.84000      1.9131980E-08
   30.90000      1.9843760E-08
   30.96000      2.0529781E-08
   31.02000      2.1160432E-08
   31.08000      2.1699526E-08
   31.14000      2.2117296E-08
   31.20000      2.2402542E-08
   31.26000      2.2568942E-08
   31.32000      2.2652713E-08
   31.38000      2.2702466E-08
   31.44000      2.2765427E-08
   31.50000      2.2875870E-08
   31.56000      2.3050381E-08
   31.62000      2.3291266E-08
   31.68000      2.3595453E-08
   31.74000      2.3963791E-08
   31.80000      2.4405875E-08
   31.86000      2.4938370E-08
   31.92000      2.5578414E-08
   31.98000      2.6336263E-08
   32.04000      2.7211158E-08
   32.10000      2.8192121E-08
   32.16000      2.9262122E-08
   32.22000      3.0402234E-08
   32.28000      3.1592780E-08
   32.34000      3.2810842E-08
   32.40000      3.4026247E-08
   32.46000      3.5199328E-08
   32.52000      3.6282831E-08
   32.58000      3.7227867E-08
   32.64000      3.7991207E-08
   32.70000      3.8540669E-08
   32.76000      3.8856356E-08
   32.82000      3.8928022E-08
   32.88000      3.8751018E-08
   32.94000      3.8323591E-08
   33.00000      3.7647162E-08
   33.06000      3.6728885E-08
   33.12000      3.5584165E-08
   33.18000      3.4236734E-08
   33.24000      3.2715423E-08
   33.30000      3.1048778E-08
   33.36000      2.9260306E-08
   33.42000      2.7366873E-08
   33.48000      2.5381203E-08
   33.54000      2.3317169E-08
   33.60000      2.1194918E-08
   33.66000      1.9042830E-08
   33.72000      1.6894829E-08
   33.78000      1.4783899E-08
   33.84000      1.2734599E-08
   33.90000      1.0757857E-08
   33.96000      8.8503018E-09
   34.02000      6.9982762E-09
   34.08000      5.1846802E-09
   34.14000      3.3958829E-09
   34.20000      1.6263573E-09
   34.26000     -1.1986875E-10
   34.32000     -1.8303976E-09
   34.38000     -3.4869592E-09
   34.44000     -5.0681117E-09
   34.50000     -6.5518240E-09
   34.56000     -7.9181968E-09
   34.62000     -9.1524557E-09
   34.68000     -1.0247605E-08
   34.74000     -1.1205375E-08
   34.80000     -1.2034202E-08
   34.86000     -1.2744186E-08
   34.92000     -1.3340888E-08
   34.98000     -1.3821161E-08
   35.04000     -1.4173980E-08
   35.10000     -1.4386996E-08
   35.16000     -1.4456324E-08
   35.22000     -1.4394582E-08
   35.28000     -1.4232158E-08
   35.34000     -1.4009688E-08
   35.40000     -1.3764365E-08
   35.46000     -1.3516688E-08
   35.52000     -1.3265039E-08
   35.58000     -1.2992178E-08
   35.64000     -1.2681699E-08
   35.70000     -1.2336742E-08
   35.76000     -1.1991145E-08
   35.82000     -1.1706103E-08
   35.88000     -1.1552268E-08
   35.94000     -1.1584584E-08
   36.00000     -1.1821217E-08
   36.06000     -1.2236494E-08
   36.12000     -1.2771337E-08
   36.18000     -1.3356640E-08
   36.24000     -1.3939220E-08
   36.30000     -1.4499258E-08
   36.36000     -1.5052658E-08
   36.42000     -1.5638930E-08
   36.48000     -1.6301522E-08
   36.54000     -1.7069899E-08
   36.60000     -1.7950544E-08
   36.66000     -1.8928706E-08
   36.72000     -1.9977387E-08
   36.78000     -2.1067144E-08
   36.84000     -2.2171220E-08
   36.90000     -2.3264304E-08
   36.96000     -2.4317522E-08
   37.02000     -2.5294757E-08
   37.08000     -2.6154536E-08
   37.14000     -2.6858205E-08
   37.20000     -2.7380899E-08
   37.26000     -2.7719480E-08
   37.32000     -2.7892535E-08
   37.38000     -2.7931618E-08
   37.44000     -2.7867658E-08
   37.50000     -2.7719400E-08
   37.56000     -2.7489810E-08
   37.62000     -2.7172206E-08
   37.68000     -2.6762439E-08
   37.74000     -2.6270117E-08
   37.80000     -2.5722471E-08
   37.86000     -2.5158709E-08
   37.92000     -2.4618160E-08
   37.98000     -2.4128992E-08
   38.04000     -2.3703761E-08
   38.10000     -2.3343926E-08
   38.16000     -2.3050271E-08
   38.22000     -2.2832742E-08
   38.28000     -2.2713801E-08
   38.34000     -2.2723015E-08
   38.40000     -2.2885519E-08
   38.46000     -2.3209923E-08
   38.52000     -2.3681162E-08
   38.58000     -2.4260883E-08
   38.64000     -2.4894268E-08
   38.70000     -2.5519913E-08
   38.76000     -2.6079338E-08
   38.82000     -2.6524388E-08
   38.88000     -2.6822629E-08
   38.94000     -2.6961345E-08
   39.00000     -2.6949927E-08
   39.06000     -2.6819068E-08
   39.12000     -2.6614877E-08
   39.18000     -2.6387564E-08
   39.24000     -2.6177153E-08
   39.30000     -2.6001297E-08
   39.36000     -2.5850534E-08
   39.42000     -2.5693954E-08
   39.48000     -2.5493673E-08
   39.54000     -2.5222304E-08
   39.60000     -2.4875753E-08
   39.66000     -2.4475554E-08
   39.72000     -2.4059755E-08
   39.78000     -2.3666528E-08
   39.84000     -2.3318028E-08
   39.90000     -2.3011586E-08
   39.96000     -2.2721620E-08
   40.02000     -2.2410727E-08
   40.08000     -2.2044571E-08
   40.14000     -2.1604281E-08
   40.20000     -2.1092065E-08
   40.26000     -2.0529196E-08
   40.32000     -1.9948686E-08
   40.38000     -1.9386244E-08
   40.44000     -1.8872569E-08
   40.50000     -1.8428368E-08
   40.56000     -1.8062041E-08
   40.62000     -1.7769432E-08
   40.68000     -1.7535395E-08
   40.74000     -1.7337289E-08
   40.80000     -1.7150558E-08
   40.86000     -1.6955758E-08
   40.92000     -1.6745194E-08
   40.98000     -1.6526782E-08
   41.04000     -1.6323110E-08
   41.10000     -1.6165256E-08
   41.16000     -1.6082936E-08
   41.22000     -1.6094411E-08
   41.28000     -1.6199992E-08
   41.34000     -1.6381994E-08
   41.40000     -1.6611564E-08
   41.46000     -1.6860012E-08
   41.52000     -1.7110295E-08
   41.58000     -1.7363869E-08
   41.64000     -1.7639957E-08
   41.70000     -1.7967274E-08
   41.76000     -1.8371640E-08
   41.82000     -1.8864686E-08
   41.88000     -1.9438481E-08
   41.94000     -2.0068184E-08
   42.00000     -2.0721172E-08
   42.06000     -2.1368265E-08
   42.12000     -2.1991925E-08
   42.18000     -2.2588257E-08
   42.24000     -2.3162993E-08
   42.30000     -2.3724576E-08
   42.36000     -2.4278638E-08
   42.42000     -2.4826665E-08
   42.48000     -2.5368765E-08
   42.54000     -2.5907667E-08
   42.60000     -2.6450341E-08
   42.66000     -2.7005237E-08
   42.72000     -2.7576311E-08
   42.78000     -2.8157601E-08
   42.84000     -2.8732654E-08
   42.90000     -2.9280557E-08
   42.96000     -2.9786445E-08
   43.02000     -3.0250842E-08
   43.08000     -3.0691830E-08
   43.14000     -3.1137223E-08
   43.20000     -3.1609300E-08
   43.26000     -3.2109689E-08
   43.32000     -3.2613148E-08
   43.38000     -3.3075359E-08
   43.44000     -3.3452967E-08
   43.50000     -3.3726927E-08
   43.56000     -3.3917384E-08
   43.62000     -3.4081356E-08
   43.68000     -3.4292452E-08
   43.74000     -3.4610874E-08
   43.80000     -3.5057273E-08
   43.86000     -3.5602572E-08
   43.92000     -3.6178438E-08
   43.98000     -3.6703323E-08
   44.04000     -3.7112027E-08
   44.10000     -3.7376019E-08
   44.16000     -3.7507121E-08
   44.22000     -3.7545696E-08
   44.28000     -3.7541142E-08
   44.34000     -3.7534353E-08
   44.40000     -3.7548364E-08
   44.46000     -3.7587700E-08
   44.52000     -3.7642426E-08
   44.58000     -3.7692185E-08
   44.64000     -3.7708116E-08
   44.70000     -3.7654193E-08
   44.76000     -3.7491109E-08
   44.82000     -3.7184282E-08
   44.88000     -3.6713832E-08
   44.94000     -3.6081552E-08
   45.00000     -3.5310055E-08
   45.06000     -3.4432951E-08
   45.12000     -3.3479797E-08
   45.18000     -3.2463003E-08
   45.24000     -3.1373180E-08
   45.30000     -3.0185259E-08
   45.36000     -2.8872154E-08
   45.42000     -2.7419141E-08
   45.48000     -2.5832307E-08
   45.54000     -2.4137957E-08
   45.60000     -2.2374532E-08
   45.66000     -2.0581693E-08
   45.72000     -1.8791363E-08
   45.78000     -1.7023318E-08
   45.84000     -1.5285057E-08
   45.90000     -1.3574221E-08
   45.96000     -1.1882054E-08
   46.02000     -1.0197541E-08
   46.08000     -8.5127247E-09
   46.14000     -6.8290977E-09
   46.20000     -5.1635629E-09
   46.26000     -3.5512713E-09
   46.32000     -2.0429696E-09
   46.38000     -6.9653888E-10
   46.44000      4.3477061E-10
   46.50000      1.3128887E-09
   46.56000      1.9198005E-09
   46.62000      2.2546054E-09
   46.68000      2.3241971E-09
   46.74000      2.1321556E-09
   46.80000      1.6716181E-09
   46.86000      9.2642360E-10
   46.92000     -1.1882206E-10
   46.98000     -1.4634801E-09
   47.04000     -3.0772975E-09
   47.10000     -4.8957576E-09
   47.16000     -6.8286590E-09
   47.22000     -8.7807450E-09
   47.28000     -1.0677525E-08
   47.34000     -1.2486079E-08
   47.40000     -1.4221603E-08
   47.46000     -1.5935759E-08
   47.52000     -1.7690576E-08
   47.58000     -1.9528064E-08
   47.64000     -2.1448018E-08
   47.70000     -2.3403043E-08
   47.76000     -2.5312383E-08
   47.82000     -2.7087975E-08
   47.88000     -2.8661088E-08
   47.94000     -2.9998539E-08
   48.00000     -3.1102786E-08
   48.06000     -3.1998074E-08
   48.12000     -3.2710567E-08
   48.18000     -3.3252377E-08
   48.24000     -3.3616086E-08
   48.30000     -3.3780378E-08
   48.36000     -3.3721747E-08
   48.42000     -3.3424534E-08
   48.48000     -3.2883005E-08
   48.54000     -3.2093769E-08
   48.60000     -3.1041925E-08
   48.66000     -2.9687268E-08
   48.72000     -2.7956411E-08
   48.78000     -2.5742883E-08
   48.84000     -2.2912698E-08
   48.90000     -1.9309772E-08
   48.96000     -1.4755799E-08
   49.02000     -9.0423695E-09
   49.08000     -1.9176267E-09
   49.14000      6.9275350E-09
   49.20000      1.7869031E-08
   49.26000      3.1353583E-08
   49.32000      4.7900077E-08
   49.38000      6.8103674E-08
   49.44000      9.2647142E-08
   49.50000      1.2232030E-07
   49.56000      1.5804444E-07
   49.62000      2.0089671E-07
   49.68000      2.5213137E-07
   49.74000      3.1319851E-07
   49.80000      3.8576482E-07
   49.86000      4.7174177E-07
   49.92000      5.7332460E-07
   49.98000      6.9304087E-07
   50.04000      8.3380417E-07
   50.10000      9.9896761E-07
   50.16000      1.1923752E-06
   50.22000      1.4184103E-06
   50.28000      1.6820510E-06
   50.34000      1.9889317E-06
   50.40000      2.3454193E-06
   50.46000      2.7586989E-06
   50.52000      3.2368707E-06
   50.58000      3.7890472E-06
   50.64000      4.4254521E-06
   50.70000      5.1575153E-06
   50.76000      5.9979711E-06
   50.82000      6.9609659E-06
   50.88000      8.0621803E-06
   50.94000      9.3189592E-06
   51.00000      1.0750465E-05
   51.06000      1.2377822E-05
   51.12000      1.4224257E-05
   51.18000      1.6315227E-05
   51.24000      1.8678533E-05
   51.30000      2.1344433E-05
   51.36000      2.4345765E-05
   51.42000      2.7718077E-05
   51.48000      3.1499756E-05
   51.54000      3.5732148E-05
   51.60000      4.0459690E-05
   51.66000      4.5729957E-05
   51.72000      5.1593735E-05
   51.78000      5.8105030E-05
   51.84000      6.5321088E-05
   51.90000      7.3302377E-05
   51.96000      8.2112594E-05
   52.02000      9.1818554E-05
   52.08000      1.0249011E-04
   52.14000      1.1420005E-04
   52.20000      1.2702386E-04
   52.26000      1.4103953E-04
   52.32000      1.5632733E-04
   52.38000      1.7296945E-04
   52.44000      1.9104966E-04
   52.50000      2.1065291E-04
   52.56000      2.3186493E-04
   52.62000      2.5477164E-04
   52.68000      2.7945862E-04
   52.74000      3.0601057E-04
   52.80000      3.3451055E-04
   52.86000      3.6503954E-04
   52.92000      3.9767550E-04
   52.98000      4.3249282E-04
   53.04000      4.6956152E-04
   53.10000      5.0894637E-04
   53.16000      5.5070617E-04
   53.22000      5.9489289E-04
   53.28000      6.4155093E-04
   53.34000      6.9071626E-04
   53.40000      7.4241578E-04
   53.46000      7.9666654E-04
   53.52000      8.5347507E-04
   53.58000      9.1283675E-04
   53.64000      9.7473507E-04
   53.70000      1.0391416E-03
   53.76000      1.1060149E-03
   53.82000      1.1753006E-03
   53.88000      1.2469310E-03
   53.94000      1.3208253E-03
   54.00000      1.3968890E-03
   54.06000      1.4750140E-03
   54.12000      1.5550799E-03
   54.18000      1.6369526E-03
   54.24000      1.7204861E-03
   54.30000      1.8055225E-03
   54.36000      1.8918926E-03
   54.42000      1.9794174E-03
   54.48000      2.0679079E-03
   54.54000      2.1571678E-03
   54.60000      2.2469924E-03
   54.66000      2.3371722E-03
   54.72000      2.4274923E-03
   54.78000      2.5177349E-03
   54.84000      2.6076804E-03
   54.90000      2.6971083E-03
   54.96000      2.7857998E-03
   55.02000      2.8735381E-03
   55.08000      2.9601105E-03
   55.14000      3.0453103E-03
   55.20000      3.1289370E-03
   55.26000      3.2107984E-03
   55.32000      3.2907117E-03
   55.38000      3.3685043E-03
   55.44000      3.4440155E-03
   55.50000      3.5170964E-03
   55.56000      3.5876126E-03