 -0.750000000       0.00000000    
 -0.689999998       0.00000000    
 -0.629999995       0.00000000    
 -0.569999993       0.00000000    
 -0.509999990       0.00000000    
 -0.449999988       0.00000000    
 -0.389999986       0.00000000    
 -0.330000013       2.55268332E-26
 -0.270000011      -3.02245607E-24
 -0.209999993      -2.98669618E-23
 -0.150000006      -1.24086546E-22
  -9.00000036E-02  -2.16654678E-22
  -2.99999993E-02   3.61805387E-22
   2.99999993E-02   3.53348132E-21
   9.00000036E-02   1.18096318E-20
  0.150000006       2.34944126E-20
  0.209999993       2.26666503E-20
  0.270000011      -2.88979715E-20
  0.330000013      -1.78191506E-19
  0.389999986      -4.23299675E-19
  0.449999988      -6.16863066E-19
  0.509999990      -4.00360819E-19
  0.569999993       6.97795451E-19
  0.629999995       2.88889065E-18
  0.689999998       5.54404240E-18
  0.750000000       6.77897301E-18
  0.810000002       3.78822044E-18
  0.870000005      -5.66519996E-18
  0.930000007      -2.09154802E-17
  0.990000010      -3.64972005E-17
   1.04999995      -4.24696761E-17
   1.11000001      -2.80445263E-17
   1.16999996       1.23440849E-17
   1.23000002       7.35014296E-17
   1.28999996       1.38009632E-16
   1.35000002       1.80377135E-16
   1.40999997       1.74722489E-16
   1.47000003       1.01593853E-16
   1.52999997      -4.87448734E-17
   1.59000003      -2.73819467E-16
   1.64999998      -5.50190145E-16
   1.71000004      -8.14701541E-16
   1.76999998      -9.45198137E-16
   1.83000004      -7.66020916E-16
   1.88999999      -1.06773274E-16
   1.95000005       1.08016458E-15
   2.00999999       2.58476403E-15
   2.06999993       3.87414489E-15
   2.13000011       4.18994969E-15
   2.19000006       2.84077889E-15
   2.25000000      -3.92246664E-16
   2.30999994      -4.92895502E-15
   2.36999989      -9.36247370E-15
   2.43000007      -1.18477336E-14
   2.49000001      -1.08170512E-14
   2.54999995      -5.72787396E-15
   2.60999990       2.52800604E-15
   2.67000008       1.17978823E-14
   2.73000002       1.93848132E-14
   2.78999996       2.29816454E-14
   2.84999990       2.13826624E-14
   2.91000009       1.46741783E-14
   2.97000003       3.92388945E-15
   3.02999997      -9.31699989E-15
   3.08999991      -2.33137569E-14
   3.15000010      -3.60748046E-14
   3.21000004      -4.50847550E-14
   3.26999998      -4.72730748E-14
   3.32999992      -3.95938097E-14
   3.39000010      -2.02317275E-14
   3.45000005       1.00058486E-14
   3.50999999       4.68125261E-14
   3.56999993       8.26050721E-14
   3.63000011       1.07984476E-13
   3.69000006       1.14056225E-13
   3.75000000       9.49116748E-14
   3.80999994       4.95806534E-14
   3.86999989      -1.69893295E-14
   3.93000007      -9.40976287E-14
   3.99000001      -1.66612031E-13
   4.05000019      -2.17400493E-13
   4.11000013      -2.30711934E-13
   4.17000008      -1.96065047E-13
   4.23000002      -1.11822986E-13
   4.28999996       1.26102708E-14
   4.34999990       1.56905616E-13
   4.40999985       2.92625191E-13
   4.46999979       3.88390221E-13
   4.53000021       4.16452815E-13
   4.59000015       3.59449964E-13
   4.65000010       2.16092010E-13
   4.71000004       4.51994060E-15
   4.76999998      -2.38016800E-13
   4.82999992      -4.60379456E-13
   4.88999987      -6.08008056E-13
   4.94999981      -6.37134605E-13
   5.01000023      -5.28895450E-13
   5.07000017      -2.97978086E-13
   5.13000011       8.79283896E-15
   5.19000006       3.24956208E-13
   5.25000000       5.83873932E-13
   5.30999994       7.37019983E-13
   5.36999989       7.62913766E-13
   5.42999983       6.63347307E-13
   5.48999977       4.51158777E-13
   5.55000019       1.39722720E-13
   5.61000013      -2.55842277E-13
   5.67000008      -7.03249741E-13
   5.73000002      -1.13224892E-12
   5.78999996      -1.42561776E-12
   5.84999990      -1.43775031E-12
   5.90999985      -1.04404603E-12
   5.96999979      -2.05594683E-13
   6.03000021       9.80709871E-13
   6.09000015       2.27683692E-12
   6.15000010       3.35638808E-12
   6.21000004       3.90144340E-12
   6.26999998       3.70532684E-12
   6.32999992       2.73635064E-12
   6.38999987       1.13364786E-12
   6.44999981      -8.61267492E-13
   6.51000023      -3.00108115E-12
   6.57000017      -5.10616202E-12
   6.63000011      -7.07530475E-12
   6.69000006      -8.82721760E-12
   6.75000000      -1.02040537E-11
   6.80999994      -1.08910997E-11
   6.86999989      -1.04015902E-11
   6.92999983      -8.14510525E-12
   6.98999977      -3.55652877E-12
   7.05000019       3.76844432E-12
   7.11000013       1.39909776E-11
   7.17000008       2.70361216E-11
   7.23000002       4.26834991E-11
   7.28999996       6.06946993E-11
   7.34999990       8.09081274E-11
   7.40999985       1.03239944E-10
   7.46999979       1.27566541E-10
   7.53000021       1.53517962E-10
   7.59000015       1.80262416E-10
   7.65000010       2.06388281E-10
   7.71000004       2.29977801E-10
   7.76999998       2.48911863E-10
   7.82999992       2.61361044E-10
   7.88999987       2.66331623E-10
   7.94999981       2.64080813E-10
   8.01000023       2.56221544E-10
   8.06999969       2.45415105E-10
   8.13000011       2.34681996E-10
   8.18999958       2.26503108E-10
   8.25000000       2.21983931E-10
   8.31000042       2.20361090E-10
   8.36999989       2.19035651E-10
   8.43000031       2.14143314E-10
   8.48999977       2.01485870E-10
   8.55000019       1.77528298E-10
   8.60999966       1.40162076E-10
   8.67000008       8.90588020E-11
   8.72999954       2.56256578E-11
   8.78999996      -4.72622497E-11
   8.85000038      -1.25528060E-10
   8.90999985      -2.04030626E-10
   8.97000027      -2.76640100E-10
   9.02999973      -3.36498968E-10
   9.09000015      -3.76756792E-10
   9.14999962      -3.91908755E-10
   9.21000004      -3.79553333E-10
   9.27000046      -3.42058937E-10
   9.32999992      -2.87470575E-10
   9.39000034      -2.29117683E-10
   9.44999981      -1.83778728E-10
   9.51000023      -1.68771205E-10
   9.56999969      -1.98732461E-10
   9.63000011      -2.82947971E-10
   9.68999958      -4.23825475E-10
   9.75000000      -6.16634133E-10
   9.81000042      -8.50160664E-10
   9.86999989      -1.10771703E-09
   9.93000031      -1.36807099E-09
   9.98999977      -1.60627367E-09
   10.0500002      -1.79479320E-09
   10.1099997      -1.90556726E-09
   10.1700001      -1.91338145E-09
   10.2299995      -1.80041526E-09
   10.2900000      -1.56109536E-09
   10.3500004      -1.20588173E-09
   10.4099998      -7.62571506E-10
   10.4700003      -2.74221257E-10
   10.5299997       2.06288625E-10
   10.5900002       6.24037655E-10
   10.6499996       9.30487631E-10
   10.7100000       1.09069054E-09
   10.7700005       1.08785136E-09
   10.8299999       9.24595012E-10
   10.8900003       6.21122542E-10
   10.9499998       2.11035606E-10
   11.0100002      -2.64157030E-10
   11.0699997      -7.60915553E-10
   11.1300001      -1.23923127E-09
   11.1899996      -1.66740688E-09
   11.2500000      -2.02572958E-09
   11.3100004      -2.30877251E-09
   11.3699999      -2.52610510E-09
   11.4300003      -2.70125367E-09
   11.4899998      -2.86886292E-09
   11.5500002      -3.07013903E-09
   11.6099997      -3.34684591E-09
   11.6700001      -3.73437681E-09
   11.7299995      -4.25476987E-09
   11.7900000      -4.91090102E-09
   11.8500004      -5.68329384E-09
   11.9099998      -6.53083454E-09
   11.9700003      -7.39606065E-09
   12.0299997      -8.21461565E-09
   12.0900002      -8.92730245E-09
   12.1499996      -9.49221324E-09
   12.2100000      -9.89414506E-09
   12.2700005      -1.01490176E-08
   12.3299999      -1.03021529E-08
   12.3900003      -1.04207691E-08
   12.4499998      -1.05823839E-08
   12.5100002      -1.08616831E-08
   12.5699997      -1.13185736E-08
   12.6300001      -1.19896582E-08
   12.6899996      -1.28844384E-08
   12.7500000      -1.39863703E-08
   12.8100004      -1.52579140E-08
   12.8699999      -1.66480234E-08
   12.9300003      -1.81003568E-08
   12.9899998      -1.95606695E-08
   13.0500002      -2.09823519E-08
   13.1099997      -2.23295586E-08
   13.1700001      -2.35778703E-08
   13.2299995      -2.47126408E-08
   13.2900000      -2.57255195E-08
   13.3500004      -2.66098770E-08
   13.4099998      -2.73561920E-08
   13.4700003      -2.79486265E-08
   13.5299997      -2.83638890E-08
   13.5900002      -2.85730355E-08
   13.6499996      -2.85459318E-08
   13.7100000      -2.82572454E-08
   13.7700005      -2.76922307E-08
   13.8299999      -2.68505360E-08
   13.8900003      -2.57468589E-08
   13.9499998      -2.44083846E-08
   14.0100002      -2.28699566E-08
   14.0699997      -2.11686970E-08
   14.1300001      -1.93398826E-08
   14.1899996      -1.74152248E-08
   14.2500000      -1.54237743E-08
   14.3100004      -1.33944695E-08
   14.3699999      -1.13587575E-08
   14.4300003      -9.35170785E-09
   14.4899998      -7.41069250E-09
   14.5500002      -5.57193536E-09
   14.6099997      -3.86618115E-09
   14.6700001      -2.31524888E-09
   14.7299995      -9.30791222E-10
   14.7900000       2.84490681E-10
   14.8500004       1.33421352E-09
   14.9099998       2.22608709E-09
   14.9700003       2.97177905E-09
   15.0299997       3.58942298E-09
   15.0900002       4.10772882E-09
   15.1499996       4.56932359E-09
   15.2100000       5.03063147E-09
   15.2700005       5.55656010E-09
   15.3299999       6.21026075E-09
   15.3900003       7.04044645E-09
   15.4499998       8.07027156E-09
   15.5100002       9.29185706E-09
   15.5699997       1.06690239E-08
   15.6300001       1.21480541E-08
   15.6899996       1.36734792E-08
   15.7500000       1.52038524E-08
   15.8100004       1.67222662E-08
   15.8699999       1.82379782E-08
   15.9300003       1.97784988E-08
   15.9899998       2.13747828E-08
   16.0499992       2.30444641E-08
   16.1100006       2.47787959E-08
   16.1700001       2.65375935E-08
   16.2299995       2.82539201E-08
   16.2900009       2.98470511E-08
   16.3500004       3.12398214E-08
   16.4099998       3.23751905E-08
   16.4699993       3.32272805E-08
   16.5300007       3.38039250E-08
   16.5900002       3.41402604E-08
   16.6499996       3.42855735E-08
   16.7099991       3.42873285E-08
   16.7700005       3.41770416E-08
   16.8299999       3.39617721E-08
   16.8899994       3.36232802E-08
   16.9500008       3.31243477E-08
   17.0100002       3.24198908E-08
   17.0699997       3.14693303E-08
   17.1299992       3.02466638E-08
   17.1900005       2.87458217E-08
   17.2500000       2.69804268E-08
   17.3099995       2.49786147E-08
   17.3700008       2.27747492E-08
   17.4300003       2.04005772E-08
   17.4899998       1.78783495E-08
   17.5499992       1.52180029E-08
   17.6100006       1.24194042E-08
   17.6700001       9.47923606E-09
   17.7299995       6.40053122E-09
   17.7900009       3.20189808E-09
   17.8500004      -7.67681474E-11
   17.9099998      -3.37430150E-09
   17.9699993      -6.61453337E-09
   18.0300007      -9.71744285E-09
   18.0900002      -1.26124169E-08
   18.1499996      -1.52503628E-08
   18.2099991      -1.76117982E-08
   18.2700005      -1.97090806E-08
   18.3299999      -2.15822578E-08
   18.3899994      -2.32894273E-08
   18.4500008      -2.48936924E-08
   18.5100002      -2.64498805E-08
   18.5699997      -2.79943553E-08
   18.6299992      -2.95405904E-08
   18.6900005      -3.10813810E-08
   18.7500000      -3.25963576E-08
   18.8099995      -3.40615962E-08
   18.8700008      -3.54577203E-08
   18.9300003      -3.67737698E-08
   18.9899998      -3.80064797E-08
   19.0499992      -3.91565287E-08
   19.1100006      -4.02243643E-08
   19.1700001      -4.12078016E-08
   19.2299995      -4.21020943E-08
   19.2900009      -4.29019558E-08
   19.3500004      -4.36041780E-08
   19.4099998      -4.42099157E-08
   19.4699993      -4.47260113E-08
   19.5300007      -4.51653968E-08
   19.5900002      -4.55462335E-08
   19.6499996      -4.58894220E-08
   19.7099991      -4.62144349E-08
   19.7700005      -4.65341223E-08
   19.8299999      -4.68501291E-08
   19.8899994      -4.71510084E-08
   19.9500008      -4.74141260E-08
   20.0100002      -4.76110706E-08
   20.0699997      -4.77146145E-08
   20.1299992      -4.77048303E-08
   20.1900005      -4.75726658E-08
   20.2500000      -4.73208459E-08
   20.3099995      -4.69629171E-08
   20.3700008      -4.65215955E-08
   20.4300003      -4.60265852E-08
   20.4899998      -4.55113316E-08
   20.5499992      -4.50081643E-08
   20.6100006      -4.45422863E-08
   20.6700001      -4.41264874E-08
   20.7299995      -4.37588419E-08
   20.7900009      -4.34247127E-08
   20.8500004      -4.31023821E-08
   20.9099998      -4.27696989E-08
   20.9699993      -4.24086259E-08
   21.0300007      -4.20060005E-08
   21.0900002      -4.15508907E-08
   21.1499996      -4.10310363E-08
   21.2099991      -4.04310043E-08
   21.2700005      -3.97336777E-08
   21.3299999      -3.89245542E-08
   21.3899994      -3.79969727E-08
   21.4500008      -3.69560240E-08
   21.5100002      -3.58197987E-08
   21.5699997      -3.46178695E-08
   21.6299992      -3.33876748E-08
   21.6900005      -3.21698863E-08
   21.7500000      -3.10035126E-08
   21.8099995      -2.99215124E-08
   21.8700008      -2.89474649E-08
   21.9300003      -2.80938686E-08
   21.9899998      -2.73623453E-08
   22.0499992      -2.67452656E-08
   22.1100006      -2.62279070E-08
   22.1700001      -2.57902020E-08
   22.2299995      -2.54077133E-08
   22.2900009      -2.50524028E-08
   22.3500004      -2.46942324E-08
   22.4099998      -2.43044962E-08
   22.4699993      -2.38606823E-08
   22.5300007      -2.33515678E-08
   22.5900002      -2.27807178E-08
   22.6499996      -2.21668390E-08
   22.7099991      -2.15406626E-08
   22.7700005      -2.09392237E-08
   22.8299999      -2.03991970E-08
   22.8899994      -1.99509937E-08
   22.9500008      -1.96148111E-08
   23.0100002      -1.93991738E-08
   23.0699997      -1.93019023E-08
   23.1299992      -1.93131662E-08
   23.1900005      -1.94198471E-08
   23.2500000      -1.96102174E-08
   23.3099995      -1.98777368E-08
   23.3700008      -2.02229291E-08
   23.4300003      -2.06529549E-08
   23.4899998      -2.11794031E-08
   23.5499992      -2.18154508E-08
   23.6100006      -2.25737669E-08
   23.6700001      -2.34658390E-08
   23.7299995      -2.45025067E-08
   23.7900009      -2.56945452E-08
   23.8500004      -2.70519838E-08
   23.9099998      -2.85814075E-08
   23.9699993      -3.02815337E-08
   24.0300007      -3.21384057E-08
   24.0900002      -3.41220598E-08
   24.1499996      -3.61861439E-08
   24.2099991      -3.82713203E-08
   24.2700005      -4.03120524E-08
   24.3299999      -4.22456132E-08
   24.3899994      -4.40217320E-08
   24.4500008      -4.56110278E-08
   24.5100002      -4.70105626E-08
   24.5699997      -4.82450773E-08
   24.6299992      -4.93628427E-08
   24.6900005      -5.04260704E-08
   24.7500000      -5.14970218E-08
   24.8099995      -5.26226174E-08
   24.8700008      -5.38213243E-08
   24.9300003      -5.50762635E-08
   24.9899998      -5.63372282E-08
   25.0499992      -5.75316044E-08
   25.1100006      -5.85815378E-08
   25.1700001      -5.94225362E-08
   25.2299995      -6.00181878E-08
   25.2900009      -6.03670642E-08
   25.3500004      -6.05003478E-08
   25.4099998      -6.04716845E-08
   25.4699993      -6.03425434E-08
   25.5300007      -6.01675225E-08
   25.5900002      -5.99829590E-08
   25.6499996      -5.98015859E-08
   25.7099991      -5.96134200E-08
   25.7700005      -5.93923133E-08
   25.8299999      -5.91055489E-08
   25.8899994      -5.87236251E-08
   25.9500008      -5.82272790E-08
   26.0100002      -5.76096220E-08
   26.0699997      -5.68733149E-08
   26.1299992      -5.60241844E-08
   26.1900005      -5.50644685E-08
   26.2500000      -5.39888632E-08
   26.3099995      -5.27854667E-08
   26.3700008      -5.14415071E-08
   26.4300003      -4.99517583E-08
   26.4899998      -4.83260933E-08
   26.5499992      -4.65927847E-08
   26.6100006      -4.47957653E-08
   26.6700001      -4.29860059E-08
   26.7299995      -4.12096313E-08
   26.7900009      -3.94963564E-08
   26.8500004      -3.78521392E-08
   26.9099998      -3.62585979E-08
   26.9699993      -3.46798572E-08
   27.0300007      -3.30750751E-08
   27.0900002      -3.14129380E-08
   27.1499996      -2.96836937E-08
   27.2099991      -2.79045995E-08
   27.2700005      -2.61167319E-08
   27.3299999      -2.43738434E-08
   27.3899994      -2.27266614E-08
   27.4500008      -2.12077182E-08
   27.5100002      -1.98216998E-08
   27.5699997      -1.85444975E-08
   27.6299992      -1.73312227E-08
   27.6900005      -1.61304126E-08
   27.7500000      -1.48998094E-08
   27.8099995      -1.36188110E-08
   27.8700008      -1.22940937E-08
   27.9300003      -1.09573941E-08
   27.9899998      -9.65698455E-09
   28.0499992      -8.44619752E-09
   28.1100006      -7.37290851E-09
   28.1700001      -6.47302389E-09
   28.2299995      -5.76924819E-09
   28.2900009      -5.27433919E-09
   28.3500004      -4.99642550E-09
   28.4099998      -4.94341368E-09
   28.4699993      -5.12423526E-09
   28.5300007      -5.54630075E-09
   28.5900002      -6.21049034E-09
   28.6499996      -7.10631998E-09
   28.7099991      -8.21002111E-09
   28.7700005      -9.48706269E-09
   28.8299999      -1.08986509E-08
   28.8899994      -1.24098722E-08
   28.9500008      -1.39962886E-08
   29.0100002      -1.56463145E-08
   29.0699997      -1.73584134E-08
   29.1299992      -1.91342071E-08
   29.1900005      -2.09702424E-08
   29.2500000      -2.28517347E-08
   29.3099995      -2.47509906E-08
   29.3700008      -2.66316622E-08
   29.4300003      -2.84579471E-08
   29.4899998      -3.02059995E-08
   29.5499992      -3.18734799E-08
   29.6100006      -3.34831505E-08
   29.6700001      -3.50777434E-08
   29.7299995      -3.67061475E-08
   29.7900009      -3.84041989E-08
   29.8500004      -4.01763529E-08
   29.9099998      -4.19850004E-08
   29.9699993      -4.37526353E-08
   30.0300007      -4.53775968E-08
   30.0900002      -4.67592329E-08
   30.1499996      -4.78246100E-08
   30.2099991      -4.85479248E-08
   30.2700005      -4.89563057E-08
   30.3299999      -4.91203060E-08
   30.3899994      -4.91325061E-08
   30.4500008      -4.90812759E-08
   30.5100002      -4.90278218E-08
   30.5699997      -4.89930478E-08
   30.6299992      -4.89575029E-08
   30.6900005      -4.88735807E-08
   30.7500000      -4.86856351E-08
   30.8099995      -4.83513851E-08
   30.8700008      -4.78576965E-08
   30.9300003      -4.72256509E-08
   30.9899998      -4.65033381E-08
   31.0499992      -4.57491396E-08
   31.1100006      -4.50117952E-08
   31.1700001      -4.43147350E-08
   31.2299995      -4.36506369E-08
   31.2900009      -4.29882334E-08
   31.3500004      -4.22886615E-08
   31.4099998      -4.15250270E-08
   31.4699993      -4.06977847E-08
   31.5300007      -3.98401063E-08
   31.5900002      -3.90109136E-08
   31.6499996      -3.82776619E-08
   31.7099991      -3.76941536E-08
   31.7700005      -3.72807385E-08
   31.8299999      -3.70137023E-08
   31.8899994      -3.68282116E-08
   31.9500008      -3.66350399E-08
   32.0099983      -3.63466022E-08
   32.0699997      -3.59040975E-08
   32.1300011      -3.52965088E-08
   32.1899986      -3.45644970E-08
   32.2500000      -3.37873587E-08
   32.3100014      -3.30575176E-08
   32.3699989      -3.24515916E-08
   32.4300003      -3.20082947E-08
   32.4900017      -3.17204218E-08
   32.5499992      -3.15427791E-08
   32.6100006      -3.14121635E-08
   32.6699982      -3.12718313E-08
   32.7299995      -3.10923198E-08
   32.7900009      -3.08825214E-08
   32.8499985      -3.06883727E-08
   32.9099998      -3.05800540E-08
   32.9700012      -3.06313908E-08
   33.0299988      -3.08972048E-08
   33.0900002      -3.13950075E-08
   33.1500015      -3.20970841E-08
   33.2099991      -3.29364234E-08
   33.2700005      -3.38259944E-08
   33.3300018      -3.46859856E-08
   33.3899994      -3.54700909E-08
   33.4500008      -3.61812553E-08
   33.5099983      -3.68704463E-08
   33.5699997      -3.76181646E-08
   33.6300011      -3.85047834E-08
   33.6899986      -3.95802360E-08
   33.7500000      -4.08436307E-08
   33.8100014      -4.22396269E-08
   33.8699989      -4.36720953E-08
   33.9300003      -4.50297115E-08
   33.9900017      -4.62145984E-08
   34.0499992      -4.71651340E-08
   34.1100006      -4.78667914E-08
   34.1699982      -4.83492357E-08
   34.2299995      -4.86722271E-08
   34.2900009      -4.89052958E-08
   34.3499985      -4.91075269E-08
   34.4099998      -4.93126997E-08
   34.4700012      -4.95233792E-08
   34.5299988      -4.97148704E-08
   34.5900002      -4.98474542E-08
   34.6500015      -4.98830559E-08
   34.7099991      -4.98012440E-08
   34.7700005      -4.96095218E-08
   34.8300018      -4.93444965E-08
   34.8899994      -4.90634235E-08
   34.9500008      -4.88289515E-08
   35.0099983      -4.86924456E-08
   35.0699997      -4.86818514E-08
   35.1300011      -4.87982632E-08
   35.1899986      -4.90219314E-08
   35.2500000      -4.93246475E-08
   35.3100014      -4.96831198E-08
   35.3699989      -5.00881541E-08
   35.4300003      -5.05468414E-08
   35.4900017      -5.10782066E-08
   35.5499992      -5.17052783E-08
   35.6100006      -5.24472874E-08
   35.6699982      -5.33144657E-08
   35.7299995      -5.43059642E-08
   35.7900009      -5.54101547E-08
   35.8499985      -5.66059448E-08
   35.9099998      -5.78645860E-08
   35.9700012      -5.91519580E-08
   36.0299988      -6.04314323E-08
   36.0900002      -6.16672153E-08
   36.1500015      -6.28273966E-08
   36.2099991      -6.38863042E-08
   36.2700005      -6.48261462E-08
   36.3300018      -6.56389929E-08
   36.3899994      -6.63294770E-08
   36.4500008      -6.69178277E-08
   36.5099983      -6.74411496E-08
   36.5699997      -6.79502179E-08
   36.6300011      -6.85003272E-08
   36.6899986      -6.91371369E-08
   36.7500000      -6.98818354E-08
   36.8100014      -7.07210930E-08
   36.8699989      -7.16065429E-08
   36.9300003      -7.24649496E-08
   36.9900017      -7.32162420E-08
   37.0499992      -7.37932240E-08
   37.1100006      -7.41565245E-08
   37.1699982      -7.43002673E-08
   37.2299995      -7.42476374E-08
   37.2900009      -7.40388089E-08
   37.3499985      -7.37160093E-08
   37.4099998      -7.33104031E-08
   37.4700012      -7.28345242E-08
   37.5299988      -7.22815798E-08
   37.5900002      -7.16311490E-08
   37.6500015      -7.08588459E-08
   37.7099991      -6.99466369E-08
   37.7700005      -6.88902659E-08
   37.8300018      -6.77012224E-08
   37.8899994      -6.64023077E-08
   37.9500008      -6.50183765E-08
   38.0099983      -6.35655866E-08
   38.0699997      -6.20436751E-08
   38.1300011      -6.04349353E-08
   38.1899986      -5.87111657E-08
   38.2500000      -5.68468295E-08
   38.3100014      -5.48339365E-08
   38.3699989      -5.26928332E-08
   38.4300003      -5.04742559E-08
   38.4900017      -4.82508042E-08
   38.5499992      -4.60999807E-08
   38.6100006      -4.40842207E-08
   38.6699982      -4.22347988E-08
   38.7299995      -4.05453484E-08
   38.7900009      -3.89773938E-08
   38.8499985      -3.74760027E-08
   38.9099998      -3.59898564E-08
   38.9700012      -3.44886253E-08
   39.0299988      -3.29717018E-08
   39.0900002      -3.14656035E-08
   39.1500015      -3.00118472E-08
   39.2099991      -2.86502626E-08
   39.2700005      -2.74042176E-08
   39.3300018      -2.62730797E-08
   39.3899994      -2.52343604E-08
   39.4500008      -2.42544367E-08
   39.5099983      -2.33038371E-08
   39.5699997      -2.23715890E-08
   39.6300011      -2.14734079E-08
   39.6899986      -2.06503543E-08
   39.7500000      -1.99575538E-08
   39.8100014      -1.94458707E-08
   39.8699989      -1.91421812E-08
   39.9300003      -1.90352676E-08
   39.9900017      -1.90732052E-08
   40.0499992      -1.91748715E-08
   40.1100006      -1.92531484E-08
   40.1699982      -1.92426821E-08
   40.2299995      -1.91226039E-08
   40.2900009      -1.89257605E-08
   40.3499985      -1.87306419E-08
   40.4099998      -1.86385858E-08
   40.4700012      -1.87442648E-08
   40.5299988      -1.91096294E-08
   40.5900002      -1.97497005E-08
   40.6500015      -2.06335731E-08
   40.7099991      -2.16984439E-08
   40.7700005      -2.28704078E-08
   40.8300018      -2.40845690E-08
   40.8899994      -2.52986059E-08
   40.9500008      -2.64970765E-08
   41.0099983      -2.76868573E-08
   41.0699997      -2.88864648E-08
   41.1300011      -3.01131102E-08
   41.1899986      -3.13715205E-08
   41.2500000      -3.26479110E-08
   41.3100014      -3.39110962E-08
   41.3699989      -3.51206033E-08
   41.4300003      -3.62392250E-08
   41.4900017      -3.72455204E-08
   41.5499992      -3.81413194E-08
   41.6100006      -3.89506454E-08
   41.6699982      -3.97098958E-08
   41.7299995      -4.04524982E-08
   41.7900009      -4.11940206E-08
   41.8499985      -4.19238333E-08
   41.9099998      -4.26069491E-08
   41.9700012      -4.31957297E-08
   42.0299988      -4.36470380E-08
   42.0900002      -4.39381118E-08
   42.1500015      -4.40750405E-08
   42.2099991      -4.40905232E-08
   42.2700005      -4.40319603E-08
   42.3300018      -4.39446097E-08
   42.3899994      -4.38562466E-08
   42.4500008      -4.37689280E-08
   42.5099983      -4.36604282E-08
   42.5699997      -4.34941185E-08
   42.6300011      -4.32332534E-08
   42.6899986      -4.28543565E-08
   42.7500000      -4.23553388E-08
   42.8100014      -4.17562838E-08
   42.8699989      -4.10932444E-08
   42.9300003      -4.04075777E-08
   42.9900017      -3.97341253E-08
   43.0499992      -3.90917663E-08
   43.1100006      -3.84789836E-08
   43.1699982      -3.78757505E-08
   43.2299995      -3.72514783E-08
   43.2900009      -3.65766830E-08
   43.3499985      -3.58347805E-08
   43.4099998      -3.50297462E-08
   43.4700012      -3.41866624E-08
   43.5299988      -3.33444738E-08
   43.5900002      -3.25434826E-08
   43.6500015      -3.18121778E-08
   43.7099991      -3.11585566E-08
   43.7700005      -3.05691081E-08
   43.8300018      -3.00156096E-08
   43.8899994      -2.94667117E-08
   43.9500008      -2.88998177E-08
   44.0099983      -2.83091275E-08
   44.0699997      -2.77077685E-08
   44.1300011      -2.71241838E-08
   44.1899986      -2.65945737E-08
   44.2500000      -2.61536606E-08
   44.3100014      -2.58257060E-08
   44.3699989      -2.56173660E-08
   44.4300003      -2.55138186E-08
   44.4900017      -2.54796593E-08
   44.5499992      -2.54654910E-08
   44.6100006      -2.54197801E-08
   44.6699982      -2.53034127E-08
   44.7299995      -2.51026968E-08
   44.7900009      -2.48361882E-08
   44.8499985      -2.45523477E-08
   44.9099998      -2.43182061E-08
   44.9700012      -2.42024374E-08
   45.0299988      -2.42581812E-08
   45.0900002      -2.45107792E-08
   45.1500015      -2.49534811E-08
   45.2099991      -2.55513655E-08
   45.2700005      -2.62514721E-08
   45.3300018      -2.69959290E-08
   45.3899994      -2.77350232E-08
   45.4500008      -2.84376878E-08
   45.5099983      -2.90975191E-08
   45.5699997      -2.97329006E-08
   45.6300011      -3.03806651E-08
   45.6899986      -3.10840598E-08
   45.7500000      -3.18778426E-08
   45.8100014      -3.27749312E-08
   45.8699989      -3.37595729E-08
   45.9300003      -3.47903537E-08
   45.9900017      -3.58130414E-08
   46.0499992      -3.67792197E-08
   46.1100006      -3.76639662E-08
   46.1699982      -3.84755445E-08
   46.2299995      -3.92529245E-08
   46.2900009      -4.00515816E-08
   46.3499985      -4.09226217E-08
   46.4099998      -4.18929211E-08
   46.4700012      -4.29534843E-08
   46.5299988      -4.40598455E-08
   46.5900002      -4.51439597E-08
   46.6500015      -4.61329499E-08
   46.7099991      -4.69682355E-08
   46.7700005      -4.76192490E-08
   46.8300018      -4.80881148E-08
   46.8899994      -4.84047291E-08
   46.9500008      -4.86143499E-08
   47.0099983      -4.87614287E-08
   47.0699997      -4.88742629E-08
   47.1300011      -4.89549734E-08
   47.1899986      -4.89781335E-08
   47.2500000      -4.88994267E-08
   47.3100014      -4.86726108E-08
   47.3699989      -4.82699534E-08
   47.4300003      -4.76992561E-08
   47.4900017      -4.70106727E-08
   47.5499992      -4.62895038E-08
   47.6100006      -4.56360674E-08
   47.6699982      -4.51387443E-08
   47.7299995      -4.48494220E-08
   47.7900009      -4.47702604E-08
   47.8499985      -4.48569004E-08
   47.9099998      -4.50373356E-08
   47.9700012      -4.52402418E-08
   48.0299988      -4.54231603E-08
   48.0900002      -4.55913955E-08
   48.1500015      -4.58015066E-08
   48.2099991      -4.61487026E-08
   48.2700005      -4.67420378E-08
   48.3300018      -4.76749058E-08
   48.3899994      -4.89990732E-08
   48.4500008      -5.07091400E-08
   48.5099983      -5.27412531E-08
   48.5699997      -5.49860495E-08
   48.6300011      -5.73120431E-08
   48.6899986      -5.95931127E-08
   48.7500000      -6.17324787E-08
   48.8100014      -6.36767723E-08
   48.8699989      -6.54166499E-08
   48.9300003      -6.69747777E-08
   48.9900017      -6.83862140E-08
   49.0499992      -6.96786913E-08
   49.1100006      -7.08597980E-08
   49.1699982      -7.19147906E-08
   49.2299995      -7.28140179E-08
   49.2900009      -7.35246104E-08
   49.3499985      -7.40201074E-08
   49.4099998      -7.42833848E-08
   49.4700012      -7.43029247E-08
   49.5299988      -7.40662145E-08
   49.5900002      -7.35559880E-08
   49.6500015      -7.27530036E-08
   49.7099991      -7.16450401E-08
   49.7700005      -7.02377889E-08
   49.8300018      -6.85618531E-08
   49.8899994      -6.66718591E-08
   49.9500008      -6.46378595E-08
   50.0099983      -6.25331893E-08
   50.0699997      -6.04241990E-08
   50.1300011      -5.83658633E-08
   50.1899986      -5.64035219E-08
   50.2500000      -5.45779066E-08
   50.3100014      -5.29298134E-08
   50.3699989      -5.15023011E-08
   50.4300003      -5.03411854E-08
   50.4900017      -4.94960410E-08
   50.5499992      -4.90233951E-08
   50.6100006      -4.89912537E-08