  -2.400000      0.0000000E+00
  -2.340000      0.0000000E+00
  -2.280000      0.0000000E+00
  -2.220000      0.0000000E+00
  -2.160000      0.0000000E+00
  -2.100000      0.0000000E+00
  -2.040000      0.0000000E+00
  -1.980000      4.7871133E-24
  -1.920000      4.1438882E-23
  -1.860000      1.5396307E-22
  -1.800000      2.2765332E-22
  -1.740000     -4.9096744E-22
  -1.680000     -3.7372735E-21
  -1.620000     -1.0808572E-20
  -1.560000     -1.7418385E-20
  -1.500000     -6.2715126E-21
  -1.440000      5.2980072E-20
  -1.380000      1.7993249E-19
  -1.320000      3.2837263E-19
  -1.260000      3.2875689E-19
  -1.200000     -9.3680641E-20
  -1.140000     -1.1363861E-18
  -1.080000     -2.5750306E-18
  -1.020000     -3.4580891E-18
 -0.9600000     -2.2260377E-18
 -0.9000000      2.4140185E-18
 -0.8400000      9.9892093E-18
 -0.7800000      1.7011565E-17
 -0.7200000      1.7357290E-17
 -0.6600000      5.2401073E-18
 -0.6000000     -1.9860833E-17
 -0.5400000     -4.9088736E-17
 -0.4800000     -6.4774482E-17
 -0.4200000     -4.8034388E-17
 -0.3600000      8.5069992E-18
 -0.3000000      8.9694383E-17
 -0.2400000      1.5727165E-16
 -0.1800000      1.6462451E-16
 -0.1200000      8.2645104E-17
 -5.9999999E-02 -7.6713590E-17
  0.0000000E+00 -2.5519602E-16
  5.9999999E-02 -3.6926690E-16
  0.1200000     -3.4965239E-16
  0.1800000     -1.7791705E-16
  0.2400000      1.0259734E-16
  0.3000000      4.0924164E-16
  0.3600000      6.6074584E-16
  0.4200000      8.0607965E-16
  0.4800000      8.1826787E-16
  0.5400000      6.5801802E-16
  0.6000000      2.4377677E-16
  0.6600000     -5.2509822E-16
  0.7200000     -1.6724540E-15
  0.7800000     -3.0127035E-15
  0.8400000     -4.0687626E-15
  0.9000000     -4.1361398E-15
  0.9600000     -2.5340805E-15
   1.020000      1.0162480E-15
   1.080000      6.0443602E-15
   1.140000      1.1208845E-14
   1.200000      1.4539544E-14
   1.260000      1.4041738E-14
   1.320000      8.4926852E-15
   1.380000     -1.8609625E-15
   1.440000     -1.5011384E-14
   1.500000     -2.7497092E-14
   1.560000     -3.5293074E-14
   1.620000     -3.5033608E-14
   1.680000     -2.5156812E-14
   1.740000     -6.5523381E-15
   1.800000      1.7533804E-14
   1.860000      4.2285836E-14
   1.920000      6.2455751E-14
   1.980000      7.3388581E-14
   2.040000      7.1610483E-14
   2.100000      5.5003823E-14
   2.160000      2.2947905E-14
   2.220000     -2.3104211E-14
   2.280000     -7.8472629E-14
   2.340000     -1.3403197E-13
   2.400000     -1.7603170E-13
   2.460000     -1.8811737E-13
   2.520000     -1.5595901E-13
   2.580000     -7.3503568E-14
   2.640000      5.1500850E-14
   2.700000      1.9557304E-13
   2.760000      3.2314112E-13
   2.820000      3.9562068E-13
   2.880000      3.8331805E-13
   2.940000      2.7594732E-13
   3.000000      8.7718251E-14
   3.060000     -1.4506575E-13
   3.120000     -3.7305410E-13
   3.180000     -5.4623748E-13
   3.240000     -6.2549000E-13
   3.300000     -5.9003144E-13
   3.360000     -4.3970440E-13
   3.420000     -1.9308017E-13
   3.480000      1.1649136E-13
   3.540000      4.4501292E-13
   3.600000      7.4145610E-13
   3.660000      9.5148477E-13
   3.720000      1.0226759E-12
   3.780000      9.1250109E-13
   3.840000      5.9931872E-13
   3.900000      9.4965926E-14
   3.960000     -5.4443792E-13
   4.020000     -1.2145041E-12
   4.080000     -1.7707879E-12
   4.140000     -2.0525972E-12
   4.200000     -1.9210384E-12
   4.260000     -1.3034049E-12
   4.320000     -2.3027191E-13
   4.380000      1.1499439E-12
   4.440000      2.5892914E-12
   4.500000      3.7908318E-12
   4.560000      4.4777745E-12
   4.620000      4.4584653E-12
   4.680000      3.6646649E-12
   4.740000      2.1511775E-12
   4.800000      6.1958170E-14
   4.860000     -2.4167675E-12
   4.920000     -5.0901366E-12
   4.980000     -7.7565142E-12
   5.040000     -1.0177095E-11
   5.100000     -1.2032369E-11
   5.160000     -1.2895375E-11
   5.220000     -1.2247259E-11
   5.280000     -9.5420668E-12
   5.340000     -4.3035870E-12
   5.400000      3.7812782E-12
   5.460000      1.4810545E-11
   5.520000      2.8679262E-11
   5.580000      4.5149825E-11
   5.640000      6.3946286E-11
   5.700000      8.4822517E-11
   5.760000      1.0755951E-10
   5.820000      1.3187446E-10
   5.880000      1.5726530E-10
   5.940000      1.8285373E-10
   6.000000      2.0731093E-10
   6.060000      2.2893983E-10
   6.120000      2.4594390E-10
   6.180000      2.5684410E-10
   6.240000      2.6093422E-10
   6.300000      2.5862049E-10
   6.360000      2.5149291E-10
   6.420000      2.4204061E-10
   6.480000      2.3303023E-10
   6.540000      2.2669182E-10
   6.600000      2.2394614E-10
   6.660000      2.2392656E-10
   6.720000      2.2397739E-10
   6.780000      2.2016497E-10
   6.840000      2.0816887E-10
   6.900000      1.8429382E-10
   6.960000      1.4631250E-10
   7.020000      9.3931835E-11
   7.080000      2.8835457E-11
   7.140000     -4.5582413E-11
   7.200000     -1.2459557E-10
   7.260000     -2.0248325E-10
   7.320000     -2.7281977E-10
   7.380000     -3.2887446E-10
   7.440000     -3.6434922E-10
   7.500000     -3.7458259E-10
   7.560000     -3.5809478E-10
   7.620000     -3.1805317E-10
   7.680000     -2.6306479E-10
   7.740000     -2.0677729E-10
   7.800000     -1.6610895E-10
   7.860000     -1.5840963E-10
   7.920000     -1.9825487E-10
   7.980000     -2.9470987E-10
   8.040000     -4.4968934E-10
   8.100000     -6.5758904E-10
   8.160000     -9.0590463E-10
   8.220000     -1.1763145E-09
   8.280000     -1.4458079E-09
   8.340000     -1.6878065E-09
   8.400000     -1.8736324E-09
   8.460000     -1.9748536E-09
   8.520000     -1.9668294E-09
   8.580000     -1.8332333E-09
   8.640000     -1.5706813E-09
   8.700000     -1.1921425E-09
   8.760000     -7.2782708E-10
   8.820000     -2.2275999E-10
   8.880000      2.6886759E-10
   8.940000      6.9156053E-10
   9.000000      9.9694852E-10
   9.060000      1.1509901E-09
   9.120000      1.1385304E-09
   9.180000      9.6450148E-10
   9.240000      6.5185379E-10
   9.300000      2.3693303E-10
   9.360000     -2.3663924E-10
   9.420000     -7.2449213E-10
   9.480000     -1.1875103E-09
   9.540000     -1.5966439E-09
   9.600000     -1.9361084E-09
   9.660000     -2.2047932E-09
   9.720000     -2.4159017E-09
   9.780000     -2.5949920E-09
   9.840000     -2.7766640E-09
   9.900000     -3.0001337E-09
   9.960000     -3.3038969E-09
   10.02000     -3.7197492E-09
   10.08000     -4.2666604E-09
   10.14000     -4.9454241E-09
   10.20000     -5.7354139E-09
   10.26000     -6.5948993E-09
   10.32000     -7.4659150E-09
   10.38000     -8.2836342E-09
   10.44000     -8.9887644E-09
   10.50000     -9.5402859E-09
   10.56000     -9.9253148E-09
   10.62000     -1.0163401E-08
   10.68000     -1.0304003E-08
   10.74000     -1.0417748E-08
   10.80000     -1.0583662E-08
   10.86000     -1.0875485E-08
   10.92000     -1.1349994E-08
   10.98000     -1.2039449E-08
   11.04000     -1.2949025E-08
   11.10000     -1.4058895E-08
   11.16000     -1.5329832E-08
   11.22000     -1.6710793E-08
   11.28000     -1.8146919E-08
   11.34000     -1.9586579E-08
   11.40000     -2.0986505E-08
   11.46000     -2.2314380E-08
   11.52000     -2.3548839E-08
   11.58000     -2.4677172E-08
   11.64000     -2.5691406E-08
   11.70000     -2.6583752E-08
   11.76000     -2.7342404E-08
   11.82000     -2.7948797E-08
   11.88000     -2.8377087E-08
   11.94000     -2.8596292E-08
   12.00000     -2.8574787E-08
   12.06000     -2.8286264E-08
   12.12000     -2.7715512E-08
   12.18000     -2.6862377E-08
   12.24000     -2.5742553E-08
   12.30000     -2.4384908E-08
   12.36000     -2.2826272E-08
   12.42000     -2.1105482E-08
   12.48000     -1.9258785E-08
   12.54000     -1.7318039E-08
   12.60000     -1.5311898E-08
   12.66000     -1.3268857E-08
   12.72000     -1.1220240E-08
   12.78000     -9.2013677E-09
   12.84000     -7.2500721E-09
   12.90000     -5.4030482E-09
   12.96000     -3.6915246E-09
   13.02000     -2.1380127E-09
   13.08000     -7.5524292E-10
   13.14000      4.5272958E-10
   13.20000      1.4883819E-09
   13.26000      2.3591731E-09
   13.32000      3.0778695E-09
   13.38000      3.6649703E-09
   13.44000      4.1521444E-09
   13.50000      4.5846051E-09
   13.56000      5.0202176E-09
   13.62000      5.5239839E-09
   13.68000      6.1582148E-09
   13.74000      6.9705703E-09
   13.80000      7.9835418E-09
   13.86000      9.1891286E-09
   13.92000      1.0551228E-08
   13.98000      1.2015867E-08
   14.04000      1.3526608E-08
   14.10000      1.5040406E-08
   14.16000      1.6538678E-08
   14.22000      1.8029708E-08
   14.28000      1.9541373E-08
   14.34000      2.1106501E-08
   14.40000      2.2745693E-08
   14.46000      2.4453392E-08
   14.52000      2.6191865E-08
   14.58000      2.7895172E-08
   14.64000      2.9482017E-08
   14.70000      3.0873501E-08
   14.76000      3.2010462E-08
   14.82000      3.2865252E-08
   14.88000      3.3444671E-08
   14.94000      3.3783522E-08
   15.00000      3.3931077E-08
   15.06000      3.3934754E-08
   15.12000      3.3825856E-08
   15.18000      3.3611251E-08
   15.24000      3.3272830E-08
   15.30000      3.2774082E-08
   15.36000      3.2071181E-08
   15.42000      3.1125055E-08
   15.48000      2.9911028E-08
   15.54000      2.8423868E-08
   15.60000      2.6677402E-08
   15.66000      2.4699379E-08
   15.72000      2.2523347E-08
   15.78000      2.0179964E-08
   15.84000      1.7690283E-08
   15.90000      1.5063083E-08
   15.96000      1.2297265E-08
   16.02000      9.3888417E-09
   16.08000      6.3405245E-09
   16.14000      3.1709089E-09
   16.20000     -7.9894334E-11
   16.26000     -3.3503404E-09
   16.32000     -6.5637922E-09
   16.38000     -9.6397921E-09
   16.44000     -1.2507550E-08
   16.50000     -1.5118331E-08
   16.56000     -1.7453679E-08
   16.62000     -1.9527407E-08
   16.68000     -2.1380826E-08
   16.74000     -2.3072257E-08
   16.80000     -2.4663485E-08
   16.86000     -2.6206669E-08
   16.92000     -2.7735195E-08
   16.98000     -2.9260708E-08
   17.04000     -3.0776491E-08
   17.10000     -3.2265127E-08
   17.16000     -3.3707117E-08
   17.22000     -3.5087126E-08
   17.28000     -3.6396234E-08
   17.34000     -3.7630450E-08
   17.40000     -3.8787505E-08
   17.46000     -3.9864165E-08
   17.52000     -4.0855522E-08
   17.58000     -4.1756206E-08
   17.64000     -4.2562544E-08
   17.70000     -4.3274454E-08
   17.76000     -4.3896492E-08
   17.82000     -4.4438028E-08
   17.88000     -4.4912831E-08
   17.94000     -4.5337920E-08
   18.00000     -4.5731365E-08
   18.06000     -4.6108759E-08
   18.12000     -4.6478942E-08
   18.18000     -4.6840430E-08
   18.24000     -4.7180187E-08
   18.30000     -4.7475755E-08
   18.36000     -4.7700262E-08
   18.42000     -4.7828586E-08
   18.48000     -4.7842569E-08
   18.54000     -4.7734044E-08
   18.60000     -4.7505587E-08
   18.66000     -4.7169944E-08
   18.72000     -4.6748820E-08
   18.78000     -4.6271037E-08
   18.84000     -4.5769418E-08
   18.90000     -4.5275797E-08
   18.96000     -4.4814936E-08
   19.02000     -4.4399222E-08
   19.08000     -4.4026496E-08
   19.14000     -4.3682210E-08
   19.20000     -4.3345139E-08
   19.26000     -4.2993953E-08
   19.32000     -4.2611688E-08
   19.38000     -4.2186400E-08
   19.44000     -4.1708514E-08
   19.50000     -4.1167212E-08
   19.56000     -4.0548517E-08
   19.62000     -3.9836493E-08
   19.68000     -3.9017248E-08
   19.74000     -3.8083904E-08
   19.80000     -3.7040529E-08
   19.86000     -3.5903753E-08
   19.92000     -3.4701849E-08
   19.98000     -3.3471704E-08
   20.04000     -3.2254437E-08
   20.10000     -3.1090284E-08
   20.16000     -3.0013478E-08
   20.22000     -2.9048037E-08
   20.28000     -2.8205482E-08
   20.34000     -2.7484983E-08
   20.40000     -2.6875705E-08
   20.46000     -2.6360121E-08
   20.52000     -2.5916901E-08
   20.58000     -2.5522468E-08
   20.64000     -2.5151520E-08
   20.70000     -2.4777643E-08
   20.76000     -2.4375291E-08
   20.82000     -2.3923562E-08
   20.88000     -2.3410875E-08
   20.94000     -2.2838826E-08
   21.00000     -2.2223494E-08
   21.06000     -2.1593356E-08
   21.12000     -2.0984270E-08
   21.18000     -2.0432953E-08
   21.24000     -1.9970722E-08
   21.30000     -1.9618954E-08
   21.36000     -1.9387151E-08
   21.42000     -1.9273751E-08
   21.48000     -1.9269292E-08
   21.54000     -1.9360987E-08
   21.60000     -1.9537488E-08
   21.66000     -1.9792486E-08
   21.72000     -2.0126301E-08
   21.78000     -2.0545283E-08
   21.84000     -2.1059753E-08
   21.90000     -2.1681679E-08
   21.96000     -2.2423192E-08
   22.02000     -2.3296268E-08
   22.08000     -2.4313126E-08
   22.14000     -2.5486194E-08
   22.20000     -2.6826761E-08
   22.26000     -2.8341876E-08
   22.32000     -3.0030094E-08
   22.38000     -3.1877200E-08
   22.44000     -3.3853343E-08
   22.50000     -3.5912734E-08
   22.56000     -3.7996610E-08
   22.62000     -4.0039456E-08
   22.68000     -4.1977746E-08
   22.74000     -4.3759847E-08
   22.80000     -4.5355161E-08
   22.86000     -4.6760256E-08
   22.92000     -4.8000199E-08
   22.98000     -4.9123987E-08
   23.04000     -5.0194345E-08
   23.10000     -5.1273602E-08
   23.16000     -5.2408549E-08
   23.22000     -5.3617914E-08
   23.28000     -5.4885835E-08
   23.34000     -5.6163596E-08
   23.40000     -5.7379722E-08
   23.46000     -5.8456347E-08
   23.52000     -5.9327586E-08
   23.58000     -5.9954857E-08
   23.64000     -6.0334791E-08
   23.70000     -6.0497705E-08
   23.76000     -6.0497314E-08
   23.82000     -6.0395415E-08
   23.88000     -6.0246172E-08
   23.94000     -6.0084574E-08
   24.00000     -5.9921526E-08
   24.06000     -5.9746014E-08
   24.12000     -5.9532507E-08
   24.18000     -5.9250663E-08
   24.24000     -5.8874242E-08
   24.30000     -5.8386750E-08
   24.36000     -5.7782536E-08
   24.42000     -5.7063591E-08
   24.48000     -5.6233674E-08
   24.54000     -5.5292450E-08
   24.60000     -5.4232316E-08
   24.66000     -5.3039823E-08
   24.72000     -5.1701623E-08
   24.78000     -5.0212890E-08
   24.84000     -4.8584777E-08
   24.90000     -4.6847557E-08
   24.96000     -4.5047461E-08
   25.02000     -4.3237559E-08
   25.08000     -4.1465352E-08
   25.14000     -3.9760920E-08
   25.20000     -3.8129606E-08
   25.26000     -3.6551668E-08
   25.32000     -3.4989444E-08
   25.38000     -3.3400106E-08
   25.44000     -3.1750378E-08
   25.50000     -3.0028783E-08
   25.56000     -2.8251428E-08
   25.62000     -2.6459078E-08
   25.68000     -2.4706104E-08
   25.74000     -2.3044548E-08
   25.80000     -2.1508443E-08
   25.86000     -2.0103672E-08
   25.92000     -1.8806727E-08
   25.98000     -1.7572770E-08
   26.04000     -1.6350127E-08
   26.10000     -1.5096372E-08
   26.16000     -1.3790939E-08
   26.22000     -1.2440716E-08
   26.28000     -1.1077734E-08
   26.34000     -9.7505461E-09
   26.40000     -8.5127336E-09
   26.46000     -7.4123849E-09
   26.52000     -6.4855636E-09
   26.58000     -5.7550871E-09
   26.64000     -5.2338414E-09
   26.70000     -4.9302558E-09
   26.76000     -4.8528723E-09
   26.82000     -5.0115898E-09
   26.88000     -5.4148668E-09
   26.94000     -6.0642620E-09
   27.00000     -6.9491866E-09
   27.06000     -8.0448643E-09
   27.12000     -9.3151309E-09
   27.18000     -1.0719497E-08
   27.24000     -1.2221818E-08
   27.30000     -1.3797123E-08
   27.36000     -1.5433864E-08
   27.42000     -1.7130803E-08
   27.48000     -1.8889898E-08
   27.54000     -2.0708093E-08
   27.60000     -2.2571282E-08
   27.66000     -2.4452872E-08
   27.72000     -2.6317883E-08
   27.78000     -2.8131700E-08
   27.84000     -2.9870925E-08
   27.90000     -3.1532629E-08
   27.96000     -3.3138100E-08
   28.02000     -3.4728274E-08
   28.08000     -3.6350524E-08
   28.14000     -3.8039847E-08
   28.20000     -3.9800405E-08
   28.26000     -4.1594493E-08
   28.32000     -4.3344357E-08
   28.38000     -4.4947949E-08
   28.44000     -4.6304557E-08
   28.50000     -4.7342077E-08
   28.56000     -4.8036672E-08
   28.62000     -4.8418176E-08
   28.68000     -4.8559642E-08
   28.74000     -4.8554913E-08
   28.80000     -4.8491888E-08
   28.86000     -4.8429918E-08
   28.92000     -4.8387683E-08
   28.98000     -4.8344269E-08
   29.04000     -4.8251898E-08
   29.10000     -4.8055714E-08
   29.16000     -4.7714295E-08
   29.22000     -4.7214616E-08
   29.28000     -4.6576968E-08
   29.34000     -4.5848363E-08
   29.40000     -4.5086804E-08
   29.46000     -4.4341938E-08
   29.52000     -4.3639258E-08
   29.58000     -4.2973749E-08
   29.64000     -4.2315719E-08
   29.70000     -4.1626645E-08
   29.76000     -4.0879055E-08
   29.82000     -4.0072614E-08
   29.88000     -3.9240089E-08
   29.94000     -3.8440362E-08
   30.00000     -3.7740666E-08
   30.06000     -3.7193875E-08
   30.12000     -3.6818722E-08
   30.18000     -3.6589928E-08
   30.24000     -3.6442188E-08
   30.30000     -3.6287592E-08
   30.36000     -3.6041357E-08
   30.42000     -3.5647872E-08
   30.48000     -3.5098299E-08
   30.54000     -3.4433487E-08
   30.60000     -3.3730974E-08
   30.66000     -3.3080276E-08
   30.72000     -3.2555128E-08
   30.78000     -3.2192180E-08
   30.84000     -3.1983216E-08
   30.90000     -3.1882792E-08
   30.96000     -3.1827788E-08
   31.02000     -3.1761711E-08
   31.08000     -3.1655535E-08
   31.14000     -3.1518926E-08
   31.20000     -3.1398841E-08
   31.26000     -3.1366287E-08
   31.32000     -3.1495087E-08
   31.38000     -3.1838685E-08
   31.44000     -3.2411766E-08
   31.50000     -3.3182896E-08
   31.56000     -3.4081481E-08
   31.62000     -3.5018093E-08
   31.68000     -3.5912382E-08
   31.74000     -3.6719204E-08
   31.80000     -3.7443598E-08
   31.86000     -3.8138531E-08
   31.92000     -3.8885698E-08
   31.98000     -3.9765926E-08
   32.04000     -4.0829473E-08
   32.10000     -4.2076412E-08
   32.16000     -4.3453177E-08
   32.22000     -4.4865569E-08
   32.28000     -4.6203215E-08
   32.34000     -4.7367287E-08
   32.40000     -4.8293369E-08
   32.46000     -4.8963450E-08
   32.52000     -4.9404797E-08
   32.58000     -4.9677009E-08
   32.64000     -4.9851796E-08
   32.70000     -4.9991524E-08
   32.76000     -5.0132705E-08
   32.82000     -5.0278981E-08
   32.88000     -5.0405191E-08
   32.94000     -5.0470572E-08
   33.00000     -5.0436608E-08
   33.06000     -5.0283440E-08
   33.12000     -5.0019700E-08
   33.18000     -4.9682779E-08
   33.24000     -4.9329827E-08
   33.30000     -4.9022884E-08
   33.36000     -4.8813089E-08
   33.42000     -4.8729387E-08
   33.48000     -4.8775057E-08
   33.54000     -4.8932755E-08
   33.60000     -4.9175618E-08
   33.66000     -4.9479937E-08
   33.72000     -4.9834696E-08
   33.78000     -5.0245010E-08
   33.84000     -5.0729007E-08
   33.90000     -5.1310483E-08
   33.96000     -5.2010627E-08
   34.02000     -5.2841710E-08
   34.08000     -5.3804136E-08
   34.14000     -5.4886424E-08
   34.20000     -5.6066980E-08
   34.26000     -5.7316505E-08
   34.32000     -5.8600580E-08
   34.38000     -5.9882403E-08
   34.44000     -6.1125633E-08
   34.50000     -6.2297268E-08
   34.56000     -6.3370187E-08
   34.62000     -6.4325484E-08
   34.68000     -6.5154929E-08
   34.74000     -6.5863922E-08
   34.80000     -6.6474115E-08
   34.86000     -6.7023961E-08
   34.92000     -6.7564812E-08
   34.98000     -6.8151422E-08
   35.04000     -6.8828008E-08
   35.10000     -6.9613833E-08
   35.16000     -7.0493826E-08
   35.22000     -7.1418469E-08
   35.28000     -7.2314187E-08
   35.34000     -7.3101127E-08
   35.40000     -7.3712428E-08
   35.46000     -7.4108669E-08
   35.52000     -7.4283243E-08
   35.58000     -7.4257919E-08
   35.64000     -7.4071352E-08
   35.70000     -7.3764724E-08
   35.76000     -7.3369208E-08
   35.82000     -7.2898409E-08
   35.88000     -7.2347227E-08
   35.94000     -7.1696832E-08
   36.00000     -7.0923697E-08
   36.06000     -7.0009804E-08
   36.12000     -6.8950378E-08
   36.18000     -6.7756361E-08
   36.24000     -6.6450440E-08
   36.30000     -6.5057776E-08
   36.36000     -6.3595024E-08
   36.42000     -6.2062277E-08
   36.48000     -6.0441813E-08
   36.54000     -5.8705172E-08
   36.60000     -5.6826565E-08
   36.66000     -5.4798001E-08
   36.72000     -5.2640146E-08
   36.78000     -5.0404196E-08
   36.84000     -4.8163113E-08
   36.90000     -4.5994440E-08
   36.96000     -4.3960405E-08
   37.02000     -4.2092068E-08
   37.08000     -4.0383224E-08
   37.14000     -3.8796212E-08
   37.20000     -3.7277481E-08
   37.26000     -3.5777212E-08
   37.32000     -3.4266044E-08
   37.38000     -3.2743252E-08
   37.44000     -3.1234087E-08
   37.50000     -2.9778109E-08
   37.56000     -2.8413350E-08
   37.62000     -2.7162258E-08
   37.68000     -2.6024420E-08
   37.74000     -2.4978361E-08
   37.80000     -2.3991651E-08
   37.86000     -2.3035746E-08
   37.92000     -2.2100345E-08
   37.98000     -2.1201970E-08
   38.04000     -2.0382942E-08
   38.10000     -1.9699916E-08
   38.16000     -1.9204851E-08
   38.22000     -1.8924432E-08
   38.28000     -1.8845602E-08
   38.34000     -1.8913479E-08
   38.40000     -1.9044050E-08
   38.46000     -1.9148590E-08
   38.52000     -1.9161979E-08
   38.58000     -1.9064984E-08
   38.64000     -1.8892475E-08
   38.70000     -1.8724357E-08
   38.76000     -1.8662384E-08
   38.82000     -1.8800922E-08
   38.88000     -1.9201432E-08
   38.94000     -1.9878502E-08
   39.00000     -2.0800700E-08
   39.06000     -2.1904203E-08
   39.12000     -2.3113445E-08
   39.18000     -2.4361617E-08
   39.24000     -2.5605003E-08
   39.30000     -2.6827982E-08
   39.36000     -2.8038603E-08
   39.42000     -2.9257407E-08
   39.48000     -3.0503589E-08
   39.54000     -3.1783063E-08
   39.60000     -3.3082141E-08
   39.66000     -3.4368838E-08
   39.72000     -3.5601460E-08
   39.78000     -3.6741618E-08
   39.84000     -3.7767073E-08
   39.90000     -3.8679325E-08
   39.96000     -3.9502652E-08
   40.02000     -4.0274102E-08
   40.08000     -4.1027924E-08
   40.14000     -4.1780261E-08
   40.20000     -4.2520469E-08
   40.26000     -4.3212868E-08
   40.32000     -4.3808736E-08
   40.38000     -4.4263956E-08
   40.44000     -4.4555339E-08
   40.50000     -4.4689163E-08
   40.56000     -4.4698652E-08
   40.62000     -4.4631662E-08
   40.68000     -4.4533660E-08
   40.74000     -4.4432575E-08
   40.80000     -4.4330939E-08
   40.86000     -4.4207461E-08
   40.92000     -4.4026653E-08
   40.98000     -4.3752468E-08
   41.04000     -4.3361045E-08
   41.10000     -4.2848804E-08
   41.16000     -4.2233793E-08
   41.22000     -4.1550507E-08
   41.28000     -4.0839986E-08
   41.34000     -4.0138186E-08
   41.40000     -3.9465981E-08
   41.46000     -3.8823789E-08
   41.52000     -3.8192823E-08
   41.58000     -3.7542826E-08
   41.64000     -3.6844060E-08
   41.70000     -3.6079474E-08
   41.76000     -3.5252512E-08
   41.82000     -3.4387497E-08
   41.88000     -3.3522277E-08
   41.94000     -3.2695819E-08
   42.00000     -3.1935652E-08
   42.06000     -3.1249805E-08
   42.12000     -3.0626072E-08
   42.18000     -3.0038375E-08
   42.24000     -2.9457347E-08
   42.30000     -2.8861157E-08
   42.36000     -2.8243154E-08
   42.42000     -2.7614474E-08
   42.48000     -2.7001580E-08
   42.54000     -2.6439830E-08
   42.60000     -2.5964686E-08
   42.66000     -2.5602290E-08
   42.72000     -2.5361290E-08
   42.78000     -2.5228067E-08
   42.84000     -2.5167335E-08
   42.90000     -2.5129140E-08
   42.96000     -2.5061373E-08
   43.02000     -2.4924780E-08
   43.08000     -2.4705859E-08
   43.14000     -2.4423265E-08
   43.20000     -2.4125187E-08
   43.26000     -2.3878149E-08
   43.32000     -2.3750635E-08
   43.38000     -2.3796396E-08
   43.44000     -2.4042155E-08
   43.50000     -2.4482627E-08
   43.56000     -2.5083557E-08
   43.62000     -2.5791278E-08
   43.68000     -2.6546136E-08
   43.74000     -2.7296528E-08
   43.80000     -2.8010446E-08
   43.86000     -2.8681953E-08
   43.92000     -2.9330883E-08
   43.98000     -2.9995483E-08
   44.04000     -3.0719530E-08
   44.10000     -3.1537251E-08
   44.16000     -3.2460605E-08
   44.22000     -3.3473334E-08
   44.28000     -3.4534484E-08
   44.34000     -3.5590961E-08
   44.40000     -3.6595374E-08
   44.46000     -3.7522867E-08
   44.52000     -3.8380616E-08
   44.58000     -3.9205773E-08
   44.64000     -4.0052008E-08
   44.70000     -4.0969187E-08
   44.76000     -4.1983593E-08
   44.82000     -4.3085961E-08
   44.88000     -4.4231609E-08
   44.94000     -4.5352238E-08
   45.00000     -4.6374875E-08
   45.06000     -4.7241116E-08
   45.12000     -4.7920661E-08
   45.18000     -4.8415608E-08
   45.24000     -4.8755300E-08
   45.30000     -4.8984131E-08
   45.36000     -4.9146024E-08
   45.42000     -4.9269733E-08
   45.48000     -4.9358899E-08
   45.54000     -4.9390053E-08
   45.60000     -4.9320210E-08
   45.66000     -4.9103072E-08
   45.72000     -4.8709524E-08
   45.78000     -4.8145459E-08
   45.84000     -4.7459661E-08
   45.90000     -4.6737128E-08
   45.96000     -4.6078654E-08
   46.02000     -4.5573096E-08
   46.08000     -4.5272259E-08
   46.14000     -4.5177771E-08
   46.20000     -4.5244985E-08
   46.26000     -4.5402537E-08
   46.32000     -4.5580688E-08
   46.38000     -4.5738801E-08
   46.44000     -4.5883152E-08
   46.50000     -4.6069879E-08
   46.56000     -4.6392689E-08
   46.62000     -4.6959091E-08
   46.68000     -4.7861906E-08
   46.74000     -4.9153694E-08
   46.80000     -5.0830781E-08
   46.86000     -5.2831112E-08
   46.92000     -5.5046552E-08
   46.98000     -5.7346103E-08
   47.04000     -5.9603625E-08
   47.10000     -6.1722119E-08
   47.16000     -6.3647803E-08
   47.22000     -6.5370649E-08
   47.28000     -6.6912442E-08
   47.34000     -6.8307486E-08
   47.40000     -6.9583322E-08
   47.46000     -7.0748051E-08
   47.52000     -7.1787809E-08
   47.58000     -7.2673465E-08
   47.64000     -7.3371801E-08
   47.70000     -7.3855283E-08
   47.76000     -7.4105763E-08
   47.82000     -7.4111526E-08
   47.88000     -7.3860974E-08
   47.94000     -7.3338335E-08
   48.00000     -7.2525481E-08
   48.06000     -7.1410270E-08
   48.12000     -6.9997604E-08
   48.18000     -6.8317199E-08
   48.24000     -6.6423546E-08
   48.30000     -6.4387613E-08
   48.36000     -6.2284144E-08
   48.42000     -6.0180490E-08
   48.48000     -5.8131544E-08
   48.54000     -5.6181513E-08
   48.60000     -5.4369568E-08
   48.66000     -5.2735277E-08
   48.72000     -5.1321230E-08
   48.78000     -5.0173409E-08
   48.84000     -4.9341736E-08
   48.90000     -4.8882814E-08
   48.96000     -4.8864305E-08
   49.02000     -4.9368264E-08
   49.08000     -5.0490517E-08
   49.14000     -5.2336034E-08
   49.20000     -5.5013754E-08
   49.26000     -5.8636104E-08
   49.32000     -6.3326695E-08
   49.38000     -6.9234986E-08
   49.44000     -7.6552013E-08
   49.50000     -8.5519908E-08
   49.56000     -9.6431030E-08
   49.62000     -1.0961919E-07
   49.68000     -1.2545057E-07
   49.74000     -1.4432395E-07
   49.80000     -1.6668560E-07
   49.86000     -1.9305739E-07
   49.92000     -2.2406989E-07
   49.98000     -2.6049045E-07
   50.04000     -3.0323895E-07
   50.10000     -3.5339028E-07
   50.16000     -4.1216919E-07
   50.22000     -4.8094603E-07
   50.28000     -5.6124082E-07
   50.34000     -6.5473978E-07
   50.40000     -7.6332469E-07
   50.46000     -8.8911139E-07
   50.52000     -1.0344932E-06
   50.58000     -1.2021854E-06
   50.64000     -1.3952672E-06
   50.70000     -1.6172166E-06
   50.76000     -1.8719393E-06
   50.82000     -2.1637898E-06
   50.88000     -2.4975900E-06
   50.94000     -2.8786501E-06
   51.00000     -3.3127985E-06
   51.06000     -3.8064243E-06
   51.12000     -4.3665295E-06
   51.18000     -5.0007907E-06
   51.24000     -5.7176157E-06
   51.30000     -6.5262007E-06
   51.36000     -7.4365594E-06
   51.42000     -8.4595486E-06
   51.48000     -9.6068743E-06
   51.54000     -1.0891104E-05
   51.60000     -1.2325673E-05
   51.66000     -1.3924913E-05
   51.72000     -1.5704079E-05
   51.78000     -1.7679395E-05
   51.84000     -1.9868075E-05
   51.90000     -2.2288337E-05
   51.96000     -2.4959390E-05
   52.02000     -2.7901389E-05
   52.08000     -3.1135372E-05
   52.14000     -3.4683191E-05
   52.20000     -3.8567421E-05
   52.26000     -4.2811276E-05
   52.32000     -4.7438531E-05
   52.38000     -5.2473439E-05
   52.44000     -5.7940619E-05
   52.50000     -6.3864987E-05
   52.56000     -7.0271584E-05
   52.62000     -7.7185476E-05
   52.68000     -8.4631531E-05
   52.74000     -9.2634240E-05
   52.80000     -1.0121744E-04
   52.86000     -1.1040411E-04
   52.92000     -1.2021606E-04
   52.98000     -1.3067381E-04
   53.04000     -1.4179623E-04
   53.10000     -1.5360044E-04
   53.16000     -1.6610150E-04
   53.22000     -1.7931222E-04
   53.28000     -1.9324283E-04
   53.34000     -2.0790075E-04
   53.40000     -2.2329035E-04
   53.46000     -2.3941269E-04
   53.52000     -2.5626531E-04
   53.58000     -2.7384207E-04
   53.64000     -2.9213290E-04
   53.70000     -3.1112373E-04
   53.76000     -3.3079632E-04
   53.82000     -3.5112823E-04
   53.88000     -3.7209282E-04
   53.94000     -3.9365917E-04
   54.00000     -4.1579202E-04
   54.06000     -4.3845183E-04
   54.12000     -4.6159496E-04
   54.18000     -4.8517378E-04
   54.24000     -5.0913682E-04
   54.30000     -5.3342903E-04
   54.36000     -5.5799191E-04
   54.42000     -5.8276398E-04
   54.48000     -6.0768105E-04
   54.54000     -6.3267670E-04
   54.60000     -6.5768266E-04
   54.66000     -6.8262918E-04
   54.72000     -7.0744549E-04
   54.78000     -7.3206058E-04
   54.84000     -7.5640326E-04
   54.90000     -7.8040292E-04
   54.96000     -8.0399011E-04
   55.02000     -8.2709698E-04
   55.08000     -8.4965781E-04
   55.14000     -8.7160972E-04
   55.20000     -8.9289295E-04
   55.26000     -9.1345154E-04
   55.32000     -9.3323347E-04
   55.38000     -9.5219124E-04
   55.44000     -9.7028242E-04
   55.50000     -9.8746957E-04
   55.56000     -1.0037206E-03