 -0.750000000       0.00000000    
 -0.689999998       0.00000000    
 -0.629999995       0.00000000    
 -0.569999993       0.00000000    
 -0.509999990       0.00000000    
 -0.449999988      -4.25028043E-19
 -0.389999986      -3.51842266E-18
 -0.330000013      -1.46865818E-17
 -0.270000011      -3.97647690E-17
 -0.209999993      -7.36888489E-17
 -0.150000006      -8.35478955E-17
  -9.00000036E-02  -3.17526099E-18
  -2.99999993E-02   2.36830174E-16
   2.99999993E-02   6.39110658E-16
   9.00000036E-02   1.07038696E-15
  0.150000006       1.26988874E-15
  0.209999993       9.86183837E-16
  0.270000011       1.89188660E-16
  0.330000013      -8.12829069E-16
  0.389999986      -1.52830006E-15
  0.449999988      -1.70609239E-15
  0.509999990      -1.73703535E-15
  0.569999993      -2.58628021E-15
  0.629999995      -5.01879134E-15
  0.689999998      -8.44641773E-15
  0.750000000      -1.02904898E-14
  0.810000002      -6.79219754E-15
  0.870000005       4.57190523E-15
  0.930000007       2.21955345E-14
  0.990000010       3.90325183E-14
   1.04999995       4.46355497E-14
   1.11000001       3.05549585E-14
   1.16999996      -3.28459853E-15
   1.23000002      -4.51285365E-14
   1.28999996      -7.41129367E-14
   1.35000002      -6.94990330E-14
   1.40999997      -2.29074148E-14
   1.47000003       5.26066956E-14
   1.52999997       1.22519074E-13
   1.59000003       1.42263656E-13
   1.64999998       7.72820461E-14
   1.71000004      -7.58821513E-14
   1.76999998      -2.77101557E-13
   1.83000004      -4.46766864E-13
   1.88999999      -4.89190882E-13
   1.95000005      -3.30533777E-13
   2.00999999       4.10573133E-14
   2.06999993       5.50102715E-13
   2.13000011       1.03914371E-12
   2.19000006       1.31196031E-12
   2.25000000       1.20646266E-12
   2.30999994       6.72170273E-13
   2.36999989      -1.82929708E-13
   2.43000007      -1.10665080E-12
   2.49000001      -1.78624780E-12
   2.54999995      -1.97634010E-12
   2.60999990      -1.61677106E-12
   2.67000008      -8.78493350E-13
   2.73000002      -9.99150375E-14
   2.78999996       3.73104488E-13
   2.84999990       3.75427798E-13
   2.91000009       4.16147321E-14
   2.97000003      -2.22969443E-13
   3.02999997       6.83925166E-14
   3.08999991       1.20668384E-12
   3.15000010       3.05651728E-12
   3.21000004       5.00466595E-12
   3.26999998       6.14727366E-12
   3.32999992       5.65948894E-12
   3.39000010       3.18976941E-12
   3.45000005      -9.09962752E-13
   3.50999999      -5.64416005E-12
   3.56999993      -9.71723136E-12
   3.63000011      -1.20173116E-11
   3.69000006      -1.20246556E-11
   3.75000000      -9.96130088E-12
   3.80999994      -6.62102014E-12
   3.86999989      -2.96778964E-12
   3.93000007       3.07381643E-13
   3.99000001       3.07579635E-12
   4.05000019       5.79940219E-12
   4.11000013       9.32119486E-12
   4.17000008       1.45455661E-11
   4.23000002       2.21682291E-11
   4.28999996       3.25650028E-11
   4.34999990       4.58588618E-11
   4.40999985       6.20939133E-11
   4.46999979       8.14042445E-11
   4.53000021       1.04075797E-10
   4.59000015       1.30456479E-10
   4.65000010       1.60736424E-10
   4.71000004       1.94682451E-10
   4.76999998       2.31444267E-10
   4.82999992       2.69544109E-10
   4.88999987       3.07114362E-10
   4.94999981       3.42358919E-10
   5.01000023       3.74114850E-10
   5.07000017       4.02314904E-10
   5.13000011       4.28146490E-10
   5.19000006       4.53789256E-10
   5.25000000       4.81764739E-10
   5.30999994       5.14097820E-10
   5.36999989       5.51580170E-10
   5.42999983       5.93405491E-10
   5.48999977       6.37305542E-10
   5.55000019       6.80120293E-10
   5.61000013       7.18577586E-10
   5.67000008       7.49993845E-10
   5.73000002       7.72677589E-10
   5.78999996       7.85965903E-10
   5.84999990       7.89983245E-10
   5.90999985       7.85307819E-10
   5.96999979       7.72730768E-10
   6.03000021       7.53200391E-10
   6.09000015       7.27925664E-10
   6.15000010       6.98525793E-10
   6.21000004       6.67089772E-10
   6.26999998       6.36074360E-10
   6.32999992       6.08061101E-10
   6.38999987       5.85476501E-10
   6.44999981       5.70395231E-10
   6.51000023       5.64497837E-10
   6.57000017       5.69168157E-10
   6.63000011       5.85631932E-10
   6.69000006       6.15007545E-10
   6.75000000       6.58165189E-10
   6.80999994       7.15345616E-10
   6.86999989       7.85551069E-10
   6.92999983       8.65784222E-10
   6.98999977       9.50257095E-10
   7.05000019       1.02975328E-09
   7.11000013       1.09134668E-09
   7.17000008       1.11864051E-09
   7.23000002       1.09256004E-09
   7.28999996       9.92520177E-10
   7.34999990       7.97612087E-10
   7.40999985       4.87413165E-10
   7.46999979       4.22164491E-11
   7.53000021      -5.57207669E-10
   7.59000015      -1.32989664E-09
   7.65000010      -2.29451058E-09
   7.71000004      -3.46838247E-09
   7.76999998      -4.86587082E-09
   7.82999992      -6.49645182E-09
   7.88999987      -8.36309066E-09
   7.94999981      -1.04612683E-08
   8.01000023      -1.27786750E-08
   8.06999969      -1.52953827E-08
   8.13000011      -1.79842203E-08
   8.18999958      -2.08112620E-08
   8.25000000      -2.37364937E-08
   8.31000042      -2.67147637E-08
   8.36999989      -2.96969525E-08
   8.43000031      -3.26311635E-08
   8.48999977      -3.54636498E-08
   8.55000019      -3.81394472E-08
   8.60999966      -4.06028029E-08
   8.67000008      -4.27978755E-08
   8.72999954      -4.46698500E-08
   8.78999996      -4.61666012E-08
   8.85000038      -4.72406541E-08
   8.90999985      -4.78512305E-08
   8.97000027      -4.79663385E-08
   9.02999973      -4.75649173E-08
   9.09000015      -4.66391370E-08
   9.14999962      -4.51964972E-08
   9.21000004      -4.32611991E-08
   9.27000046      -4.08741698E-08
   9.32999992      -3.80914535E-08
   9.39000034      -3.49812375E-08
   9.44999981      -3.16202744E-08
   9.51000023      -2.80903887E-08
   9.56999969      -2.44754261E-08
   9.63000011      -2.08585487E-08
   9.68999958      -1.73195183E-08
   9.75000000      -1.39318903E-08
   9.81000042      -1.07604459E-08
   9.86999989      -7.85938870E-09
   9.93000031      -5.27159649E-09
   9.98999977      -3.02865444E-09
   10.0500002      -1.15090260E-09
   10.1099997       3.53240159E-10
   10.1700001       1.48878843E-09
   10.2299995       2.27585173E-09
   10.2900000       2.75033130E-09
   10.3500004       2.96277025E-09
   10.4099998       2.97528380E-09
   10.4700003       2.85726554E-09
   10.5299997       2.68085554E-09
   10.5900002       2.51679877E-09
   10.6499996       2.43071496E-09
   10.7100000       2.47942644E-09
   10.7700005       2.70720579E-09
   10.8299999       3.14237836E-09
   10.8900003       3.79516951E-09
   10.9499998       4.65759520E-09
   11.0100002       5.70551384E-09
   11.0699997       6.90216373E-09
   11.1300001       8.20211898E-09
   11.1899996       9.55489465E-09
   11.2500000       1.09081375E-08
   11.3100004       1.22108963E-08
   11.3699999       1.34174618E-08
   11.4300003       1.44916221E-08
   11.4899998       1.54104747E-08
   11.5500002       1.61666094E-08
   11.6099997       1.67679630E-08
   11.6700001       1.72355090E-08
   11.7299995       1.75998025E-08
   11.7900000       1.78975217E-08
   11.8500004       1.81687536E-08
   11.9099998       1.84548892E-08
   11.9700003       1.87966034E-08
   12.0299997       1.92314467E-08
   12.0900002       1.97911305E-08
   12.1499996       2.04991508E-08
   12.2100000       2.13694396E-08
   12.2700005       2.24062138E-08
   12.3299999       2.36045672E-08
   12.3900003       2.49509178E-08
   12.4499998       2.64227591E-08
   12.5100002       2.79878893E-08
   12.5699997       2.96040614E-08
   12.6300001       3.12201642E-08
   12.6899996       3.27795071E-08
   12.7500000       3.42246764E-08
   12.8100004       3.55026621E-08
   12.8699999       3.65686219E-08
   12.9300003       3.73874158E-08
   12.9899998       3.79330700E-08
   13.0500002       3.81873342E-08
   13.1099997       3.81386300E-08
   13.1700001       3.77823852E-08
   13.2299995       3.71226214E-08
   13.2900000       3.61739509E-08
   13.3500004       3.49629481E-08
   13.4099998       3.35279715E-08
   13.4700003       3.19172244E-08
   13.5299997       3.01852907E-08
   13.5900002       2.83887047E-08
   13.6499996       2.65810520E-08
   13.7100000       2.48082870E-08
   13.7700005       2.31048727E-08
   13.8299999       2.14914575E-08
   13.8900003       1.99745891E-08
   13.9499998       1.85485458E-08
   14.0100002       1.71987189E-08
   14.0699997       1.59056164E-08
   14.1300001       1.46485242E-08
   14.1899996       1.34083100E-08
   14.2500000       1.21693455E-08
   14.3100004       1.09207230E-08
   14.3699999       9.65670388E-09
   14.4300003       8.37593195E-09
   14.4899998       7.07889569E-09
   14.5500002       5.76367354E-09
   14.6099997       4.42106263E-09
   14.6700001       3.03105741E-09
   14.7299995       1.56265179E-09
   14.7900000      -2.22392486E-11
   14.8500004      -1.76174830E-09
   14.9099998      -3.68643471E-09
   14.9700003      -5.81389736E-09
   15.0299997      -8.14733170E-09
   15.0900002      -1.06778240E-08
   15.1499996      -1.33885569E-08
   15.2100000      -1.62586371E-08
   15.2700005      -1.92650838E-08
   15.3299999      -2.23830323E-08
   15.3900003      -2.55854218E-08
   15.4499998      -2.88437896E-08
   15.5100002      -3.21310978E-08
   15.5699997      -3.54263250E-08
   15.6300001      -3.87196160E-08
   15.6899996      -4.20160298E-08
   15.7500000      -4.53361508E-08
   15.8100004      -4.87123479E-08
   15.8699999      -5.21803507E-08
   15.9300003      -5.57671953E-08
   15.9899998      -5.94780296E-08
   16.0499992      -6.32851851E-08
   16.1100006      -6.71233096E-08
   16.1700001      -7.08928596E-08
   16.2299995      -7.44721547E-08
   16.2900009      -7.77353719E-08
   16.3500004      -8.05718585E-08
   16.4099998      -8.29018347E-08
   16.4699993      -8.46848565E-08
   16.5300007      -8.59198934E-08
   16.5900002      -8.66381029E-08
   16.6499996      -8.68914256E-08
   16.7099991      -8.67400942E-08
   16.7700005      -8.62421174E-08
   16.8299999      -8.54464801E-08
   16.8899994      -8.43907770E-08
   16.9500008      -8.31027052E-08
   17.0100002      -8.16039076E-08
   17.0699997      -7.99142299E-08
   17.1299992      -7.80543630E-08
   17.1900005      -7.60458931E-08
   17.2500000      -7.39089927E-08
   17.3099995      -7.16592439E-08
   17.3700008      -6.93054218E-08
   17.4300003      -6.68497435E-08
   17.4899998      -6.42906528E-08
   17.5499992      -6.16273041E-08
   17.6100006      -5.88642273E-08
   17.6700001      -5.60147164E-08
   17.7299995      -5.31023652E-08
   17.7900009      -5.01605797E-08
   17.8500004      -4.72302553E-08
   17.9099998      -4.43558754E-08
   17.9699993      -4.15804280E-08
   18.0300007      -3.89399339E-08
   18.0900002      -3.64587258E-08
   18.1499996      -3.41468187E-08
   18.2099991      -3.20000595E-08
   18.2700005      -3.00028695E-08
   18.3299999      -2.81324102E-08
   18.3899994      -2.63629207E-08
   18.4500008      -2.46693830E-08
   18.5100002      -2.30306778E-08
   18.5699997      -2.14327631E-08
   18.6299992      -1.98720276E-08
   18.6900005      -1.83579711E-08
   18.7500000      -1.69136758E-08
   18.8099995      -1.55727786E-08
   18.8700008      -1.43731960E-08
   18.9300003      -1.33495348E-08
   18.9899998      -1.25270736E-08
   19.0499992      -1.19194166E-08
   19.1100006      -1.15296999E-08
   19.1700001      -1.13530447E-08
   19.2299995      -1.13771437E-08
   19.2900009      -1.15792966E-08
   19.3500004      -1.19211307E-08
   19.4099998      -1.23448514E-08
   19.4699993      -1.27754189E-08
   19.5300007      -1.31308342E-08
   19.5900002      -1.33386884E-08
   19.6499996      -1.33534881E-08
   19.7099991      -1.31679405E-08
   19.7700005      -1.28133735E-08
   19.8299999      -1.23487087E-08
   19.8899994      -1.18419585E-08
   19.9500008      -1.13508500E-08
   20.0100002      -1.09088658E-08
   20.0699997      -1.05202282E-08
   20.1299992      -1.01636441E-08
   20.1900005      -9.80178960E-09
   20.2500000      -9.39251521E-09
   20.3099995      -8.89850416E-09
   20.3700008      -8.29367597E-09
   20.4300003      -7.56607932E-09
   20.4899998      -6.71765799E-09
   20.5499992      -5.76141002E-09
   20.6100006      -4.71653916E-09
   20.6700001      -3.60264241E-09
   20.7299995      -2.43468867E-09
   20.7900009      -1.22094268E-09
   20.8500004       3.45702252E-11
   20.9099998       1.32514788E-09
   20.9699993       2.63235300E-09
   21.0300007       3.91877020E-09
   21.0900002       5.12654319E-09
   21.1499996       6.18368690E-09
   21.2099991       7.01697411E-09
   21.2700005       7.56720997E-09
   21.3299999       7.80149811E-09
   21.3899994       7.71825626E-09
   21.4500008       7.34373229E-09
   21.5100002       6.72209488E-09
   21.5699997       5.90319349E-09
   21.6299992       4.93206409E-09
   21.6900005       3.84250898E-09
   21.7500000       2.65489830E-09
   21.8099995       1.37695289E-09
   21.8700008       6.19408648E-12
   21.9300003      -1.46650159E-09
   21.9899998      -3.05220449E-09
   22.0499992      -4.75829554E-09
   22.1100006      -6.58305188E-09
   22.1700001      -8.51244053E-09
   22.2299995      -1.05208278E-08
   22.2900009      -1.25757653E-08
   22.3500004      -1.46449199E-08
   22.4099998      -1.67018683E-08
   22.4699993      -1.87278921E-08
   22.5300007      -2.07089457E-08
   22.5900002      -2.26295978E-08
   22.6499996      -2.44674290E-08
   22.7099991      -2.61912181E-08
   22.7700005      -2.77642886E-08
   22.8299999      -2.91519751E-08
   22.8899994      -3.03302130E-08
   22.9500008      -3.12919930E-08
   23.0100002      -3.20492397E-08
   23.0699997      -3.26295435E-08
   23.1299992      -3.30686092E-08
   23.1900005      -3.34005605E-08
   23.2500000      -3.36487851E-08
   23.3099995      -3.38199619E-08
   23.3700008      -3.39033654E-08
   23.4300003      -3.38758390E-08
   23.4899998      -3.37110890E-08
   23.5499992      -3.33898811E-08
   23.6100006      -3.29073799E-08
   23.6700001      -3.22748797E-08
   23.7299995      -3.15158033E-08
   23.7900009      -3.06585726E-08
   23.8500004      -2.97303142E-08
   23.9099998      -2.87545312E-08
   23.9699993      -2.77533356E-08
   24.0300007      -2.67520814E-08
   24.0900002      -2.57827271E-08
   24.1499996      -2.48829615E-08
   24.2099991      -2.40902942E-08
   24.2700005      -2.34328503E-08
   24.3299999      -2.29200143E-08
   24.3899994      -2.25360264E-08
   24.4500008      -2.22385168E-08
   24.5100002      -2.19625136E-08
   24.5699997      -2.16294787E-08
   24.6299992      -2.11599929E-08
   24.6900005      -2.04881321E-08
   24.7500000      -1.95745997E-08
   24.8099995      -1.84153048E-08
   24.8700008      -1.70424865E-08
   24.9300003      -1.55172586E-08
   24.9899998      -1.39151703E-08
   25.0499992      -1.23088002E-08
   25.1100006      -1.07526317E-08
   25.1700001      -9.27466814E-09
   25.2299995      -7.87694354E-09
   25.2900009      -6.54413235E-09
   25.3500004      -5.25704591E-09
   25.4099998      -4.00663103E-09
   25.4699993      -2.80416379E-09
   25.5300007      -1.68456893E-09
   25.5900002      -7.01661840E-10
   25.6499996       8.35984892E-11
   25.7099991       6.18613161E-10
   25.7700005       8.73724149E-10
   25.8299999       8.51082649E-10
   25.8899994       5.84569948E-10
   25.9500008       1.30384120E-10
   26.0100002      -4.48922732E-10
   26.0699997      -1.10192089E-09
   26.1299992      -1.80181825E-09
   26.1900005      -2.55201194E-09
   26.2500000      -3.38241879E-09
   26.3099995      -4.33828617E-09
   26.3700008      -5.46540324E-09
   26.4300003      -6.79653844E-09
   26.4899998      -8.34336600E-09
   26.5499992      -1.00963211E-08
   26.6100006      -1.20321584E-08
   26.6700001      -1.41262122E-08
   26.7299995      -1.63644565E-08
   26.7900009      -1.87502618E-08
   26.8500004      -2.13025935E-08
   26.9099998      -2.40458746E-08
   26.9699993      -2.69952931E-08
   27.0300007      -3.01436245E-08
   27.0900002      -3.34553150E-08
   27.1499996      -3.68709117E-08
   27.2099991      -4.03209839E-08
   27.2700005      -4.37450218E-08
   27.3299999      -4.71089656E-08
   27.3899994      -5.04153270E-08
   27.4500008      -5.37020028E-08
   27.5100002      -5.70292151E-08
   27.5699997      -6.04575305E-08
   27.6299992      -6.40229487E-08
   27.6900005      -6.77166341E-08
   27.7500000      -7.14765704E-08
   27.8099995      -7.51954374E-08
   27.8700008      -7.87441223E-08
   27.9300003      -8.20045543E-08
   27.9899998      -8.49016217E-08
   28.0499992      -8.74233379E-08
   28.1100006      -8.96218708E-08
   28.1700001      -9.15946003E-08
   28.2299995      -9.34513267E-08
   28.2900009      -9.52782315E-08
   28.3500004      -9.71101741E-08
   28.4099998      -9.89196636E-08
   28.4699993      -1.00625634E-07
   28.5300007      -1.02118904E-07
   28.5900002      -1.03296905E-07
   28.6499996      -1.04097410E-07
   28.7099991      -1.04521398E-07
   28.7700005      -1.04637436E-07
   28.8299999      -1.04565252E-07
   28.8899994      -1.04442080E-07
   28.9500008      -1.04381407E-07
   29.0100002      -1.04436864E-07
   29.0699997      -1.04583400E-07
   29.1299992      -1.04722510E-07
   29.1900005      -1.04710402E-07
   29.2500000      -1.04400094E-07
   29.3099995      -1.03683924E-07
   29.3700008      -1.02522733E-07
   29.4300003      -1.00953201E-07
   29.4899998      -9.90716913E-08
   29.5499992      -9.70006013E-08
   29.6100006      -9.48479482E-08
   29.6700001      -9.26727495E-08
   29.7299995      -9.04664574E-08
   29.7900009      -8.81558933E-08
   29.8500004      -8.56267945E-08
   29.9099998      -8.27603728E-08
   29.9699993      -7.94711852E-08
   30.0300007      -7.57338086E-08
   30.0900002      -7.15892909E-08
   30.1499996      -6.71295481E-08
   30.2099991      -6.24654746E-08
   30.2700005      -5.76907588E-08
   30.3299999      -5.28543609E-08
   30.3899994      -4.79511115E-08
   30.4500008      -4.29329390E-08
   30.5100002      -3.77356457E-08
   30.5699997      -3.23113269E-08
   30.6299992      -2.66553766E-08
   30.6900005      -2.08197530E-08
   30.7500000      -1.49091584E-08
   30.8099995      -9.06204356E-09
   30.8700008      -3.42254758E-09
   30.9300003       1.88820093E-09
   30.9899998       6.79309098E-09
   31.0499992       1.12661764E-08
   31.1100006       1.53239164E-08
   31.1700001       1.90034477E-08
   31.2299995       2.23352021E-08
   31.2900009       2.53194443E-08
   31.3500004       2.79151369E-08
   31.4099998       3.00452392E-08
   31.4699993       3.16166933E-08
   31.5300007       3.25478808E-08
   31.5900002       3.27938814E-08
   31.6499996       3.23608731E-08
   31.7099991       3.13051842E-08
   31.7700005       2.97179827E-08
   31.8299999       2.77013381E-08
   31.8899994       2.53437769E-08
   31.9500008       2.27029400E-08
   32.0099983       1.98000691E-08
   32.0699997       1.66269167E-08
   32.1300011       1.31617170E-08
   32.1899986       9.38825906E-09
   32.2500000       5.31164623E-09
   32.3100014       9.65899249E-10
   32.3699989      -3.58843200E-09
   32.4300003      -8.27517255E-09
   32.4900017      -1.30179370E-08
   32.5499992      -1.77550703E-08
   32.6100006      -2.24497114E-08
   32.6699982      -2.70923728E-08
   32.7299995      -3.16956843E-08
   32.7900009      -3.62830335E-08
   32.8499985      -4.08744505E-08
   32.9099998      -4.54737972E-08
   32.9700012      -5.00611392E-08
   33.0299988      -5.45928671E-08
   33.0900002      -5.90097571E-08
   33.1500015      -6.32504680E-08
   33.2099991      -6.72657450E-08
   33.2700005      -7.10280759E-08
   33.3300018      -7.45332400E-08
   33.3899994      -7.77931675E-08
   33.4500008      -8.08231064E-08
   33.5099983      -8.36283931E-08
   33.5699997      -8.61959393E-08
   33.6300011      -8.84931666E-08
   33.6899986      -9.04741952E-08
   33.7500000      -9.20899836E-08
   33.8100014      -9.32986168E-08
   33.8699989      -9.40722558E-08
   33.9300003      -9.43998515E-08
   33.9900017      -9.42861931E-08
   34.0499992      -9.37495201E-08
   34.1100006      -9.28192989E-08
   34.1699982      -9.15353056E-08
   34.2299995      -8.99477897E-08
   34.2900009      -8.81175950E-08
   34.3499985      -8.61147953E-08
   34.4099998      -8.40147152E-08
   34.4700012      -8.18910166E-08
   34.5299988      -7.98066111E-08
   34.5900002      -7.78045219E-08
   34.6500015      -7.59012480E-08
   34.7099991      -7.40855484E-08
   34.7700005      -7.23239282E-08
   34.8300018      -7.05724474E-08
   34.8899994      -6.87918273E-08
   34.9500008      -6.69614693E-08
   35.0099983      -6.50875123E-08
   35.0699997      -6.32018242E-08
   35.1300011      -6.13517486E-08
   35.1899986      -5.95833036E-08
   35.2500000      -5.79236215E-08
   35.3100014      -5.63682860E-08
   35.3699989      -5.48782779E-08
   35.4300003      -5.33876943E-08
   35.4900017      -5.18199670E-08
   35.5499992      -5.01075377E-08
   35.6100006      -4.82087970E-08
   35.6699982      -4.61174565E-08
   35.7299995      -4.38621157E-08
   35.7900009      -4.14969854E-08
   35.8499985      -3.90874071E-08
   35.9099998      -3.66946864E-08
   35.9700012      -3.43644224E-08
   36.0299988      -3.21206848E-08
   36.0900002      -2.99665288E-08
   36.1500015      -2.78894881E-08
   36.2099991      -2.58698041E-08
   36.2700005      -2.38888056E-08
   36.3300018      -2.19352216E-08
   36.3899994      -2.00079739E-08
   36.4500008      -1.81150259E-08
   36.5099983      -1.62692100E-08
   36.5699997      -1.44829997E-08
   36.6300011      -1.27648061E-08
   36.6899986      -1.11188125E-08
   36.7500000      -9.54885326E-09
   36.8100014      -8.06480394E-09
   36.8699989      -6.68830591E-09
   36.9300003      -5.45449863E-09
   36.9900017      -4.40786430E-09
   37.0499992      -3.59294550E-09
   37.1100006      -3.04311953E-09
   37.1699982      -2.77166956E-09
   37.2299995      -2.76846079E-09
   37.2900009      -3.00318748E-09
   37.3499985      -3.43359940E-09
   37.4099998      -4.01564515E-09
   37.4700012      -4.71255612E-09
   37.5299988      -5.50106094E-09
   37.5900002      -6.37422604E-09
   37.6500015      -7.34104955E-09
   37.7099991      -8.42293524E-09
   37.7700005      -9.64714886E-09
   37.8300018      -1.10380247E-08
   37.8899994      -1.26079502E-08
   37.9500008      -1.43513104E-08
   38.0099983      -1.62443659E-08
   38.0699997      -1.82520647E-08
   38.1300011      -2.03395842E-08
   38.1899986      -2.24838708E-08
   38.2500000      -2.46798102E-08
   38.3100014      -2.69380553E-08
   38.3699989      -2.92754070E-08
   38.4300003      -3.17023385E-08
   38.4900017      -3.42135920E-08
   38.5499992      -3.67861759E-08
   38.6100006      -3.93854620E-08
   38.6699982      -4.19763708E-08
   38.7299995      -4.45345236E-08
   38.7900009      -4.70527119E-08
   38.8499985      -4.95402297E-08
   38.9099998      -5.20156576E-08
   38.9700012      -5.44958922E-08
   39.0299988      -5.69854066E-08
   39.0900002      -5.94694392E-08
   39.1500015      -6.19135818E-08
   39.2099991      -6.42701465E-08
   39.2700005      -6.64896120E-08
   39.3300018      -6.85334527E-08
   39.3899994      -7.03837131E-08
   39.4500008      -7.20457649E-08
   39.5099983      -7.35427435E-08
   39.5699997      -7.49035323E-08
   39.6300011      -7.61485595E-08
   39.6899986      -7.72787416E-08
   39.7500000      -7.82715261E-08
   39.8100014      -7.90854386E-08
   39.8699989      -7.96717430E-08
   39.9300003      -7.99893769E-08
   39.9900017      -8.00188289E-08
   40.0499992      -7.97708708E-08
   40.1100006      -7.92874246E-08
   40.1699982      -7.86336898E-08
   40.2299995      -7.78832074E-08
   40.2900009      -7.70992656E-08
   40.3499985      -7.63182513E-08
   40.4099998      -7.55401217E-08
   40.4700012      -7.47294919E-08
   40.5299988      -7.38272590E-08
   40.5900002      -7.27689269E-08
   40.6500015      -7.15034219E-08
   40.7099991      -7.00063794E-08
   40.7700005      -6.82843364E-08
   40.8300018      -6.63700561E-08
   40.8899994      -6.43120970E-08
   40.9500008      -6.21629539E-08
   41.0099983      -5.99695866E-08
   41.0699997      -5.77680304E-08
   41.1300011      -5.55824187E-08
   41.1899986      -5.34273639E-08
   41.2500000      -5.13123979E-08
   41.3100014      -4.92471948E-08
   41.3699989      -4.72459618E-08
   41.4300003      -4.53297275E-08
   41.4900017      -4.35252048E-08
   41.5499992      -4.18601012E-08
   41.6100006      -4.03558893E-08
   41.6699982      -3.90202999E-08
   41.7299995      -3.78423763E-08
   41.7900009      -3.67924358E-08
   41.8499985      -3.58277354E-08
   41.9099998      -3.49029001E-08
   41.9700012      -3.39822073E-08
   42.0299988      -3.30498686E-08
   42.0900002      -3.21147020E-08
   42.1500015      -3.12069872E-08
   42.2099991      -3.03679997E-08
   42.2700005      -2.96354266E-08
   42.3300018      -2.90296267E-08
   42.3899994      -2.85457382E-08
   42.4500008      -2.81545134E-08
   42.5099983      -2.78114403E-08
   42.5699997      -2.74706622E-08
   42.6300011      -2.70986344E-08
   42.6899986      -2.66830416E-08
   42.7500000      -2.62346713E-08
   42.8100014      -2.57824109E-08
   42.8699989      -2.53634607E-08
   42.9300003      -2.50116496E-08
   42.9900017      -2.47468588E-08
   43.0499992      -2.45683438E-08
   43.1100006      -2.44543479E-08
   43.1699982      -2.43692106E-08
   43.2299995      -2.42769911E-08
   43.2900009      -2.41577922E-08
   43.3499985      -2.40207889E-08
   43.4099998      -2.39079441E-08
   43.4700012      -2.38853772E-08
   43.5299988      -2.40243541E-08
   43.5900002      -2.43785578E-08
   43.6500015      -2.49663543E-08
   43.7099991      -2.57647184E-08
   43.7700005      -2.67166644E-08
   43.8300018      -2.77484542E-08
   43.8899994      -2.87896142E-08
   43.9500008      -2.97888700E-08
   44.0099983      -3.07219672E-08
   44.0699997      -3.15910711E-08
   44.1300011      -3.24180540E-08
   44.1899986      -3.32347838E-08
   44.2500000      -3.40729365E-08
   44.3100014      -3.49551321E-08
   44.3699989      -3.58888315E-08
   44.4300003      -3.68643853E-08
   44.4900017      -3.78581539E-08
   44.5499992      -3.88403727E-08
   44.6100006      -3.97854869E-08
   44.6699982      -4.06813214E-08
   44.7299995      -4.15334682E-08
   44.7900009      -4.23629416E-08
   44.8499985      -4.31980105E-08
   44.9099998      -4.40632739E-08
   44.9700012      -4.49702497E-08
   45.0299988      -4.59127989E-08
   45.0900002      -4.68687134E-08
   45.1500015      -4.78065836E-08
   45.2099991      -4.86953482E-08
   45.2700005      -4.95134351E-08
   45.3300018      -5.02547550E-08
   45.3899994      -5.09300051E-08
   45.4500008      -5.15631164E-08
   45.5099983      -5.21840562E-08
   45.5699997      -5.28201802E-08
   45.6300011      -5.34885487E-08
   45.6899986      -5.41911795E-08
   45.7500000      -5.49140857E-08
   45.8100014      -5.56296911E-08
   45.8699989      -5.63014702E-08
   45.9300003      -5.68893661E-08
   45.9900017      -5.73549954E-08
   46.0499992      -5.76661350E-08
   46.1100006      -5.78003814E-08
   46.1699982      -5.77478652E-08
   46.2299995      -5.75126400E-08
   46.2900009      -5.71123273E-08
   46.3499985      -5.65756260E-08
   46.4099998      -5.59377575E-08
   46.4700012      -5.52345334E-08
   46.5299988      -5.44961374E-08
   46.5900002      -5.37419069E-08
   46.6500015      -5.29774766E-08
   46.7099991      -5.21951549E-08
   46.7700005      -5.13775973E-08
   46.8300018      -5.05039992E-08
   46.8899994      -4.95570482E-08
   46.9500008      -4.85284595E-08
   47.0099983      -4.74212563E-08
   47.0699997      -4.62483420E-08
   47.1300011      -4.50282087E-08
   47.1899986      -4.37799912E-08
   47.2500000      -4.25199396E-08
   47.3100014      -4.12605381E-08
   47.3699989      -4.00117699E-08
   47.4300003      -3.87828827E-08
   47.4900017      -3.75827405E-08
   47.5499992      -3.64179940E-08
   47.6100006      -3.52898333E-08
   47.6699982      -3.41912632E-08
   47.7299995      -3.31069607E-08
   47.7900009      -3.20165832E-08
   47.8499985      -3.09007362E-08
   47.9099998      -2.97473495E-08
   47.9700012      -2.85559931E-08
   48.0299988      -2.73386558E-08
   48.0900002      -2.61170765E-08
   48.1500015      -2.49180605E-08
   48.2099991      -2.37688731E-08
   48.2700005      -2.26940315E-08
   48.3300018      -2.17138467E-08
   48.3899994      -2.08440376E-08
   48.4500008      -2.00954275E-08
   48.5099983      -1.94732941E-08
   48.5699997      -1.89767242E-08
   48.6300011      -1.85987581E-08
   48.6899986      -1.83279187E-08
   48.7500000      -1.81509048E-08
   48.8100014      -1.80553865E-08
   48.8699989      -1.80316633E-08
   48.9300003      -1.80724538E-08
   48.9900017      -1.81711872E-08
   49.0499992      -1.83201134E-08
   49.1100006      -1.85097555E-08
   49.1699982      -1.87305709E-08
   49.2299995      -1.89765625E-08
   49.2900009      -1.92493737E-08
   49.3499985      -1.95609910E-08
   49.4099998      -1.99335108E-08
   49.4700012      -2.03955715E-08
   49.5299988      -2.09763726E-08
   49.5900002      -2.16991971E-08
   49.6500015      -2.25765717E-08
   49.7099991      -2.36084343E-08
   49.7700005      -2.47833363E-08
   49.8300018      -2.60813895E-08
   49.8899994      -2.74772916E-08
   49.9500008      -2.89425195E-08
   50.0099983      -3.04473247E-08
   50.0699997      -3.19642837E-08
   50.1300011      -3.34747448E-08
   50.1899986      -3.49774503E-08
   50.2500000      -3.64957700E-08
   50.3100014      -3.80787171E-08
   50.3699989      -3.97923721E-08
   50.4300003      -4.17028758E-08
   50.4900017      -4.38570034E-08
   50.5499992      -4.62693457E-08
   50.6100006      -4.89232228E-08