 -0.750000000       0.00000000    
 -0.689999998       0.00000000    
 -0.629999995       0.00000000    
 -0.569999993       0.00000000    
 -0.509999990       0.00000000    
 -0.449999988       8.79119387E-19
 -0.389999986       7.44395963E-18
 -0.330000013       3.22494063E-17
 -0.270000011       9.21793332E-17
 -0.209999993       1.84631266E-16
 -0.150000006       2.39375031E-16
  -9.00000036E-02   7.59616897E-17
  -2.99999993E-02  -5.59095902E-16
   2.99999993E-02  -1.79685779E-15
   9.00000036E-02  -3.30964360E-15
  0.150000006      -4.04615950E-15
  0.209999993      -2.41663624E-15
  0.270000011       2.77921547E-15
  0.330000013       1.08747638E-14
  0.389999986       1.82325739E-14
  0.449999988       1.88686974E-14
  0.509999990       7.63061150E-15
  0.569999993      -1.49469721E-14
  0.629999995      -3.91072605E-14
  0.689999998      -4.75702478E-14
  0.750000000      -2.45122475E-14
  0.810000002       3.08600428E-14
  0.870000005       9.41432262E-14
  0.930000007       1.18893935E-13
  0.990000010       5.82564934E-14
   1.04999995      -1.00870884E-13
   1.11000001      -3.09111433E-13
   1.16999996      -4.53968026E-13
   1.23000002      -4.00799402E-13
   1.28999996      -6.69923034E-14
   1.35000002       5.03808258E-13
   1.40999997       1.11276635E-12
   1.47000003       1.45556245E-12
   1.52999997       1.24827525E-12
   1.59000003       3.82715154E-13
   1.64999998      -9.64201917E-13
   1.71000004      -2.33583031E-12
   1.76999998      -3.13971982E-12
   1.83000004      -2.88853425E-12
   1.88999999      -1.44200396E-12
   1.95000005       8.60625048E-13
   2.00999999       3.25241808E-12
   2.06999993       4.77724024E-12
   2.13000011       4.63981241E-12
   2.19000006       2.54290729E-12
   2.25000000      -1.11453208E-12
   2.30999994      -5.26060792E-12
   2.36999989      -8.40651073E-12
   2.43000007      -9.07438881E-12
   2.49000001      -6.28205777E-12
   2.54999995       5.45972738E-14
   2.60999990       8.93130968E-12
   2.67000008       1.83638070E-11
   2.73000002       2.58075592E-11
   2.78999996       2.88075952E-11
   2.84999990       2.57065914E-11
   2.91000009       1.61874680E-11
   2.97000003       1.44851037E-12
   3.02999997      -1.60804078E-11
   3.08999991      -3.33959076E-11
   3.15000010      -4.76931203E-11
   3.21000004      -5.69049668E-11
   3.26999998      -5.97371597E-11
   3.32999992      -5.51732132E-11
   3.39000010      -4.17595021E-11
   3.45000005      -1.72488048E-11
   3.50999999       2.07908690E-11
   3.56999993       7.31057576E-11
   3.63000011       1.35922149E-10
   3.69000006       1.98102881E-10
   3.75000000       2.39642889E-10
   3.80999994       2.32709352E-10
   3.86999989       1.45679344E-10
   3.93000007      -5.05111786E-11
   3.99000001      -3.75459136E-10
   4.05000019      -8.34051272E-10
   4.11000013      -1.41468559E-09
   4.17000008      -2.09151119E-09
   4.23000002      -2.82968071E-09
   4.28999996      -3.59143026E-09
   4.34999990      -4.34059144E-09
   4.40999985      -5.04405273E-09
   4.46999979      -5.67029845E-09
   4.53000021      -6.18673335E-09
   4.59000015      -6.55820021E-09
   4.65000010      -6.74856482E-09
   4.71000004      -6.72568934E-09
   4.76999998      -6.46825438E-09
   4.82999992      -5.97170580E-09
   4.88999987      -5.25066213E-09
   4.94999981      -4.33650893E-09
   5.01000023      -3.27096261E-09
   5.07000017      -2.09816009E-09
   5.13000011      -8.58469573E-10
   5.19000006       4.13624940E-10
   5.25000000       1.68716585E-09
   5.30999994       2.92970070E-09
   5.36999989       4.10282475E-09
   5.42999983       5.16151077E-09
   5.48999977       6.05895378E-09
   5.55000019       6.75626666E-09
   5.61000013       7.23408888E-09
   5.67000008       7.50196438E-09
   5.73000002       7.60170948E-09
   5.78999996       7.60284635E-09
   5.84999990       7.59083285E-09
   5.90999985       7.65123787E-09
   5.96999979       7.85437315E-09
   6.03000021       8.24464674E-09
   6.09000015       8.83723406E-09
   6.15000010       9.62217950E-09
   6.21000004       1.05736691E-08
   6.26999998       1.16607612E-08
   6.32999992       1.28558479E-08
   6.38999987       1.41384460E-08
   6.44999981       1.54940683E-08
   6.51000023       1.69099987E-08
   6.57000017       1.83710149E-08
   6.63000011       1.98579091E-08
   6.69000006       2.13501217E-08
   6.75000000       2.28315926E-08
   6.80999994       2.42970053E-08
   6.86999989       2.57548898E-08
   6.92999983       2.72251270E-08
   6.98999977       2.87308630E-08
   7.05000019       3.02875911E-08
   7.11000013       3.18940927E-08
   7.17000008       3.35296697E-08
   7.23000002       3.51599283E-08
   7.28999996       3.67495225E-08
   7.34999990       3.82772178E-08
   7.40999985       3.97468973E-08
   7.46999979       4.11895869E-08
   7.53000021       4.26549178E-08
   7.59000015       4.41948345E-08
   7.65000010       4.58455496E-08
   7.71000004       4.76145274E-08
   7.76999998       4.94772259E-08
   7.82999992       5.13843297E-08
   7.88999987       5.32762030E-08
   7.94999981       5.50985781E-08
   8.01000023       5.68134801E-08
   8.06999969       5.84018025E-08
   8.13000011       5.98576051E-08
   8.18999958       6.11775235E-08
   8.25000000       6.23505443E-08
   8.31000042       6.33525730E-08
   8.36999989       6.41479474E-08
   8.43000031       6.46966001E-08
   8.48999977       6.49632668E-08
   8.55000019       6.49244356E-08
   8.60999966       6.45702372E-08
   8.67000008       6.39013962E-08
   8.72999954       6.29235544E-08
   8.78999996       6.16428011E-08
   8.85000038       6.00648633E-08
   8.90999985       5.81984629E-08
   8.97000027       5.60607027E-08
   9.02999973       5.36812728E-08
   9.09000015       5.11029299E-08
   9.14999962       4.83777356E-08
   9.21000004       4.55607250E-08
   9.27000046       4.27037143E-08
   9.32999992       3.98515247E-08
   9.39000034       3.70412465E-08
   9.44999981       3.43036604E-08
   9.51000023       3.16651025E-08
   9.56999969       2.91484916E-08
   9.63000011       2.67731082E-08
   9.68999958       2.45536818E-08
   9.75000000       2.24995080E-08
   9.81000042       2.06138981E-08
   9.86999989       1.88939797E-08
   9.93000031       1.73306880E-08
   9.98999977       1.59090359E-08
   10.0500002       1.46090846E-08
   10.1099997       1.34078979E-08
   10.1700001       1.22823742E-08
   10.2299995       1.12122587E-08
   10.2900000       1.01824762E-08
   10.3500004       9.18422671E-09
   10.4099998       8.21487767E-09
   10.4700003       7.27709359E-09
   10.5299997       6.37759001E-09
   10.5900002       5.52554846E-09
   10.6499996       4.73047423E-09
   10.7100000       3.99951494E-09
   10.7700005       3.33487415E-09
   10.8299999       2.73241985E-09
   10.8900003       2.18242868E-09
   10.9499998       1.67245917E-09
   11.0100002       1.19116972E-09
   11.0699997       7.31258831E-10
   11.1300001       2.90146018E-10
   11.1899996      -1.31734526E-10
   11.2500000      -5.33847799E-10
   11.3100004      -9.18025767E-10
   11.3699999      -1.28945243E-09
   11.4300003      -1.65628589E-09
   11.4899998      -2.02886974E-09
   11.5500002      -2.41933695E-09
   11.6099997      -2.84150570E-09
   11.6700001      -3.31012062E-09
   11.7299995      -3.83852639E-09
   11.7900000      -4.43493864E-09
   11.8500004      -5.09884091E-09
   11.9099998      -5.81961324E-09
   11.9700003      -6.57862165E-09
   12.0299997      -7.35408934E-09
   12.0900002      -8.12630319E-09
   12.1499996      -8.88038976E-09
   12.2100000      -9.60534141E-09
   12.2700005      -1.02904067E-08
   12.3299999      -1.09217648E-08
   12.3900003      -1.14823822E-08
   12.4499998      -1.19560388E-08
   12.5100002      -1.23337998E-08
   12.5699997      -1.26194459E-08
   12.6300001      -1.28307152E-08
   12.6899996      -1.29953772E-08
   12.7500000      -1.31439126E-08
   12.8100004      -1.33023157E-08
   12.8699999      -1.34881715E-08
   12.9300003      -1.37111815E-08
   12.9899998      -1.39768250E-08
   13.0500002      -1.42904160E-08
   13.1099997      -1.46590713E-08
   13.1700001      -1.50907500E-08
   13.2299995      -1.55914357E-08
   13.2900000      -1.61625593E-08
   13.3500004      -1.68004117E-08
   13.4099998      -1.74978680E-08
   13.4700003      -1.82472437E-08
   13.5299997      -1.90423073E-08
   13.5900002      -1.98779286E-08
   13.6499996      -2.07471569E-08
   13.7100000      -2.16369411E-08
   13.7700005      -2.25246506E-08
   13.8299999      -2.33773108E-08
   13.8900003      -2.41544384E-08
   13.9499998      -2.48137795E-08
   14.0100002      -2.53181991E-08
   14.0699997      -2.56415635E-08
   14.1300001      -2.57721151E-08
   14.1899996      -2.57131045E-08
   14.2500000      -2.54816097E-08
   14.3100004      -2.51068961E-08
   14.3699999      -2.46291059E-08
   14.4300003      -2.40977833E-08
   14.4899998      -2.35685871E-08
   14.5500002      -2.30964439E-08
   14.6099997      -2.27247696E-08
   14.6700001      -2.24729391E-08
   14.7299995      -2.23263505E-08
   14.7900000      -2.22341647E-08
   14.8500004      -2.21178276E-08
   14.9099998      -2.18894716E-08
   14.9700003      -2.14748432E-08
   15.0299997      -2.08328998E-08
   15.0900002      -1.99648849E-08
   15.1499996      -1.89098710E-08
   15.2100000      -1.77292279E-08
   15.2700005      -1.64867853E-08
   15.3299999      -1.52325530E-08
   15.3900003      -1.39951739E-08
   15.4499998      -1.27837314E-08
   15.5100002      -1.15952821E-08
   15.5699997      -1.04229816E-08
   15.6300001      -9.26101595E-09
   15.6899996      -8.10563261E-09
   15.7500000      -6.95421587E-09
   15.8100004      -5.80500714E-09
   15.8699999      -4.65876315E-09
   15.9300003      -3.52146579E-09
   15.9899998      -2.40597897E-09
   16.0499992      -1.33094269E-09
   16.1100006      -3.16917353E-10
   16.1700001       6.18464890E-10
   16.2299995       1.46408341E-09
   16.2900009       2.21625607E-09
   16.3500004       2.87722979E-09
   16.4099998       3.45255335E-09
   16.4699993       3.94861654E-09
   16.5300007       4.37068115E-09
   16.5900002       4.72084816E-09
   16.6499996       4.99539965E-09
   16.7099991       5.18194510E-09
   16.7700005       5.25803401E-09
   16.8299999       5.19331067E-09
   16.8899994       4.95622610E-09
   16.9500008       4.52416016E-09
   17.0100002       3.89374888E-09
   17.0699997       3.08736281E-09
   17.1299992       2.15286966E-09
   17.1900005       1.15638588E-09
   17.2500000       1.70566269E-10
   17.3099995      -7.37346795E-10
   17.3700008      -1.51376633E-09
   17.4300003      -2.12132423E-09
   17.4899998      -2.53652854E-09
   17.5499992      -2.74537526E-09
   17.6100006      -2.74031708E-09
   17.6700001      -2.52076515E-09
   17.7299995      -2.09701945E-09
   17.7900009      -1.49534940E-09
   17.8500004      -7.60964070E-10
   17.9099998       4.36607209E-11
   17.9699993       8.45657988E-10
   18.0300007       1.57206625E-09
   18.0900002       2.16030771E-09
   18.1499996       2.56561750E-09
   18.2099991       2.76361156E-09
   18.2700005       2.74818945E-09
   18.3299999       2.52663512E-09
   18.3899994       2.11438844E-09
   18.4500008       1.53146185E-09
   18.5100002       8.01311628E-10
   18.5699997      -4.82328032E-11
   18.6299992      -9.83185644E-10
   18.6900005      -1.96217953E-09
   18.7500000      -2.93692448E-09
   18.8099995      -3.85484444E-09
   18.8700008      -4.66355443E-09
   18.9300003      -5.31606981E-09
   18.9899998      -5.77519410E-09
   19.0499992      -6.01576700E-09
   19.1100006      -6.02436279E-09
   19.1700001      -5.79730353E-09
   19.2299995      -5.33876943E-09
   19.2900009      -4.66067940E-09
   19.3500004      -3.78477027E-09
   19.4099998      -2.74551182E-09
   19.4699993      -1.59123237E-09
   19.5300007      -3.81031373E-10
   19.5900002       8.23164037E-10
   19.6499996       1.96751837E-09
   19.7099991       3.01641423E-09
   19.7700005       3.95786826E-09
   19.8299999       4.80205697E-09
   19.8899994       5.57357849E-09
   19.9500008       6.30053565E-09
   20.0100002       7.00458180E-09
   20.0699997       7.69536435E-09
   20.1299992       8.37091019E-09
   20.1900005       9.02323105E-09
   20.2500000       9.64671631E-09
   20.3099995       1.02459907E-08
   20.3700008       1.08401288E-08
   20.4300003       1.14611707E-08
   20.4899998       1.21467618E-08
   20.5499992       1.29289344E-08
   20.6100006       1.38228895E-08
   20.6700001       1.48202153E-08
   20.7299995       1.58897819E-08
   20.7900009       1.69865757E-08
   20.8500004       1.80653306E-08
   20.9099998       1.90933438E-08
   20.9699993       2.00569836E-08
   21.0300007       2.09589963E-08
   21.0900002       2.18080096E-08
   21.1499996       2.26053647E-08
   21.2099991       2.33358861E-08
   21.2700005       2.39675408E-08
   21.3299999       2.44609524E-08
   21.3899994       2.47851730E-08
   21.4500008       2.49330654E-08
   21.5100002       2.49296725E-08
   21.5699997       2.48296850E-08
   21.6299992       2.47047396E-08
   21.6900005       2.46254999E-08
   21.7500000       2.46455656E-08
   21.8099995       2.47932324E-08
   21.8700008       2.50734935E-08
   21.9300003       2.54780552E-08
   21.9899998       2.59976769E-08
   22.0499992       2.66305022E-08
   22.1100006       2.73825176E-08
   22.1700001       2.82605725E-08
   22.2299995       2.92623241E-08
   22.2900009       3.03688665E-08
   22.3500004       3.15442144E-08
   22.4099998       3.27418270E-08
   22.4699993       3.39147057E-08
   22.5300007       3.50238736E-08
   22.5900002       3.60413708E-08
   22.6499996       3.69473980E-08
   22.7099991       3.77243019E-08
   22.7700005       3.83517786E-08
   22.8299999       3.88061139E-08
   22.8899994       3.90636323E-08
   22.9500008       3.91058421E-08
   23.0100002       3.89229378E-08
   23.0699997       3.85136580E-08
   23.1299992       3.78820992E-08
   23.1900005       3.70340132E-08
   23.2500000       3.59754253E-08
   23.3099995       3.47148088E-08
   23.3700008       3.32674581E-08
   23.4300003       3.16591837E-08
   23.4899998       2.99260492E-08
   23.5499992       2.81089854E-08
   23.6100006       2.62445603E-08
   23.6700001       2.43554386E-08
   23.7299995       2.24446683E-08
   23.7900009       2.04965325E-08
   23.8500004       1.84841262E-08
   23.9099998       1.63810459E-08
   23.9699993       1.41730538E-08
   24.0300007       1.18657164E-08
   24.0900002       9.48587520E-09
   24.1499996       7.07729875E-09
   24.2099991       4.69296735E-09
   24.2700005       2.38715625E-09
   24.3299999       2.09740503E-10
   24.3899994      -1.79650372E-09
   24.4500008      -3.59642827E-09
   24.5100002      -5.16243892E-09
   24.5699997      -6.47505205E-09
   24.6299992      -7.52437224E-09
   24.6900005      -8.31188096E-09
   24.7500000      -8.85170248E-09
   24.8099995      -9.17087561E-09
   24.8700008      -9.30869071E-09
   24.9300003      -9.31530497E-09
   24.9899998      -9.24938792E-09
   25.0499992      -9.17393006E-09
   25.1100006      -9.14914633E-09
   25.1700001      -9.22234822E-09
   25.2299995      -9.41643208E-09
   25.2900009      -9.72058078E-09
   25.3500004      -1.00875202E-08
   25.4099998      -1.04404014E-08
   25.4699993      -1.06891314E-08
   25.5300007      -1.07519051E-08
   25.5900002      -1.05748352E-08
   25.6499996      -1.01424167E-08
   25.7099991      -9.47481116E-09
   25.7700005      -8.61325944E-09
   25.8299999      -7.60005836E-09
   25.8899994      -6.46190257E-09
   25.9500008      -5.20359933E-09
   26.0100002      -3.81402510E-09
   26.0699997      -2.28012165E-09
   26.1299992      -6.00925587E-10
   26.1900005       1.20591159E-09
   26.2500000       3.10812975E-09
   26.3099995       5.07035924E-09
   26.3700008       7.06584702E-09
   26.4300003       9.08117226E-09
   26.4899998       1.11109548E-08
   26.5499992       1.31455868E-08
   26.6100006       1.51592676E-08
   26.6700001       1.71056946E-08
   26.7299995       1.89245153E-08
   26.7900009       2.05556692E-08
   26.8500004       2.19543583E-08
   26.9099998       2.30991990E-08
   26.9699993       2.39899709E-08
   27.0300007       2.46370764E-08
   27.0900002       2.50490260E-08
   27.1499996       2.52247414E-08
   27.2099991       2.51542538E-08
   27.2700005       2.48263614E-08
   27.3299999       2.42380853E-08
   27.3899994       2.34002044E-08
   27.4500008       2.23358310E-08
   27.5100002       2.10732107E-08
   27.5699997       1.96372536E-08
   27.6299992       1.80448385E-08
   27.6900005       1.63067337E-08
   27.7500000       1.44351029E-08
   27.8099995       1.24523751E-08
   27.8700008       1.03963833E-08
   27.9300003       8.31848368E-09
   27.9899998       6.27492769E-09
   28.0499992       4.31511626E-09
   28.1100006       2.47185161E-09
   28.1700001       7.57493068E-10
   28.2299995      -8.33134228E-10
   28.2900009      -2.31552000E-09
   28.3500004      -3.70800568E-09
   28.4099998      -5.02732966E-09
   28.4699993      -6.28779251E-09
   28.5300007      -7.50195639E-09
   28.5900002      -8.67982042E-09
   28.6499996      -9.82489201E-09
   28.7099991      -1.09285079E-08
   28.7700005      -1.19661587E-08
   28.8299999      -1.28995463E-08
   28.8899994      -1.36853204E-08
   28.9500008      -1.42873278E-08
   29.0100002      -1.46864956E-08
   29.0699997      -1.48829589E-08
   29.1299992      -1.48890846E-08
   29.1900005      -1.47172932E-08
   29.2500000      -1.43700127E-08
   29.3099995      -1.38383882E-08
   29.3700008      -1.31115803E-08
   29.4300003      -1.21921833E-08
   29.4899998      -1.11090772E-08
   29.5499992      -9.91945193E-09
   29.6100006      -8.69685124E-09
   29.6700001      -7.50921636E-09
   29.7299995      -6.39624043E-09
   29.7900009      -5.35618039E-09
   29.8500004      -4.34802061E-09
   29.9099998      -3.30802741E-09
   29.9699993      -2.17355112E-09
   30.0300007      -9.04490705E-10
   30.0900002       5.05081865E-10
   30.1499996       2.02751749E-09
   30.2099991       3.61144492E-09
   30.2700005       5.19492760E-09
   30.3299999       6.71638656E-09
   30.3899994       8.12074141E-09
   30.4500008       9.36165456E-09
   30.5100002       1.04026174E-08
   30.5699997       1.12189369E-08
   30.6299992       1.18003411E-08
   30.6900005       1.21515562E-08
   30.7500000       1.22878534E-08
   30.8099995       1.22247172E-08
   30.8700008       1.19644712E-08
   30.9300003       1.14857537E-08
   30.9899998       1.07419611E-08
   31.0499992       9.67153913E-09
   31.1100006       8.21750046E-09
   31.1700001       6.34860919E-09
   31.2299995       4.07308187E-09
   31.2900009       1.43862189E-09
   31.3500004      -1.48110768E-09
   31.4099998      -4.60694594E-09
   31.4699993      -7.87172638E-09
   31.5300007      -1.12266410E-08
   31.5900002      -1.46342165E-08
   31.6499996      -1.80526811E-08
   31.7099991      -2.14209077E-08
   31.7700005      -2.46527243E-08
   31.8299999      -2.76444503E-08
   31.8899994      -3.02928846E-08
   31.9500008      -3.25160876E-08
   32.0099983      -3.42685524E-08
   32.0699997      -3.55456677E-08
   32.1300011      -3.63777879E-08
   32.1899986      -3.68182960E-08
   32.2500000      -3.69313007E-08
   32.3100014      -3.67824597E-08
   32.3699989      -3.64331214E-08
   32.4300003      -3.59357841E-08
   32.4900017      -3.53289806E-08
   32.5499992      -3.46320235E-08
   32.6100006      -3.38424186E-08
   32.6699982      -3.29391945E-08
   32.7299995      -3.18931370E-08
   32.7900009      -3.06810826E-08
   32.8499985      -2.92982332E-08
   32.9099998      -2.77624626E-08
   32.9700012      -2.61078803E-08
   33.0299988      -2.43702676E-08
   33.0900002      -2.25713439E-08
   33.1500015      -2.07096829E-08
   33.2099991      -1.87627673E-08
   33.2700005      -1.66988769E-08
   33.3300018      -1.44925236E-08
   33.3899994      -1.21355148E-08
   33.4500008      -9.63853708E-09
   33.5099983      -7.02359682E-09
   33.5699997      -4.31265867E-09
   33.6300011      -1.51964097E-09
   33.6899986       1.34949818E-09
   33.7500000       4.28886571E-09
   33.8100014       7.28196969E-09
   33.8699989       1.02950706E-08
   33.9300003       1.32790525E-08
   33.9900017       1.61795484E-08
   34.0499992       1.89503435E-08
   34.1100006       2.15633289E-08
   34.1699982       2.40101645E-08
   34.2299995       2.62953286E-08
   34.2900009       2.84248181E-08
   34.3499985       3.03967163E-08
   34.4099998       3.21984608E-08
   34.4700012       3.38115385E-08
   34.5299988       3.52200864E-08
   34.5900002       3.64179051E-08
   34.6500015       3.74095706E-08
   34.7099991       3.82050587E-08
   34.7700005       3.88113079E-08
   34.8300018       3.92260233E-08
   34.8899994       3.94379107E-08
   34.9500008       3.94336084E-08
   35.0099983       3.92076949E-08
   35.0699997       3.87701000E-08
   35.1300011       3.81465846E-08
   35.1899986       3.73719828E-08
   35.2500000       3.64801167E-08
   35.3100014       3.54965088E-08
   35.3699989       3.44383686E-08
   35.4300003       3.33218217E-08
   35.4900017       3.21714602E-08
   35.5499992       3.10250137E-08
   35.6100006       2.99278682E-08
   35.6699982       2.89179205E-08
   35.7299995       2.80072694E-08
   35.7900009       2.71705503E-08
   35.8499985       2.63476423E-08
   35.9099998       2.54617429E-08
   35.9700012       2.44459653E-08
   36.0299988       2.32666331E-08
   36.0900002       2.19325766E-08
   36.1500015       2.04862989E-08
   36.2099991       1.89819609E-08
   36.2700005       1.74615113E-08
   36.3300018       1.59407829E-08
   36.3899994       1.44117296E-08
   36.4500008       1.28582442E-08
   36.5099983       1.12760175E-08
   36.5699997       9.68530589E-09
   36.6300011       8.12992162E-09
   36.6899986       6.66351019E-09
   36.7500000       5.33089883E-09
   36.8100014       4.15439860E-09
   36.8699989       3.13164827E-09
   36.9300003       2.24507168E-09
   36.9900017       1.47699053E-09
   37.0499992       8.22127866E-10
   37.1100006       2.91426855E-10
   37.1699982      -9.37904615E-11
   37.2299995      -3.13315818E-10
   37.2900009      -3.58915730E-10
   37.3499985      -2.39509940E-10
   37.4099998       2.07868583E-11
   37.4700012       3.89510868E-10
   37.5299988       8.33498104E-10
   37.5900002       1.32392497E-09
   37.6500015       1.83768800E-09
   37.7099991       2.35645770E-09
   37.7700005       2.86573920E-09
   37.8300018       3.35548922E-09
   37.8899994       3.82196985E-09
   37.9500008       4.26897317E-09
   38.0099983       4.70636730E-09
   38.0699997       5.14531706E-09
   38.1300011       5.59170843E-09
   38.1899986       6.04084116E-09
   38.2500000       6.47636567E-09
   38.3100014       6.87459556E-09
   38.3699989       7.21266868E-09
   38.4300003       7.47708118E-09
   38.4900017       7.66895347E-09
   38.5499992       7.80411735E-09
   38.6100006       7.90865773E-09
   38.6699982       8.01240407E-09
   38.7299995       8.14301337E-09
   38.7900009       8.32182412E-09
   38.8499985       8.56085158E-09
   38.9099998       8.85954421E-09
   38.9700012       9.20094845E-09
   39.0299988       9.54898383E-09
   39.0900002       9.85000792E-09
   39.1500015       1.00410951E-08
   39.2099991       1.00644604E-08
   39.2700005       9.88346915E-09
   39.3300018       9.49334567E-09
   39.3899994       8.92079033E-09
   39.4500008       8.21130808E-09
   39.5099983       7.40903339E-09
   39.5699997       6.53803545E-09
   39.6300011       5.59397906E-09
   39.6899986       4.55042137E-09
   39.7500000       3.37707307E-09
   39.8100014       2.06151873E-09
   39.8699989       6.24206742E-10
   39.9300003      -8.80395035E-10
   39.9900017      -2.37719111E-09
   40.0499992      -3.79271636E-09
   40.1100006      -5.07701525E-09
   40.1699982      -6.21659790E-09
   40.2299995      -7.23414262E-09
   40.2900009      -8.17626500E-09
   40.3499985      -9.09513531E-09
   40.4099998      -1.00314859E-08
   40.4700012      -1.10052216E-08
   40.5299988      -1.20161880E-08
   40.5900002      -1.30534277E-08
   40.6500015      -1.41079299E-08
   40.7099991      -1.51827138E-08
   40.7700005      -1.62953864E-08
   40.8300018      -1.74716188E-08
   40.8899994      -1.87321305E-08
   40.9500008      -2.00788097E-08
   41.0099983      -2.14865690E-08
   41.0699997      -2.29054855E-08
   41.1300011      -2.42736622E-08
   41.1899986      -2.55365613E-08
   41.2500000      -2.66655356E-08
   41.3100014      -2.76681558E-08
   41.3699989      -2.85860544E-08
   41.4300003      -2.94809048E-08
   41.4900017      -3.04138652E-08
   41.5499992      -3.14261612E-08
   41.6100006      -3.25277263E-08
   41.6699982      -3.36971482E-08
   41.7299995      -3.48917020E-08
   41.7900009      -3.60625414E-08
   41.8499985      -3.71688529E-08
   41.9099998      -3.81862968E-08
   41.9700012      -3.91079276E-08
   42.0299988      -3.99391773E-08
   42.0900002      -4.06903773E-08
   42.1500015      -4.13705479E-08
   42.2099991      -4.19845385E-08
   42.2700005      -4.25338200E-08
   42.3300018      -4.30192664E-08
   42.3899994      -4.34437517E-08
   42.4500008      -4.38127863E-08
   42.5099983      -4.41325376E-08
   42.5699997      -4.44058905E-08
   42.6300011      -4.46281021E-08
   42.6899986      -4.47841089E-08
   42.7500000      -4.48491733E-08
   42.8100014      -4.47937296E-08
   42.8699989      -4.45918751E-08
   42.9300003      -4.42313208E-08
   42.9900017      -4.37214212E-08
   43.0499992      -4.30956959E-08
   43.1100006      -4.24066045E-08
   43.1699982      -4.17130046E-08
   43.2299995      -4.10638776E-08
   43.2900009      -4.04840179E-08
   43.3499985      -3.99673787E-08
   43.4099998      -3.94811472E-08
   43.4700012      -3.89794224E-08
   43.5299988      -3.84212449E-08
   43.5900002      -3.77858775E-08
   43.6500015      -3.70793778E-08
   43.7099991      -3.63303734E-08
   43.7700005      -3.55776599E-08
   43.8300018      -3.48555105E-08
   43.8899994      -3.41831061E-08
   43.9500008      -3.35618893E-08
   44.0099983      -3.29807293E-08
   44.0699997      -3.24249712E-08
   44.1300011      -3.18842837E-08
   44.1899986      -3.13552171E-08
   44.2500000      -3.08377324E-08
   44.3100014      -3.03281134E-08
   44.3699989      -2.98127176E-08
   44.4300003      -2.92667472E-08
   44.4900017      -2.86597714E-08
   44.5499992      -2.79665802E-08
   44.6100006      -2.71791265E-08
   44.6699982      -2.63143960E-08
   44.7299995      -2.54141597E-08
   44.7900009      -2.45356286E-08
   44.8499985      -2.37355344E-08
   44.9099998      -2.30530439E-08
   44.9700012      -2.24976784E-08
   45.0299988      -2.20468941E-08
   45.0900002      -2.16545910E-08
   45.1500015      -2.12677929E-08
   45.2099991      -2.08456772E-08
   45.2700005      -2.03742765E-08
   45.3300018      -1.98715746E-08
   45.3899994      -1.93812912E-08
   45.4500008      -1.89576053E-08
   45.5099983      -1.86463343E-08
   45.5699997      -1.84693061E-08
   45.6300011      -1.84175040E-08
   45.6899986      -1.84554132E-08
   45.7500000      -1.85348537E-08
   45.8100014      -1.86130507E-08
   45.8699989      -1.86679490E-08
   45.9300003      -1.87047515E-08
   45.9900017      -1.87510310E-08
   46.0499992      -1.88424281E-08
   46.1100006      -1.90049363E-08
   46.1699982      -1.92414049E-08
   46.2299995      -1.95282208E-08
   46.2900009      -1.98237498E-08
   46.3499985      -2.00849026E-08
   46.4099998      -2.02844639E-08
   46.4700012      -2.04214921E-08
   46.5299988      -2.05201776E-08
   46.5900002      -2.06178417E-08
   46.6500015      -2.07477520E-08
   46.7099991      -2.09246398E-08
   46.7700005      -2.11394475E-08
   46.8300018      -2.13653593E-08
   46.8899994      -2.15718199E-08
   46.9500008      -2.17394707E-08
   47.0099983      -2.18685710E-08
   47.0699997      -2.19766410E-08
   47.1300011      -2.20862901E-08
   47.1899986      -2.22091767E-08
   47.2500000      -2.23342749E-08
   47.3100014      -2.24269634E-08
   47.3699989      -2.24405774E-08
   47.4300003      -2.23360104E-08
   47.4900017      -2.21006857E-08
   47.5499992      -2.17577547E-08
   47.6100006      -2.13603517E-08
   47.6699982      -2.09723332E-08
   47.7299995      -2.06432595E-08
   47.7900009      -2.03883150E-08
   47.8499985      -2.01821493E-08
   47.9099998      -1.99697467E-08
   47.9700012      -1.96903578E-08
   48.0299988      -1.93052117E-08
   48.0900002      -1.88183922E-08
   48.1500015      -1.82831492E-08
   48.2099991      -1.77914590E-08
   48.2700005      -1.74502688E-08
   48.3300018      -1.73519492E-08
   48.3899994      -1.75476575E-08
   48.4500008      -1.80311410E-08
   48.5099983      -1.87374916E-08
   48.5699997      -1.95573495E-08
   48.6300011      -2.03628261E-08
   48.6899986      -2.10380406E-08
   48.7500000      -2.15054161E-08
   48.8100014      -2.17399840E-08
   48.8699989      -2.17676579E-08
   48.9300003      -2.16490026E-08
   48.9900017      -2.14549782E-08
   49.0499992      -2.12438849E-08
   49.1100006      -2.10474749E-08
   49.1699982      -2.08700186E-08
   49.2299995      -2.06985895E-08
   49.2900009      -2.05184190E-08
   49.3499985      -2.03258477E-08
   49.4099998      -2.01332817E-08
   49.4700012      -1.99647143E-08
   49.5299988      -1.98450181E-08
   49.5900002      -1.97888816E-08
   49.6500015      -1.97952055E-08
   49.7099991      -1.98495975E-08
   49.7700005      -1.99329513E-08
   49.8300018      -2.00301571E-08
   49.8899994      -2.01322798E-08
   49.9500008      -2.02286330E-08
   50.0099983      -2.02910542E-08
   50.0699997      -2.02580068E-08
   50.1300011      -2.00276897E-08
   50.1899986      -1.94654781E-08
   50.2500000      -1.84236075E-08
   50.3100014      -1.67639733E-08
   50.3699989      -1.43726346E-08
   50.4300003      -1.11588028E-08
   50.4900017      -7.03909908E-09
   50.5499992      -1.91523375E-09
   50.6100006       4.34472547E-09