  -2.400000      0.0000000E+00
  -2.340000      0.0000000E+00
  -2.280000      0.0000000E+00
  -2.220000      0.0000000E+00
  -2.160000      0.0000000E+00
  -2.100000     -2.9271373E-19
  -2.040000     -2.5390842E-18
  -1.980000     -1.1112497E-17
  -1.920000     -3.1584472E-17
  -1.860000     -6.1864772E-17
  -1.800000     -7.6931370E-17
  -1.740000     -2.1247606E-17
  -1.680000      1.6779397E-16
  -1.620000      4.9646195E-16
  -1.560000      8.4613112E-16
  -1.500000      9.7730534E-16
  -1.440000      6.6916270E-16
  -1.380000     -4.6675876E-17
  -1.320000     -7.4165638E-16
  -1.260000     -7.6497758E-16
  -1.200000      2.0241174E-16
  -1.140000      1.5083272E-15
  -1.080000      1.3945552E-15
  -1.020000     -2.1314180E-15
 -0.9600000     -9.5306987E-15
 -0.9000000     -1.8057169E-14
 -0.8400000     -2.1654284E-14
 -0.7800000     -1.3431915E-14
 -0.7200000      9.7762993E-15
 -0.6600000      4.3073526E-14
 -0.6000000      7.2529392E-14
 -0.5400000      7.9676927E-14
 -0.4800000      5.0718520E-14
 -0.4200000     -1.3598730E-14
 -0.3600000     -9.3168237E-14
 -0.3000000     -1.5314028E-13
 -0.2400000     -1.5806342E-13
 -0.1800000     -9.0348688E-14
 -0.1200000      3.5681070E-14
 -5.9999999E-02  1.7248219E-13
  0.0000000E+00  2.5431623E-13
  5.9999999E-02  2.2489859E-13
  0.1200000      6.7184675E-14
  0.1800000     -1.7828782E-13
  0.2400000     -4.1762497E-13
  0.3000000     -5.3362637E-13
  0.3600000     -4.3393265E-13
  0.4200000     -9.9459659E-14
  0.4800000      3.8921768E-13
  0.5400000      8.6518130E-13
  0.6000000      1.1313809E-12
  0.6600000      1.0428098E-12
  0.7200000      5.8049377E-13
  0.7800000     -1.2113882E-13
  0.8400000     -8.1695376E-13
  0.9000000     -1.2556976E-12
  0.9600000     -1.3030259E-12
   1.020000     -1.0197323E-12
   1.080000     -6.4307365E-13
   1.140000     -4.6261860E-13
   1.200000     -6.4063978E-13
   1.260000     -1.0702378E-12
   1.320000     -1.3635067E-12
   1.380000     -1.0080079E-12
   1.440000      3.5753735E-13
   1.500000      2.6748540E-12
   1.560000      5.3534889E-12
   1.620000      7.4068737E-12
   1.680000      7.8149197E-12
   1.740000      5.9702512E-12
   1.800000      2.0031489E-12
   1.860000     -3.1836534E-12
   1.920000     -8.2133154E-12
   1.980000     -1.1751334E-11
   2.040000     -1.3013569E-11
   2.100000     -1.2033008E-11
   2.160000     -9.5593576E-12
   2.220000     -6.6355320E-12
   2.280000     -4.0452221E-12
   2.340000     -1.8843560E-12
   2.400000      5.5187246E-13
   2.460000      4.5227051E-12
   2.520000      1.1356291E-11
   2.580000      2.1947619E-11
   2.640000      3.6461455E-11
   2.700000      5.4362286E-11
   2.760000      7.4744232E-11
   2.820000      9.6801595E-11
   2.880000      1.2022099E-10
   2.940000      1.4531008E-10
   3.000000      1.7279143E-10
   3.060000      2.0333850E-10
   3.120000      2.3705327E-10
   3.180000      2.7313027E-10
   3.240000      3.0989203E-10
   3.300000      3.4523634E-10
   3.360000      3.7735637E-10
   3.420000      4.0545806E-10
   3.480000      4.3017118E-10
   3.540000      4.5345386E-10
   3.600000      4.7798687E-10
   3.660000      5.0626459E-10
   3.720000      5.3971666E-10
   3.780000      5.7818167E-10
   3.840000      6.1990718E-10
   3.900000      6.6203565E-10
   3.960000      7.0135286E-10
   4.020000      7.3500300E-10
   4.080000      7.6092826E-10
   4.140000      7.7795004E-10
   4.200000      7.8557638E-10
   4.260000      7.8372686E-10
   4.320000      7.7257079E-10
   4.380000      7.5258172E-10
   4.440000      7.2476847E-10
   4.500000      6.9093270E-10
   4.560000      6.5376798E-10
   4.620000      6.1668404E-10
   4.680000      5.8336813E-10
   4.740000      5.5722343E-10
   4.800000      5.4089550E-10
   4.860000      5.3605764E-10
   4.920000      5.4351457E-10
   4.980000      5.6353755E-10
   5.040000      5.9623584E-10
   5.100000      6.4174249E-10
   5.160000      7.0004536E-10
   5.220000      7.7040191E-10
   5.280000      8.5041174E-10
   5.340000      9.3494501E-10
   5.400000      1.0152235E-09
   5.460000      1.0783763E-09
   5.520000      1.1077023E-09
   5.580000      1.0836593E-09
   5.640000      9.8530706E-10
   5.700000      7.9170687E-10
   5.760000      4.8275445E-10
   5.820000      3.9194262E-11
   5.880000     -5.5798843E-10
   5.940000     -1.3281746E-09
   6.000000     -2.2909914E-09
   6.060000     -3.4650387E-09
   6.120000     -4.8656426E-09
   6.180000     -6.5023600E-09
   6.240000     -8.3771265E-09
   6.300000     -1.0483612E-08
   6.360000     -1.2807711E-08
   6.420000     -1.5328560E-08
   6.480000     -1.8019350E-08
   6.540000     -2.0847587E-08
   6.600000     -2.3774932E-08
   6.660000     -2.6757206E-08
   6.720000     -2.9745003E-08
   6.780000     -3.2685019E-08
   6.840000     -3.5521701E-08
   6.900000     -3.8198728E-08
   6.960000     -4.0660009E-08
   7.020000     -4.2850321E-08
   7.080000     -4.4715947E-08
   7.140000     -4.6205773E-08
   7.200000     -4.7272909E-08
   7.260000     -4.7876750E-08
   7.320000     -4.7985299E-08
   7.380000     -4.7577554E-08
   7.440000     -4.6645820E-08
   7.500000     -4.5197798E-08
   7.560000     -4.3257913E-08
   7.620000     -4.0867349E-08
   7.680000     -3.8082447E-08
   7.740000     -3.4971624E-08
   7.800000     -3.1611524E-08
   7.860000     -2.8083301E-08
   7.920000     -2.4469628E-08
   7.980000     -2.0852385E-08
   8.040000     -1.7310549E-08
   8.100000     -1.3917837E-08
   8.160000     -1.0740047E-08
   8.220000     -7.8326838E-09
   8.280000     -5.2394649E-09
   8.340000     -2.9919391E-09
   8.400000     -1.1097070E-09
   8.460000      3.9961193E-10
   8.520000      1.5412569E-09
   8.580000      2.3348103E-09
   8.640000      2.8152609E-09
   8.700000      3.0324627E-09
   8.760000      3.0484129E-09
   8.820000      2.9328038E-09
   8.880000      2.7579994E-09
   8.940000      2.5945406E-09
   9.000000      2.5075764E-09
   9.060000      2.5538205E-09
   9.120000      2.7784097E-09
   9.180000      3.2115295E-09
   9.240000      3.8654968E-09
   9.300000      4.7334572E-09
   9.360000      5.7905596E-09
   9.420000      6.9975155E-09
   9.480000      8.3055287E-09
   9.540000      9.6612558E-09
   9.600000      1.1010951E-08
   9.660000      1.2303838E-08
   9.720000      1.3495304E-08
   9.780000      1.4550383E-08
   9.840000      1.5447242E-08
   9.900000      1.6179666E-08
   9.960000      1.6757463E-08
   10.02000      1.7204371E-08
   10.08000      1.7554070E-08
   10.14000      1.7845665E-08
   10.20000      1.8119900E-08
   10.26000      1.8416683E-08
   10.32000      1.8773580E-08
   10.38000      1.9224551E-08
   10.44000      1.9798446E-08
   10.50000      2.0517279E-08
   10.56000      2.1394824E-08
   10.62000      2.2435907E-08
   10.68000      2.3636343E-08
   10.74000      2.4982986E-08
   10.80000      2.6453446E-08
   10.86000      2.8015464E-08
   10.92000      2.9626777E-08
   10.98000      3.1236418E-08
   11.04000      3.2788027E-08
   11.10000      3.4224712E-08
   11.16000      3.5494125E-08
   11.22000      3.6552162E-08
   11.28000      3.7364369E-08
   11.34000      3.7905242E-08
   11.40000      3.8156699E-08
   11.46000      3.8107085E-08
   11.52000      3.7751633E-08
   11.58000      3.7094217E-08
   11.64000      3.6149430E-08
   11.70000      3.4943820E-08
   11.76000      3.3515573E-08
   11.82000      3.1912471E-08
   11.88000      3.0188581E-08
   11.94000      2.8400061E-08
   12.00000      2.6600601E-08
   12.06000      2.4836831E-08
   12.12000      2.3144263E-08
   12.18000      2.1544492E-08
   12.24000      2.0044359E-08
   12.30000      1.8637412E-08
   12.36000      1.7307293E-08
   12.42000      1.6032176E-08
   12.48000      1.4789161E-08
   12.54000      1.3557865E-08
   12.60000      1.2322826E-08
   12.66000      1.1074702E-08
   12.72000      9.8101189E-09
   12.78000      8.5299350E-09
   12.84000      7.2357760E-09
   12.90000      5.9253273E-09
   12.96000      4.5877364E-09
   13.02000      3.2009899E-09
   13.08000      1.7328030E-09
   13.14000      1.4524536E-10
   13.20000     -1.5983055E-09
   13.26000     -3.5263785E-09
   13.32000     -5.6551728E-09
   13.38000     -7.9879294E-09
   13.44000     -1.0517248E-08
   13.50000     -1.3228496E-08
   13.56000     -1.6102494E-08
   13.62000     -1.9116639E-08
   13.68000     -2.2245018E-08
   13.74000     -2.5458785E-08
   13.80000     -2.8728026E-08
   13.86000     -3.2025394E-08
   13.92000     -3.5330874E-08
   13.98000     -3.8636319E-08
   14.04000     -4.1948290E-08
   14.10000     -4.5287901E-08
   14.16000     -4.8686832E-08
   14.22000     -5.2179306E-08
   14.28000     -5.5790764E-08
   14.34000     -5.9525302E-08
   14.40000     -6.3355039E-08
   14.46000     -6.7214977E-08
   14.52000     -7.1005999E-08
   14.58000     -7.4606369E-08
   14.64000     -7.7889446E-08
   14.70000     -8.0743170E-08
   14.76000     -8.3086249E-08
   14.82000     -8.4877186E-08
   14.88000     -8.6114760E-08
   14.94000     -8.6831008E-08
   15.00000     -8.7079449E-08
   15.06000     -8.6922313E-08
   15.12000     -8.6419497E-08
   15.18000     -8.5621451E-08
   15.24000     -8.4566622E-08
   15.30000     -8.3282750E-08
   15.36000     -8.1790624E-08
   15.42000     -8.0108315E-08
   15.48000     -7.8254011E-08
   15.54000     -7.6246714E-08
   15.60000     -7.4104769E-08
   15.66000     -7.1843530E-08
   15.72000     -6.9473593E-08
   15.78000     -6.7000720E-08
   15.84000     -6.4427617E-08
   15.90000     -6.1757007E-08
   15.96000     -5.8995091E-08
   16.02000     -5.6154487E-08
   16.08000     -5.3256183E-08
   16.14000     -5.0330144E-08
   16.20000     -4.7414211E-08
   16.26000     -4.4551051E-08
   16.32000     -4.1783196E-08
   16.38000     -3.9147160E-08
   16.44000     -3.6668013E-08
   16.50000     -3.4356191E-08
   16.56000     -3.2207517E-08
   16.62000     -3.0206156E-08
   16.68000     -2.8329213E-08
   16.74000     -2.6551433E-08
   16.80000     -2.4848942E-08
   16.86000     -2.3202146E-08
   16.92000     -2.1598424E-08
   16.98000     -2.0034967E-08
   17.04000     -1.8521130E-08
   17.10000     -1.7078875E-08
   17.16000     -1.5740088E-08
   17.22000     -1.4540787E-08
   17.28000     -1.3514069E-08
   17.34000     -1.2684452E-08
   17.40000     -1.2065629E-08
   17.46000     -1.1661585E-08
   17.52000     -1.1468820E-08
   17.58000     -1.1476687E-08
   17.64000     -1.1664188E-08
   17.70000     -1.1994420E-08
   17.76000     -1.2410535E-08
   17.82000     -1.2837659E-08
   17.88000     -1.3193055E-08
   17.94000     -1.3402808E-08
   18.00000     -1.3419539E-08
   18.06000     -1.3234229E-08
   18.12000     -1.2877118E-08
   18.18000     -1.2406931E-08
   18.24000     -1.1892316E-08
   18.30000     -1.1392148E-08
   18.36000     -1.0941129E-08
   18.42000     -1.0544354E-08
   18.48000     -1.0180756E-08
   18.54000     -9.8125215E-09
   18.60000     -9.3964854E-09
   18.66000     -8.8942382E-09
   18.72000     -8.2791534E-09
   18.78000     -7.5398034E-09
   18.84000     -6.6798784E-09
   18.90000     -5.7149125E-09
   18.96000     -4.6664974E-09
   19.02000     -3.5553993E-09
   19.08000     -2.3958520E-09
   19.14000     -1.1935836E-09
   19.20000      5.0830180E-11
   19.26000      1.3337745E-09
   19.32000      2.6384828E-09
   19.38000      3.9274179E-09
   19.44000      5.1411853E-09
   19.50000      6.2056604E-09
   19.56000      7.0456605E-09
   19.62000      7.6006756E-09
   19.68000      7.8372313E-09
   19.74000      7.7538171E-09
   19.80000      7.3773068E-09
   19.86000      6.7529293E-09
   19.92000      5.9317791E-09
   19.98000      4.9598707E-09
   20.04000      3.8712269E-09
   20.10000      2.6854698E-09
   20.16000      1.4089353E-09
   20.22000      3.7923747E-11
   20.28000     -1.4369009E-09
   20.34000     -3.0254743E-09
   20.40000     -4.7331605E-09
   20.46000     -6.5564221E-09
   20.52000     -8.4806944E-09
   20.58000     -1.0481561E-08
   20.64000     -1.2529116E-08
   20.70000     -1.4593858E-08
   20.76000     -1.6651443E-08
   20.82000     -1.8683922E-08
   20.88000     -2.0676740E-08
   20.94000     -2.2613085E-08
   21.00000     -2.4468656E-08
   21.06000     -2.6210053E-08
   21.12000     -2.7798306E-08
   21.18000     -2.9196700E-08
   21.24000     -3.0379919E-08
   21.30000     -3.1340949E-08
   21.36000     -3.2092977E-08
   21.42000     -3.2665383E-08
   21.48000     -3.3095187E-08
   21.54000     -3.3416597E-08
   21.60000     -3.3651936E-08
   21.66000     -3.3806622E-08
   21.72000     -3.3869643E-08
   21.78000     -3.3819227E-08
   21.84000     -3.3631647E-08
   21.90000     -3.3290117E-08
   21.96000     -3.2790766E-08
   22.02000     -3.2143799E-08
   22.08000     -3.1370192E-08
   22.14000     -3.0496039E-08
   22.20000     -2.9547605E-08
   22.26000     -2.8549383E-08
   22.32000     -2.7525562E-08
   22.38000     -2.6503288E-08
   22.44000     -2.5514963E-08
   22.50000     -2.4597313E-08
   22.56000     -2.3786441E-08
   22.62000     -2.3109916E-08
   22.68000     -2.2578233E-08
   22.74000     -2.2178190E-08
   22.80000     -2.1870257E-08
   22.86000     -2.1591184E-08
   22.92000     -2.1262146E-08
   22.98000     -2.0801576E-08
   23.04000     -2.0140561E-08
   23.10000     -1.9237346E-08
   23.16000     -1.8086819E-08
   23.22000     -1.6721692E-08
   23.28000     -1.5204311E-08
   23.34000     -1.3611174E-08
   23.40000     -1.2014879E-08
   23.46000     -1.0469094E-08
   23.52000     -9.0009138E-09
   23.58000     -7.6122140E-09
   23.64000     -6.2885914E-09
   23.70000     -5.0124012E-09
   23.76000     -3.7757357E-09
   23.82000     -2.5897195E-09
   23.88000     -1.4876556E-09
   23.94000     -5.2100591E-10
   24.00000      2.5114866E-10
   24.06000      7.7670914E-10
   24.12000      1.0251126E-09
   24.18000      9.9703557E-10
   24.24000      7.2539352E-10
   24.30000      2.6646035E-10
   24.36000     -3.1648675E-10
   24.42000     -9.7165476E-10
   24.48000     -1.6730732E-09
   24.54000     -2.4260740E-09
   24.60000     -3.2625793E-09
   24.66000     -4.2285460E-09
   24.72000     -5.3684266E-09
   24.78000     -6.7120371E-09
   24.84000     -8.2678717E-09
   24.90000     -1.0024428E-08
   24.96000     -1.1958407E-08
   25.02000     -1.4046446E-08
   25.08000     -1.6275981E-08
   25.14000     -1.8651011E-08
   25.20000     -2.1190212E-08
   25.26000     -2.3917574E-08
   25.32000     -2.6848685E-08
   25.38000     -2.9977919E-08
   25.44000     -3.3271927E-08
   25.50000     -3.6672965E-08
   25.56000     -4.0111949E-08
   25.62000     -4.3527418E-08
   25.68000     -4.6884015E-08
   25.74000     -5.0183772E-08
   25.80000     -5.3465502E-08
   25.86000     -5.6791290E-08
   25.92000     -6.0223314E-08
   25.98000     -6.3797813E-08
   26.04000     -6.7504494E-08
   26.10000     -7.1278919E-08
   26.16000     -7.5011727E-08
   26.22000     -7.8573301E-08
   26.28000     -8.1846878E-08
   26.34000     -8.4759769E-08
   26.40000     -8.7302190E-08
   26.46000     -8.9527155E-08
   26.52000     -9.1531028E-08
   26.58000     -9.3421285E-08
   26.64000     -9.5281528E-08
   26.70000     -9.7145069E-08
   26.76000     -9.8984586E-08
   26.82000     -1.0072071E-07
   26.88000     -1.0224655E-07
   26.94000     -1.0346098E-07
   27.00000     -1.0430142E-07
   27.06000     -1.0476638E-07
   27.12000     -1.0492083E-07
   27.18000     -1.0488128E-07
   27.24000     -1.0478358E-07
   27.30000     -1.0474207E-07
   27.36000     -1.0481269E-07
   27.42000     -1.0497250E-07
   27.48000     -1.0512345E-07
   27.54000     -1.0512027E-07
   27.60000     -1.0481377E-07
   27.66000     -1.0409533E-07
   27.72000     -1.0292752E-07
   27.78000     -1.0135136E-07
   27.84000     -9.9468238E-08
   27.90000     -9.7403657E-08
   27.96000     -9.5265200E-08
   28.02000     -9.3108071E-08
   28.08000     -9.0918661E-08
   28.14000     -8.8620169E-08
   28.20000     -8.6097643E-08
   28.26000     -8.3234077E-08
   28.32000     -7.9946282E-08
   28.38000     -7.6209417E-08
   28.44000     -7.2062825E-08
   28.50000     -6.7595579E-08
   28.56000     -6.2916946E-08
   28.62000     -5.8121774E-08
   28.68000     -5.3262788E-08
   28.74000     -4.8339256E-08
   28.80000     -4.3305757E-08
   28.86000     -3.8097639E-08
   28.92000     -3.2663984E-08
   28.98000     -2.6996638E-08
   29.04000     -2.1145564E-08
   29.10000     -1.5215868E-08
   29.16000     -9.3481090E-09
   29.22000     -3.6886800E-09
   29.28000      1.6401902E-09
   29.34000      6.5616925E-09
   29.40000      1.1050923E-08
   29.46000      1.5125234E-08
   29.52000      1.8822073E-08
   29.58000      2.2171784E-08
   29.64000      2.5174531E-08
   29.70000      2.7789287E-08
   29.76000      2.9938938E-08
   29.82000      3.1529996E-08
   29.88000      3.2480202E-08
   29.94000      3.2744353E-08
   30.00000      3.2329268E-08
   30.06000      3.1292863E-08
   30.12000      2.9728133E-08
   30.18000      2.7738212E-08
   30.24000      2.5411351E-08
   30.30000      2.2803846E-08
   30.36000      1.9935495E-08
   30.42000      1.6797348E-08
   30.48000      1.3367765E-08
   30.54000      9.6307229E-09
   30.60000      5.5906235E-09
   30.66000      1.2795629E-09
   30.72000     -3.2443865E-09
   30.78000     -7.9068272E-09
   30.84000     -1.2631515E-08
   30.90000     -1.7355324E-08
   30.96000     -2.2039247E-08
   31.02000     -2.6672106E-08
   31.08000     -3.1265852E-08
   31.14000     -3.5843971E-08
   31.20000     -4.0426755E-08
   31.26000     -4.5018172E-08
   31.32000     -4.9598480E-08
   31.38000     -5.4124762E-08
   31.44000     -5.8538930E-08
   31.50000     -6.2780451E-08
   31.56000     -6.6799522E-08
   31.62000     -7.0566436E-08
   31.68000     -7.4073895E-08
   31.74000     -7.7331642E-08
   31.80000     -8.0355143E-08
   31.86000     -8.3152443E-08
   31.92000     -8.5714071E-08
   31.98000     -8.8009791E-08
   32.04000     -8.9993364E-08
   32.10000     -9.1613238E-08
   32.16000     -9.2824749E-08
   32.22000     -9.3599304E-08
   32.28000     -9.3927810E-08
   32.34000     -9.3818599E-08
   32.40000     -9.3292755E-08
   32.46000     -9.2380134E-08
   32.52000     -9.1118338E-08
   32.58000     -8.9554376E-08
   32.64000     -8.7746763E-08
   32.70000     -8.5765237E-08
   32.76000     -8.3686345E-08
   32.82000     -8.1585135E-08
   32.88000     -7.9524916E-08
   32.94000     -7.7547973E-08
   33.00000     -7.5669931E-08
   33.06000     -7.3879676E-08
   33.12000     -7.2145227E-08
   33.18000     -7.0424839E-08
   33.24000     -6.8680791E-08
   33.30000     -6.6892426E-08
   33.36000     -6.5064199E-08
   33.42000     -6.3225599E-08
   33.48000     -6.1421957E-08
   33.54000     -5.9698451E-08
   33.60000     -5.8082342E-08
   33.66000     -5.6569728E-08
   33.72000     -5.5121820E-08
   33.78000     -5.3672490E-08
   33.84000     -5.2144799E-08
   33.90000     -5.0471087E-08
   33.96000     -4.8610207E-08
   34.02000     -4.6556696E-08
   34.08000     -4.4339856E-08
   34.14000     -4.2013916E-08
   34.20000     -3.9643169E-08
   34.26000     -3.7286910E-08
   34.32000     -3.4988300E-08
   34.38000     -3.2769464E-08
   34.44000     -3.0632847E-08
   34.50000     -2.8567211E-08
   34.56000     -2.6555583E-08
   34.62000     -2.4582715E-08
   34.68000     -2.2640087E-08
   34.74000     -2.0727690E-08
   34.80000     -1.8852649E-08
   34.86000     -1.7025693E-08
   34.92000     -1.5257051E-08
   34.98000     -1.3553661E-08
   35.04000     -1.1919269E-08
   35.10000     -1.0357860E-08
   35.16000     -8.8793710E-09
   35.22000     -7.5050384E-09
   35.28000     -6.2693108E-09
   35.34000     -5.2162545E-09
   35.40000     -4.3906958E-09
   35.46000     -3.8269281E-09
   35.52000     -3.5392482E-09
   35.58000     -3.5180323E-09
   35.64000     -3.7327861E-09
   35.70000     -4.1407362E-09
   35.76000     -4.6976294E-09
   35.82000     -5.3672471E-09
   35.88000     -6.1274892E-09
   35.94000     -6.9725754E-09
   36.00000     -7.9119404E-09
   36.06000     -8.9664285E-09
   36.12000     -1.0162087E-08
   36.18000     -1.1522070E-08
   36.24000     -1.3058212E-08
   36.30000     -1.4765094E-08
   36.36000     -1.6619571E-08
   36.42000     -1.8587130E-08
   36.48000     -2.0633282E-08
   36.54000     -2.2735337E-08
   36.60000     -2.4889049E-08
   36.66000     -2.7106569E-08
   36.72000     -2.9406435E-08
   36.78000     -3.1800205E-08
   36.84000     -3.4282237E-08
   36.90000     -3.6827519E-08
   36.96000     -3.9398472E-08
   37.02000     -4.1957456E-08
   37.08000     -4.4479144E-08
   37.14000     -4.6957400E-08
   37.20000     -4.9403994E-08
   37.26000     -5.1840090E-08
   37.32000     -5.4284037E-08
   37.38000     -5.6740205E-08
   37.44000     -5.9192669E-08
   37.50000     -6.1605839E-08
   37.56000     -6.3931800E-08
   37.62000     -6.6121878E-08
   37.68000     -6.8138966E-08
   37.74000     -6.9966269E-08
   37.80000     -7.1609513E-08
   37.86000     -7.3091577E-08
   37.92000     -7.4441125E-08
   37.98000     -7.5678940E-08
   38.04000     -7.6806955E-08
   38.10000     -7.7803627E-08
   38.16000     -7.8627622E-08
   38.22000     -7.9228897E-08
   38.28000     -7.9563769E-08
   38.34000     -7.9609748E-08
   38.40000     -7.9375361E-08
   38.46000     -7.8901856E-08
   38.52000     -7.8255461E-08
   38.58000     -7.7511729E-08
   38.64000     -7.6736065E-08
   38.70000     -7.5966241E-08
   38.76000     -7.5202507E-08
   38.82000     -7.4408817E-08
   38.88000     -7.3524923E-08
   38.94000     -7.2485250E-08
   39.00000     -7.1238055E-08
   39.06000     -6.9758777E-08
   39.12000     -6.8054078E-08
   39.18000     -6.6156943E-08
   39.24000     -6.4116051E-08
   39.30000     -6.1984039E-08
   39.36000     -5.9808151E-08
   39.42000     -5.7625172E-08
   39.48000     -5.5460315E-08
   39.54000     -5.3329302E-08
   39.60000     -5.1242317E-08
   39.66000     -4.9208790E-08
   39.72000     -4.7241862E-08
   39.78000     -4.5360942E-08
   39.84000     -4.3591129E-08
   39.90000     -4.1958721E-08
   39.96000     -4.0483904E-08
   40.02000     -3.9173052E-08
   40.08000     -3.8013866E-08
   40.14000     -3.6975877E-08
   40.20000     -3.6016957E-08
   40.26000     -3.5094182E-08
   40.32000     -3.4175599E-08
   40.38000     -3.3249027E-08
   40.44000     -3.2324980E-08
   40.50000     -3.1432652E-08
   40.56000     -3.0610071E-08
   40.62000     -2.9891481E-08
   40.68000     -2.9295773E-08
   40.74000     -2.8819560E-08
   40.80000     -2.8437167E-08
   40.86000     -2.8107564E-08
   40.92000     -2.7786104E-08
   40.98000     -2.7437423E-08
   41.04000     -2.7045404E-08
   41.10000     -2.6617176E-08
   41.16000     -2.6179888E-08
   41.22000     -2.5771300E-08
   41.28000     -2.5427015E-08
   41.34000     -2.5168323E-08
   41.40000     -2.4994634E-08
   41.46000     -2.4883427E-08
   41.52000     -2.4798485E-08
   41.58000     -2.4704432E-08
   41.64000     -2.4582945E-08
   41.70000     -2.4444681E-08
   41.76000     -2.4331731E-08
   41.82000     -2.4308582E-08
   41.88000     -2.4443887E-08
   41.94000     -2.4789298E-08
   42.00000     -2.5362963E-08
   42.06000     -2.6143654E-08
   42.12000     -2.7077187E-08
   42.18000     -2.8092160E-08
   42.24000     -2.9118929E-08
   42.30000     -3.0105465E-08
   42.36000     -3.1025934E-08
   42.42000     -3.1881129E-08
   42.48000     -3.2692370E-08
   42.54000     -3.3491840E-08
   42.60000     -3.4311995E-08
   42.66000     -3.5176306E-08
   42.72000     -3.6092846E-08
   42.78000     -3.7052267E-08
   42.84000     -3.8030841E-08
   42.90000     -3.8998280E-08
   42.96000     -3.9928118E-08
   43.02000     -4.0807112E-08
   43.08000     -4.1640121E-08
   43.14000     -4.2448189E-08
   43.20000     -4.3260563E-08
   43.26000     -4.4103537E-08
   43.32000     -4.4990475E-08
   43.38000     -4.5916600E-08
   43.44000     -4.6860148E-08
   43.50000     -4.7789126E-08
   43.56000     -4.8671122E-08
   43.62000     -4.9482839E-08
   43.68000     -5.0216691E-08
   43.74000     -5.0882665E-08
   43.80000     -5.1505189E-08
   43.86000     -5.2115990E-08
   43.92000     -5.2744863E-08
   43.98000     -5.3410961E-08
   44.04000     -5.4116978E-08
   44.10000     -5.4847625E-08
   44.16000     -5.5572510E-08
   44.22000     -5.6252045E-08
   44.28000     -5.6844339E-08
   44.34000     -5.7311219E-08
   44.40000     -5.7622461E-08
   44.46000     -5.7758228E-08
   44.52000     -5.7710420E-08
   44.58000     -5.7483309E-08
   44.64000     -5.7093423E-08
   44.70000     -5.6567938E-08
   44.76000     -5.5941062E-08
   44.82000     -5.5248403E-08
   44.88000     -5.4520410E-08
   44.94000     -5.3776574E-08
   45.00000     -5.3022255E-08
   45.06000     -5.2249217E-08
   45.12000     -5.1439784E-08
   45.18000     -5.0573391E-08
   45.24000     -4.9633400E-08
   45.30000     -4.8612101E-08
   45.36000     -4.7512497E-08
   45.42000     -4.6346699E-08
   45.48000     -4.5132083E-08
   45.54000     -4.3886978E-08
   45.60000     -4.2627757E-08
   45.66000     -4.1367997E-08
   45.72000     -4.0119293E-08
   45.78000     -3.8892249E-08
   45.84000     -3.7696189E-08
   45.90000     -3.6537084E-08
   45.96000     -3.5414573E-08
   46.02000     -3.4319868E-08
   46.08000     -3.3236290E-08
   46.14000     -3.2143017E-08
   46.20000     -3.1020985E-08
   46.26000     -2.9858864E-08
   46.32000     -2.8656865E-08
   46.38000     -2.7427175E-08
   46.44000     -2.6191357E-08
   46.50000     -2.4976041E-08
   46.56000     -2.3808644E-08
   46.62000     -2.2714220E-08
   46.68000     -2.1713712E-08
   46.74000     -2.0823141E-08
   46.80000     -2.0053122E-08
   46.86000     -1.9408409E-08
   46.92000     -1.8887672E-08
   46.98000     -1.8483922E-08
   47.04000     -1.8185972E-08
   47.10000     -1.7980762E-08
   47.16000     -1.7855884E-08
   47.22000     -1.7801352E-08
   47.28000     -1.7809834E-08
   47.34000     -1.7875349E-08
   47.40000     -1.7991320E-08
   47.46000     -1.8149469E-08
   47.52000     -1.8340920E-08
   47.58000     -1.8559671E-08
   47.64000     -1.8807190E-08
   47.70000     -1.9095742E-08
   47.76000     -1.9448265E-08
   47.82000     -1.9894070E-08
   47.88000     -2.0461808E-08
   47.94000     -2.1172594E-08
   48.00000     -2.2036099E-08
   48.06000     -2.3050601E-08
   48.12000     -2.4205706E-08
   48.18000     -2.5485191E-08
   48.24000     -2.6868046E-08
   48.30000     -2.8327976E-08
   48.36000     -2.9833888E-08
   48.42000     -3.1354212E-08
   48.48000     -3.2866030E-08
   48.54000     -3.4366320E-08
   48.60000     -3.5880095E-08
   48.66000     -3.7459980E-08
   48.72000     -3.9175170E-08
   48.78000     -4.1092740E-08
   48.84000     -4.3258474E-08
   48.90000     -4.5685656E-08
   48.96000     -4.8357489E-08
   49.02000     -5.1243671E-08
   49.08000     -5.4326122E-08
   49.14000     -5.7625797E-08
   49.20000     -6.1222565E-08
   49.26000     -6.5263045E-08
   49.32000     -6.9955732E-08
   49.38000     -7.5556628E-08
   49.44000     -8.2351228E-08
   49.50000     -9.0639311E-08
   49.56000     -1.0072767E-07
   49.62000     -1.1293351E-07
   49.68000     -1.2759820E-07
   49.74000     -1.4510847E-07
   49.80000     -1.6592062E-07
   49.86000     -1.9058272E-07
   49.92000     -2.1975193E-07
   49.98000     -2.5420491E-07
   50.04000     -2.9484269E-07
   50.10000     -3.4269178E-07
   50.16000     -3.9890440E-07
   50.22000     -4.6476157E-07
   50.28000     -5.4168129E-07
   50.34000     -6.3123497E-07
   50.40000     -7.3517231E-07
   50.46000     -8.5545480E-07
   50.52000     -9.9429417E-07
   50.58000     -1.1541919E-06
   50.64000     -1.3379758E-06
   50.70000     -1.5488306E-06
   50.76000     -1.7903219E-06
   50.82000     -2.0664186E-06
   50.88000     -2.3815146E-06
   50.94000     -2.7404558E-06
   51.00000     -3.1485740E-06
   51.06000     -3.6117272E-06
   51.12000     -4.1363433E-06
   51.18000     -4.7294639E-06
   51.24000     -5.3987897E-06
   51.30000     -6.1527112E-06
   51.36000     -7.0003366E-06
   51.42000     -7.9515112E-06
   51.48000     -9.0168314E-06
   51.54000     -1.0207658E-05
   51.60000     -1.1536138E-05
   51.66000     -1.3015227E-05
   51.72000     -1.4658717E-05
   51.78000     -1.6481261E-05
   51.84000     -1.8498387E-05
   51.90000     -2.0726489E-05
   51.96000     -2.3182805E-05
   52.02000     -2.5885376E-05
   52.08000     -2.8852995E-05
   52.14000     -3.2105141E-05
   52.20000     -3.5661928E-05
   52.26000     -3.9544004E-05
   52.32000     -4.3772514E-05
   52.38000     -4.8369006E-05
   52.44000     -5.3355325E-05
   52.50000     -5.8753529E-05
   52.56000     -6.4585751E-05
   52.62000     -7.0874063E-05
   52.68000     -7.7640325E-05
   52.74000     -8.4905994E-05
   52.80000     -9.2691938E-05
   52.86000     -1.0101824E-04
   52.92000     -1.0990399E-04
   52.98000     -1.1936711E-04
   53.04000     -1.2942408E-04
   53.10000     -1.4008982E-04
   53.16000     -1.5137746E-04
   53.22000     -1.6329814E-04
   53.28000     -1.7586080E-04
   53.34000     -1.8907191E-04
   53.40000     -2.0293532E-04
   53.46000     -2.1745209E-04
   53.52000     -2.3262025E-04
   53.58000     -2.4843469E-04
   53.64000     -2.6488706E-04
   53.70000     -2.8196556E-04
   53.76000     -2.9965487E-04
   53.82000     -3.1793609E-04
   53.88000     -3.3678685E-04
   53.94000     -3.5618126E-04
   54.00000     -3.7608991E-04
   54.06000     -3.9647988E-04
   54.12000     -4.1731473E-04
   54.18000     -4.3855465E-04
   54.24000     -4.6015656E-04
   54.30000     -4.8207451E-04
   54.36000     -5.0425995E-04
   54.42000     -5.2666193E-04
   54.48000     -5.4922758E-04
   54.54000     -5.7190203E-04
   54.60000     -5.9462892E-04
   54.66000     -6.1735092E-04
   54.72000     -6.4000976E-04
   54.78000     -6.6254719E-04
   54.84000     -6.8490498E-04
   54.90000     -7.0702564E-04
   54.96000     -7.2885241E-04
   55.02000     -7.5033004E-04
   55.08000     -7.7140512E-04
   55.14000     -7.9202635E-04
   55.20000     -8.1214518E-04
   55.26000     -8.3171617E-04
   55.32000     -8.5069716E-04
   55.38000     -8.6905010E-04
   55.44000     -8.8674045E-04
   55.50000     -9.0373796E-04
   55.56000     -9.2001673E-04