 -0.750000000       0.00000000    
 -0.689999998       0.00000000    
 -0.629999995       0.00000000    
 -0.569999993       0.00000000    
 -0.509999990       0.00000000    
 -0.449999988      -1.13699760E-18
 -0.389999986      -8.31237437E-18
 -0.330000013      -2.97181576E-17
 -0.270000011      -6.53668428E-17
 -0.209999993      -8.55190007E-17
 -0.150000006      -2.09021096E-17
  -9.00000036E-02   2.01416732E-16
  -2.99999993E-02   5.69828922E-16
   2.99999993E-02   9.09712115E-16
   9.00000036E-02   9.32269449E-16
  0.150000006       4.81023870E-16
  0.209999993      -1.42198462E-16
  0.270000011      -1.15255879E-16
  0.330000013       1.33720806E-15
  0.389999986       3.77093986E-15
  0.449999988       4.48210703E-15
  0.509999990      -1.11796829E-15
  0.569999993      -1.67519231E-14
  0.629999995      -4.06988184E-14
  0.689999998      -6.20553210E-14
  0.750000000      -6.17126589E-14
  0.810000002      -2.06186302E-14
  0.870000005       6.63138977E-14
  0.930000007       1.77596111E-13
  0.990000010       2.63624273E-13
   1.04999995       2.63013705E-13
   1.11000001       1.34406687E-13
   1.16999996      -1.10122137E-13
   1.23000002      -3.90608444E-13
   1.28999996      -5.79810180E-13
   1.35000002      -5.58635657E-13
   1.40999997      -2.84600387E-13
   1.47000003       1.63031318E-13
   1.52999997       5.94342392E-13
   1.59000003       7.84993869E-13
   1.64999998       5.91178744E-13
   1.71000004       4.83990797E-14
   1.76999998      -6.04622689E-13
   1.83000004      -1.00753835E-12
   1.88999999      -8.45638284E-13
   1.95000005      -3.33090590E-14
   2.00999999       1.17816455E-12
   2.06999993       2.23956270E-12
   2.13000011       2.50081900E-12
   2.19000006       1.50305430E-12
   2.25000000      -7.52789541E-13
   2.30999994      -3.68637326E-12
   2.36999989      -6.24399100E-12
   2.43000007      -7.21796711E-12
   2.49000001      -5.67526234E-12
   2.54999995      -1.33698738E-12
   2.60999990       5.23886099E-12
   2.67000008       1.27440896E-11
   2.73000002       1.94397554E-11
   2.78999996       2.35766493E-11
   2.84999990       2.37508156E-11
   2.91000009       1.90758763E-11
   2.97000003       9.16681314E-12
   3.02999997      -5.94511506E-12
   3.08999991      -2.57776248E-11
   3.15000010      -4.90925495E-11
   3.21000004      -7.33233682E-11
   3.26999998      -9.39535186E-11
   3.32999992      -1.04249734E-10
   3.39000010      -9.58100058E-11
   3.45000005      -6.02497080E-11
   3.50999999       7.96684940E-12
   3.56999993       1.07948643E-10
   3.63000011       2.28814162E-10
   3.69000006       3.47082973E-10
   3.75000000       4.25889296E-10
   3.80999994       4.16565282E-10
   3.86999989       2.62669858E-10
   3.93000007      -9.39505695E-11
   3.99000001      -7.05867698E-10
   4.05000019      -1.61254954E-09
   4.11000013      -2.83364532E-09
   4.17000008      -4.36399983E-09
   4.23000002      -6.17113205E-09
   4.28999996      -8.19568058E-09
   4.34999990      -1.03550368E-08
   4.40999985      -1.25500677E-08
   4.46999979      -1.46744208E-08
   4.53000021      -1.66254761E-08
   4.59000015      -1.83156050E-08
   4.65000010      -1.96821350E-08
   4.71000004      -2.06943991E-08
   4.76999998      -2.13566196E-08
   4.82999992      -2.17059544E-08
   4.88999987      -2.18059721E-08
   4.94999981      -2.17367493E-08
   5.01000023      -2.15834408E-08
   5.07000017      -2.14255991E-08
   5.13000011      -2.13291784E-08
   5.19000006      -2.13424105E-08
   5.25000000      -2.14956728E-08
   5.30999994      -2.18043361E-08
   5.36999989      -2.22728609E-08
   5.42999983      -2.28983055E-08
   5.48999977      -2.36719053E-08
   5.55000019      -2.45784531E-08
   5.61000013      -2.55941774E-08
   5.67000008      -2.66846865E-08
   5.73000002      -2.78046439E-08
   5.78999996      -2.89004234E-08
   5.84999990      -2.99159701E-08
   5.90999985      -3.08010613E-08
   5.96999979      -3.15201731E-08
   6.03000021      -3.20598446E-08
   6.09000015      -3.24324994E-08
   6.15000010      -3.26754943E-08
   6.21000004      -3.28452288E-08
   6.26999998      -3.30071508E-08
   6.32999992      -3.32235857E-08
   6.38999987      -3.35416281E-08
   6.44999981      -3.39835324E-08
   6.51000023      -3.45413724E-08
   6.57000017      -3.51770488E-08
   6.63000011      -3.58276182E-08
   6.69000006      -3.64151305E-08
   6.75000000      -3.68592019E-08
   6.80999994      -3.70903237E-08
   6.86999989      -3.70615574E-08
   6.92999983      -3.67566528E-08
   6.98999977      -3.61929970E-08
   7.05000019      -3.54187542E-08
   7.11000013      -3.45044882E-08
   7.17000008      -3.35307071E-08
   7.23000002      -3.25735314E-08
   7.28999996      -3.16912434E-08
   7.34999990      -3.09142294E-08
   7.40999985      -3.02403649E-08
   7.46999979      -2.96366842E-08
   7.53000021      -2.90471291E-08
   7.59000015      -2.84048056E-08
   7.65000010      -2.76464238E-08
   7.71000004      -2.67259548E-08
   7.76999998      -2.56245531E-08
   7.82999992      -2.43545344E-08
   7.88999987      -2.29563089E-08
   7.94999981      -2.14889777E-08
   8.01000023      -2.00168504E-08
   8.06999969      -1.85952871E-08
   8.13000011      -1.72594863E-08
   8.18999958      -1.60188858E-08
   8.25000000      -1.48582018E-08
   8.31000042      -1.37441827E-08
   8.36999989      -1.26356996E-08
   8.43000031      -1.14941159E-08
   8.48999977      -1.02912665E-08
   8.55000019      -9.01339803E-09
   8.60999966      -7.66075114E-09
   8.67000008      -6.24361540E-09
   8.72999954      -4.77640549E-09
   8.78999996      -3.27153571E-09
   8.85000038      -1.73462333E-09
   8.90999985      -1.62033414E-10
   8.97000027       1.45891099E-09
   9.02999973       3.14733750E-09
   9.09000015       4.92457541E-09
   9.14999962       6.80914169E-09
   9.21000004       8.81182505E-09
   9.27000046       1.09316032E-08
   9.32999992       1.31531159E-08
   9.39000034       1.54463589E-08
   9.44999981       1.77691835E-08
   9.51000023       2.00727666E-08
   9.56999969       2.23093917E-08
   9.63000011       2.44409879E-08
   9.68999958       2.64461235E-08
   9.75000000       2.83232193E-08
   9.81000042       3.00886533E-08
   9.86999989       3.17699467E-08
   9.93000031       3.33959420E-08
   9.98999977       3.49867264E-08
   10.0500002       3.65463606E-08
   10.1099997       3.80602785E-08
   10.1700001       3.94979622E-08
   10.2299995       4.08200158E-08
   10.2900000       4.19875370E-08
   10.3500004       4.29714220E-08
   10.4099998       4.37593322E-08
   10.4700003       4.43587815E-08
   10.5299997       4.47959181E-08
   10.5900002       4.51106246E-08
   10.6499996       4.53494771E-08
   10.7100000       4.55582878E-08
   10.7700005       4.57758134E-08
   10.8299999       4.60293492E-08
   10.8900003       4.63323317E-08
   10.9499998       4.66838337E-08
   11.0100002       4.70697863E-08
   11.0699997       4.74661235E-08
   11.1300001       4.78438800E-08
   11.1899996       4.81757176E-08
   11.2500000       4.84424874E-08
   11.3100004       4.86379257E-08
   11.3699999       4.87697669E-08
   11.4300003       4.88567373E-08
   11.4899998       4.89224696E-08
   11.5500002       4.89885572E-08
   11.6099997       4.90690439E-08
   11.6700001       4.91678627E-08
   11.7299995       4.92792580E-08
   11.7900000       4.93902625E-08
   11.8500004       4.94839547E-08
   11.9099998       4.95426988E-08
   11.9700003       4.95511152E-08
   12.0299997       4.94988761E-08
   12.0900002       4.93829795E-08
   12.1499996       4.92088539E-08
   12.2100000       4.89894383E-08
   12.2700005       4.87420344E-08
   12.3299999       4.84836100E-08
   12.3900003       4.82261626E-08
   12.4499998       4.79737707E-08
   12.5100002       4.77222031E-08
   12.5699997       4.74607731E-08
   12.6300001       4.71752557E-08
   12.6899996       4.68503885E-08
   12.7500000       4.64713317E-08
   12.8100004       4.60243506E-08
   12.8699999       4.54976110E-08
   12.9300003       4.48828779E-08
   12.9899998       4.41780053E-08
   13.0500002       4.33891252E-08
   13.1099997       4.25310169E-08
   13.1700001       4.16245207E-08
   13.2299995       4.06912477E-08
   13.2900000       3.97470892E-08
   13.3500004       3.87970651E-08
   13.4099998       3.78337575E-08
   13.4700003       3.68402375E-08
   13.5299997       3.57966456E-08
   13.5900002       3.46878721E-08
   13.6499996       3.35094157E-08
   13.7100000       3.22690035E-08
   13.7700005       3.09834860E-08
   13.8299999       2.96723215E-08
   13.8900003       2.83503763E-08
   13.9499998       2.70228728E-08
   14.0100002       2.56844093E-08
   14.0699997       2.43221638E-08
   14.1300001       2.29218067E-08
   14.1899996       2.14736833E-08
   14.2500000       1.99769019E-08
   14.3100004       1.84398772E-08
   14.3699999       1.68773546E-08
   14.4300003       1.53051261E-08
   14.4899998       1.37345095E-08
   14.5500002       1.21685257E-08
   14.6099997       1.06010338E-08
   14.6700001       9.01897934E-09
   14.7299995       7.40676054E-09
   14.7900000       5.75111514E-09
   14.8500004       4.04489153E-09
   14.9099998       2.28862418E-09
   14.9700003       4.89699170E-10
   15.0299997      -1.34036127E-09
   15.0900002      -3.18956372E-09
   15.1499996      -5.04910869E-09
   15.2100000      -6.91629776E-09
   15.2700005      -8.79612205E-09
   15.3299999      -1.07010782E-08
   15.3900003      -1.26488828E-08
   15.4499998      -1.46580854E-08
   15.5100002      -1.67421987E-08
   15.5699997      -1.89037106E-08
   15.6300001      -2.11298641E-08
   15.6899996      -2.33919657E-08
   15.7500000      -2.56492054E-08
   15.8100004      -2.78565118E-08
   15.8699999      -2.99745047E-08
   15.9300003      -3.19786473E-08
   15.9899998      -3.38645982E-08
   16.0499992      -3.56478509E-08
   16.1100006      -3.73573883E-08
   16.1700001      -3.90251671E-08
   16.2299995      -4.06747418E-08
   16.2900009      -4.23127631E-08
   16.3500004      -4.39262102E-08
   16.4099998      -4.54862139E-08
   16.4699993      -4.69569557E-08
   16.5300007      -4.83062159E-08
   16.5900002      -4.95138899E-08
   16.6499996      -5.05756041E-08
   16.7099991      -5.15009475E-08
   16.7700005      -5.23078079E-08
   16.8299999      -5.30154551E-08
   16.8899994      -5.36388640E-08
   16.9500008      -5.41856089E-08
   17.0100002      -5.46551675E-08
   17.0699997      -5.50399974E-08
   17.1299992      -5.53276180E-08
   17.1900005      -5.55035378E-08
   17.2500000      -5.55550805E-08
   17.3099995      -5.54756099E-08
   17.3700008      -5.52680568E-08
   17.4300003      -5.49459074E-08
   17.4899998      -5.45305241E-08
   17.5499992      -5.40450742E-08
   17.6100006      -5.35072360E-08
   17.6700001      -5.29239976E-08
   17.7299995      -5.22912700E-08
   17.7900009      -5.15990095E-08
   17.8500004      -5.08397697E-08
   17.9099998      -5.00166912E-08
   17.9699993      -4.91469798E-08
   18.0300007      -4.82588867E-08
   18.0900002      -4.73833559E-08
   18.1499996      -4.65440735E-08
   18.2099991      -4.57504434E-08
   18.2700005      -4.49964759E-08
   18.3299999      -4.42656756E-08
   18.3899994      -4.35391101E-08
   18.4500008      -4.28026681E-08
   18.5100002      -4.20503063E-08
   18.5699997      -4.12827781E-08
   18.6299992      -4.05037710E-08
   18.6900005      -3.97167668E-08
   18.7500000      -3.89247994E-08
   18.8099995      -3.81329777E-08
   18.8700008      -3.73512492E-08
   18.9300003      -3.65942974E-08
   18.9899998      -3.58769370E-08
   19.0499992      -3.52065896E-08
   19.1100006      -3.45767184E-08
   19.1700001      -3.39655450E-08
   19.2299995      -3.33418591E-08
   19.2900009      -3.26758069E-08
   19.3500004      -3.19495683E-08
   19.4099998      -3.11623758E-08
   19.4699993      -3.03272962E-08
   19.5300007      -2.94617521E-08
   19.5900002      -2.85771797E-08
   19.6499996      -2.76737175E-08
   19.7099991      -2.67427289E-08
   19.7700005      -2.57752273E-08
   19.8299999      -2.47706478E-08
   19.8899994      -2.37401601E-08
   19.9500008      -2.27019807E-08
   20.0100002      -2.16710667E-08
   20.0699997      -2.06492015E-08
   20.1299992      -1.96215897E-08
   20.1900005      -1.85625897E-08
   20.2500000      -1.74480981E-08
   20.3099995      -1.62682472E-08
   20.3700008      -1.50337769E-08
   20.4300003      -1.37727714E-08
   20.4899998      -1.25194548E-08
   20.5499992      -1.13007435E-08
   20.6100006      -1.01270450E-08
   20.6700001      -8.99107100E-09
   20.7299995      -7.87413690E-09
   20.7900009      -6.75572753E-09
   20.8500004      -5.62122127E-09
   20.9099998      -4.46461002E-09
   20.9699993      -3.28645933E-09
   21.0300007      -2.09007989E-09
   21.0900002      -8.79318451E-10
   21.1499996       3.40481504E-10
   21.2099991       1.55957169E-09
   21.2700005       2.76197198E-09
   21.3299999       3.92733268E-09
   21.3899994       5.03668884E-09
   21.4500008       6.07944139E-09
   21.5100002       7.05744041E-09
   21.5699997       7.98309152E-09
   21.6299992       8.87157370E-09
   21.6900005       9.73073977E-09
   21.7500000       1.05540963E-08
   21.8099995       1.13211547E-08
   21.8700008       1.20058523E-08
   21.9300003       1.25894761E-08
   21.9899998       1.30718973E-08
   22.0499992       1.34754128E-08
   22.1100006       1.38388678E-08
   22.1700001       1.42043826E-08
   22.2299995       1.46024410E-08
   22.2900009       1.50416870E-08
   22.3500004       1.55073590E-08
   22.4099998       1.59682028E-08
   22.4699993       1.63881602E-08
   22.5300007       1.67377951E-08
   22.5900002       1.70015522E-08
   22.6499996       1.71795413E-08
   22.7099991       1.72850498E-08
   22.7700005       1.73398611E-08
   22.8299999       1.73691159E-08
   22.8899994       1.73961929E-08
   22.9500008       1.74375785E-08
   23.0100002       1.74981558E-08
   23.0699997       1.75683805E-08
   23.1299992       1.76253714E-08
   23.1900005       1.76390706E-08
   23.2500000       1.75824386E-08
   23.3099995       1.74423658E-08
   23.3700008       1.72268777E-08
   23.4300003       1.69653411E-08
   23.4899998       1.67011205E-08
   23.5499992       1.64793423E-08
   23.6100006       1.63342673E-08
   23.6700001       1.62806373E-08
   23.7299995       1.63113842E-08
   23.7900009       1.64015415E-08
   23.8500004       1.65163385E-08
   23.9099998       1.66207172E-08
   23.9699993       1.66877872E-08
   24.0300007       1.67044885E-08
   24.0900002       1.66733702E-08
   24.1499996       1.66101017E-08
   24.2099991       1.65372267E-08
   24.2700005       1.64757576E-08
   24.3299999       1.64372107E-08
   24.3899994       1.64187828E-08
   24.4500008       1.64033747E-08
   24.5100002       1.63643517E-08
   24.5699997       1.62730984E-08
   24.6299992       1.61065365E-08
   24.6900005       1.58522919E-08
   24.7500000       1.55104765E-08
   24.8099995       1.50925299E-08
   24.8700008       1.46182302E-08
   24.9300003       1.41119276E-08
   24.9899998       1.35985401E-08
   25.0499992       1.30996431E-08
   25.1100006       1.26301067E-08
   25.1700001       1.21960424E-08
   25.2299995       1.17948087E-08
   25.2900009       1.14171970E-08
   25.3500004       1.10510214E-08
   25.4099998       1.06847935E-08
   25.4699993       1.03102495E-08
   25.5300007       9.92331994E-09
   25.5900002       9.52398871E-09
   25.6499996       9.11587517E-09
   25.7099991       8.70598793E-09
   25.7700005       8.30443092E-09
   25.8299999       7.92334820E-09
   25.8899994       7.57460761E-09
   25.9500008       7.26648564E-09
   26.0100002       7.00043179E-09
   26.0699997       6.76936329E-09
   26.1299992       6.55855814E-09
   26.1900005       6.34938235E-09
   26.2500000       6.12509599E-09
   26.3099995       5.87720983E-09
   26.3700008       5.61048763E-09
   26.4300003       5.34470956E-09
   26.4899998       5.11188469E-09
   26.5499992       4.94877384E-09
   26.6100006       4.88621676E-09
   26.6700001       4.93832486E-09
   26.7299995       5.09528064E-09
   26.7900009       5.32264632E-09
   26.8500004       5.56779112E-09
   26.9099998       5.77122172E-09
   26.9699993       5.87860605E-09
   27.0300007       5.84920024E-09
   27.0900002       5.65823566E-09
   27.1499996       5.29361621E-09
   27.2099991       4.74946971E-09
   27.2700005       4.01971656E-09
   27.3299999       3.09383674E-09
   27.3899994       1.95534300E-09
   27.4500008       5.82321413E-10
   27.5100002      -1.05074349E-09
   27.5699997      -2.97005354E-09
   27.6299992      -5.19823606E-09
   27.6900005      -7.74881315E-09
   27.7500000      -1.06204272E-08
   27.8099995      -1.37927394E-08
   27.8700008      -1.72258083E-08
   27.9300003      -2.08634710E-08
   27.9899998      -2.46394851E-08
   28.0499992      -2.84838340E-08
   28.1100006      -3.23268843E-08
   28.1700001      -3.61004808E-08
   28.2299995      -3.97372659E-08
   28.2900009      -4.31707470E-08
   28.3500004      -4.63384566E-08
   28.4099998      -4.91889516E-08
   28.4699993      -5.16910319E-08
   28.5300007      -5.38419727E-08
   28.5900002      -5.56714213E-08
   28.6499996      -5.72389531E-08
   28.7099991      -5.86255453E-08
   28.7700005      -5.99212839E-08
   28.8299999      -6.12127309E-08
   28.8899994      -6.25728447E-08
   28.9500008      -6.40551789E-08
   29.0100002      -6.56921557E-08
   29.0699997      -6.74960887E-08
   29.1299992      -6.94613931E-08
   29.1900005      -7.15669870E-08
   29.2500000      -7.37788000E-08
   29.3099995      -7.60528422E-08
   29.3700008      -7.83390703E-08
   29.4300003      -8.05858633E-08
   29.4899998      -8.27440587E-08
   29.5499992      -8.47696029E-08
   29.6100006      -8.66244605E-08
   29.6700001      -8.82764652E-08
   29.7299995      -8.96991281E-08
   29.7900009      -9.08723123E-08
   29.8500004      -9.17833916E-08
   29.9099998      -9.24276051E-08
   29.9699993      -9.28057631E-08
   30.0300007      -9.29188460E-08
   30.0900002      -9.27603807E-08
   30.1499996      -9.23097545E-08
   30.2099991      -9.15295786E-08
   30.2700005      -9.03696176E-08
   30.3299999      -8.87769787E-08
   30.3899994      -8.67101093E-08
   30.4500008      -8.41526315E-08
   30.5100002      -8.11232255E-08
   30.5699997      -7.76791467E-08
   30.6299992      -7.39128581E-08
   30.6900005      -6.99427147E-08
   30.7500000      -6.58993642E-08
   30.8099995      -6.19100291E-08
   30.8700008      -5.80828043E-08
   30.9300003      -5.44935936E-08
   30.9899998      -5.11783895E-08
   31.0499992      -4.81329856E-08
   31.1100006      -4.53208848E-08
   31.1700001      -4.26877378E-08
   31.2299995      -4.01788185E-08
   31.2900009      -3.77546989E-08
   31.3500004      -3.54011256E-08
   31.4099998      -3.31308740E-08
   31.4699993      -3.09782493E-08
   31.5300007      -2.89889623E-08
   31.5900002      -2.72091061E-08
   31.6499996      -2.56763499E-08
   31.7099991      -2.44150709E-08
   31.7700005      -2.34353283E-08
   31.8299999      -2.27345733E-08
   31.8899994      -2.23005809E-08
   31.9500008      -2.21145822E-08
   32.0099983      -2.21540191E-08
   32.0699997      -2.23948877E-08
   32.1300011      -2.28135981E-08
   32.1899986      -2.33881359E-08
   32.2500000      -2.40982416E-08
   32.3100014      -2.49244749E-08
   32.3699989      -2.58465711E-08
   32.4300003      -2.68420592E-08
   32.4900017      -2.78863084E-08
   32.5499992      -2.89546787E-08
   32.6100006      -3.00264560E-08
   32.6699982      -3.10890194E-08
   32.7299995      -3.21401501E-08
   32.7900009      -3.31868790E-08
   32.8499985      -3.42407702E-08
   32.9099998      -3.53114302E-08
   32.9700012      -3.64011647E-08
   33.0299988      -3.75032521E-08
   33.0900002      -3.86045613E-08
   33.1500015      -3.96907573E-08
   33.2099991      -4.07509688E-08
   33.2700005      -4.17789181E-08
   33.3300018      -4.27696385E-08
   33.3899994      -4.37136300E-08
   33.4500008      -4.45918253E-08
   33.5099983      -4.53746587E-08
   33.5699997      -4.60260949E-08
   33.6300011      -4.65110332E-08
   33.6899986      -4.68027430E-08
   33.7500000      -4.68873118E-08
   33.8100014      -4.67641499E-08
   33.8699989      -4.64436383E-08
   33.9300003      -4.59442688E-08
   33.9900017      -4.52908893E-08
   34.0499992      -4.45141950E-08
   34.1100006      -4.36501360E-08
   34.1699982      -4.27378559E-08
   34.2299995      -4.18158699E-08
   34.2900009      -4.09174703E-08
   34.3499985      -4.00672135E-08
   34.4099998      -3.92794526E-08
   34.4700012      -3.85585714E-08
   34.5299988      -3.78995360E-08
   34.5900002      -3.72876272E-08
   34.6500015      -3.66975392E-08
   34.7099991      -3.60937875E-08
   34.7700005      -3.54346987E-08
   34.8300018      -3.46810651E-08
   34.8899994      -3.38079325E-08
   34.9500008      -3.28156027E-08
   35.0099983      -3.17351265E-08
   35.0699997      -3.06250350E-08
   35.1300011      -2.95591764E-08
   35.1899986      -2.86091151E-08
   35.2500000      -2.78264380E-08
   35.3100014      -2.72304455E-08
   35.3699989      -2.68045710E-08
   35.4300003      -2.65017714E-08
   35.4900017      -2.62564264E-08
   35.5499992      -2.59987178E-08
   35.6100006      -2.56675321E-08
   35.6699982      -2.52193200E-08
   35.7299995      -2.46320990E-08
   35.7900009      -2.39054625E-08
   35.8499985      -2.30579946E-08
   35.9099998      -2.21234338E-08
   35.9700012      -2.11461000E-08
   36.0299988      -2.01755199E-08
   36.0900002      -1.92600815E-08
   36.1500015      -1.84402058E-08
   36.2099991      -1.77422024E-08
   36.2700005      -1.71744183E-08
   36.3300018      -1.67267551E-08
   36.3899994      -1.63734537E-08
   36.4500008      -1.60778981E-08
   36.5099983      -1.57978182E-08
   36.5699997      -1.54898387E-08
   36.6300011      -1.51136259E-08
   36.6899986      -1.46366617E-08
   36.7500000      -1.40403307E-08
   36.8100014      -1.33263933E-08
   36.8699989      -1.25212098E-08
   36.9300003      -1.16743859E-08
   36.9900017      -1.08499654E-08
   37.0499992      -1.01113233E-08
   37.1100006      -9.50423384E-09
   37.1699982      -9.04416364E-09
   37.2299995      -8.71272920E-09
   37.2900009      -8.46480308E-09
   37.3499985      -8.24361379E-09
   37.4099998      -7.99834865E-09
   37.4700012      -7.69842945E-09
   37.5299988      -7.34065253E-09
   37.5900002      -6.94837032E-09
   37.6500015      -6.56448362E-09
   37.7099991      -6.24113072E-09
   37.7700005      -6.02886452E-09
   37.8300018      -5.96732841E-09
   37.8899994      -6.07876594E-09
   37.9500008      -6.36524033E-09
   38.0099983      -6.81000456E-09
   38.0699997      -7.38270600E-09
   38.1300011      -8.04715228E-09
   38.1899986      -8.76955664E-09
   38.2500000      -9.52512558E-09
   38.3100014      -1.03015427E-08
   38.3699989      -1.10991056E-08
   38.4300003      -1.19282921E-08
   38.4900017      -1.28059554E-08
   38.5499992      -1.37511851E-08
   38.6100006      -1.47814552E-08
   38.6699982      -1.59094551E-08
   38.7299995      -1.71409305E-08
   38.7900009      -1.84739157E-08
   38.8499985      -1.98993781E-08
   38.9099998      -2.14029274E-08
   38.9700012      -2.29667609E-08
   39.0299988      -2.45711682E-08
   39.0900002      -2.61955417E-08
   39.1500015      -2.78195653E-08
   39.2099991      -2.94254665E-08
   39.2700005      -3.10015622E-08
   39.3300018      -3.25460157E-08
   39.3899994      -3.40686626E-08
   39.4500008      -3.55886876E-08
   39.5099983      -3.71274780E-08
   39.5699997      -3.86980474E-08
   39.6300011      -4.02946085E-08
   39.6899986      -4.18864410E-08
   39.7500000      -4.34191669E-08
   39.8100014      -4.48240911E-08
   39.8699989      -4.60332430E-08
   39.9300003      -4.69956696E-08
   39.9900017      -4.76897490E-08
   40.0499992      -4.81275109E-08
   40.1100006      -4.83492641E-08
   40.1699982      -4.84102856E-08
   40.2299995      -4.83638338E-08
   40.2900009      -4.82463243E-08
   40.3499985      -4.80696905E-08
   40.4099998      -4.78231712E-08
   40.4700012      -4.74832298E-08
   40.5299988      -4.70271679E-08
   40.5900002      -4.64448284E-08
   40.6500015      -4.57442226E-08
   40.7099991      -4.49496866E-08
   40.7700005      -4.40942856E-08
   40.8300018      -4.32099689E-08
   40.8899994      -4.23186890E-08
   40.9500008      -4.14267127E-08
   41.0099983      -4.05227638E-08
   41.0699997      -3.95801187E-08
   41.1300011      -3.85625825E-08
   41.1899986      -3.74338960E-08
   41.2500000      -3.61688990E-08
   41.3100014      -3.47630014E-08
   41.3699989      -3.32358425E-08
   41.4300003      -3.16260262E-08
   41.4900017      -2.99776310E-08
   41.5499992      -2.83233881E-08
   41.6100006      -2.66721987E-08
   41.6699982      -2.50076457E-08
   41.7299995      -2.32993553E-08
   41.7900009      -2.15227782E-08
   41.8499985      -1.96783922E-08
   41.9099998      -1.78011916E-08
   41.9700012      -1.59557842E-08
   42.0299988      -1.42191920E-08
   42.0900002      -1.26589956E-08
   42.1500015      -1.13159713E-08
   42.2099991      -1.01975148E-08
   42.2700005      -9.28263955E-09
   42.3300018      -8.53438475E-09
   42.3899994      -7.91332866E-09
   42.4500008      -7.38713890E-09
   42.5099983      -6.93433444E-09
   42.5699997      -6.54349064E-09
   42.6300011      -6.21050411E-09
   42.6899986      -5.93588290E-09
   42.7500000      -5.72252645E-09
   42.8100014      -5.57335333E-09
   42.8699989      -5.48831736E-09
   42.9300003      -5.46151258E-09
   42.9900017      -5.48017809E-09
   43.0499992      -5.52739010E-09
   43.1100006      -5.58871971E-09
   43.1699982      -5.66082514E-09
   43.2299995      -5.75812553E-09
   43.2900009      -5.91361315E-09
   43.3499985      -6.17190699E-09
   43.4099998      -6.57600507E-09
   43.4700012      -7.15231918E-09
   43.5299988      -7.89982479E-09
   43.5900002      -8.78777495E-09
   43.6500015      -9.76297798E-09
   43.7099991      -1.07637845E-08
   43.7700005      -1.17354713E-08
   43.8300018      -1.26417934E-08
   43.8899994      -1.34698155E-08
   43.9500008      -1.42282559E-08
   44.0099983      -1.49418149E-08
   44.0699997      -1.56442521E-08
   44.1300011      -1.63716596E-08
   44.1899986      -1.71558607E-08
   44.2500000      -1.80174098E-08
   44.3100014      -1.89588363E-08
   44.3699989      -1.99606625E-08
   44.4300003      -2.09835314E-08
   44.4900017      -2.19783391E-08
   44.5499992      -2.29026895E-08
   44.6100006      -2.37379592E-08
   44.6699982      -2.44993359E-08
   44.7299995      -2.52329890E-08
   44.7900009      -2.59997002E-08
   44.8499985      -2.68505804E-08
   44.9099998      -2.78046457E-08
   44.9700012      -2.88378050E-08
   45.0299988      -2.98880671E-08
   45.0900002      -3.08748618E-08
   45.1500015      -3.17245288E-08
   45.2099991      -3.23919807E-08
   45.2700005      -3.28711351E-08
   45.3300018      -3.31917853E-08
   45.3899994      -3.34062236E-08
   45.4500008      -3.35719257E-08
   45.5099983      -3.37365513E-08
   45.5699997      -3.39292363E-08
   45.6300011      -3.41590152E-08
   45.6899986      -3.44191022E-08
   45.7500000      -3.46945690E-08
   45.8100014      -3.49711193E-08
   45.8699989      -3.52425786E-08
   45.9300003      -3.55148764E-08
   45.9900017      -3.58048773E-08
   46.0499992      -3.61333719E-08
   46.1100006      -3.65140060E-08
   46.1699982      -3.69418061E-08
   46.2299995      -3.73863891E-08
   46.2900009      -3.77938605E-08
   46.3499985      -3.80984311E-08
   46.4099998      -3.82408700E-08
   46.4700012      -3.81877037E-08
   46.5299988      -3.79441651E-08
   46.5900002      -3.75558393E-08
   46.6500015      -3.70977986E-08
   46.7099991      -3.66543667E-08
   46.7700005      -3.62957273E-08
   46.8300018      -3.60584664E-08
   46.8899994      -3.59357166E-08
   46.9500008      -3.58794416E-08
   47.0099983      -3.58139083E-08
   47.0699997      -3.56563703E-08
   47.1300011      -3.53392657E-08
   47.1899986      -3.48281333E-08
   47.2500000      -3.41307640E-08
   47.3100014      -3.32954571E-08
   47.3699989      -3.23989191E-08
   47.4300003      -3.15268096E-08
   47.4900017      -3.07516146E-08
   47.5499992      -3.01132985E-08
   47.6100006      -2.96076621E-08
   47.6699982      -2.91858218E-08
   47.7299995      -2.87656459E-08
   47.7900009      -2.82527708E-08
   47.8499985      -2.75657630E-08
   47.9099998      -2.66581779E-08
   47.9700012      -2.55306158E-08
   48.0299988      -2.42285836E-08
   48.0900002      -2.28267147E-08
   48.1500015      -2.14044693E-08
   48.2099991      -2.00215649E-08
   48.2700005      -1.87014120E-08
   48.3300018      -1.74277606E-08
   48.3899994      -1.61550524E-08
   48.4500008      -1.48282036E-08
   48.5099983      -1.34046481E-08
   48.5699997      -1.18710304E-08
   48.6300011      -1.02490407E-08
   48.6899986      -8.58852278E-09
   48.7500000      -6.95020885E-09
   48.8100014      -5.38408651E-09
   48.8699989      -3.91133037E-09
   48.9300003      -2.51708321E-09
   48.9900017      -1.15782439E-09
   49.0499992       2.18513027E-10
   49.1100006       1.64712843E-09
   49.1699982       3.12615778E-09
   49.2299995       4.61091521E-09
   49.2900009       6.02617245E-09
   49.3499985       7.29241156E-09
   49.4099998       8.35572767E-09
   49.4700012       9.20919963E-09
   49.5299988       9.89691973E-09
   49.5900002       1.04988214E-08
   49.6500015       1.11018679E-08
   49.7099991       1.17678809E-08
   49.7700005       1.25090320E-08
   49.8300018       1.32789362E-08
   49.8899994       1.39820759E-08
   49.9500008       1.44987791E-08
   50.0099983       1.47184291E-08
   50.0699997       1.45710422E-08
   50.1300011       1.40474175E-08
   50.1899986       1.32009905E-08
   50.2500000       1.21299015E-08
   50.3100014       1.09442357E-08
   50.3699989       9.72851222E-09
   50.4300003       8.51138005E-09
   50.4900017       7.25208027E-09
   50.5499992       5.84756688E-09
   50.6100006       4.15735180E-09