  -2.400000      0.0000000E+00
  -2.340000      0.0000000E+00
  -2.280000      0.0000000E+00
  -2.220000      0.0000000E+00
  -2.160000      0.0000000E+00
  -2.100000      8.9053582E-19
  -2.040000      7.3103220E-18
  -1.980000      3.0713401E-17
  -1.920000      8.5272554E-17
  -1.860000      1.6599171E-16
  -1.800000      2.0719978E-16
  -1.740000      4.7613270E-17
  -1.680000     -5.3530164E-16
  -1.620000     -1.6537523E-15
  -1.560000     -3.0113900E-15
  -1.500000     -3.6586068E-15
  -1.440000     -2.1407218E-15
  -1.380000      2.6747575E-15
  -1.320000      1.0230495E-14
  -1.260000      1.7197842E-14
  -1.200000      1.7967797E-14
  -1.140000      7.5729895E-15
  -1.080000     -1.3690739E-14
  -1.020000     -3.6765092E-14
 -0.9600000     -4.5274805E-14
 -0.9000000     -2.4033081E-14
 -0.8400000      2.7880757E-14
 -0.7800000      8.7240701E-14
 -0.7200000      1.0972080E-13
 -0.6600000      5.0909848E-14
 -0.6000000     -1.0063799E-13
 -0.5400000     -2.9608610E-13
 -0.4800000     -4.2680556E-13
 -0.4200000     -3.6529520E-13
 -0.3600000     -3.7251465E-14
 -0.3000000      5.0840240E-13
 -0.2400000      1.0754623E-12
 -0.1800000      1.3729123E-12
 -0.1200000      1.1385478E-12
 -5.9999999E-02  2.8603479E-13
  0.0000000E+00 -9.9754363E-13
  5.9999999E-02 -2.2667593E-12
  0.1200000     -2.9629981E-12
  0.1800000     -2.6449203E-12
  0.2400000     -1.2110101E-12
  0.3000000      9.8788913E-13
  0.3600000      3.2104016E-12
  0.4200000      4.5564420E-12
  0.4800000      4.2951649E-12
  0.5400000      2.1741912E-12
  0.6000000     -1.4024194E-12
  0.6600000     -5.3988411E-12
  0.7200000     -8.3843436E-12
  0.7800000     -8.9302237E-12
  0.8400000     -6.0680501E-12
  0.9000000      3.1417363E-13
  0.9600000      9.2609635E-12
   1.020000      1.8817775E-11
   1.080000      2.6412376E-11
   1.140000      2.9493196E-11
   1.200000      2.6269121E-11
   1.260000      1.6322183E-11
   1.320000      8.6185665E-13
   1.380000     -1.7514167E-11
   1.440000     -3.5504863E-11
   1.500000     -4.9982272E-11
   1.560000     -5.8676765E-11
   1.620000     -6.0331865E-11
   1.680000     -5.4235411E-11
   1.740000     -3.9407772E-11
   1.800000     -1.4058132E-11
   1.860000      2.3998819E-11
   1.920000      7.5572056E-11
   1.980000      1.3721192E-10
   2.040000      1.9819148E-10
   2.100000      2.3879218E-10
   2.160000      2.3121398E-10
   2.220000      1.4363603E-10
   2.280000     -5.3270891E-11
   2.340000     -3.7922521E-10
   2.400000     -8.3895735E-10
   2.460000     -1.4204553E-09
   2.520000     -2.0973809E-09
   2.580000     -2.8345581E-09
   2.640000     -3.5942218E-09
   2.700000     -4.3405439E-09
   2.760000     -5.0409539E-09
   2.820000     -5.6644622E-09
   2.880000     -6.1788161E-09
   2.940000     -6.5489654E-09
   3.000000     -6.7387393E-09
   3.060000     -6.7159638E-09
   3.120000     -6.4594072E-09
   3.180000     -5.9647460E-09
   3.240000     -5.2469025E-09
   3.300000     -4.3375250E-09
   3.360000     -3.2784662E-09
   3.420000     -2.1138402E-09
   3.480000     -8.8383861E-10
   3.540000      3.7739520E-10
   3.600000      1.6394766E-09
   3.660000      2.8708509E-09
   3.720000      4.0343791E-09
   3.780000      5.0865645E-09
   3.840000      5.9821033E-09
   3.900000      6.6831674E-09
   3.960000      7.1706365E-09
   4.020000      7.4533135E-09
   4.080000      7.5714457E-09
   4.140000      7.5925808E-09
   4.200000      7.6002937E-09
   4.260000      7.6787163E-09
   4.320000      7.8972153E-09
   4.380000      8.2995131E-09
   4.440000      8.9000300E-09
   4.500000      9.6878381E-09
   4.560000      1.0636101E-08
   4.620000      1.1713304E-08
   4.680000      1.2892282E-08
   4.740000      1.4154323E-08
   4.800000      1.5487839E-08
   4.860000      1.6883407E-08
   4.920000      1.8328484E-08
   4.980000      1.9805057E-08
   5.040000      2.1291980E-08
   5.100000      2.2771257E-08
   5.160000      2.4235314E-08
   5.220000      2.5691298E-08
   5.280000      2.7159366E-08
   5.340000      2.8664580E-08
   5.400000      3.0225142E-08
   5.460000      3.1841953E-08
   5.520000      3.3494697E-08
   5.580000      3.5147085E-08
   5.640000      3.6760181E-08
   5.700000      3.8308773E-08
   5.760000      3.9793886E-08
   5.820000      4.1245723E-08
   5.880000      4.2715030E-08
   5.940000      4.4255742E-08
   6.000000      4.5905555E-08
   6.060000      4.7671904E-08
   6.120000      4.9528726E-08
   6.180000      5.1424639E-08
   6.240000      5.3298745E-08
   6.300000      5.5097249E-08
   6.360000      5.6784401E-08
   6.420000      5.8344138E-08
   6.480000      5.9773029E-08
   6.540000      6.1068754E-08
   6.600000      6.2219769E-08
   6.660000      6.3200687E-08
   6.720000      6.3974895E-08
   6.780000      6.4502544E-08
   6.840000      6.4749791E-08
   6.900000      6.4695087E-08
   6.960000      6.4330209E-08
   7.020000      6.3656465E-08
   7.080000      6.2678886E-08
   7.140000      6.1402012E-08
   7.200000      5.9829702E-08
   7.260000      5.7969029E-08
   7.320000      5.5836129E-08
   7.380000      5.3460656E-08
   7.440000      5.0886381E-08
   7.500000      4.8167312E-08
   7.560000      4.5360920E-08
   7.620000      4.2521240E-08
   7.680000      3.9694307E-08
   7.740000      3.6916873E-08
   7.800000      3.4217813E-08
   7.860000      3.1620480E-08
   7.920000      2.9144537E-08
   7.980000      2.6806521E-08
   8.040000      2.4619428E-08
   8.100000      2.2591939E-08
   8.160000      2.0727793E-08
   8.220000      1.9025341E-08
   8.280000      1.7477166E-08
   8.340000      1.6069832E-08
   8.400000      1.4784203E-08
   8.460000      1.3596903E-08
   8.520000      1.2483119E-08
   8.580000      1.1420252E-08
   8.640000      1.0391346E-08
   8.700000      9.3871471E-09
   8.760000      8.4062455E-09
   8.820000      7.4534707E-09
   8.880000      6.5373418E-09
   8.940000      5.6674088E-09
   9.000000      4.8519819E-09
   9.060000      4.0964276E-09
   9.120000      3.4020455E-09
   9.180000      2.7656875E-09
   9.240000      2.1803603E-09
   9.300000      1.6368541E-09
   9.360000      1.1259799E-09
   9.420000      6.4057259E-10
   9.480000      1.7640983E-10
   9.540000     -2.6830085E-10
   9.600000     -6.9448219E-10
   9.660000     -1.1039483E-09
   9.720000     -1.5006202E-09
   9.780000     -1.8909878E-09
   9.840000     -2.2841182E-09
   9.900000     -2.6915479E-09
   9.960000     -3.1269536E-09
   10.02000     -3.6050327E-09
   10.08000     -4.1390651E-09
   10.14000     -4.7374118E-09
   10.20000     -5.4002194E-09
   10.26000     -6.1180856E-09
   10.32000     -6.8737984E-09
   10.38000     -7.6466522E-09
   10.44000     -8.4172704E-09
   10.50000     -9.1703694E-09
   10.56000     -9.8940873E-09
   10.62000     -1.0576697E-08
   10.68000     -1.1203402E-08
   10.74000     -1.1756169E-08
   10.80000     -1.2217812E-08
   10.86000     -1.2578797E-08
   10.92000     -1.2843230E-08
   10.98000     -1.3030457E-08
   11.04000     -1.3170910E-08
   11.10000     -1.3297951E-08
   11.16000     -1.3439560E-08
   11.22000     -1.3613683E-08
   11.28000     -1.3828859E-08
   11.34000     -1.4088735E-08
   11.40000     -1.4397164E-08
   11.46000     -1.4760744E-08
   11.52000     -1.5187638E-08
   11.58000     -1.5684000E-08
   11.64000     -1.6250707E-08
   11.70000     -1.6882669E-08
   11.76000     -1.7571088E-08
   11.82000     -1.8307066E-08
   11.88000     -1.9084052E-08
   11.94000     -1.9897300E-08
   12.00000     -2.0740387E-08
   12.06000     -2.1600544E-08
   12.12000     -2.2455275E-08
   12.18000     -2.3272172E-08
   12.24000     -2.4012255E-08
   12.30000     -2.4635673E-08
   12.36000     -2.5107784E-08
   12.42000     -2.5403947E-08
   12.48000     -2.5512195E-08
   12.54000     -2.5434142E-08
   12.60000     -2.5184939E-08
   12.66000     -2.4793016E-08
   12.72000     -2.4299485E-08
   12.78000     -2.3756231E-08
   12.84000     -2.3221212E-08
   12.90000     -2.2750070E-08
   12.96000     -2.2384633E-08
   13.02000     -2.2140910E-08
   13.08000     -2.2000718E-08
   13.14000     -2.1911124E-08
   13.20000     -2.1793827E-08
   13.26000     -2.1563148E-08
   13.32000     -2.1147576E-08
   13.38000     -2.0507791E-08
   13.44000     -1.9644961E-08
   13.50000     -1.8596653E-08
   13.56000     -1.7422547E-08
   13.62000     -1.6185957E-08
   13.68000     -1.4938157E-08
   13.74000     -1.3710427E-08
   13.80000     -1.2514674E-08
   13.86000     -1.1349790E-08
   13.92000     -1.0209208E-08
   13.98000     -9.0860626E-09
   14.04000     -7.9749478E-09
   14.10000     -6.8715589E-09
   14.16000     -5.7725367E-09
   14.22000     -4.6768305E-09
   14.28000     -3.5882102E-09
   14.34000     -2.5171953E-09
   14.40000     -1.4807005E-09
   14.46000     -4.9893695E-10
   14.52000      4.0931047E-10
   14.58000      1.2310353E-09
   14.64000      1.9612643E-09
   14.70000      2.6026041E-09
   14.76000      3.1626484E-09
   14.82000      3.6503616E-09
   14.88000      4.0723891E-09
   14.94000      4.4297490E-09
   15.00000      4.7151447E-09
   15.06000      4.9114144E-09
   15.12000      4.9920836E-09
   15.18000      4.9250661E-09
   15.24000      4.6797943E-09
   15.30000      4.2365702E-09
   15.36000      3.5955063E-09
   15.42000      2.7818068E-09
   15.48000      1.8450426E-09
   15.54000      8.5214241E-10
   15.60000     -1.2374826E-10
   15.66000     -1.0148347E-09
   15.72000     -1.7669882E-09
   15.78000     -2.3428046E-09
   15.84000     -2.7198586E-09
   15.90000     -2.8866236E-09
   15.96000     -2.8391987E-09
   16.02000     -2.5809987E-09
   16.08000     -2.1255566E-09
   16.14000     -1.5005942E-09
   16.20000     -7.5056450E-10
   16.26000      6.4628726E-11
   16.32000      8.7540553E-10
   16.38000      1.6115004E-09
   16.44000      2.2115616E-09
   16.50000      2.6305598E-09
   16.56000      2.8431142E-09
   16.62000      2.8424050E-09
   16.68000      2.6358595E-09
   16.74000      2.2397213E-09
   16.80000      1.6746858E-09
   16.86000      9.6404684E-10
   16.92000      1.3455263E-10
   16.98000     -7.8111284E-10
   17.04000     -1.7421169E-09
   17.10000     -2.6994158E-09
   17.16000     -3.5987855E-09
   17.22000     -4.3864228E-09
   17.28000     -5.0152562E-09
   17.34000     -5.4496501E-09
   17.40000     -5.6669198E-09
   17.46000     -5.6557314E-09
   17.52000     -5.4131397E-09
   17.58000     -4.9427138E-09
   17.64000     -4.2553969E-09
   17.70000     -3.3728287E-09
   17.76000     -2.3308420E-09
   17.82000     -1.1800346E-09
   17.88000      1.8721255E-11
   17.94000      1.2036039E-09
   18.00000      2.3232287E-09
   18.06000      3.3459981E-09
   18.12000      4.2639141E-09
   18.18000      5.0895701E-09
   18.24000      5.8477618E-09
   18.30000      6.5650783E-09
   18.36000      7.2612272E-09
   18.42000      7.9447631E-09
   18.48000      8.6140428E-09
   18.54000      9.2624282E-09
   18.60000      9.8855599E-09
   18.66000      1.0488046E-08
   18.72000      1.1087105E-08
   18.78000      1.1711493E-08
   18.84000      1.2395427E-08
   18.90000      1.3168897E-08
   18.96000      1.4047492E-08
   19.02000      1.5025606E-08
   19.08000      1.6076136E-08
   19.14000      1.7157525E-08
   19.20000      1.8225851E-08
   19.26000      1.9247175E-08
   19.32000      2.0204896E-08
   19.38000      2.1098758E-08
   19.44000      2.1936007E-08
   19.50000      2.2718940E-08
   19.56000      2.3435167E-08
   19.62000      2.4055934E-08
   19.68000      2.4544221E-08
   19.74000      2.4869804E-08
   19.80000      2.5024843E-08
   19.86000      2.5032969E-08
   19.92000      2.4947454E-08
   19.98000      2.4838744E-08
   20.04000      2.4776387E-08
   20.10000      2.4812712E-08
   20.16000      2.4974685E-08
   20.22000      2.5266349E-08
   20.28000      2.5679293E-08
   20.34000      2.6205093E-08
   20.40000      2.6843148E-08
   20.46000      2.7600352E-08
   20.52000      2.8483509E-08
   20.58000      2.9489271E-08
   20.64000      3.0597473E-08
   20.70000      3.1771588E-08
   20.76000      3.2965929E-08
   20.82000      3.4135709E-08
   20.88000      3.5244692E-08
   20.94000      3.6267028E-08
   21.00000      3.7183391E-08
   21.06000      3.7974704E-08
   21.12000      3.8617802E-08
   21.18000      3.9085748E-08
   21.24000      3.9352383E-08
   21.30000      3.9398113E-08
   21.36000      3.9213326E-08
   21.42000      3.8797538E-08
   21.48000      3.8155338E-08
   21.54000      3.7292121E-08
   21.60000      3.6212882E-08
   21.66000      3.4925133E-08
   21.72000      3.3444316E-08
   21.78000      3.1797946E-08
   21.84000      3.0025078E-08
   21.90000      2.8169811E-08
   21.96000      2.6270802E-08
   22.02000      2.4351067E-08
   22.08000      2.2412534E-08
   22.14000      2.0437971E-08
   22.20000      1.8399748E-08
   22.26000      1.6272072E-08
   22.32000      1.4042252E-08
   22.38000      1.1717238E-08
   22.44000      9.3240278E-09
   22.50000      6.9049420E-09
   22.56000      4.5104200E-09
   22.62000      2.1921718E-09
   22.68000     -1.4804750E-12
   22.74000     -2.0278059E-09
   22.80000     -3.8503605E-09
   22.86000     -5.4395195E-09
   22.92000     -6.7737544E-09
   22.98000     -7.8416891E-09
   23.04000     -8.6442826E-09
   23.10000     -9.1962704E-09
   23.16000     -9.5263646E-09
   23.22000     -9.6761914E-09
   23.28000     -9.6981969E-09
   23.34000     -9.6524841E-09
   23.40000     -9.6020569E-09
   23.46000     -9.6057304E-09
   23.52000     -9.7085664E-09
   23.58000     -9.9312194E-09
   23.64000     -1.0261326E-08
   23.70000     -1.0650988E-08
   23.76000     -1.1023412E-08
   23.82000     -1.1288805E-08
   23.88000     -1.1365572E-08
   23.94000     -1.1199814E-08
   24.00000     -1.0775817E-08
   24.06000     -1.0113349E-08
   24.12000     -9.2530783E-09
   24.18000     -8.2366460E-09
   24.24000     -7.0902977E-09
   24.30000     -5.8189409E-09
   24.36000     -4.4122119E-09
   24.42000     -2.8580787E-09
   24.48000     -1.1560599E-09
   24.54000      6.7697642E-10
   24.60000      2.6108513E-09
   24.66000      4.6126338E-09
   24.72000      6.6568444E-09
   24.78000      8.7289518E-09
   24.84000      1.0820024E-08
   24.90000      1.2915722E-08
   24.96000      1.4986256E-08
   25.02000      1.6983538E-08
   25.08000      1.8847775E-08
   25.14000      2.0520709E-08
   25.20000      2.1959037E-08
   25.26000      2.3141711E-08
   25.32000      2.4067962E-08
   25.38000      2.4747827E-08
   25.44000      2.5190488E-08
   25.50000      2.5396478E-08
   25.56000      2.5357290E-08
   25.62000      2.5061757E-08
   25.68000      2.4505093E-08
   25.74000      2.3695229E-08
   25.80000      2.2652999E-08
   25.86000      2.1406272E-08
   25.92000      1.9981663E-08
   25.98000      1.8398815E-08
   26.04000      1.6670782E-08
   26.10000      1.4810530E-08
   26.16000      1.2839897E-08
   26.22000      1.0795660E-08
   26.28000      8.7286063E-09
   26.34000      6.6951618E-09
   26.40000      4.7451043E-09
   26.46000      2.9109746E-09
   26.52000      1.2038753E-09
   26.58000     -3.8314890E-10
   26.64000     -1.8668638E-09
   26.70000     -3.2655239E-09
   26.76000     -4.5943325E-09
   26.82000     -5.8653855E-09
   26.88000     -7.0895165E-09
   26.94000     -8.2762615E-09
   27.00000     -9.4299271E-09
   27.06000     -1.0543181E-08
   27.12000     -1.1592406E-08
   27.18000     -1.2539177E-08
   27.24000     -1.3339013E-08
   27.30000     -1.3954234E-08
   27.36000     -1.4364571E-08
   27.42000     -1.4569843E-08
   27.48000     -1.4583068E-08
   27.54000     -1.4417961E-08
   27.60000     -1.4078331E-08
   27.66000     -1.3556252E-08
   27.72000     -1.2841068E-08
   27.78000     -1.1934893E-08
   27.84000     -1.0865866E-08
   27.90000     -9.6907247E-09
   27.96000     -8.4832550E-09
   28.02000     -7.3123272E-09
   28.08000     -6.2188694E-09
   28.14000     -5.2020921E-09
   28.20000     -4.2212731E-09
   28.26000     -3.2123531E-09
   28.32000     -2.1121833E-09
   28.38000     -8.8052154E-10
   28.44000      4.8812188E-10
   28.50000      1.9653599E-09
   28.56000      3.4994285E-09
   28.62000      5.0289501E-09
   28.68000      6.4940395E-09
   28.74000      7.8420817E-09
   28.80000      9.0292822E-09
   28.86000      1.0021094E-08
   28.92000      1.0793904E-08
   28.98000      1.1337698E-08
   29.04000      1.1656891E-08
   29.10000      1.1766109E-08
   29.16000      1.1679954E-08
   29.22000      1.1399685E-08
   29.28000      1.0902848E-08
   29.34000      1.0142000E-08
   29.40000      9.0553023E-09
   29.46000      7.5861788E-09
   29.52000      5.7043250E-09
   29.58000      3.4190017E-09
   29.64000      7.7861434E-10
   29.70000     -2.1430970E-09
   29.76000     -5.2675220E-09
   29.82000     -8.5284615E-09
   29.88000     -1.1878206E-08
   29.94000     -1.5280285E-08
   30.00000     -1.8693694E-08
   30.06000     -2.2057725E-08
   30.12000     -2.5286116E-08
   30.18000     -2.8274428E-08
   30.24000     -3.0917956E-08
   30.30000     -3.3132661E-08
   30.36000     -3.4870798E-08
   30.42000     -3.6126043E-08
   30.48000     -3.6928224E-08
   30.54000     -3.7331692E-08
   30.60000     -3.7402852E-08
   30.66000     -3.7210238E-08
   30.72000     -3.6817767E-08
   30.78000     -3.6279417E-08
   30.84000     -3.5633956E-08
   30.90000     -3.4900136E-08
   30.96000     -3.4074937E-08
   31.02000     -3.3137539E-08
   31.08000     -3.2059692E-08
   31.14000     -3.0819429E-08
   31.20000     -2.9412609E-08
   31.26000     -2.7856666E-08
   31.32000     -2.6184335E-08
   31.38000     -2.4429884E-08
   31.44000     -2.2614380E-08
   31.50000     -2.0737120E-08
   31.56000     -1.8777383E-08
   31.62000     -1.6705350E-08
   31.68000     -1.4496463E-08
   31.74000     -1.2141933E-08
   31.80000     -9.6505870E-09
   31.86000     -7.0421380E-09
   31.92000     -4.3367265E-09
   31.98000     -1.5473617E-09
   32.04000      1.3200931E-09
   32.10000      4.2594315E-09
   32.16000      7.2537851E-09
   32.22000      1.0269019E-08
   32.28000      1.3255503E-08
   32.34000      1.6158220E-08
   32.40000      1.8930452E-08
   32.46000      2.1544139E-08
   32.52000      2.3991747E-08
   32.58000      2.6279009E-08
   32.64000      2.8412869E-08
   32.70000      3.0391273E-08
   32.76000      3.2200234E-08
   32.82000      3.3819116E-08
   32.88000      3.5230446E-08
   32.94000      3.6428002E-08
   33.00000      3.7418101E-08
   33.06000      3.8213340E-08
   33.12000      3.8822566E-08
   33.18000      3.9243428E-08
   33.24000      3.9462400E-08
   33.30000      3.9462858E-08
   33.36000      3.9236891E-08
   33.42000      3.8794116E-08
   33.48000      3.8162288E-08
   33.54000      3.7379287E-08
   33.60000      3.6481204E-08
   33.66000      3.5493755E-08
   33.72000      3.4432318E-08
   33.78000      3.3310517E-08
   33.84000      3.2151522E-08
   33.90000      3.0993732E-08
   33.96000      2.9885001E-08
   34.02000      2.8866062E-08
   34.08000      2.7950655E-08
   34.14000      2.7113179E-08
   34.20000      2.6291861E-08
   34.26000      2.5408099E-08
   34.32000      2.4394112E-08
   34.38000      2.3216497E-08
   34.44000      2.1884846E-08
   34.50000      2.0442037E-08
   34.56000      1.8941842E-08
   34.62000      1.7425448E-08
   34.68000      1.5908382E-08
   34.74000      1.4383239E-08
   34.80000      1.2835192E-08
   34.86000      1.1260874E-08
   34.92000      9.6802433E-09
   34.98000      8.1354852E-09
   35.04000      6.6781989E-09
   35.10000      5.3520988E-09
   35.16000      4.1801842E-09
   35.22000      3.1622949E-09
   35.28000      2.2832407E-09
   35.34000      1.5263752E-09
   35.40000      8.8534097E-10
   35.46000      3.6841777E-10
   35.52000     -5.8222680E-12
   35.58000     -2.1847138E-10
   35.64000     -2.6048055E-10
   35.70000     -1.3837732E-10
   35.76000      1.2635784E-10
   35.82000      5.0284832E-10
   35.88000      9.5794495E-10
   35.94000      1.4616752E-09
   36.00000      1.9895678E-09
   36.06000      2.5225293E-09
   36.12000      3.0461287E-09
   36.18000      3.5507801E-09
   36.24000      4.0328647E-09
   36.30000      4.4954054E-09
   36.36000      4.9465987E-09
   36.42000      5.3955835E-09
   36.48000      5.8467058E-09
   36.54000      6.2949419E-09
   36.60000      6.7251116E-09
   36.66000      7.1158612E-09
   36.72000      7.4470146E-09
   36.78000      7.7071531E-09
   36.84000      7.8981985E-09
   36.90000      8.0353697E-09
   36.96000      8.1431919E-09
   37.02000      8.2497689E-09
   37.08000      8.3815550E-09
   37.14000      8.5594669E-09
   37.20000      8.7956309E-09
   37.26000      9.0896730E-09
   37.32000      9.4245562E-09
   37.38000      9.7639594E-09
   37.44000      1.0054268E-08
   37.50000      1.0233284E-08
   37.56000      1.0244663E-08
   37.62000      1.0053377E-08
   37.68000      9.6555901E-09
   37.74000      9.0776444E-09
   37.80000      8.3634264E-09
   37.86000      7.5549513E-09
   37.92000      6.6747585E-09
   37.98000      5.7183871E-09
   38.04000      4.6607220E-09
   38.10000      3.4734984E-09
   38.16000      2.1458924E-09
   38.22000      6.9862588E-10
   38.28000     -8.1503249E-10
   38.34000     -2.3220414E-09
   38.40000     -3.7507983E-09
   38.46000     -5.0520841E-09
   38.52000     -6.2116192E-09
   38.58000     -7.2500361E-09
   38.64000     -8.2113800E-09
   38.70000     -9.1456132E-09
   38.76000     -1.0092337E-08
   38.82000     -1.1071734E-08
   38.88000     -1.2085226E-08
   38.94000     -1.3124223E-08
   39.00000     -1.4182109E-08
   39.06000     -1.5263515E-08
   39.12000     -1.6386318E-08
   39.18000     -1.7575021E-08
   39.24000     -1.8848127E-08
   39.30000     -2.0205038E-08
   39.36000     -2.1618719E-08
   39.42000     -2.3038407E-08
   39.48000     -2.4402574E-08
   39.54000     -2.5658027E-08
   39.60000     -2.6777972E-08
   39.66000     -2.7771859E-08
   39.72000     -2.8682779E-08
   39.78000     -2.9573084E-08
   39.84000     -3.0503607E-08
   39.90000     -3.1514308E-08
   39.96000     -3.2613332E-08
   40.02000     -3.3777798E-08
   40.08000     -3.4964653E-08
   40.14000     -3.6126220E-08
   40.20000     -3.7223973E-08
   40.26000     -3.8235775E-08
   40.32000     -3.9155498E-08
   40.38000     -3.9987324E-08
   40.44000     -4.0738755E-08
   40.50000     -4.1415824E-08
   40.56000     -4.2021920E-08
   40.62000     -4.2559392E-08
   40.68000     -4.3031850E-08
   40.74000     -4.3445201E-08
   40.80000     -4.3806661E-08
   40.86000     -4.4122011E-08
   40.92000     -4.4392205E-08
   40.98000     -4.4610516E-08
   41.04000     -4.4761126E-08
   41.10000     -4.4820172E-08
   41.16000     -4.4759766E-08
   41.22000     -4.4555097E-08
   41.28000     -4.4193449E-08
   41.34000     -4.3682412E-08
   41.40000     -4.3053621E-08
   41.46000     -4.2359023E-08
   41.52000     -4.1659121E-08
   41.58000     -4.1006167E-08
   41.64000     -4.0428301E-08
   41.70000     -3.9921080E-08
   41.76000     -3.9450573E-08
   41.82000     -3.8967343E-08
   41.88000     -3.8425988E-08
   41.94000     -3.7802309E-08
   42.00000     -3.7101270E-08
   42.06000     -3.6352954E-08
   42.12000     -3.5599196E-08
   42.18000     -3.4877303E-08
   42.24000     -3.4208060E-08
   42.30000     -3.3592645E-08
   42.36000     -3.3018267E-08
   42.42000     -3.2468417E-08
   42.48000     -3.1931769E-08
   42.54000     -3.1405101E-08
   42.60000     -3.0889289E-08
   42.66000     -3.0381223E-08
   42.72000     -2.9866818E-08
   42.78000     -2.9319885E-08
   42.84000     -2.8708564E-08
   42.90000     -2.8007342E-08
   42.96000     -2.7209529E-08
   43.02000     -2.6334551E-08
   43.08000     -2.5426303E-08
   43.14000     -2.4542413E-08
   43.20000     -2.3737963E-08
   43.26000     -2.3049408E-08
   43.32000     -2.2484315E-08
   43.38000     -2.2020396E-08
   43.44000     -2.1614088E-08
   43.50000     -2.1215776E-08
   43.56000     -2.0786725E-08
   43.62000     -2.0312392E-08
   43.68000     -1.9807773E-08
   43.74000     -1.9312987E-08
   43.80000     -1.8880179E-08
   43.86000     -1.8555925E-08
   43.92000     -1.8365094E-08
   43.98000     -1.8302185E-08
   44.04000     -1.8333717E-08
   44.10000     -1.8411226E-08
   44.16000     -1.8489938E-08
   44.22000     -1.8545618E-08
   44.28000     -1.8582451E-08
   44.34000     -1.8628485E-08
   44.40000     -1.8720648E-08
   44.46000     -1.8885988E-08
   44.52000     -1.9127569E-08
   44.58000     -1.9421329E-08
   44.64000     -1.9725137E-08
   44.70000     -1.9995820E-08
   44.76000     -2.0206373E-08
   44.82000     -2.0355795E-08
   44.88000     -2.0467461E-08
   44.94000     -2.0577225E-08
   45.00000     -2.0716934E-08
   45.06000     -2.0900794E-08
   45.12000     -2.1120552E-08
   45.18000     -2.1351179E-08
   45.24000     -2.1563979E-08
   45.30000     -2.1740609E-08
   45.36000     -2.1881061E-08
   45.42000     -2.2001544E-08
   45.48000     -2.2123048E-08
   45.54000     -2.2256106E-08
   45.60000     -2.2389546E-08
   45.66000     -2.2489612E-08
   45.72000     -2.2511115E-08
   45.78000     -2.2416362E-08
   45.84000     -2.2193435E-08
   45.90000     -2.1864954E-08
   45.96000     -2.1482411E-08
   46.02000     -2.1107516E-08
   46.08000     -2.0788153E-08
   46.14000     -2.0539156E-08
   46.20000     -2.0336383E-08
   46.26000     -2.0127034E-08
   46.32000     -1.9852481E-08
   46.38000     -1.9474886E-08
   46.44000     -1.8997611E-08
   46.50000     -1.8471873E-08
   46.56000     -1.7987205E-08
   46.62000     -1.7648730E-08
   46.68000     -1.7548258E-08
   46.74000     -1.7737806E-08
   46.80000     -1.8213123E-08
   46.86000     -1.8911832E-08
   46.92000     -1.9726818E-08
   46.98000     -2.0531353E-08
   47.04000     -2.1209084E-08
   47.10000     -2.1680485E-08
   47.16000     -2.1918062E-08
   47.22000     -2.1946002E-08
   47.28000     -2.1824873E-08
   47.34000     -2.1627223E-08
   47.40000     -2.1413136E-08
   47.46000     -2.1214634E-08
   47.52000     -2.1034005E-08
   47.58000     -2.0855024E-08
   47.64000     -2.0660563E-08
   47.70000     -2.0447489E-08
   47.76000     -2.0231726E-08
   47.82000     -2.0041785E-08
   47.88000     -1.9905134E-08
   47.94000     -1.9835440E-08
   48.00000     -1.9827791E-08
   48.06000     -1.9864018E-08
   48.12000     -1.9924052E-08
   48.18000     -1.9995303E-08
   48.24000     -2.0072880E-08
   48.30000     -2.0148628E-08
   48.36000     -2.0193648E-08
   48.42000     -2.0143357E-08
   48.48000     -1.9893468E-08
   48.54000     -1.9309923E-08
   48.60000     -1.8248612E-08
   48.66000     -1.6575628E-08
   48.72000     -1.4178662E-08
   48.78000     -1.0964687E-08
   48.84000     -6.8458279E-09
   48.90000     -1.7202693E-09
   48.96000      4.5441508E-09
   49.02000      1.2119393E-08
   49.08000      2.1220654E-08
   49.14000      3.2108534E-08
   49.20000      4.5094978E-08
   49.26000      6.0555102E-08
   49.32000      7.8942918E-08
   49.38000      1.0080647E-07
   49.44000      1.2679855E-07
   49.50000      1.5768244E-07
   49.56000      1.9433645E-07
   49.62000      2.3776322E-07
   49.68000      2.8910904E-07
   49.74000      3.4969477E-07
   49.80000      4.2105569E-07
   49.86000      5.0498363E-07
   49.92000      6.0356643E-07
   49.98000      7.1922130E-07
   50.04000      8.5472465E-07
   50.10000      1.0132442E-06
   50.16000      1.1983803E-06
   50.22000      1.4142206E-06
   50.28000      1.6654066E-06
   50.34000      1.9572080E-06
   50.40000      2.2955969E-06
   50.46000      2.6873190E-06
   50.52000      3.1399602E-06
   50.58000      3.6620186E-06
   50.64000      4.2629808E-06
   50.70000      4.9534174E-06
   50.76000      5.7450889E-06
   50.82000      6.6510602E-06
   50.88000      7.6858214E-06
   50.94000      8.8653978E-06
   51.00000      1.0207454E-05
   51.06000      1.1731397E-05
   51.12000      1.3458474E-05
   51.18000      1.5411884E-05
   51.24000      1.7616889E-05
   51.30000      2.0100930E-05
   51.36000      2.2893753E-05
   51.42000      2.6027521E-05
   51.48000      2.9536914E-05
   51.54000      3.3459211E-05
   51.60000      3.7834361E-05
   51.66000      4.2705055E-05
   51.72000      4.8116752E-05
   51.78000      5.4117718E-05
   51.84000      6.0759026E-05
   51.90000      6.8094545E-05
   51.96000      7.6180848E-05
   52.02000      8.5077190E-05
   52.08000      9.4845302E-05
   52.14000      1.0554928E-04
   52.20000      1.1725541E-04
   52.26000      1.3003201E-04
   52.32000      1.4394918E-04
   52.38000      1.5907848E-04
   52.44000      1.7549266E-04
   52.50000      1.9326531E-04
   52.56000      2.1247035E-04
   52.62000      2.3318168E-04
   52.68000      2.5547261E-04
   52.74000      2.7941540E-04
   52.80000      3.0508076E-04
   52.86000      3.3253725E-04
   52.92000      3.6185066E-04
   52.98000      3.9308341E-04
   53.04000      4.2629379E-04
   53.10000      4.6153547E-04
   53.16000      4.9885677E-04
   53.22000      5.3829979E-04
   53.28000      5.7990017E-04
   53.34000      6.2368618E-04
   53.40000      6.6967832E-04
   53.46000      7.1788876E-04
   53.52000      7.6832052E-04
   53.58000      8.2096731E-04
   53.64000      8.7581278E-04
   53.70000      9.3283044E-04
   53.76000      9.9198311E-04
   53.82000      1.0532230E-03
   53.88000      1.1164913E-03
   53.94000      1.1817181E-03
   54.00000      1.2488231E-03
   54.06000      1.3177149E-03
   54.12000      1.3882917E-03
   54.18000      1.4604417E-03
   54.24000      1.5340435E-03
   54.30000      1.6089663E-03
   54.36000      1.6850706E-03
   54.42000      1.7622095E-03
   54.48000      1.8402288E-03
   54.54000      1.9189683E-03
   54.60000      1.9982629E-03
   54.66000      2.0779434E-03
   54.72000      2.1578372E-03
   54.78000      2.2377707E-03
   54.84000      2.3175685E-03
   54.90000      2.3970553E-03
   54.96000      2.4760580E-03
   55.02000      2.5544062E-03
   55.08000      2.6319337E-03
   55.14000      2.7084784E-03
   55.20000      2.7838843E-03
   55.26000      2.8580024E-03
   55.32000      2.9306912E-03
   55.38000      3.0018177E-03
   55.44000      3.0712583E-03
   55.50000      3.1388989E-03
   55.56000      3.2046367E-03