  -2.400000      0.0000000E+00
  -2.340000      0.0000000E+00
  -2.280000      0.0000000E+00
  -2.220000      0.0000000E+00
  -2.160000      0.0000000E+00
  -2.100000     -9.7637463E-19
  -2.040000     -7.2180616E-18
  -1.980000     -2.6208895E-17
  -1.920000     -5.9156331E-17
  -1.860000     -8.2336969E-17
  -1.800000     -3.7370485E-17
  -1.740000      1.4042243E-16
  -1.680000      4.4874821E-16
  -1.620000      7.5237056E-16
  -1.560000      8.2540830E-16
  -1.500000      5.6174865E-16
  -1.440000      2.4646705E-16
  -1.380000      5.8091473E-16
  -1.320000      2.1390134E-15
  -1.260000      4.2933402E-15
  -1.200000      4.3113973E-15
  -1.140000     -2.1795386E-15
  -1.080000     -1.8479127E-14
  -1.020000     -4.2421260E-14
 -0.9600000     -6.2894704E-14
 -0.9000000     -6.1016472E-14
 -0.8400000     -1.8397998E-14
 -0.7800000      6.9181728E-14
 -0.7200000      1.7957353E-13
 -0.6600000      2.6314175E-13
 -0.6000000      2.5933821E-13
 -0.5400000      1.2839010E-13
 -0.4800000     -1.1585969E-13
 -0.4200000     -3.9241218E-13
 -0.3600000     -5.7464618E-13
 -0.3000000     -5.4610786E-13
 -0.2400000     -2.6824536E-13
 -0.1800000      1.7632503E-13
 -0.1200000      5.9720138E-13
 -5.9999999E-02  7.7370196E-13
  0.0000000E+00  5.6872318E-13
  5.9999999E-02  2.3888220E-14
  0.1200000     -6.2097891E-13
  0.1800000     -1.0115950E-12
  0.2400000     -8.4373030E-13
  0.3000000     -3.9202528E-14
  0.3600000      1.1545086E-12
  0.4200000      2.2058668E-12
  0.4800000      2.4888598E-12
  0.5400000      1.5585479E-12
  0.6000000     -5.9745877E-13
  0.6600000     -3.4452194E-12
  0.7200000     -5.9962404E-12
  0.7800000     -7.0942809E-12
  0.8400000     -5.8070796E-12
  0.9000000     -1.7856405E-12
  0.9600000      4.5399869E-12
   1.020000      1.1999735E-11
   1.080000      1.8938417E-11
   1.140000      2.3585019E-11
   1.200000      2.4398141E-11
   1.260000      2.0279466E-11
   1.320000      1.0635181E-11
   1.380000     -4.6287054E-12
   1.440000     -2.5024616E-11
   1.500000     -4.9185080E-11
   1.560000     -7.4343219E-11
   1.620000     -9.5780703E-11
   1.680000     -1.0661060E-10
   1.740000     -9.8333404E-11
   1.800000     -6.2496383E-11
   1.860000      6.5034189E-12
   1.920000      1.0783171E-10
   1.980000      2.3058565E-10
   2.040000      3.5107992E-10
   2.100000      4.3197676E-10
   2.160000      4.2388143E-10
   2.220000      2.6952601E-10
   2.280000     -8.9887840E-11
   2.340000     -7.0707351E-10
   2.400000     -1.6209117E-09
   2.460000     -2.8497260E-09
   2.520000     -4.3865516E-09
   2.580000     -6.1970780E-09
   2.640000     -8.2206082E-09
   2.700000     -1.0374080E-08
   2.760000     -1.2558915E-08
   2.820000     -1.4670154E-08
   2.880000     -1.6607038E-08
   2.940000     -1.8283847E-08
   3.000000     -1.9639543E-08
   3.060000     -2.0644679E-08
   3.120000     -2.1304283E-08
   3.180000     -2.1655971E-08
   3.240000     -2.1763444E-08
   3.300000     -2.1706512E-08
   3.360000     -2.1569555E-08
   3.420000     -2.1430772E-08
   3.480000     -2.1354227E-08
   3.540000     -2.1385976E-08
   3.600000     -2.1554301E-08
   3.660000     -2.1872969E-08
   3.720000     -2.2345608E-08
   3.780000     -2.2969330E-08
   3.840000     -2.3736176E-08
   3.900000     -2.4632209E-08
   3.960000     -2.5635080E-08
   4.020000     -2.6711721E-08
   4.080000     -2.7817963E-08
   4.140000     -2.8901244E-08
   4.200000     -2.9906619E-08
   4.260000     -3.0785095E-08
   4.320000     -3.1502417E-08
   4.380000     -3.2046195E-08
   4.440000     -3.2429369E-08
   4.500000     -3.2688970E-08
   4.560000     -3.2880035E-08
   4.620000     -3.3065728E-08
   4.680000     -3.3305461E-08
   4.740000     -3.3643268E-08
   4.800000     -3.4098683E-08
   4.860000     -3.4661870E-08
   4.920000     -3.5293926E-08
   4.980000     -3.5932427E-08
   5.040000     -3.6501188E-08
   5.100000     -3.6922653E-08
   5.160000     -3.7130679E-08
   5.220000     -3.7081584E-08
   5.280000     -3.6761516E-08
   5.340000     -3.6188840E-08
   5.400000     -3.5411048E-08
   5.460000     -3.4496665E-08
   5.520000     -3.3523445E-08
   5.580000     -3.2564966E-08
   5.640000     -3.1677914E-08
   5.700000     -3.0892423E-08
   5.760000     -3.0207350E-08
   5.820000     -2.9591408E-08
   5.880000     -2.8990232E-08
   5.940000     -2.8338123E-08
   6.000000     -2.7572295E-08
   6.060000     -2.6646676E-08
   6.120000     -2.5542189E-08
   6.180000     -2.4270987E-08
   6.240000     -2.2873477E-08
   6.300000     -2.1408759E-08
   6.360000     -1.9940934E-08
   6.420000     -1.8524885E-08
   6.480000     -1.7195278E-08
   6.540000     -1.5961399E-08
   6.600000     -1.4808585E-08
   6.660000     -1.3705034E-08
   6.720000     -1.2611373E-08
   6.780000     -1.1490096E-08
   6.840000     -1.0312569E-08
   6.900000     -9.0625454E-09
   6.960000     -7.7362579E-09
   7.020000     -6.3398873E-09
   7.080000     -4.8854236E-09
   7.140000     -3.3858387E-09
   7.200000     -1.8503850E-09
   7.260000     -2.8080960E-10
   7.320000      1.3306899E-09
   7.380000      3.0010689E-09
   7.440000      4.7532960E-09
   7.500000      6.6108332E-09
   7.560000      8.5908249E-09
   7.620000      1.0697613E-08
   7.680000      1.2918338E-08
   7.740000      1.5222025E-08
   7.800000      1.7562838E-08
   7.860000      1.9887178E-08
   7.920000      2.2143194E-08
   7.980000      2.4290525E-08
   8.040000      2.6307713E-08
   8.100000      2.8195103E-08
   8.160000      2.9972149E-08
   8.220000      3.1669671E-08
   8.280000      3.3319054E-08
   8.340000      3.4941518E-08
   8.400000      3.6540410E-08
   8.460000      3.8098733E-08
   8.520000      3.9582378E-08
   8.580000      4.0948024E-08
   8.640000      4.2153367E-08
   8.700000      4.3167081E-08
   8.760000      4.3976016E-08
   8.820000      4.4588248E-08
   8.880000      4.5031548E-08
   8.940000      4.5348106E-08
   9.000000      4.5586919E-08
   9.060000      4.5795783E-08
   9.120000      4.6014435E-08
   9.180000      4.6269875E-08
   9.240000      4.6574218E-08
   9.300000      4.6924832E-08
   9.360000      4.7306386E-08
   9.420000      4.7694520E-08
   9.480000      4.8060809E-08
   9.540000      4.8378649E-08
   9.600000      4.8629072E-08
   9.660000      4.8805170E-08
   9.720000      4.8913680E-08
   9.780000      4.8972964E-08
   9.840000      4.9007753E-08
   9.900000      4.9042232E-08
   9.960000      4.9093643E-08
   10.02000      4.9168303E-08
   10.08000      4.9260937E-08
   10.14000      4.9357013E-08
   10.20000      4.9436839E-08
   10.26000      4.9480199E-08
   10.32000      4.9470458E-08
   10.38000      4.9397674E-08
   10.44000      4.9260418E-08
   10.50000      4.9066024E-08
   10.56000      4.8829012E-08
   10.62000      4.8567660E-08
   10.68000      4.8299455E-08
   10.74000      4.8036675E-08
   10.80000      4.7783544E-08
   10.86000      4.7535799E-08
   10.92000      4.7282583E-08
   10.98000      4.7009387E-08
   11.04000      4.6700706E-08
   11.10000      4.6341455E-08
   11.16000      4.5917368E-08
   11.22000      4.5415401E-08
   11.28000      4.4825249E-08
   11.34000      4.4142030E-08
   11.40000      4.3369198E-08
   11.46000      4.2519680E-08
   11.52000      4.1613891E-08
   11.58000      4.0674387E-08
   11.64000      3.9718909E-08
   11.70000      3.8754582E-08
   11.76000      3.7775887E-08
   11.82000      3.6767528E-08
   11.88000      3.5711107E-08
   11.94000      3.4592897E-08
   12.00000      3.3409471E-08
   12.06000      3.2168934E-08
   12.12000      3.0887520E-08
   12.18000      2.9583088E-08
   12.24000      2.8268376E-08
   12.30000      2.6946587E-08
   12.36000      2.5610927E-08
   12.42000      2.4247942E-08
   12.48000      2.2843205E-08
   12.54000      2.1387098E-08
   12.60000      1.9878652E-08
   12.66000      1.8326110E-08
   12.72000      1.6744229E-08
   12.78000      1.5149318E-08
   12.84000      1.3553832E-08
   12.90000      1.1962388E-08
   12.96000      1.0370500E-08
   13.02000      8.7663636E-09
   13.08000      7.1349748E-09
   13.14000      5.4630842E-09
   13.20000      3.7433399E-09
   13.26000      1.9763315E-09
   13.32000      1.7001316E-10
   13.38000     -1.6631786E-09
   13.44000     -3.5105736E-09
   13.50000     -5.3636451E-09
   13.56000     -7.2213076E-09
   13.62000     -9.0912105E-09
   13.68000     -1.0988556E-08
   13.74000     -1.2932546E-08
   13.80000     -1.4941095E-08
   13.86000     -1.7025021E-08
   13.92000     -1.9183098E-08
   13.98000     -2.1399423E-08
   14.04000     -2.3644027E-08
   14.10000     -2.5877050E-08
   14.16000     -2.8055890E-08
   14.22000     -3.0143870E-08
   14.28000     -3.2118294E-08
   14.34000     -3.3975489E-08
   14.40000     -3.5730945E-08
   14.46000     -3.7413809E-08
   14.52000     -3.9056850E-08
   14.58000     -4.0684885E-08
   14.64000     -4.2305519E-08
   14.70000     -4.3905644E-08
   14.76000     -4.5455106E-08
   14.82000     -4.6916213E-08
   14.88000     -4.8255277E-08
   14.94000     -4.9451845E-08
   15.00000     -5.0502418E-08
   15.06000     -5.1417960E-08
   15.12000     -5.2217327E-08
   15.18000     -5.2919699E-08
   15.24000     -5.3539022E-08
   15.30000     -5.4081500E-08
   15.36000     -5.4545737E-08
   15.42000     -5.4924190E-08
   15.48000     -5.5205067E-08
   15.54000     -5.5374642E-08
   15.60000     -5.5420497E-08
   15.66000     -5.5335569E-08
   15.72000     -5.5121983E-08
   15.78000     -5.4792650E-08
   15.84000     -5.4369035E-08
   15.90000     -5.3875112E-08
   15.96000     -5.3329664E-08
   16.02000     -5.2740518E-08
   16.08000     -5.2103740E-08
   16.14000     -5.1408804E-08
   16.20000     -5.0647586E-08
   16.26000     -4.9822980E-08
   16.32000     -4.8952757E-08
   16.38000     -4.8066482E-08
   16.44000     -4.7196551E-08
   16.50000     -4.6367379E-08
   16.56000     -4.5587672E-08
   16.62000     -4.4849187E-08
   16.68000     -4.4132239E-08
   16.74000     -4.3414950E-08
   16.80000     -4.2681748E-08
   16.86000     -4.1927336E-08
   16.92000     -4.1155175E-08
   16.98000     -4.0372583E-08
   17.04000     -3.9586102E-08
   17.10000     -3.8800060E-08
   17.16000     -3.8018808E-08
   17.22000     -3.7250096E-08
   17.28000     -3.6506147E-08
   17.34000     -3.5800145E-08
   17.40000     -3.5139102E-08
   17.46000     -3.4516997E-08
   17.52000     -3.3912741E-08
   17.58000     -3.3295390E-08
   17.64000     -3.2634929E-08
   17.70000     -3.1913451E-08
   17.76000     -3.1130774E-08
   17.82000     -3.0301482E-08
   17.88000     -2.9444951E-08
   17.94000     -2.8574053E-08
   18.00000     -2.7688941E-08
   18.06000     -2.6779233E-08
   18.12000     -2.5832909E-08
   18.18000     -2.4846168E-08
   18.24000     -2.3827871E-08
   18.30000     -2.2795586E-08
   18.36000     -2.1765318E-08
   18.42000     -2.0741119E-08
   18.48000     -1.9710912E-08
   18.54000     -1.8651560E-08
   18.60000     -1.7540707E-08
   18.66000     -1.6369126E-08
   18.72000     -1.5146885E-08
   18.78000     -1.3900102E-08
   18.84000     -1.2660148E-08
   18.90000     -1.1451057E-08
   18.96000     -1.0281410E-08
   19.02000     -9.1440961E-09
   19.08000     -8.0228908E-09
   19.14000     -6.9013733E-09
   19.20000     -5.7691993E-09
   19.26000     -4.6231223E-09
   19.32000     -3.4637500E-09
   19.38000     -2.2915689E-09
   19.44000     -1.1057628E-09
   19.50000      9.3043143E-11
   19.56000      1.2981112E-09
   19.62000      2.4937830E-09
   19.68000      3.6575485E-09
   19.74000      4.7670450E-09
   19.80000      5.8086806E-09
   19.86000      6.7829689E-09
   19.92000      7.7029458E-09
   19.98000      8.5857108E-09
   20.04000      9.4411492E-09
   20.10000      1.0263942E-08
   20.16000      1.1033636E-08
   20.22000      1.1723517E-08
   20.28000      1.2314220E-08
   20.34000      1.2805332E-08
   20.40000      1.3218959E-08
   20.46000      1.3593190E-08
   20.52000      1.3968376E-08
   20.58000      1.4372547E-08
   20.64000      1.4812331E-08
   20.70000      1.5272715E-08
   20.76000      1.5724599E-08
   20.82000      1.6135900E-08
   20.88000      1.6481323E-08
   20.94000      1.6747737E-08
   21.00000      1.6934985E-08
   21.06000      1.7053800E-08
   21.12000      1.7122741E-08
   21.18000      1.7164828E-08
   21.24000      1.7203387E-08
   21.30000      1.7256601E-08
   21.36000      1.7331498E-08
   21.42000      1.7419762E-08
   21.48000      1.7498165E-08
   21.54000      1.7535053E-08
   21.60000      1.7501465E-08
   21.66000      1.7382945E-08
   21.72000      1.7187064E-08
   21.78000      1.6943334E-08
   21.84000      1.6695260E-08
   21.90000      1.6487618E-08
   21.96000      1.6353747E-08
   22.02000      1.6307210E-08
   22.08000      1.6339998E-08
   22.14000      1.6426945E-08
   22.20000      1.6534118E-08
   22.26000      1.6628263E-08
   22.32000      1.6684858E-08
   22.38000      1.6693027E-08
   22.44000      1.6656520E-08
   22.50000      1.6590771E-08
   22.56000      1.6516886E-08
   22.62000      1.6454161E-08
   22.68000      1.6413336E-08
   22.74000      1.6392573E-08
   22.80000      1.6377349E-08
   22.86000      1.6344149E-08
   22.92000      1.6266581E-08
   22.98000      1.6121946E-08
   23.04000      1.5896472E-08
   23.10000      1.5588073E-08
   23.16000      1.5206357E-08
   23.22000      1.4770194E-08
   23.28000      1.4303559E-08
   23.34000      1.3830580E-08
   23.40000      1.3370901E-08
   23.46000      1.2936487E-08
   23.52000      1.2530701E-08
   23.58000      1.2149720E-08
   23.64000      1.1785573E-08
   23.70000      1.1429478E-08
   23.76000      1.1074232E-08
   23.82000      1.0715127E-08
   23.88000      1.0349706E-08
   23.94000      9.9773079E-09
   24.00000      9.5991108E-09
   24.06000      9.2187857E-09
   24.12000      8.8430783E-09
   24.18000      8.4814005E-09
   24.24000      8.1438802E-09
   24.30000      7.8382003E-09
   24.36000      7.5663280E-09
   24.42000      7.3225648E-09
   24.48000      7.0940431E-09
   24.54000      6.8640444E-09
   24.60000      6.6175394E-09
   24.66000      6.3475225E-09
   24.72000      6.0601355E-09
   24.78000      5.7765099E-09
   24.84000      5.5298801E-09
   24.90000      5.3578648E-09
   24.96000      5.2915854E-09
   25.02000      5.3448650E-09
   25.08000      5.5072649E-09
   25.14000      5.7436811E-09
   25.20000      6.0009104E-09
   25.26000      6.2188823E-09
   25.32000      6.3424865E-09
   25.38000      6.3299597E-09
   25.44000      6.1555152E-09
   25.50000      5.8064540E-09
   25.56000      5.2769988E-09
   25.62000      4.5617390E-09
   25.68000      3.6508621E-09
   25.74000      2.5279712E-09
   25.80000      1.1702785E-09
   25.86000     -4.4936119E-10
   25.92000     -2.3588560E-09
   25.98000     -4.5818487E-09
   26.04000     -7.1317445E-09
   26.10000     -1.0006043E-08
   26.16000     -1.3182765E-08
   26.22000     -1.6620445E-08
   26.28000     -2.0261940E-08
   26.34000     -2.4040647E-08
   26.40000     -2.7886722E-08
   26.46000     -3.1731069E-08
   26.52000     -3.5506378E-08
   26.58000     -3.9146400E-08
   26.64000     -4.2585928E-08
   26.70000     -4.5763827E-08
   26.76000     -4.8629762E-08
   26.82000     -5.1153215E-08
   26.88000     -5.3331675E-08
   26.94000     -5.5194569E-08
   27.00000     -5.6800960E-08
   27.06000     -5.8231123E-08
   27.12000     -5.9574305E-08
   27.18000     -6.0916051E-08
   27.24000     -6.2328176E-08
   27.30000     -6.3862927E-08
   27.36000     -6.5551347E-08
   27.42000     -6.7404464E-08
   27.48000     -6.9415769E-08
   27.54000     -7.1563854E-08
   27.60000     -7.3815052E-08
   27.66000     -7.6126447E-08
   27.72000     -7.8449297E-08
   27.78000     -8.0732939E-08
   27.84000     -8.2928345E-08
   27.90000     -8.4990667E-08
   27.96000     -8.6880497E-08
   28.02000     -8.8564363E-08
   28.08000     -9.0015085E-08
   28.14000     -9.1212527E-08
   28.20000     -9.2144433E-08
   28.26000     -9.2806189E-08
   28.32000     -9.3198359E-08
   28.38000     -9.3321439E-08
   28.44000     -9.3169028E-08
   28.50000     -9.2721706E-08
   28.56000     -9.1944386E-08
   28.62000     -9.0789456E-08
   28.68000     -8.9205741E-08
   28.74000     -8.7151491E-08
   28.80000     -8.4608118E-08
   28.86000     -8.1590819E-08
   28.92000     -7.8153541E-08
   28.98000     -7.4386712E-08
   29.04000     -7.0408433E-08
   29.10000     -6.6350459E-08
   29.16000     -6.2341606E-08
   29.22000     -5.8491192E-08
   29.28000     -5.4875670E-08
   29.34000     -5.1531032E-08
   29.40000     -4.8453035E-08
   29.46000     -4.5605479E-08
   29.52000     -4.2934914E-08
   29.58000     -4.0388084E-08
   29.64000     -3.7927471E-08
   29.70000     -3.5540928E-08
   29.76000     -3.3243261E-08
   29.82000     -3.1070329E-08
   29.88000     -2.9068524E-08
   29.94000     -2.7283413E-08
   30.00000     -2.5750918E-08
   30.06000     -2.4492694E-08
   30.12000     -2.3515664E-08
   30.18000     -2.2814367E-08
   30.24000     -2.2374484E-08
   30.30000     -2.2176328E-08
   30.36000     -2.2197723E-08
   30.42000     -2.2416183E-08
   30.48000     -2.2810381E-08
   30.54000     -2.3360762E-08
   30.60000     -2.4049168E-08
   30.66000     -2.4857545E-08
   30.72000     -2.5766262E-08
   30.78000     -2.6752947E-08
   30.84000     -2.7792799E-08
   30.90000     -2.8860834E-08
   30.96000     -2.9935570E-08
   31.02000     -3.1002894E-08
   31.08000     -3.2058313E-08
   31.14000     -3.3106254E-08
   31.20000     -3.4156326E-08
   31.26000     -3.5217827E-08
   31.32000     -3.6294782E-08
   31.38000     -3.7383643E-08
   31.44000     -3.8474585E-08
   31.50000     -3.9555246E-08
   31.56000     -4.0614520E-08
   31.62000     -4.1643933E-08
   31.68000     -4.2635456E-08
   31.74000     -4.3576971E-08
   31.80000     -4.4448150E-08
   31.86000     -4.5219558E-08
   31.92000     -4.5856194E-08
   31.98000     -4.6324232E-08
   32.04000     -4.6598085E-08
   32.10000     -4.6664844E-08
   32.16000     -4.6524836E-08
   32.22000     -4.6189161E-08
   32.28000     -4.5676497E-08
   32.34000     -4.5010992E-08
   32.40000     -4.4221817E-08
   32.46000     -4.3343174E-08
   32.52000     -4.2413152E-08
   32.58000     -4.1470681E-08
   32.64000     -4.0551107E-08
   32.70000     -3.9682114E-08
   32.76000     -3.8881144E-08
   32.82000     -3.8154610E-08
   32.88000     -3.7497902E-08
   32.94000     -3.6895155E-08
   33.00000     -3.6318955E-08
   33.06000     -3.5731407E-08
   33.12000     -3.5088668E-08
   33.18000     -3.4349796E-08
   33.24000     -3.3488572E-08
   33.30000     -3.2504481E-08
   33.36000     -3.1428268E-08
   33.42000     -3.0318851E-08
   33.48000     -2.9251343E-08
   33.54000     -2.8299398E-08
   33.60000     -2.7517221E-08
   33.66000     -2.6926653E-08
   33.72000     -2.6512891E-08
   33.78000     -2.6229355E-08
   33.84000     -2.6009493E-08
   33.90000     -2.5781544E-08
   33.96000     -2.5482173E-08
   34.02000     -2.5066029E-08
   34.08000     -2.4510165E-08
   34.14000     -2.3813996E-08
   34.20000     -2.2996373E-08
   34.26000     -2.2091378E-08
   34.32000     -2.1143563E-08
   34.38000     -2.0202664E-08
   34.44000     -1.9317426E-08
   34.50000     -1.8528768E-08
   34.56000     -1.7863471E-08
   34.62000     -1.7330017E-08
   34.68000     -1.6917955E-08
   34.74000     -1.6600854E-08
   34.80000     -1.6341573E-08
   34.86000     -1.6097891E-08
   34.92000     -1.5827213E-08
   34.98000     -1.5490413E-08
   35.04000     -1.5055944E-08
   35.10000     -1.4505263E-08
   35.16000     -1.3838956E-08
   35.22000     -1.3081098E-08
   35.28000     -1.2278496E-08
   35.34000     -1.1492678E-08
   35.40000     -1.0785544E-08
   35.46000     -1.0202885E-08
   35.52000     -9.7616955E-09
   35.58000     -9.4462100E-09
   35.64000     -9.2142205E-09
   35.70000     -9.0112744E-09
   35.76000     -8.7875192E-09
   35.82000     -8.5116696E-09
   35.88000     -8.1783522E-09
   35.94000     -7.8079605E-09
   36.00000     -7.4404718E-09
   36.06000     -7.1258635E-09
   36.12000     -6.9137096E-09
   36.18000     -6.8439641E-09
   36.24000     -6.9403314E-09
   36.30000     -7.2071744E-09
   36.36000     -7.6303976E-09
   36.42000     -8.1820026E-09
   36.48000     -8.8271399E-09
   36.54000     -9.5318358E-09
   36.60000     -1.0269538E-08
   36.66000     -1.1025184E-08
   36.72000     -1.1796381E-08
   36.78000     -1.2592037E-08
   36.84000     -1.3429149E-08
   36.90000     -1.4328497E-08
   36.96000     -1.5309979E-08
   37.02000     -1.6388418E-08
   37.08000     -1.7570667E-08
   37.14000     -1.8854701E-08
   37.20000     -2.0230672E-08
   37.26000     -2.1683292E-08
   37.32000     -2.3194326E-08
   37.38000     -2.4744349E-08
   37.44000     -2.6313643E-08
   37.50000     -2.7883093E-08
   37.56000     -2.9436151E-08
   37.62000     -3.0962191E-08
   37.68000     -3.2460196E-08
   37.74000     -3.3940584E-08
   37.80000     -3.5422911E-08
   37.86000     -3.6928615E-08
   37.92000     -3.8470368E-08
   37.98000     -4.0041513E-08
   38.04000     -4.1609969E-08
   38.10000     -4.3119833E-08
   38.16000     -4.4501189E-08
   38.22000     -4.5685653E-08
   38.28000     -4.6622894E-08
   38.34000     -4.7292719E-08
   38.40000     -4.7708735E-08
   38.46000     -4.7912287E-08
   38.52000     -4.7958697E-08
   38.58000     -4.7900414E-08
   38.64000     -4.7772794E-08
   38.70000     -4.7587069E-08
   38.76000     -4.7332449E-08
   38.82000     -4.6985846E-08
   38.88000     -4.6524978E-08
   38.94000     -4.5939665E-08
   39.00000     -4.5237453E-08
   39.06000     -4.4442128E-08
   39.12000     -4.3586631E-08
   39.18000     -4.2703324E-08
   39.24000     -4.1814925E-08
   39.30000     -4.0928327E-08
   39.36000     -4.0032397E-08
   39.42000     -3.9100055E-08
   39.48000     -3.8094594E-08
   39.54000     -3.6979387E-08
   39.60000     -3.5729112E-08
   39.66000     -3.4339060E-08
   39.72000     -3.2828471E-08
   39.78000     -3.1235309E-08
   39.84000     -2.9603072E-08
   39.90000     -2.7964436E-08
   39.96000     -2.6329021E-08
   40.02000     -2.4681647E-08
   40.08000     -2.2993071E-08
   40.14000     -2.1239094E-08
   40.20000     -1.9419495E-08
   40.26000     -1.7567841E-08
   40.32000     -1.5747275E-08
   40.38000     -1.4034044E-08
   40.44000     -1.2495969E-08
   40.50000     -1.1174942E-08
   40.56000     -1.0079861E-08
   40.62000     -9.1910728E-09
   40.68000     -8.4723624E-09
   40.74000     -7.8842257E-09
   40.80000     -7.3933406E-09
   40.86000     -6.9763821E-09
   40.92000     -6.6194650E-09
   40.98000     -6.3158709E-09
   41.04000     -6.0639782E-09
   41.10000     -5.8656551E-09
   41.16000     -5.7242215E-09
   41.22000     -5.6413501E-09
   41.28000     -5.6136504E-09
   41.34000     -5.6309610E-09
   41.40000     -5.6784151E-09
   41.46000     -5.7427409E-09
   41.52000     -5.8207714E-09
   41.58000     -5.9262177E-09
   41.64000     -6.0906808E-09
   41.70000     -6.3569776E-09
   41.76000     -6.7662862E-09
   41.82000     -7.3436768E-09
   41.88000     -8.0877349E-09
   41.94000     -8.9685184E-09
   42.00000     -9.9346869E-09
   42.06000     -1.0926922E-08
   42.12000     -1.1892547E-08
   42.18000     -1.2796431E-08
   42.24000     -1.3625589E-08
   42.30000     -1.4387757E-08
   42.36000     -1.5106318E-08
   42.42000     -1.5813988E-08
   42.48000     -1.6546513E-08
   42.54000     -1.7336101E-08
   42.60000     -1.8204160E-08
   42.66000     -1.9154173E-08
   42.72000     -2.0167356E-08
   42.78000     -2.1204581E-08
   42.84000     -2.2216474E-08
   42.90000     -2.3159918E-08
   42.96000     -2.4015232E-08
   43.02000     -2.4796408E-08
   43.08000     -2.5548523E-08
   43.14000     -2.6331682E-08
   43.20000     -2.7197000E-08
   43.26000     -2.8164276E-08
   43.32000     -2.9210783E-08
   43.38000     -3.0276041E-08
   43.44000     -3.1280553E-08
   43.50000     -3.2150844E-08
   43.56000     -3.2841097E-08
   43.62000     -3.3343898E-08
   43.68000     -3.3687719E-08
   43.74000     -3.3924053E-08
   43.80000     -3.4110158E-08
   43.86000     -3.4293798E-08
   43.92000     -3.4503930E-08
   43.98000     -3.4748780E-08
   44.04000     -3.5020150E-08
   44.10000     -3.5301763E-08
   44.16000     -3.5578871E-08
   44.22000     -3.5846377E-08
   44.28000     -3.6112855E-08
   44.34000     -3.6398614E-08
   44.40000     -3.6727521E-08
   44.46000     -3.7114713E-08
   44.52000     -3.7554511E-08
   44.58000     -3.8013823E-08
   44.64000     -3.8434973E-08
   44.70000     -3.8748642E-08
   44.76000     -3.8893500E-08
   44.82000     -3.8835942E-08
   44.88000     -3.8582812E-08
   44.94000     -3.8182055E-08
   45.00000     -3.7710659E-08
   45.06000     -3.7253503E-08
   45.12000     -3.6879808E-08
   45.18000     -3.6624371E-08
   45.24000     -3.6478866E-08
   45.30000     -3.6395161E-08
   45.36000     -3.6299074E-08
   45.42000     -3.6110439E-08
   45.48000     -3.5764053E-08
   45.54000     -3.5226506E-08
   45.60000     -3.4504907E-08
   45.66000     -3.3645641E-08
   45.72000     -3.2723268E-08
   45.78000     -3.1821930E-08
   45.84000     -3.1013467E-08
   45.90000     -3.0337716E-08
   45.96000     -2.9790373E-08
   46.02000     -2.9322415E-08
   46.08000     -2.8851991E-08
   46.14000     -2.8286017E-08
   46.20000     -2.7545481E-08
   46.26000     -2.6586783E-08
   46.32000     -2.5412483E-08
   46.38000     -2.4068099E-08
   46.44000     -2.2626168E-08
   46.50000     -2.1162998E-08
   46.56000     -1.9735779E-08
   46.62000     -1.8367338E-08
   46.68000     -1.7043051E-08
   46.74000     -1.5720302E-08
   46.80000     -1.4346849E-08
   46.86000     -1.2881769E-08
   46.92000     -1.1311838E-08
   46.98000     -9.6577608E-09
   47.04000     -7.9679294E-09
   47.10000     -6.3016348E-09
   47.16000     -4.7076760E-09
   47.22000     -3.2064553E-09
   47.28000     -1.7829707E-09
   47.34000     -3.9432133E-10
   47.40000      1.0103692E-09
   47.46000      2.4651330E-09
   47.52000      3.9676542E-09
   47.58000      5.4737739E-09
   47.64000      6.9092962E-09
   47.70000      8.1952729E-09
   47.76000      9.2771595E-09
   47.82000      1.0146299E-08
   47.88000      1.0844951E-08
   47.94000      1.1452334E-08
   48.00000      1.2056323E-08
   48.06000      1.2720698E-08
   48.12000      1.3459399E-08
   48.18000      1.4226654E-08
   48.24000      1.4926444E-08
   48.30000      1.5438340E-08
   48.36000      1.5651574E-08
   48.42000      1.5496658E-08
   48.48000      1.4964741E-08
   48.54000      1.4108583E-08
   48.60000      1.3024622E-08
   48.66000      1.1821269E-08
   48.72000      1.0582723E-08
   48.78000      9.3391224E-09
   48.84000      8.0520826E-09
   48.90000      6.6201844E-09
   48.96000      4.9028350E-09
   49.02000      2.7549669E-09
   49.08000      6.1148059E-11
   49.14000     -3.2425875E-09
   49.20000     -7.1671189E-09
   49.26000     -1.1689890E-08
   49.32000     -1.6789322E-08
   49.38000     -2.2482030E-08
   49.44000     -2.8849991E-08
   49.50000     -3.6048732E-08
   49.56000     -4.4295266E-08
   49.62000     -5.3842165E-08
   49.68000     -6.4949340E-08
   49.74000     -7.7865636E-08
   49.80000     -9.2828515E-08
   49.86000     -1.1008361E-07
   49.92000     -1.2991953E-07
   49.98000     -1.5270888E-07
   50.04000     -1.7894455E-07
   50.10000     -2.0926242E-07
   50.16000     -2.4444535E-07
   50.22000     -2.8540893E-07
   50.28000     -3.3317588E-07
   50.34000     -3.8884897E-07
   50.40000     -4.5359445E-07
   50.46000     -5.2864550E-07
   50.52000     -6.1532933E-07
   50.58000     -7.1511516E-07
   50.64000     -8.2967409E-07
   50.70000     -9.6093902E-07
   50.76000     -1.1111531E-06
   50.82000     -1.2828979E-06
   50.88000     -1.4790986E-06
   50.94000     -1.7030105E-06
   51.00000     -1.9581964E-06
   51.06000     -2.2485115E-06
   51.12000     -2.5781083E-06
   51.18000     -2.9514681E-06
   51.24000     -3.3734609E-06
   51.30000     -3.8494163E-06
   51.36000     -4.3851896E-06
   51.42000     -4.9872051E-06
   51.48000     -5.6624690E-06
   51.54000     -6.4185601E-06
   51.60000     -7.2636076E-06
   51.66000     -8.2062797E-06
   51.72000     -9.2557875E-06
   51.78000     -1.0421903E-05
   51.84000     -1.1714990E-05
   51.90000     -1.3146033E-05
   51.96000     -1.4726657E-05
   52.02000     -1.6469139E-05
   52.08000     -1.8386401E-05
   52.14000     -2.0491996E-05
   52.20000     -2.2800054E-05
   52.26000     -2.5325231E-05
   52.32000     -2.8082646E-05
   52.38000     -3.1087806E-05
   52.44000     -3.4356541E-05
   52.50000     -3.7904974E-05
   52.56000     -4.1749474E-05
   52.62000     -4.5906603E-05
   52.68000     -5.0393053E-05
   52.74000     -5.5225570E-05
   52.80000     -6.0420833E-05
   52.86000     -6.5995344E-05
   52.92000     -7.1965289E-05
   52.98000     -7.8346391E-05
   53.04000     -8.5153762E-05
   53.10000     -9.2401810E-05
   53.16000     -1.0010406E-04
   53.22000     -1.0827311E-04
   53.28000     -1.1692051E-04
   53.34000     -1.2605662E-04
   53.40000     -1.3569053E-04
   53.46000     -1.4582984E-04
   53.52000     -1.5648056E-04
   53.58000     -1.6764693E-04
   53.64000     -1.7933131E-04
   53.70000     -1.9153416E-04
   53.76000     -2.0425391E-04
   53.82000     -2.1748706E-04
   53.88000     -2.3122798E-04
   53.94000     -2.4546889E-04
   54.00000     -2.6019997E-04
   54.06000     -2.7540908E-04
   54.12000     -2.9108202E-04
   54.18000     -3.0720257E-04
   54.24000     -3.2375232E-04
   54.30000     -3.4071083E-04
   54.36000     -3.5805578E-04
   54.42000     -3.7576293E-04
   54.48000     -3.9380646E-04
   54.54000     -4.1215899E-04
   54.60000     -4.3079181E-04
   54.66000     -4.4967516E-04
   54.72000     -4.6877825E-04
   54.78000     -4.8806946E-04
   54.84000     -5.0751650E-04
   54.90000     -5.2708678E-04
   54.96000     -5.4674735E-04
   55.02000     -5.6646526E-04
   55.08000     -5.8620784E-04
   55.14000     -6.0594286E-04
   55.20000     -6.2563887E-04
   55.26000     -6.4526533E-04
   55.32000     -6.6479272E-04
   55.38000     -6.8419293E-04
   55.44000     -7.0343906E-04
   55.50000     -7.2250568E-04
   55.56000     -7.4136880E-04