  -2.400000      0.0000000E+00
  -2.340000      0.0000000E+00
  -2.280000      0.0000000E+00
  -2.220000      0.0000000E+00
  -2.160000      0.0000000E+00
  -2.100000     -1.3277582E-20
  -2.040000     -9.5320571E-20
  -1.980000     -2.3777956E-19
  -1.920000      3.8050432E-19
  -1.860000      5.4671899E-18
  -1.800000      2.4658972E-17
  -1.740000      7.4104166E-17
  -1.680000      1.6735485E-16
  -1.620000      2.8952613E-16
  -1.560000      3.5789410E-16
  -1.500000      1.9332239E-16
  -1.440000     -4.5195132E-16
  -1.380000     -1.7666694E-15
  -1.320000     -3.6566467E-15
  -1.260000     -5.5176713E-15
  -1.200000     -6.1848343E-15
  -1.140000     -4.2423544E-15
  -1.080000      1.2668829E-15
  -1.020000      9.9749878E-15
 -0.9600000      1.9693367E-14
 -0.9000000      2.6875295E-14
 -0.8400000      2.8266709E-14
 -0.7800000      2.3212071E-14
 -0.7200000      1.5244774E-14
 -0.6600000      1.1264636E-14
 -0.6000000      1.7336377E-14
 -0.5400000      3.2029185E-14
 -0.4800000      4.0593942E-14
 -0.4200000      1.4781301E-14
 -0.3600000     -7.7746742E-14
 -0.3000000     -2.5436275E-13
 -0.2400000     -4.9476823E-13
 -0.1800000     -7.2611703E-13
 -0.1200000     -8.2881835E-13
 -5.9999999E-02 -6.7044195E-13
  0.0000000E+00 -1.6310162E-13
  5.9999999E-02  6.7492713E-13
  0.1200000      1.6827277E-12
  0.1800000      2.5731852E-12
  0.2400000      3.0134038E-12
  0.3000000      2.7517901E-12
  0.3600000      1.7453741E-12
  0.4200000      2.2583409E-13
  0.4800000     -1.3462247E-12
  0.5400000     -2.4494237E-12
  0.6000000     -2.7456691E-12
  0.6600000     -2.3020873E-12
  0.7200000     -1.6738028E-12
  0.7800000     -1.7623274E-12
  0.8400000     -3.4456485E-12
  0.9000000     -7.0820971E-12
  0.9600000     -1.2078163E-11
   1.020000     -1.6736333E-11
   1.080000     -1.8536273E-11
   1.140000     -1.4858481E-11
   1.200000     -3.9781498E-12
   1.260000      1.3992428E-11
   1.320000      3.6583774E-11
   1.380000      5.9152558E-11
   1.440000      7.5833624E-11
   1.500000      8.1050791E-11
   1.560000      7.1142529E-11
   1.620000      4.5564809E-11
   1.680000      7.2341404E-12
   1.740000     -3.8146965E-11
   1.800000     -8.3573821E-11
   1.860000     -1.2250800E-10
   1.920000     -1.5027292E-10
   1.980000     -1.6454364E-10
   2.040000     -1.6475847E-10
   2.100000     -1.5075211E-10
   2.160000     -1.2131270E-10
   2.220000     -7.3516949E-11
   2.280000     -3.5015341E-12
   2.340000      9.1185864E-11
   2.400000      2.0818289E-10
   2.460000      3.3696188E-10
   2.520000      4.5688356E-10
   2.580000      5.3777799E-10
   2.640000      5.4349869E-10
   2.700000      4.3796947E-10
   2.760000      1.9237920E-10
   2.820000     -2.0831092E-10
   2.880000     -7.6129270E-10
   2.940000     -1.4453503E-09
   3.000000     -2.2238542E-09
   3.060000     -3.0502940E-09
   3.120000     -3.8746206E-09
   3.180000     -4.6485673E-09
   3.240000     -5.3286526E-09
   3.300000     -5.8765615E-09
   3.360000     -6.2576531E-09
   3.420000     -6.4391106E-09
   3.480000     -6.3893673E-09
   3.540000     -6.0799046E-09
   3.600000     -5.4894782E-09
   3.660000     -4.6096811E-09
   3.720000     -3.4499463E-09
   3.780000     -2.0399280E-09
   3.840000     -4.2781129E-10
   3.900000      1.3256858E-09
   3.960000      3.1564567E-09
   4.020000      5.0070117E-09
   4.080000      6.8346333E-09
   4.140000      8.6154115E-09
   4.200000      1.0343109E-08
   4.260000      1.2023404E-08
   4.320000      1.3665523E-08
   4.380000      1.5274132E-08
   4.440000      1.6844194E-08
   4.500000      1.8360515E-08
   4.560000      1.9801986E-08
   4.620000      2.1148825E-08
   4.680000      2.2389957E-08
   4.740000      2.3527521E-08
   4.800000      2.4576389E-08
   4.860000      2.5558473E-08
   4.920000      2.6493495E-08
   4.980000      2.7389483E-08
   5.040000      2.8236622E-08
   5.100000      2.9007182E-08
   5.160000      2.9662223E-08
   5.220000      3.0163431E-08
   5.280000      3.0486330E-08
   5.340000      3.0630538E-08
   5.400000      3.0623230E-08
   5.460000      3.0514240E-08
   5.520000      3.0363836E-08
   5.580000      3.0226694E-08
   5.640000      3.0136878E-08
   5.700000      3.0098448E-08
   5.760000      3.0084401E-08
   5.820000      3.0044159E-08
   5.880000      2.9917036E-08
   5.940000      2.9647465E-08
   6.000000      2.9197397E-08
   6.060000      2.8552604E-08
   6.120000      2.7721722E-08
   6.180000      2.6729358E-08
   6.240000      2.5606351E-08
   6.300000      2.4380917E-08
   6.360000      2.3073683E-08
   6.420000      2.1697945E-08
   6.480000      2.0264480E-08
   6.540000      1.8788603E-08
   6.600000      1.7296385E-08
   6.660000      1.5827316E-08
   6.720000      1.4431977E-08
   6.780000      1.3164962E-08
   6.840000      1.2074993E-08
   6.900000      1.1195187E-08
   6.960000      1.0536629E-08
   7.020000      1.0087538E-08
   7.080000      9.8187094E-09
   7.140000      9.6940056E-09
   7.200000      9.6829087E-09
   7.260000      9.7712238E-09
   7.320000      9.9662651E-09
   7.380000      1.0294356E-08
   7.440000      1.0790859E-08
   7.500000      1.1485557E-08
   7.560000      1.2387991E-08
   7.620000      1.3477811E-08
   7.680000      1.4703726E-08
   7.740000      1.5991874E-08
   7.800000      1.7261124E-08
   7.860000      1.8440245E-08
   7.920000      1.9481083E-08
   7.980000      2.0363236E-08
   8.040000      2.1088720E-08
   8.100000      2.1668827E-08
   8.160000      2.2108278E-08
   8.220000      2.2392705E-08
   8.280000      2.2484262E-08
   8.340000      2.2327050E-08
   8.400000      2.1860361E-08
   8.460000      2.1034836E-08
   8.520000      1.9825624E-08
   8.580000      1.8237836E-08
   8.640000      1.6302536E-08
   8.700000      1.4065135E-08
   8.760000      1.1570838E-08
   8.820000      8.8528971E-09
   8.880000      5.9283676E-09
   8.940000      2.8031022E-09
   9.000000     -5.1583809E-10
   9.060000     -4.0052863E-09
   9.120000     -7.6148323E-09
   9.180000     -1.1264753E-08
   9.240000     -1.4855294E-08
   9.300000     -1.8285494E-08
   9.360000     -2.1475993E-08
   9.420000     -2.4388280E-08
   9.480000     -2.7033494E-08
   9.540000     -2.9466989E-08
   9.600000     -3.1769627E-08
   9.660000     -3.4021408E-08
   9.720000     -3.6275740E-08
   9.780000     -3.8542709E-08
   9.840000     -4.0786553E-08
   9.900000     -4.2937820E-08
   9.960000     -4.4915609E-08
   10.02000     -4.6652072E-08
   10.08000     -4.8111183E-08
   10.14000     -4.9296133E-08
   10.20000     -5.0244271E-08
   10.26000     -5.1012830E-08
   10.32000     -5.1661551E-08
   10.38000     -5.2238480E-08
   10.44000     -5.2773192E-08
   10.50000     -5.3278104E-08
   10.56000     -5.3755272E-08
   10.62000     -5.4204325E-08
   10.68000     -5.4627304E-08
   10.74000     -5.5028192E-08
   10.80000     -5.5407618E-08
   10.86000     -5.5755436E-08
   10.92000     -5.6044914E-08
   10.98000     -5.6231826E-08
   11.04000     -5.6259818E-08
   11.10000     -5.6071372E-08
   11.16000     -5.5621658E-08
   11.22000     -5.4891633E-08
   11.28000     -5.3896670E-08
   11.34000     -5.2688176E-08
   11.40000     -5.1347271E-08
   11.46000     -4.9971590E-08
   11.52000     -4.8657885E-08
   11.58000     -4.7484239E-08
   11.64000     -4.6495924E-08
   11.70000     -4.5698123E-08
   11.76000     -4.5057142E-08
   11.82000     -4.4509733E-08
   11.88000     -4.3978048E-08
   11.94000     -4.3386496E-08
   12.00000     -4.2676277E-08
   12.06000     -4.1814285E-08
   12.12000     -4.0794713E-08
   12.18000     -3.9633822E-08
   12.24000     -3.8360213E-08
   12.30000     -3.7004096E-08
   12.36000     -3.5588915E-08
   12.42000     -3.4127613E-08
   12.48000     -3.2624037E-08
   12.54000     -3.1077992E-08
   12.60000     -2.9491202E-08
   12.66000     -2.7871197E-08
   12.72000     -2.6231136E-08
   12.78000     -2.4585402E-08
   12.84000     -2.2942807E-08
   12.90000     -2.1300515E-08
   12.96000     -1.9641854E-08
   13.02000     -1.7939694E-08
   13.08000     -1.6164909E-08
   13.14000     -1.4297088E-08
   13.20000     -1.2333541E-08
   13.26000     -1.0292956E-08
   13.32000     -8.2121074E-09
   13.38000     -6.1366836E-09
   13.44000     -4.1097112E-09
   13.50000     -2.1619850E-09
   13.56000     -3.0802352E-10
   13.62000      1.4513079E-09
   13.68000      3.1212359E-09
   13.74000      4.7044173E-09
   13.80000      6.1954202E-09
   13.86000      7.5811339E-09
   13.92000      8.8471594E-09
   13.98000      9.9873887E-09
   14.04000      1.1012272E-08
   14.10000      1.1951455E-08
   14.16000      1.2848540E-08
   14.22000      1.3748866E-08
   14.28000      1.4684289E-08
   14.34000      1.5660563E-08
   14.40000      1.6652473E-08
   14.46000      1.7609429E-08
   14.52000      1.8470434E-08
   14.58000      1.9183881E-08
   14.64000      1.9725464E-08
   14.70000      2.0107858E-08
   14.76000      2.0378453E-08
   14.82000      2.0605558E-08
   14.88000      2.0857742E-08
   14.94000      2.1183482E-08
   15.00000      2.1598360E-08
   15.06000      2.2084288E-08
   15.12000      2.2600780E-08
   15.18000      2.3103853E-08
   15.24000      2.3565134E-08
   15.30000      2.3983864E-08
   15.36000      2.4387191E-08
   15.42000      2.4818824E-08
   15.48000      2.5320627E-08
   15.54000      2.5914508E-08
   15.60000      2.6591829E-08
   15.66000      2.7314526E-08
   15.72000      2.8027575E-08
   15.78000      2.8678002E-08
   15.84000      2.9233133E-08
   15.90000      2.9691101E-08
   15.96000      3.0079665E-08
   16.02000      3.0443776E-08
   16.08000      3.0826662E-08
   16.14000      3.1251407E-08
   16.20000      3.1709821E-08
   16.26000      3.2162664E-08
   16.32000      3.2551160E-08
   16.38000      3.2815809E-08
   16.44000      3.2916173E-08
   16.50000      3.2845069E-08
   16.56000      3.2632823E-08
   16.62000      3.2340420E-08
   16.68000      3.2044159E-08
   16.74000      3.1816668E-08
   16.80000      3.1710158E-08
   16.86000      3.1746637E-08
   16.92000      3.1917516E-08
   16.98000      3.2191952E-08
   17.04000      3.2530785E-08
   17.10000      3.2901283E-08
   17.16000      3.3287748E-08
   17.22000      3.3694587E-08
   17.28000      3.4140754E-08
   17.34000      3.4647524E-08
   17.40000      3.5223650E-08
   17.46000      3.5853244E-08
   17.52000      3.6490857E-08
   17.58000      3.7066190E-08
   17.64000      3.7497465E-08
   17.70000      3.7709736E-08
   17.76000      3.7652377E-08
   17.82000      3.7310137E-08
   17.88000      3.6704179E-08
   17.94000      3.5882646E-08
   18.00000      3.4903927E-08
   18.06000      3.3818097E-08
   18.12000      3.2652597E-08
   18.18000      3.1406760E-08
   18.24000      3.0056746E-08
   18.30000      2.8568943E-08
   18.36000      2.6917087E-08
   18.42000      2.5097203E-08
   18.48000      2.3135248E-08
   18.54000      2.1085041E-08
   18.60000      1.9017186E-08
   18.66000      1.7002977E-08
   18.72000      1.5098628E-08
   18.78000      1.3335049E-08
   18.84000      1.1716102E-08
   18.90000      1.0225149E-08
   18.96000      8.8367127E-09
   19.02000      7.5283380E-09
   19.08000      6.2879590E-09
   19.14000      5.1141482E-09
   19.20000      4.0096610E-09
   19.26000      2.9715286E-09
   19.32000      1.9823689E-09
   19.38000      1.0070922E-09
   19.44000     -3.0466012E-12
   19.50000     -1.1000725E-09
   19.56000     -2.3261391E-09
   19.62000     -3.7021808E-09
   19.68000     -5.2221538E-09
   19.74000     -6.8544410E-09
   19.80000     -8.5493417E-09
   19.86000     -1.0249575E-08
   19.92000     -1.1900128E-08
   19.98000     -1.3454677E-08
   20.04000     -1.4877739E-08
   20.10000     -1.6143604E-08
   20.16000     -1.7234393E-08
   20.22000     -1.8139509E-08
   20.28000     -1.8857639E-08
   20.34000     -1.9400808E-08
   20.40000     -1.9798541E-08
   20.46000     -2.0099655E-08
   20.52000     -2.0369729E-08
   20.58000     -2.0683725E-08
   20.64000     -2.1114978E-08
   20.70000     -2.1723084E-08
   20.76000     -2.2543672E-08
   20.82000     -2.3582505E-08
   20.88000     -2.4815089E-08
   20.94000     -2.6191421E-08
   21.00000     -2.7644329E-08
   21.06000     -2.9099308E-08
   21.12000     -3.0483761E-08
   21.18000     -3.1734317E-08
   21.24000     -3.2801523E-08
   21.30000     -3.3652018E-08
   21.36000     -3.4268570E-08
   21.42000     -3.4648831E-08
   21.48000     -3.4803431E-08
   21.54000     -3.4754088E-08
   21.60000     -3.4532096E-08
   21.66000     -3.4177152E-08
   21.72000     -3.3736136E-08
   21.78000     -3.3261063E-08
   21.84000     -3.2805548E-08
   21.90000     -3.2419688E-08
   21.96000     -3.2144015E-08
   22.02000     -3.2004213E-08
   22.08000     -3.2008437E-08
   22.14000     -3.2148755E-08
   22.20000     -3.2406756E-08
   22.26000     -3.2761708E-08
   22.32000     -3.3198372E-08
   22.38000     -3.3711228E-08
   22.44000     -3.4303230E-08
   22.50000     -3.4979294E-08
   22.56000     -3.5737205E-08
   22.62000     -3.6560028E-08
   22.68000     -3.7413795E-08
   22.74000     -3.8252235E-08
   22.80000     -3.9027270E-08
   22.86000     -3.9701387E-08
   22.92000     -4.0256836E-08
   22.98000     -4.0697710E-08
   23.04000     -4.1043791E-08
   23.10000     -4.1318529E-08
   23.16000     -4.1536179E-08
   23.22000     -4.1693621E-08
   23.28000     -4.1770711E-08
   23.34000     -4.1739625E-08
   23.40000     -4.1579824E-08
   23.46000     -4.1293035E-08
   23.52000     -4.0912091E-08
   23.58000     -4.0499856E-08
   23.64000     -4.0137703E-08
   23.70000     -3.9906933E-08
   23.76000     -3.9868954E-08
   23.82000     -4.0050470E-08
   23.88000     -4.0438252E-08
   23.94000     -4.0984975E-08
   24.00000     -4.1624038E-08
   24.06000     -4.2288715E-08
   24.12000     -4.2929738E-08
   24.18000     -4.3526235E-08
   24.24000     -4.4086942E-08
   24.30000     -4.4641684E-08
   24.36000     -4.5225956E-08
   24.42000     -4.5863469E-08
   24.48000     -4.6552170E-08
   24.54000     -4.7258343E-08
   24.60000     -4.7920970E-08
   24.66000     -4.8465559E-08
   24.72000     -4.8823498E-08
   24.78000     -4.8951030E-08
   24.84000     -4.8841670E-08
   24.90000     -4.8527770E-08
   24.96000     -4.8070234E-08
   25.02000     -4.7539334E-08
   25.08000     -4.6992955E-08
   25.14000     -4.6459522E-08
   25.20000     -4.5931774E-08
   25.26000     -4.5373628E-08
   25.32000     -4.4737750E-08
   25.38000     -4.3987299E-08
   25.44000     -4.3113573E-08
   25.50000     -4.2142403E-08
   25.56000     -4.1126420E-08
   25.62000     -4.0125535E-08
   25.68000     -3.9182929E-08
   25.74000     -3.8305803E-08
   25.80000     -3.7458850E-08
   25.86000     -3.6573745E-08
   25.92000     -3.5572018E-08
   25.98000     -3.4393281E-08
   26.04000     -3.3018608E-08
   26.10000     -3.1480315E-08
   26.16000     -2.9854228E-08
   26.22000     -2.8236942E-08
   26.28000     -2.6716140E-08
   26.34000     -2.5344338E-08
   26.40000     -2.4125253E-08
   26.46000     -2.3017142E-08
   26.52000     -2.1951374E-08
   26.58000     -2.0859053E-08
   26.64000     -1.9695998E-08
   26.70000     -1.8457369E-08
   26.76000     -1.7177394E-08
   26.82000     -1.5915150E-08
   26.88000     -1.4732351E-08
   26.94000     -1.3671530E-08
   27.00000     -1.2742482E-08
   27.06000     -1.1921300E-08
   27.12000     -1.1161564E-08
   27.18000     -1.0412832E-08
   27.24000     -9.6392094E-09
   27.30000     -8.8311083E-09
   27.36000     -8.0062446E-09
   27.42000     -7.2001027E-09
   27.48000     -6.4500294E-09
   27.54000     -5.7793517E-09
   27.60000     -5.1876348E-09
   27.66000     -4.6507207E-09
   27.72000     -4.1304400E-09
   27.78000     -3.5903440E-09
   27.84000     -3.0117293E-09
   27.90000     -2.4042450E-09
   27.96000     -1.8073770E-09
   28.02000     -1.2822352E-09
   28.08000     -8.9622298E-10
   28.14000     -7.0529893E-10
   28.20000     -7.3913842E-10
   28.26000     -9.9348574E-10
   28.32000     -1.4318290E-09
   28.38000     -1.9958948E-09
   28.44000     -2.6220082E-09
   28.50000     -3.2587217E-09
   28.56000     -3.8806425E-09
   28.62000     -4.4942734E-09
   28.68000     -5.1338440E-09
   28.74000     -5.8480136E-09
   28.80000     -6.6813119E-09
   28.86000     -7.6561699E-09
   28.92000     -8.7616723E-09
   28.98000     -9.9532889E-09
   29.04000     -1.1164328E-08
   29.10000     -1.2325715E-08
   29.16000     -1.3387534E-08
   29.22000     -1.4334786E-08
   29.28000     -1.5191624E-08
   29.34000     -1.6012333E-08
   29.40000     -1.6862165E-08
   29.46000     -1.7794878E-08
   29.52000     -1.8835035E-08
   29.58000     -1.9971262E-08
   29.64000     -2.1162460E-08
   29.70000     -2.2354067E-08
   29.76000     -2.3497771E-08
   29.82000     -2.4567090E-08
   29.88000     -2.5563212E-08
   29.94000     -2.6509516E-08
   30.00000     -2.7437816E-08
   30.06000     -2.8372350E-08
   30.12000     -2.9318199E-08
   30.18000     -3.0258626E-08
   30.24000     -3.1162045E-08
   30.30000     -3.1995427E-08
   30.36000     -3.2738576E-08
   30.42000     -3.3393398E-08
   30.48000     -3.3984630E-08
   30.54000     -3.4551732E-08
   30.60000     -3.5134807E-08
   30.66000     -3.5759676E-08
   30.72000     -3.6427004E-08
   30.78000     -3.7109057E-08
   30.84000     -3.7754933E-08
   30.90000     -3.8302456E-08
   30.96000     -3.8693234E-08
   31.02000     -3.8886547E-08
   31.08000     -3.8868428E-08
   31.14000     -3.8653642E-08
   31.20000     -3.8280255E-08
   31.26000     -3.7798401E-08
   31.32000     -3.7256278E-08
   31.38000     -3.6687357E-08
   31.44000     -3.6102499E-08
   31.50000     -3.5489577E-08
   31.56000     -3.4821042E-08
   31.62000     -3.4067636E-08
   31.68000     -3.3214199E-08
   31.74000     -3.2272492E-08
   31.80000     -3.1286415E-08
   31.86000     -3.0327019E-08
   31.92000     -2.9477825E-08
   31.98000     -2.8814293E-08
   32.04000     -2.8383727E-08
   32.10000     -2.8192161E-08
   32.16000     -2.8203178E-08
   32.22000     -2.8349747E-08
   32.28000     -2.8555837E-08
   32.34000     -2.8760757E-08
   32.40000     -2.8937876E-08
   32.46000     -2.9100674E-08
   32.52000     -2.9293428E-08
   32.58000     -2.9569311E-08
   32.64000     -2.9963651E-08
   32.70000     -3.0472496E-08
   32.76000     -3.1045190E-08
   32.82000     -3.1594954E-08
   32.88000     -3.2024776E-08
   32.94000     -3.2259852E-08
   33.00000     -3.2274993E-08
   33.06000     -3.2106627E-08
   33.12000     -3.1844458E-08
   33.18000     -3.1605246E-08
   33.24000     -3.1497628E-08
   33.30000     -3.1590304E-08
   33.36000     -3.1894430E-08
   33.42000     -3.2365680E-08
   33.48000     -3.2924099E-08
   33.54000     -3.3483449E-08
   33.60000     -3.3978825E-08
   33.66000     -3.4382577E-08
   33.72000     -3.4703660E-08
   33.78000     -3.4972274E-08
   33.84000     -3.5216914E-08
   33.90000     -3.5443605E-08
   33.96000     -3.5625526E-08
   34.02000     -3.5706591E-08
   34.08000     -3.5617223E-08
   34.14000     -3.5295649E-08
   34.20000     -3.4706730E-08
   34.26000     -3.3851414E-08
   34.32000     -3.2764088E-08
   34.38000     -3.1499592E-08
   34.44000     -3.0115412E-08
   34.50000     -2.8655926E-08
   34.56000     -2.7144301E-08
   34.62000     -2.5584498E-08
   34.68000     -2.3971904E-08
   34.74000     -2.2308024E-08
   34.80000     -2.0613244E-08
   34.86000     -1.8932523E-08
   34.92000     -1.7331338E-08
   34.98000     -1.5882744E-08
   35.04000     -1.4649332E-08
   35.10000     -1.3665876E-08
   35.16000     -1.2928294E-08
   35.22000     -1.2392764E-08
   35.28000     -1.1985677E-08
   35.34000     -1.1621743E-08
   35.40000     -1.1224967E-08
   35.46000     -1.0746210E-08
   35.52000     -1.0172063E-08
   35.58000     -9.5224442E-09
   35.64000     -8.8379188E-09
   35.70000     -8.1610354E-09
   35.76000     -7.5179729E-09
   35.82000     -6.9067783E-09
   35.88000     -6.2964038E-09
   35.94000     -5.6372573E-09
   36.00000     -4.8801692E-09
   36.06000     -3.9977262E-09
   36.12000     -3.0009106E-09
   36.18000     -1.9451745E-09
   36.24000     -9.2328456E-10
   36.30000     -4.6448970E-11
   36.36000      5.8092386E-10
   36.42000      8.8522517E-10
   36.48000      8.3896290E-10
   36.54000      4.6255902E-10
   36.60000     -1.8791786E-10
   36.66000     -1.0430298E-09
   36.72000     -2.0448463E-09
   36.78000     -3.1660825E-09
   36.84000     -4.4170680E-09
   36.90000     -5.8382970E-09
   36.96000     -7.4813160E-09
   37.02000     -9.3848485E-09
   37.08000     -1.1554715E-08
   37.14000     -1.3954781E-08
   37.20000     -1.6512098E-08
   37.26000     -1.9134191E-08
   37.32000     -2.1731978E-08
   37.38000     -2.4239672E-08
   37.44000     -2.6624312E-08
   37.50000     -2.8881521E-08
   37.56000     -3.1019603E-08
   37.62000     -3.3038695E-08
   37.68000     -3.4913882E-08
   37.74000     -3.6589860E-08
   37.80000     -3.7990326E-08
   37.86000     -3.9039623E-08
   37.92000     -3.9689073E-08
   37.98000     -3.9938193E-08
   38.04000     -3.9842433E-08
   38.10000     -3.9503387E-08
   38.16000     -3.9043734E-08
   38.22000     -3.8574502E-08
   38.28000     -3.8165080E-08
   38.34000     -3.7825600E-08
   38.40000     -3.7507341E-08
   38.46000     -3.7120724E-08
   38.52000     -3.6564899E-08
   38.58000     -3.5759296E-08
   38.64000     -3.4667284E-08
   38.70000     -3.3305039E-08
   38.76000     -3.1733851E-08
   38.82000     -3.0039580E-08
   38.88000     -2.8306831E-08
   38.94000     -2.6596737E-08
   39.00000     -2.4935295E-08
   39.06000     -2.3315190E-08
   39.12000     -2.1709081E-08
   39.18000     -2.0088452E-08
   39.24000     -1.8440474E-08
   39.30000     -1.6776426E-08
   39.36000     -1.5128638E-08
   39.42000     -1.3537290E-08
   39.48000     -1.2032256E-08
   39.54000     -1.0617054E-08
   39.60000     -9.2613908E-09
   39.66000     -7.9057969E-09
   39.72000     -6.4777290E-09
   39.78000     -4.9144666E-09
   39.84000     -3.1856002E-09
   39.90000     -1.3076945E-09
   39.96000      6.5409839E-10
   40.02000      2.5987887E-09
   40.08000      4.4135366E-09
   40.14000      6.0021659E-09
   40.20000      7.3098683E-09
   40.26000      8.3366780E-09
   40.32000      9.1355457E-09
   40.38000      9.7955013E-09
   40.44000      1.0415026E-08
   40.50000      1.1073908E-08
   40.56000      1.1812395E-08
   40.62000      1.2624145E-08
   40.68000      1.3464933E-08
   40.74000      1.4273760E-08
   40.80000      1.4998795E-08
   40.86000      1.5618875E-08
   40.92000      1.6152887E-08
   40.98000      1.6653704E-08
   41.04000      1.7188961E-08
   41.10000      1.7815799E-08
   41.16000      1.8559071E-08
   41.22000      1.9401231E-08
   41.28000      2.0288001E-08
   41.34000      2.1148010E-08
   41.40000      2.1919469E-08
   41.46000      2.2574165E-08
   41.52000      2.3129921E-08
   41.58000      2.3646706E-08
   41.64000      2.4207379E-08
   41.70000      2.4889523E-08
   41.76000      2.5738027E-08
   41.82000      2.6747804E-08
   41.88000      2.7862642E-08
   41.94000      2.8990511E-08
   42.00000      3.0030225E-08
   42.06000      3.0900406E-08
   42.12000      3.1561186E-08
   42.18000      3.2021539E-08
   42.24000      3.2330171E-08
   42.30000      3.2553537E-08
   42.36000      3.2748826E-08
   42.42000      3.2941351E-08
   42.48000      3.3114134E-08
   42.54000      3.3213038E-08
   42.60000      3.3165328E-08
   42.66000      3.2904730E-08
   42.72000      3.2394002E-08
   42.78000      3.1637050E-08
   42.84000      3.0676510E-08
   42.90000      2.9578187E-08
   42.96000      2.8408440E-08
   43.02000      2.7213098E-08
   43.08000      2.6005777E-08
   43.14000      2.4769850E-08
   43.20000      2.3473286E-08
   43.26000      2.2090903E-08
   43.32000      2.0626015E-08
   43.38000      1.9123794E-08
   43.44000      1.7671788E-08
   43.50000      1.6387608E-08
   43.56000      1.5398291E-08
   43.62000      1.4818633E-08
   43.68000      1.4736139E-08
   43.74000      1.5208023E-08
   43.80000      1.6271871E-08
   43.86000      1.7967363E-08
   43.92000      2.0363208E-08
   43.98000      2.3582100E-08
   44.04000      2.7817327E-08
   44.10000      3.3337660E-08
   44.16000      4.0480813E-08
   44.22000      4.9639738E-08
   44.28000      6.1248194E-08
   44.34000      7.5772654E-08
   44.40000      9.3715556E-08
   44.46000      1.1563170E-07
   44.52000      1.4215571E-07
   44.58000      1.7403602E-07
   44.64000      2.1216931E-07
   44.70000      2.5763106E-07
   44.76000      3.1169978E-07
   44.82000      3.7587597E-07
   44.88000      4.5189825E-07
   44.94000      5.4176155E-07
   45.00000      6.4774042E-07
   45.06000      7.7242032E-07
   45.12000      9.1873881E-07
   45.18000      1.0900353E-06
   45.24000      1.2901108E-06
   45.30000      1.5232919E-06
   45.36000      1.7945001E-06
   45.42000      2.1093226E-06
   45.48000      2.4740796E-06
   45.54000      2.8958921E-06
   45.60000      3.3827444E-06
   45.66000      3.9435517E-06
   45.72000      4.5882357E-06
   45.78000      5.3278118E-06
   45.84000      6.1744872E-06
   45.90000      7.1417826E-06
   45.96000      8.2446568E-06
   46.02000      9.4996331E-06
   46.08000      1.0924923E-05
   46.14000      1.2540536E-05
   46.20000      1.4368376E-05
   46.26000      1.6432328E-05
   46.32000      1.8758334E-05
   46.38000      2.1374482E-05
   46.44000      2.4311099E-05
   46.50000      2.7600849E-05
   46.56000      3.1278822E-05
   46.62000      3.5382622E-05
   46.68000      3.9952422E-05
   46.74000      4.5030978E-05
   46.80000      5.0663653E-05
   46.86000      5.6898352E-05
   46.92000      6.3785461E-05
   46.98000      7.1377777E-05
   47.04000      7.9730373E-05
   47.10000      8.8900539E-05
   47.16000      9.8947581E-05
   47.22000      1.0993270E-04
   47.28000      1.2191870E-04
   47.34000      1.3496978E-04
   47.40000      1.4915114E-04
   47.46000      1.6452861E-04
   47.52000      1.8116827E-04
   47.58000      1.9913592E-04
   47.64000      2.1849659E-04
   47.70000      2.3931403E-04
   47.76000      2.6165013E-04
   47.82000      2.8556449E-04
   47.88000      3.1111357E-04
   47.94000      3.3835016E-04
   48.00000      3.6732285E-04
   48.06000      3.9807509E-04
   48.12000      4.3064464E-04
   48.18000      4.6506283E-04
   48.24000      5.0135388E-04
   48.30000      5.3953397E-04
   48.36000      5.7961117E-04
   48.42000      6.2158436E-04
   48.48000      6.6544308E-04
   48.54000      7.1116659E-04
   48.60000      7.5872382E-04
   48.66000      8.0807297E-04
   48.72000      8.5916108E-04
   48.78000      9.1192394E-04
   48.84000      9.6628605E-04
   48.90000      1.0221609E-03
   48.96000      1.0794502E-03
   49.02000      1.1380456E-03
   49.08000      1.1978276E-03
   49.14000      1.2586671E-03
   49.20000      1.3204257E-03
   49.26000      1.3829567E-03
   49.32000      1.4461055E-03
   49.38000      1.5097113E-03
   49.44000      1.5736077E-03
   49.50000      1.6376238E-03
   49.56000      1.7015864E-03
   49.62000      1.7653200E-03
   49.68000      1.8286494E-03
   49.74000      1.8914011E-03
   49.80000      1.9534044E-03
   49.86000      2.0144926E-03
   49.92000      2.0745061E-03
   49.98000      2.1332921E-03
   50.04000      2.1907077E-03
   50.10000      2.2466199E-03
   50.16000      2.3009067E-03
   50.22000      2.3534603E-03
   50.28000      2.4041862E-03
   50.34000      2.4530054E-03
   50.40000      2.4998542E-03
   50.46000      2.5446853E-03
   50.52000      2.5874679E-03
   50.58000      2.6281890E-03
   50.64000      2.6668522E-03
   50.70000      2.7034776E-03
   50.76000      2.7381023E-03
   50.82000      2.7707792E-03
   50.88000      2.8015752E-03
   50.94000      2.8305724E-03
   51.00000      2.8578653E-03
   51.06000      2.8835591E-03
   51.12000      2.9077700E-03
   51.18000      2.9306230E-03
   51.24000      2.9522483E-03
   51.30000      2.9727821E-03
   51.36000      2.9923629E-03
   51.42000      3.0111298E-03
   51.48000      3.0292212E-03
   51.54000      3.0467717E-03
   51.60000      3.0639123E-03
   51.66000      3.0807657E-03
   51.72000      3.0974476E-03
   51.78000      3.1140631E-03
   51.84000      3.1307051E-03
   51.90000      3.1474547E-03
   51.96000      3.1643792E-03
   52.02000      3.1815299E-03
   52.08000      3.1989438E-03
   52.14000      3.2166420E-03
   52.20000      3.2346298E-03
   52.26000      3.2528965E-03
   52.32000      3.2714154E-03
   52.38000      3.2901452E-03
   52.44000      3.3090292E-03
   52.50000      3.3279988E-03
   52.56000      3.3469722E-03
   52.62000      3.3658575E-03
   52.68000      3.3845534E-03
   52.74000      3.4029519E-03
   52.80000      3.4209385E-03
   52.86000      3.4383947E-03
   52.92000      3.4552007E-03
   52.98000      3.4712360E-03
   53.04000      3.4863825E-03
   53.10000      3.5005265E-03
   53.16000      3.5135595E-03
   53.22000      3.5253810E-03
   53.28000      3.5359000E-03
   53.34000      3.5450365E-03
   53.40000      3.5527223E-03
   53.46000      3.5589014E-03
   53.52000      3.5635331E-03
   53.58000      3.5665904E-03
   53.64000      3.5680619E-03
   53.70000      3.5679520E-03
   53.76000      3.5662798E-03
   53.82000      3.5630800E-03
   53.88000      3.5584024E-03
   53.94000      3.5523104E-03
   54.00000      3.5448801E-03
   54.06000      3.5361999E-03
   54.12000      3.5263679E-03
   54.18000      3.5154915E-03
   54.24000      3.5036849E-03
   54.30000      3.4910690E-03
   54.36000      3.4777680E-03
   54.42000      3.4639079E-03
   54.48000      3.4496153E-03
   54.54000      3.4350150E-03
   54.60000      3.4202288E-03
   54.66000      3.4053721E-03
   54.72000      3.3905539E-03
   54.78000      3.3758744E-03
   54.84000      3.3614240E-03
   54.90000      3.3472807E-03
   54.96000      3.3335111E-03
   55.02000      3.3201687E-03
   55.08000      3.3072932E-03
   55.14000      3.2949101E-03
   55.20000      3.2830301E-03
   55.26000      3.2716498E-03
   55.32000      3.2607517E-03
   55.38000      3.2503032E-03
   55.44000      3.2402587E-03
   55.50000      3.2305596E-03
   55.56000      3.2211356E-03