  -2.400000      0.0000000E+00
  -2.340000      0.0000000E+00
  -2.280000      0.0000000E+00
  -2.220000      0.0000000E+00
  -2.160000      0.0000000E+00
  -2.100000      3.7422779E-22
  -2.040000      1.5330717E-20
  -1.980000      1.2148093E-19
  -1.920000      5.0534289E-19
  -1.860000      1.3165212E-18
  -1.800000      2.0208581E-18
  -1.740000      2.0175682E-19
  -1.680000     -9.4110431E-18
  -1.620000     -3.3846454E-17
  -1.560000     -7.6674441E-17
  -1.500000     -1.2846577E-16
  -1.440000     -1.5684144E-16
  -1.380000     -1.0447913E-16
  -1.320000      9.5490332E-17
  -1.260000      4.8297533E-16
  -1.200000      1.0219794E-15
  -1.140000      1.5615684E-15
  -1.080000      1.8350348E-15
  -1.020000      1.5166056E-15
 -0.9600000      3.3206526E-16
 -0.9000000     -1.8064852E-15
 -0.8400000     -4.6855622E-15
 -0.7800000     -7.7320954E-15
 -0.7200000     -1.0029010E-14
 -0.6600000     -1.0408131E-14
 -0.6000000     -7.6350584E-15
 -0.5400000     -7.2881266E-16
 -0.4800000      1.0536726E-14
 -0.4200000      2.4977350E-14
 -0.3600000      3.9392094E-14
 -0.3000000      4.8423440E-14
 -0.2400000      4.5403920E-14
 -0.1800000      2.4517943E-14
 -0.1200000     -1.5961074E-14
 -5.9999999E-02 -7.0411836E-14
  0.0000000E+00 -1.2431561E-13
  5.9999999E-02 -1.5618457E-13
  0.1200000     -1.4377898E-13
  0.1800000     -7.3554593E-14
  0.2400000      4.9841767E-14
  0.3000000      1.9852102E-13
  0.3600000      3.2472698E-13
  0.4200000      3.7393244E-13
  0.4800000      3.0478078E-13
  0.5400000      1.0902198E-13
  0.6000000     -1.7716567E-13
  0.6600000     -4.7721668E-13
  0.7200000     -6.9494492E-13
  0.7800000     -7.4633946E-13
  0.8400000     -5.9097725E-13
  0.9000000     -2.5016911E-13
  0.9600000      1.9693496E-13
   1.020000      6.3947361E-13
   1.080000      9.7372642E-13
   1.140000      1.1386825E-12
   1.200000      1.1323583E-12
   1.260000      1.0002508E-12
   1.320000      7.9946320E-13
   1.380000      5.5412955E-13
   1.440000      2.2435558E-13
   1.500000     -2.9159010E-13
   1.560000     -1.1138104E-12
   1.620000     -2.3052677E-12
   1.680000     -3.7899362E-12
   1.740000     -5.2993300E-12
   1.800000     -6.3790856E-12
   1.860000     -6.4716132E-12
   1.920000     -5.0664126E-12
   1.980000     -1.8839591E-12
   2.040000      2.9593539E-12
   2.100000      8.8616866E-12
   2.160000      1.4764558E-11
   2.220000      1.9314186E-11
   2.280000      2.1132962E-11
   2.340000      1.9144865E-11
   2.400000      1.2878095E-11
   2.460000      2.6681502E-12
   2.520000     -1.0293742E-11
   2.580000     -2.4084080E-11
   2.640000     -3.6316502E-11
   2.700000     -4.4495407E-11
   2.760000     -4.6374331E-11
   2.820000     -4.0244308E-11
   2.880000     -2.5101912E-11
   2.940000     -6.8176974E-13
   3.000000      3.2627800E-11
   3.060000      7.3944594E-11
   3.120000      1.2207865E-10
   3.180000      1.7570129E-10
   3.240000      2.3346597E-10
   3.300000      2.9406302E-10
   3.360000      3.5620162E-10
   3.420000      4.1851975E-10
   3.480000      4.7943960E-10
   3.540000      5.3700006E-10
   3.600000      5.8872018E-10
   3.660000      6.3155653E-10
   3.720000      6.6201089E-10
   3.780000      6.7641137E-10
   3.840000      6.7133893E-10
   3.900000      6.4411643E-10
   3.960000      5.9323951E-10
   4.020000      5.1863452E-10
   4.080000      4.2166737E-10
   4.140000      3.0490688E-10
   4.200000      1.7172168E-10
   4.260000      2.5846863E-11
   4.320000     -1.2893933E-10
   4.380000     -2.8893346E-10
   4.440000     -4.5040777E-10
   4.500000     -6.0937499E-10
   4.560000     -7.6136158E-10
   4.620000     -9.0134583E-10
   4.680000     -1.0239674E-09
   4.740000     -1.1240185E-09
   4.800000     -1.1971274E-09
   4.860000     -1.2404626E-09
   4.920000     -1.2532786E-09
   4.980000     -1.2371708E-09
   5.040000     -1.1959991E-09
   5.100000     -1.1355376E-09
   5.160000     -1.0629672E-09
   5.220000     -9.8632658E-10
   5.280000     -9.1399022E-10
   5.340000     -8.5417612E-10
   5.400000     -8.1444279E-10
   5.460000     -8.0114582E-10
   5.520000     -8.1886392E-10
   5.580000     -8.6987006E-10
   5.640000     -9.5375430E-10
   5.700000     -1.0672885E-09
   5.760000     -1.2045711E-09
   5.820000     -1.3574140E-09
   5.880000     -1.5158909E-09
   5.940000     -1.6689629E-09
   6.000000     -1.8051181E-09
   6.060000     -1.9129962E-09
   6.120000     -1.9819706E-09
   6.180000     -2.0026290E-09
   6.240000     -1.9670650E-09
   6.300000     -1.8688744E-09
   6.360000     -1.7028083E-09
   6.420000     -1.4641325E-09
   6.480000     -1.1478535E-09
   6.540000     -7.4804468E-10
   6.600000     -2.5748267E-10
   6.660000      3.3229094E-10
   6.720000      1.0305061E-09
   6.780000      1.8464295E-09
   6.840000      2.7885183E-09
   6.900000      3.8635797E-09
   6.960000      5.0759570E-09
   7.020000      6.4267125E-09
   7.080000      7.9127851E-09
   7.140000      9.5261630E-09
   7.200000      1.1253222E-08
   7.260000      1.3074431E-08
   7.320000      1.4964552E-08
   7.380000      1.6893390E-08
   7.440000      1.8826929E-08
   7.500000      2.0728653E-08
   7.560000      2.2560783E-08
   7.620000      2.4285319E-08
   7.680000      2.5864852E-08
   7.740000      2.7263360E-08
   7.800000      2.8447150E-08
   7.860000      2.9386165E-08
   7.920000      3.0055617E-08
   7.980000      3.0437828E-08
   8.040000      3.0523871E-08
   8.100000      3.0314656E-08
   8.160000      2.9821059E-08
   8.220000      2.9062878E-08
   8.280000      2.8066614E-08
   8.340000      2.6862489E-08
   8.400000      2.5481175E-08
   8.460000      2.3950930E-08
   8.520000      2.2295762E-08
   8.580000      2.0534932E-08
   8.640000      1.8683899E-08
   8.700000      1.6756310E-08
   8.760000      1.4766456E-08
   8.820000      1.2731463E-08
   8.880000      1.0672617E-08
   8.940000      8.6153902E-09
   9.000000      6.5881434E-09
   9.060000      4.6197197E-09
   9.120000      2.7364324E-09
   9.180000      9.5901653E-10
   9.240000     -6.9989664E-10
   9.300000     -2.2373894E-09
   9.360000     -3.6607559E-09
   9.420000     -4.9869242E-09
   9.480000     -6.2409846E-09
   9.540000     -7.4540942E-09
   9.600000     -8.6609884E-09
   9.660000     -9.8972439E-09
   9.720000     -1.1196392E-08
   9.780000     -1.2586918E-08
   9.840000     -1.4089319E-08
   9.900000     -1.5713521E-08
   9.960000     -1.7457083E-08
   10.02000     -1.9304682E-08
   10.08000     -2.1229184E-08
   10.14000     -2.3194323E-08
   10.20000     -2.5158609E-08
   10.26000     -2.7079750E-08
   10.32000     -2.8918702E-08
   10.38000     -3.0642610E-08
   10.44000     -3.2226165E-08
   10.50000     -3.3651396E-08
   10.56000     -3.4906368E-08
   10.62000     -3.5983405E-08
   10.68000     -3.6877658E-08
   10.74000     -3.7586382E-08
   10.80000     -3.8109128E-08
   10.86000     -3.8448587E-08
   10.92000     -3.8611581E-08
   10.98000     -3.8609613E-08
   11.04000     -3.8458580E-08
   11.10000     -3.8177575E-08
   11.16000     -3.7787046E-08
   11.22000     -3.7306737E-08
   11.28000     -3.6754056E-08
   11.34000     -3.6143160E-08
   11.40000     -3.5484906E-08
   11.46000     -3.4787377E-08
   11.52000     -3.4056747E-08
   11.58000     -3.3298051E-08
   11.64000     -3.2515775E-08
   11.70000     -3.1714297E-08
   11.76000     -3.0898256E-08
   11.82000     -3.0072830E-08
   11.88000     -2.9243900E-08
   11.94000     -2.8417759E-08
   12.00000     -2.7600210E-08
   12.06000     -2.6795133E-08
   12.12000     -2.6002859E-08
   12.18000     -2.5218956E-08
   12.24000     -2.4433978E-08
   12.30000     -2.3634382E-08
   12.36000     -2.2804500E-08
   12.42000     -2.1928951E-08
   12.48000     -2.0994898E-08
   12.54000     -1.9993625E-08
   12.60000     -1.8921304E-08
   12.66000     -1.7779072E-08
   12.72000     -1.6572592E-08
   12.78000     -1.5311290E-08
   12.84000     -1.4007196E-08
   12.90000     -1.2673338E-08
   12.96000     -1.1321776E-08
   13.02000     -9.9616431E-09
   13.08000     -8.5977705E-09
   13.14000     -7.2304829E-09
   13.20000     -5.8567489E-09
   13.26000     -4.4723594E-09
   13.32000     -3.0743486E-09
   13.38000     -1.6627327E-09
   13.44000     -2.4093433E-10
   13.50000      1.1851444E-09
   13.56000      2.6088363E-09
   13.62000      4.0243302E-09
   13.68000      5.4274198E-09
   13.74000      6.8150712E-09
   13.80000      8.1840428E-09
   13.86000      9.5292130E-09
   13.92000      1.0842339E-08
   13.98000      1.2111739E-08
   14.04000      1.3323012E-08
   14.10000      1.4460592E-08
   14.16000      1.5509716E-08
   14.22000      1.6458397E-08
   14.28000      1.7299017E-08
   14.34000      1.8029336E-08
   14.40000      1.8652637E-08
   14.46000      1.9176987E-08
   14.52000      1.9613685E-08
   14.58000      1.9975134E-08
   14.64000      2.0272681E-08
   14.70000      2.0514879E-08
   14.76000      2.0706551E-08
   14.82000      2.0848706E-08
   14.88000      2.0939053E-08
   14.94000      2.0972672E-08
   15.00000      2.0942570E-08
   15.06000      2.0840005E-08
   15.12000      2.0654898E-08
   15.18000      2.0376698E-08
   15.24000      1.9995971E-08
   15.30000      1.9506647E-08
   15.36000      1.8908372E-08
   15.42000      1.8208219E-08
   15.48000      1.7421026E-08
   15.54000      1.6568002E-08
   15.60000      1.5673795E-08
   15.66000      1.4762758E-08
   15.72000      1.3855371E-08
   15.78000      1.2965766E-08
   15.84000      1.2100926E-08
   15.90000      1.1261685E-08
   15.96000      1.0445111E-08
   16.02000      9.6475556E-09
   16.08000      8.8675343E-09
   16.14000      8.1076852E-09
   16.20000      7.3753510E-09
   16.26000      6.6817383E-09
   16.32000      6.0399739E-09
   16.38000      5.4627103E-09
   16.44000      4.9600359E-09
   16.50000      4.5383657E-09
   16.56000      4.2006585E-09
   16.62000      3.9478945E-09
   16.68000      3.7812913E-09
   16.74000      3.7044785E-09
   16.80000      3.7248009E-09
   16.86000      3.8531760E-09
   16.92000      4.1023722E-09
   16.98000      4.4840966E-09
   17.04000      5.0056812E-09
   17.10000      5.6673306E-09
   17.16000      6.4607679E-09
   17.22000      7.3697075E-09
   17.28000      8.3720710E-09
   17.34000      9.4433785E-09
   17.40000      1.0560434E-08
   17.46000      1.1704391E-08
   17.52000      1.2862488E-08
   17.58000      1.4028136E-08
   17.64000      1.5199456E-08
   17.70000      1.6376722E-08
   17.76000      1.7559422E-08
   17.82000      1.8743647E-08
   17.88000      1.9920513E-08
   17.94000      2.1075943E-08
   18.00000      2.2191831E-08
   18.06000      2.3248184E-08
   18.12000      2.4225494E-08
   18.18000      2.5106491E-08
   18.24000      2.5876602E-08
   18.30000      2.6523015E-08
   18.36000      2.7032813E-08
   18.42000      2.7391158E-08
   18.48000      2.7580706E-08
   18.54000      2.7583022E-08
   18.60000      2.7381963E-08
   18.66000      2.6968140E-08
   18.72000      2.6342972E-08
   18.78000      2.5520810E-08
   18.84000      2.4528164E-08
   18.90000      2.3400075E-08
   18.96000      2.2174623E-08
   19.02000      2.0887065E-08
   19.08000      1.9565091E-08
   19.14000      1.8226073E-08
   19.20000      1.6876436E-08
   19.26000      1.5512674E-08
   19.32000      1.4123267E-08
   19.38000      1.2690859E-08
   19.44000      1.1194434E-08
   19.50000      9.6114263E-09
   19.56000      7.9198177E-09
   19.62000      6.1001240E-09
   19.68000      4.1370414E-09
   19.74000      2.0204365E-09
   19.80000     -2.5442273E-10
   19.86000     -2.6872791E-09
   19.92000     -5.2735607E-09
   19.98000     -8.0049141E-09
   20.04000     -1.0869384E-08
   20.10000     -1.3851333E-08
   20.16000     -1.6931502E-08
   20.22000     -2.0087596E-08
   20.28000     -2.3295662E-08
   20.34000     -2.6532083E-08
   20.40000     -2.9775734E-08
   20.46000     -3.3009705E-08
   20.52000     -3.6222136E-08
   20.58000     -3.9405894E-08
   20.64000     -4.2557378E-08
   20.70000     -4.5674707E-08
   20.76000     -4.8755727E-08
   20.82000     -5.1796139E-08
   20.88000     -5.4787797E-08
   20.94000     -5.7717305E-08
   21.00000     -6.0564865E-08
   21.06000     -6.3303645E-08
   21.12000     -6.5899911E-08
   21.18000     -6.8314264E-08
   21.24000     -7.0504207E-08
   21.30000     -7.2427987E-08
   21.36000     -7.4049240E-08
   21.42000     -7.5341895E-08
   21.48000     -7.6294413E-08
   21.54000     -7.6912478E-08
   21.60000     -7.7219426E-08
   21.66000     -7.7254107E-08
   21.72000     -7.7065955E-08
   21.78000     -7.6708346E-08
   21.84000     -7.6230869E-08
   21.90000     -7.5672439E-08
   21.96000     -7.5056391E-08
   22.02000     -7.4388900E-08
   22.08000     -7.3660807E-08
   22.14000     -7.2852480E-08
   22.20000     -7.1940079E-08
   22.26000     -7.0901550E-08
   22.32000     -6.9720770E-08
   22.38000     -6.8388985E-08
   22.44000     -6.6903752E-08
   22.50000     -6.5266391E-08
   22.56000     -6.3479305E-08
   22.62000     -6.1544348E-08
   22.68000     -5.9462995E-08
   22.74000     -5.7237848E-08
   22.80000     -5.4875127E-08
   22.86000     -5.2386984E-08
   22.92000     -4.9792927E-08
   22.98000     -4.7119951E-08
   23.04000     -4.4401144E-08
   23.10000     -4.1672887E-08
   23.16000     -3.8971081E-08
   23.22000     -3.6326867E-08
   23.28000     -3.3762927E-08
   23.34000     -3.1291357E-08
   23.40000     -2.8914167E-08
   23.46000     -2.6626820E-08
   23.52000     -2.4424269E-08
   23.58000     -2.2307809E-08
   23.64000     -2.0290457E-08
   23.70000     -1.8398683E-08
   23.76000     -1.6669274E-08
   23.82000     -1.5141836E-08
   23.88000     -1.3849073E-08
   23.94000     -1.2807902E-08
   24.00000     -1.2014437E-08
   24.06000     -1.1444594E-08
   24.12000     -1.1060266E-08
   24.18000     -1.0819253E-08
   24.24000     -1.0686003E-08
   24.30000     -1.0640176E-08
   24.36000     -1.0680861E-08
   24.42000     -1.0825687E-08
   24.48000     -1.1105401E-08
   24.54000     -1.1555559E-08
   24.60000     -1.2207408E-08
   24.66000     -1.3079974E-08
   24.72000     -1.4174923E-08
   24.78000     -1.5475058E-08
   24.84000     -1.6946574E-08
   24.90000     -1.8544437E-08
   24.96000     -2.0219609E-08
   25.02000     -2.1926502E-08
   25.08000     -2.3629063E-08
   25.14000     -2.5304285E-08
   25.20000     -2.6942683E-08
   25.26000     -2.8546104E-08
   25.32000     -3.0123832E-08
   25.38000     -3.1688245E-08
   25.44000     -3.3251045E-08
   25.50000     -3.4820548E-08
   25.56000     -3.6400053E-08
   25.62000     -3.7986752E-08
   25.68000     -3.9570860E-08
   25.74000     -4.1134662E-08
   25.80000     -4.2651951E-08
   25.86000     -4.4088427E-08
   25.92000     -4.5403858E-08
   25.98000     -4.6556316E-08
   26.04000     -4.7508106E-08
   26.10000     -4.8232252E-08
   26.16000     -4.8717780E-08
   26.22000     -4.8972062E-08
   26.28000     -4.9019082E-08
   26.34000     -4.8893536E-08
   26.40000     -4.8632153E-08
   26.46000     -4.8264514E-08
   26.52000     -4.7806051E-08
   26.58000     -4.7255416E-08
   26.64000     -4.6596977E-08
   26.70000     -4.5807607E-08
   26.76000     -4.4865519E-08
   26.82000     -4.3758043E-08
   26.88000     -4.2485713E-08
   26.94000     -4.1061213E-08
   27.00000     -3.9503512E-08
   27.06000     -3.7829164E-08
   27.12000     -3.6043780E-08
   27.18000     -3.4136733E-08
   27.24000     -3.2081214E-08
   27.30000     -2.9840226E-08
   27.36000     -2.7377213E-08
   27.42000     -2.4668834E-08
   27.48000     -2.1716396E-08
   27.54000     -1.8552873E-08
   27.60000     -1.5243307E-08
   27.66000     -1.1878035E-08
   27.72000     -8.5599785E-09
   27.78000     -5.3887872E-09
   27.84000     -2.4455074E-09
   27.90000      2.1859151E-10
   27.96000      2.5864049E-09
   28.02000      4.6717528E-09
   28.08000      6.5097208E-09
   28.14000      8.1435232E-09
   28.20000      9.6117176E-09
   28.26000      1.0939274E-08
   28.32000      1.2134613E-08
   28.38000      1.3192627E-08
   28.44000      1.4101699E-08
   28.50000      1.4851425E-08
   28.56000      1.5437696E-08
   28.62000      1.5862966E-08
   28.68000      1.6131539E-08
   28.74000      1.6241748E-08
   28.80000      1.6178353E-08
   28.86000      1.5908633E-08
   28.92000      1.5384549E-08
   28.98000      1.4551389E-08
   29.04000      1.3361044E-08
   29.10000      1.1786419E-08
   29.16000      9.8328190E-09
   29.22000      7.5428366E-09
   29.28000      4.9929354E-09
   29.34000      2.2820923E-09
   29.40000     -4.8496596E-10
   29.46000     -3.2159952E-09
   29.52000     -5.8465512E-09
   29.58000     -8.3486853E-09
   29.64000     -1.0730949E-08
   29.70000     -1.3029766E-08
   29.76000     -1.5294443E-08
   29.82000     -1.7569665E-08
   29.88000     -1.9880044E-08
   29.94000     -2.2220691E-08
   30.00000     -2.4556305E-08
   30.06000     -2.6828946E-08
   30.12000     -2.8972380E-08
   30.18000     -3.0929147E-08
   30.24000     -3.2665792E-08
   30.30000     -3.4182268E-08
   30.36000     -3.5513064E-08
   30.42000     -3.6719900E-08
   30.48000     -3.7877975E-08
   30.54000     -3.9059440E-08
   30.60000     -4.0318252E-08
   30.66000     -4.1680199E-08
   30.72000     -4.3140222E-08
   30.78000     -4.4667296E-08
   30.84000     -4.6215078E-08
   30.90000     -4.7735156E-08
   30.96000     -4.9189190E-08
   31.02000     -5.0556945E-08
   31.08000     -5.1838473E-08
   31.14000     -5.3050499E-08
   31.20000     -5.4218702E-08
   31.26000     -5.5368464E-08
   31.32000     -5.6516871E-08
   31.38000     -5.7668014E-08
   31.44000     -5.8812383E-08
   31.50000     -5.9929988E-08
   31.56000     -6.0995689E-08
   31.62000     -6.1985020E-08
   31.68000     -6.2878726E-08
   31.74000     -6.3664963E-08
   31.80000     -6.4339098E-08
   31.86000     -6.4901450E-08
   31.92000     -6.5354264E-08
   31.98000     -6.5699112E-08
   32.04000     -6.5935595E-08
   32.10000     -6.6061823E-08
   32.16000     -6.6076225E-08
   32.22000     -6.5979705E-08
   32.28000     -6.5776973E-08
   32.34000     -6.5475980E-08
   32.40000     -6.5085281E-08
   32.46000     -6.4610084E-08
   32.52000     -6.4048251E-08
   32.58000     -6.3388143E-08
   32.64000     -6.2609480E-08
   32.70000     -6.1687473E-08
   32.76000     -6.0599227E-08
   32.82000     -5.9330588E-08
   32.88000     -5.7881181E-08
   32.94000     -5.6265929E-08
   33.00000     -5.4512473E-08
   33.06000     -5.2655150E-08
   33.12000     -5.0727280E-08
   33.18000     -4.8753982E-08
   33.24000     -4.6747527E-08
   33.30000     -4.4706400E-08
   33.36000     -4.2618186E-08
   33.42000     -4.0465299E-08
   33.48000     -3.8231786E-08
   33.54000     -3.5909274E-08
   33.60000     -3.3500402E-08
   33.66000     -3.1019038E-08
   33.72000     -2.8487545E-08
   33.78000     -2.5932332E-08
   33.84000     -2.3379442E-08
   33.90000     -2.0851717E-08
   33.96000     -1.8368437E-08
   34.02000     -1.5947133E-08
   34.08000     -1.3606431E-08
   34.14000     -1.1368240E-08
   34.20000     -9.2578807E-09
   34.26000     -7.3016069E-09
   34.32000     -5.5220313E-09
   34.38000     -3.9329136E-09
   34.44000     -2.5350777E-09
   34.50000     -1.3149618E-09
   34.56000     -2.4646382E-10
   34.62000      7.0422618E-10
   34.68000      1.5719711E-09
   34.74000      2.3858548E-09
   34.80000      3.1638370E-09
   34.86000      3.9102064E-09
   34.92000      4.6164894E-09
   34.98000      5.2656683E-09
   35.04000      5.8387384E-09
   35.10000      6.3219381E-09
   35.16000      6.7126713E-09
   35.22000      7.0223116E-09
   35.28000      7.2748478E-09
   35.34000      7.5015310E-09
   35.40000      7.7329601E-09
   35.46000      7.9909421E-09
   35.52000      8.2826510E-09
   35.58000      8.5988834E-09
   35.64000      8.9169365E-09
   35.70000      9.2070920E-09
   35.76000      9.4406465E-09
   35.82000      9.5970325E-09
   35.88000      9.6680939E-09
   35.94000      9.6585975E-09
   36.00000      9.5833057E-09
   36.06000      9.4617798E-09
   36.12000      9.3125392E-09
   36.18000      9.1480263E-09
   36.24000      8.9713224E-09
   36.30000      8.7750216E-09
   36.36000      8.5421057E-09
   36.42000      8.2483975E-09
   36.48000      7.8659967E-09
   36.54000      7.3670607E-09
   36.60000      6.7273400E-09
   36.66000      5.9289080E-09
   36.72000      4.9616666E-09
   36.78000      3.8233892E-09
   36.84000      2.5182905E-09
   36.90000      1.0544271E-09
   36.96000     -5.5953125E-10
   37.02000     -2.3173583E-09
   37.08000     -4.2172603E-09
   37.14000     -6.2619594E-09
   37.20000     -8.4563414E-09
   37.26000     -1.0802714E-08
   37.32000     -1.3294480E-08
   37.38000     -1.5909762E-08
   37.44000     -1.8607050E-08
   37.50000     -2.1324803E-08
   37.56000     -2.3986233E-08
   37.62000     -2.6509136E-08
   37.68000     -2.8818976E-08
   37.74000     -3.0862186E-08
   37.80000     -3.2616043E-08
   37.86000     -3.4092075E-08
   37.92000     -3.5331539E-08
   37.98000     -3.6393672E-08
   38.04000     -3.7339635E-08
   38.10000     -3.8216385E-08
   38.16000     -3.9044828E-08
   38.22000     -3.9815593E-08
   38.28000     -4.0493447E-08
   38.34000     -4.1029040E-08
   38.40000     -4.1374470E-08
   38.46000     -4.1498222E-08
   38.52000     -4.1395200E-08
   38.58000     -4.1089173E-08
   38.64000     -4.0627157E-08
   38.70000     -4.0067697E-08
   38.76000     -3.9466716E-08
   38.82000     -3.8865100E-08
   38.88000     -3.8281609E-08
   38.94000     -3.7712731E-08
   39.00000     -3.7138957E-08
   39.06000     -3.6534967E-08
   39.12000     -3.5880042E-08
   39.18000     -3.5165314E-08
   39.24000     -3.4395711E-08
   39.30000     -3.3586286E-08
   39.36000     -3.2754677E-08
   39.42000     -3.1912492E-08
   39.48000     -3.1058729E-08
   39.54000     -3.0177489E-08
   39.60000     -2.9240629E-08
   39.66000     -2.8214622E-08
   39.72000     -2.7069323E-08
   39.78000     -2.5786099E-08
   39.84000     -2.4362949E-08
   39.90000     -2.2815197E-08
   39.96000     -2.1171774E-08
   40.02000     -1.9468249E-08
   40.08000     -1.7738810E-08
   40.14000     -1.6009624E-08
   40.20000     -1.4295651E-08
   40.26000     -1.2601865E-08
   40.32000     -1.0928503E-08
   40.38000     -9.2785264E-09
   40.44000     -7.6646467E-09
   40.50000     -6.1131944E-09
   40.56000     -4.6631019E-09
   40.62000     -3.3598506E-09
   40.68000     -2.2460600E-09
   40.74000     -1.3516726E-09
   40.80000     -6.8697564E-10
   40.86000     -2.4084165E-10
   40.92000      1.5169751E-11
   40.98000      1.1813467E-10
   41.04000      1.0325451E-10
   41.10000     -5.2884338E-12
   41.16000     -1.9953122E-10
   41.22000     -4.8780346E-10
   41.28000     -8.9010199E-10
   41.34000     -1.4304840E-09
   41.40000     -2.1288129E-09
   41.46000     -2.9940879E-09
   41.52000     -4.0209240E-09
   41.58000     -5.1897957E-09
   41.64000     -6.4706778E-09
   41.70000     -7.8288860E-09
   41.76000     -9.2314272E-09
   41.82000     -1.0652061E-08
   41.88000     -1.2073722E-08
   41.94000     -1.3487796E-08
   42.00000     -1.4890872E-08
   42.06000     -1.6280550E-08
   42.12000     -1.7652329E-08
   42.18000     -1.8999174E-08
   42.24000     -2.0314202E-08
   42.30000     -2.1595444E-08
   42.36000     -2.2850344E-08
   42.42000     -2.4097458E-08
   42.48000     -2.5363587E-08
   42.54000     -2.6676380E-08
   42.60000     -2.8054391E-08
   42.66000     -2.9498008E-08
   42.72000     -3.0984719E-08
   42.78000     -3.2471046E-08
   42.84000     -3.3901141E-08
   42.90000     -3.5219898E-08
   42.96000     -3.6386645E-08
   43.02000     -3.7385288E-08
   43.08000     -3.8227732E-08
   43.14000     -3.8949562E-08
   43.20000     -3.9599279E-08
   43.26000     -4.0224482E-08
   43.32000     -4.0859259E-08
   43.38000     -4.1516749E-08
   43.44000     -4.2189274E-08
   43.50000     -4.2855923E-08
   43.56000     -4.3495120E-08
   43.62000     -4.4097956E-08
   43.68000     -4.4677652E-08
   43.74000     -4.5271811E-08
   43.80000     -4.5936602E-08
   43.86000     -4.6734939E-08
   43.92000     -4.7723002E-08
   43.98000     -4.8940134E-08
   44.04000     -5.0406090E-08
   44.10000     -5.2127078E-08
   44.16000     -5.4108856E-08
   44.22000     -5.6372752E-08
   44.28000     -5.8969569E-08
   44.34000     -6.1987102E-08
   44.40000     -6.5549486E-08
   44.46000     -6.9809353E-08
   44.52000     -7.4936295E-08
   44.58000     -8.1106272E-08
   44.64000     -8.8496350E-08
   44.70000     -9.7287490E-08
   44.76000     -1.0767555E-07
   44.82000     -1.1988855E-07
   44.88000     -1.3420622E-07
   44.94000     -1.5097756E-07
   45.00000     -1.7063280E-07
   45.06000     -1.9368794E-07
   45.12000     -2.2074224E-07
   45.18000     -2.5247172E-07
   45.24000     -2.8962296E-07
   45.30000     -3.3301160E-07
   45.36000     -3.8352923E-07
   45.42000     -4.4215955E-07
   45.48000     -5.1000222E-07
   45.54000     -5.8830034E-07
   45.60000     -6.7846764E-07
   45.66000     -7.8211133E-07
   45.72000     -9.0104953E-07
   45.78000     -1.0373238E-06
   45.84000     -1.1932119E-06
   45.90000     -1.3712412E-06
   45.96000     -1.5742070E-06
   46.02000     -1.8051966E-06
   46.08000     -2.0676141E-06
   46.14000     -2.3652055E-06
   46.20000     -2.7020815E-06
   46.26000     -3.0827321E-06
   46.32000     -3.5120399E-06
   46.38000     -3.9952902E-06
   46.44000     -4.5381798E-06
   46.50000     -5.1468301E-06
   46.56000     -5.8278065E-06
   46.62000     -6.5881404E-06
   46.68000     -7.4353547E-06
   46.74000     -8.3774839E-06
   46.80000     -9.4230954E-06
   46.86000     -1.0581293E-05
   46.92000     -1.1861713E-05
   46.98000     -1.3274496E-05
   47.04000     -1.4830262E-05
   47.10000     -1.6540062E-05
   47.16000     -1.8415334E-05
   47.22000     -2.0467865E-05
   47.28000     -2.2709746E-05
   47.34000     -2.5153338E-05
   47.40000     -2.7811244E-05
   47.46000     -3.0696261E-05
   47.52000     -3.3821329E-05
   47.58000     -3.7199457E-05
   47.64000     -4.0843643E-05
   47.70000     -4.4766726E-05
   47.76000     -4.8981296E-05
   47.82000     -5.3499523E-05
   47.88000     -5.8333080E-05
   47.94000     -6.3492967E-05
   48.00000     -6.8989444E-05
   48.06000     -7.4831878E-05
   48.12000     -8.1028680E-05
   48.18000     -8.7587156E-05
   48.24000     -9.4513402E-05
   48.30000     -1.0181215E-04
   48.36000     -1.0948666E-04
   48.42000     -1.1753858E-04
   48.48000     -1.2596782E-04
   48.54000     -1.3477239E-04
   48.60000     -1.4394833E-04
   48.66000     -1.5348973E-04
   48.72000     -1.6338858E-04
   48.78000     -1.7363476E-04
   48.84000     -1.8421604E-04
   48.90000     -1.9511812E-04
   48.96000     -2.0632450E-04
   49.02000     -2.1781663E-04
   49.08000     -2.2957382E-04
   49.14000     -2.4157346E-04
   49.20000     -2.5379096E-04
   49.26000     -2.6619996E-04
   49.32000     -2.7877258E-04
   49.38000     -2.9147931E-04
   49.44000     -3.0428951E-04
   49.50000     -3.1717142E-04
   49.56000     -3.3009253E-04
   49.62000     -3.4301970E-04
   49.68000     -3.5591950E-04
   49.74000     -3.6875845E-04
   49.80000     -3.8150317E-04
   49.86000     -3.9412075E-04
   49.92000     -4.0657897E-04
   49.98000     -4.1884650E-04
   50.04000     -4.3089344E-04
   50.10000     -4.4269147E-04
   50.16000     -4.5421414E-04
   50.22000     -4.6543716E-04
   50.28000     -4.7633855E-04
   50.34000     -4.8689876E-04
   50.40000     -4.9710082E-04
   50.46000     -5.0693046E-04
   50.52000     -5.1637634E-04
   50.58000     -5.2543019E-04
   50.64000     -5.3408655E-04
   50.70000     -5.4234342E-04
   50.76000     -5.5020157E-04
   50.82000     -5.5766501E-04
   50.88000     -5.6474056E-04
   50.94000     -5.7143765E-04
   51.00000     -5.7776843E-04
   51.06000     -5.8374740E-04
   51.12000     -5.8939122E-04
   51.18000     -5.9471827E-04
   51.24000     -5.9974863E-04
   51.30000     -6.0450373E-04
   51.36000     -6.0900586E-04
   51.42000     -6.1327836E-04
   51.48000     -6.1734446E-04
   51.54000     -6.2122766E-04
   51.60000     -6.2495132E-04
   51.66000     -6.2853796E-04
   51.72000     -6.3200935E-04
   51.78000     -6.3538580E-04
   51.84000     -6.3868635E-04
   51.90000     -6.4192800E-04
   51.96000     -6.4512558E-04
   52.02000     -6.4829172E-04
   52.08000     -6.5143680E-04
   52.14000     -6.5456849E-04
   52.20000     -6.5769197E-04
   52.26000     -6.6080986E-04
   52.32000     -6.6392228E-04
   52.38000     -6.6702673E-04
   52.44000     -6.7011814E-04
   52.50000     -6.7318947E-04
   52.56000     -6.7623088E-04
   52.62000     -6.7923090E-04
   52.68000     -6.8217597E-04
   52.74000     -6.8505103E-04
   52.80000     -6.8783970E-04
   52.86000     -6.9052476E-04
   52.92000     -6.9308834E-04
   52.98000     -6.9551246E-04
   53.04000     -6.9777918E-04
   53.10000     -6.9987081E-04
   53.16000     -7.0177030E-04
   53.22000     -7.0346153E-04
   53.28000     -7.0492935E-04
   53.34000     -7.0616009E-04
   53.40000     -7.0714188E-04
   53.46000     -7.0786464E-04
   53.52000     -7.0832076E-04
   53.58000     -7.0850487E-04
   53.64000     -7.0841401E-04
   53.70000     -7.0804765E-04
   53.76000     -7.0740771E-04
   53.82000     -7.0649839E-04
   53.88000     -7.0532656E-04
   53.94000     -7.0390105E-04
   54.00000     -7.0223294E-04
   54.06000     -7.0033513E-04
   54.12000     -6.9822260E-04
   54.18000     -6.9591153E-04
   54.24000     -6.9341960E-04
   54.30000     -6.9076562E-04
   54.36000     -6.8796880E-04
   54.42000     -6.8504905E-04
   54.48000     -6.8202615E-04
   54.54000     -6.7891949E-04
   54.60000     -6.7574804E-04
   54.66000     -6.7252980E-04
   54.72000     -6.6928170E-04
   54.78000     -6.6601922E-04
   54.84000     -6.6275609E-04
   54.90000     -6.5950450E-04
   54.96000     -6.5627450E-04
   55.02000     -6.5307418E-04
   55.08000     -6.4990914E-04
   55.14000     -6.4678269E-04
   55.20000     -6.4369582E-04
   55.26000     -6.4064690E-04
   55.32000     -6.3763204E-04
   55.38000     -6.3464529E-04
   55.44000     -6.3167827E-04
   55.50000     -6.2872103E-04
   55.56000     -6.2576187E-04