 -0.750000000       0.00000000    
 -0.689999998       0.00000000    
 -0.629999995       0.00000000    
 -0.569999993       0.00000000    
 -0.509999990       0.00000000    
 -0.449999988      -5.94368933E-21
 -0.389999986       2.35659136E-20
 -0.330000013       5.18608588E-19
 -0.270000011       3.17535984E-18
 -0.209999993       1.21579321E-17
 -0.150000006       3.45235608E-17
  -9.00000036E-02   7.81908885E-17
  -2.99999993E-02   1.46519587E-16
   2.99999993E-02   2.30838236E-16
   9.00000036E-02   3.04490213E-16
  0.150000006       3.21329413E-16
  0.209999993       2.16380562E-16
  0.270000011      -1.00761524E-16
  0.330000013      -7.69943261E-16
  0.389999986      -2.01590940E-15
  0.449999988      -4.15298475E-15
  0.509999990      -7.47516740E-15
  0.569999993      -1.19378909E-14
  0.629999995      -1.66065739E-14
  0.689999998      -1.90202824E-14
  0.750000000      -1.48600513E-14
  0.810000002       1.50211859E-15
  0.870000005       3.50512601E-14
  0.930000007       8.67078287E-14
  0.990000010       1.49233544E-13
   1.04999995       2.04273881E-13
   1.11000001       2.22977602E-13
   1.16999996       1.72259911E-13
   1.23000002       2.70108287E-14
   1.28999996      -2.14387603E-13
   1.35000002      -5.16972099E-13
   1.40999997      -8.05928241E-13
   1.47000003      -9.79169003E-13
   1.52999997      -9.36780601E-13
   1.59000003      -6.20736481E-13
   1.64999998      -5.09076627E-14
   1.71000004       6.59932558E-13
   1.76999998       1.32555371E-12
   1.83000004       1.74201083E-12
   1.88999999       1.76530871E-12
   1.95000005       1.38222084E-12
   2.00999999       7.40442755E-13
   2.06999993       1.13735274E-13
   2.13000011      -1.98701624E-13
   2.19000006      -9.04018021E-15
   2.25000000       6.40299825E-13
   2.30999994       1.43544692E-12
   2.36999989       1.86647876E-12
   2.43000007       1.41419222E-12
   2.49000001      -2.09817339E-13
   2.54999995      -2.86704016E-12
   2.60999990      -5.94148602E-12
   2.67000008      -8.49524964E-12
   2.73000002      -9.61215742E-12
   2.78999996      -8.82124148E-12
   2.84999990      -6.42715698E-12
   2.91000009      -3.56963981E-12
   2.97000003      -1.90480162E-12
   3.02999997      -2.93481992E-12
   3.08999991      -7.16835619E-12
   3.15000010      -1.34132904E-11
   3.21000004      -1.85311402E-11
   3.26999998      -1.78896117E-11
   3.32999992      -6.54859196E-12
   3.39000010       1.90387567E-11
   3.45000005       5.92503338E-11
   3.50999999       1.09992328E-10
   3.56999993       1.62356364E-10
   3.63000011       2.03499509E-10
   3.69000006       2.18686236E-10
   3.75000000       1.94112254E-10
   3.80999994       1.19925583E-10
   3.86999989      -7.15831387E-12
   3.93000007      -1.82083834E-10
   3.99000001      -3.90679100E-10
   4.05000019      -6.09755357E-10
   4.11000013      -8.07811873E-10
   4.17000008      -9.46115075E-10
   4.23000002      -9.80126869E-10
   4.28999996      -8.61513361E-10
   4.34999990      -5.41126866E-10
   4.40999985       2.67182700E-11
   4.46999979       8.78692563E-10
   4.53000021       2.03616435E-09
   4.59000015       3.49925067E-09
   4.65000010       5.24258859E-09
   4.71000004       7.21412485E-09
   4.76999998       9.33770128E-09
   4.82999992       1.15193934E-08
   4.88999987       1.36566136E-08
   4.94999981       1.56483555E-08
   5.01000023       1.74046431E-08
   5.07000017       1.88536280E-08
   5.13000011       1.99454320E-08
   5.19000006       2.06528377E-08
   5.25000000       2.09696385E-08
   5.30999994       2.09079758E-08
   5.36999989       2.04957988E-08
   5.42999983       1.97751309E-08
   5.48999977       1.88010123E-08
   5.55000019       1.76403834E-08
   5.61000013       1.63697944E-08
   5.67000008       1.50710058E-08
   5.73000002       1.38241720E-08
   5.78999996       1.26991146E-08
   5.84999990       1.17460832E-08
   5.90999985       1.09879528E-08
   5.96999979       1.04158353E-08
   6.03000021       9.98962602E-09
   6.09000015       9.64406954E-09
   6.15000010       9.29972455E-09
   6.21000004       8.87711593E-09
   6.26999998       8.31152303E-09
   6.32999992       7.56559349E-09
   6.38999987       6.63732402E-09
   6.44999981       5.56184743E-09
   6.51000023       4.40669412E-09
   6.57000017       3.26153637E-09
   6.63000011       2.22443441E-09
   6.69000006       1.38717982E-09
   6.75000000       8.22285684E-10
   6.80999994       5.73612491E-10
   6.86999989       6.51742771E-10
   6.92999983       1.03426734E-09
   6.98999977       1.67038727E-09
   7.05000019       2.48876497E-09
   7.11000013       3.40741524E-09
   7.17000008       4.34445280E-09
   7.23000002       5.22861354E-09
   7.28999996       6.00847860E-09
   7.34999990       6.65929090E-09
   7.40999985       7.18620496E-09
   7.46999979       7.62297958E-09
   7.53000021       8.02558819E-09
   7.59000015       8.46108605E-09
   7.65000010       8.99320529E-09
   7.71000004       9.66720393E-09
   7.76999998       1.04972111E-08
   7.82999992       1.14592469E-08
   7.88999987       1.24921584E-08
   7.94999981       1.35069458E-08
   8.01000023       1.44028398E-08
   8.06999969       1.50865720E-08
   8.13000011       1.54901123E-08
   8.18999958       1.55823248E-08
   8.25000000       1.53713859E-08
   8.31000042       1.48972470E-08
   8.36999989       1.42161749E-08
   8.43000031       1.33816798E-08
   8.48999977       1.24272139E-08
   8.55000019       1.13556373E-08
   8.60999966       1.01385593E-08
   8.67000008       8.72588313E-09
   8.72999954       7.06299419E-09
   8.78999996       5.11084197E-09
   8.85000038       2.86329427E-09
   8.90999985       3.56863011E-10
   8.97000027      -2.33006592E-09
   9.02999973      -5.08857623E-09
   9.09000015      -7.79843479E-09
   9.14999962      -1.03504822E-08
   9.21000004      -1.26667583E-08
   9.27000046      -1.47136197E-08
   9.32999992      -1.65049237E-08
   9.39000034      -1.80948625E-08
   9.44999981      -1.95624654E-08
   9.51000023      -2.09916049E-08
   9.56999969      -2.24512196E-08
   9.63000011      -2.39801032E-08
   9.68999958      -2.55794035E-08
   9.75000000      -2.72140817E-08
   9.81000042      -2.88225426E-08
   9.86999989      -3.03318721E-08
   9.93000031      -3.16749329E-08
   9.98999977      -3.28052749E-08
   10.0500002      -3.37062858E-08
   10.1099997      -3.43926061E-08
   10.1700001      -3.49035929E-08
   10.2299995      -3.52909026E-08
   10.2900000      -3.56037333E-08
   10.3500004      -3.58760452E-08
   10.4099998      -3.61195482E-08
   10.4700003      -3.63245043E-08
   10.5299997      -3.64679167E-08
   10.5900002      -3.65264086E-08
   10.6499996      -3.64893644E-08
   10.7100000      -3.63678012E-08
   10.7700005      -3.61958215E-08
   10.8299999      -3.60238523E-08
   10.8900003      -3.59058383E-08
   10.9499998      -3.58845007E-08
   11.0100002      -3.59796672E-08
   11.0699997      -3.61835326E-08
   11.1300001      -3.64643249E-08
   11.1899996      -3.67770063E-08
   11.2500000      -3.70769513E-08
   11.3100004      -3.73317164E-08
   11.3699999      -3.75265472E-08
   11.4300003      -3.76617741E-08
   11.4899998      -3.77433480E-08
   11.5500002      -3.77704943E-08
   11.6099997      -3.77257443E-08
   11.6700001      -3.75720575E-08
   11.7299995      -3.72592339E-08
   11.7900000      -3.67383635E-08
   11.8500004      -3.59799799E-08
   11.9099998      -3.49897071E-08
   11.9700003      -3.38155210E-08
   12.0299997      -3.25429319E-08
   12.0900002      -3.12781729E-08
   12.1499996      -3.01229868E-08
   12.2100000      -2.91476443E-08
   12.2700005      -2.83695663E-08
   12.3299999      -2.77438676E-08
   12.3900003      -2.71691789E-08
   12.4499998      -2.65082356E-08
   12.5100002      -2.56187729E-08
   12.5699997      -2.43874574E-08
   12.6300001      -2.27584724E-08
   12.6899996      -2.07493933E-08
   12.7500000      -1.84498798E-08
   12.8100004      -1.60030176E-08
   12.8699999      -1.35735503E-08
   12.9300003      -1.13108163E-08
   12.9899998      -9.31570110E-09
   13.0500002      -7.62000241E-09
   13.1099997      -6.18320062E-09
   13.1700001      -4.90686514E-09
   13.2299995      -3.66212283E-09
   13.2900000      -2.32223307E-09
   13.3500004      -7.91381627E-10
   13.4099998       9.77426806E-10
   13.4700003       2.97877234E-09
   13.5299997       5.16452170E-09
   13.5900002       7.46220685E-09
   13.6499996       9.79572423E-09
   13.7100000       1.21023973E-08
   13.7700005       1.43426329E-08
   13.8299999       1.65012501E-08
   13.8900003       1.85821580E-08
   13.9499998       2.05995292E-08
   14.0100002       2.25688552E-08
   14.0699997       2.45003982E-08
   14.1300001       2.63963287E-08
   14.1899996       2.82514989E-08
   14.2500000       3.00569098E-08
   14.3100004       3.18044258E-08
   14.3699999       3.34912258E-08
   14.4300003       3.51225005E-08
   14.4899998       3.67116471E-08
   14.5500002       3.82775625E-08
   14.6099997       3.98398292E-08
   14.6700001       4.14131733E-08
   14.7299995       4.30031584E-08
   14.7900000       4.46047999E-08
   14.8500004       4.62049350E-08
   14.9099998       4.77876583E-08
   14.9700003       4.93409651E-08
   15.0299997       5.08617966E-08
   15.0900002       5.23572155E-08
   15.1499996       5.38406333E-08
   15.2100000       5.53240831E-08
   15.2700005       5.68092418E-08
   15.3299999       5.82806621E-08
   15.3900003       5.97042060E-08
   15.4499998       6.10318409E-08
   15.5100002       6.22117255E-08
   15.5699997       6.32003250E-08
   15.6300001       6.39727915E-08
   15.6899996       6.45281801E-08
   15.7500000       6.48879066E-08
   15.8100004       6.50883010E-08
   15.8699999       6.51697718E-08
   15.9300003       6.51661054E-08
   15.9899998       6.50968133E-08
   16.0499992       6.49643681E-08
   16.1100006       6.47561436E-08
   16.1700001       6.44499707E-08
   16.2299995       6.40212079E-08
   16.2900009       6.34494342E-08
   16.3500004       6.27235650E-08
   16.4099998       6.18445455E-08
   16.4699993       6.08256272E-08
   16.5300007       5.96902936E-08
   16.5900002       5.84682986E-08
   16.6499996       5.71906220E-08
   16.7099991       5.58842572E-08
   16.7700005       5.45682859E-08
   16.8299999       5.32523856E-08
   16.8899994       5.19384145E-08
   16.9500008       5.06247133E-08
   17.0100002       4.93116481E-08
   17.0699997       4.80062106E-08
   17.1299992       4.67236134E-08
   17.1900005       4.54848319E-08
   17.2500000       4.43105890E-08
   17.3099995       4.32139977E-08
   17.3700008       4.21947490E-08
   17.4300003       4.12376764E-08
   17.4899998       4.03167597E-08
   17.5499992       3.94036981E-08
   17.6100006       3.84781416E-08
   17.6700001       3.75358624E-08
   17.7299995       3.65915689E-08
   17.7900009       3.56750220E-08
   17.8500004       3.48215288E-08
   17.9099998       3.40599975E-08
   17.9699993       3.34026353E-08
   18.0300007       3.28398713E-08
   18.0900002       3.23421574E-08
   18.1499996       3.18679767E-08
   18.2099991       3.13754072E-08
   18.2700005       3.08334762E-08
   18.3299999       3.02301260E-08
   18.3899994       2.95747533E-08
   18.4500008       2.88951547E-08
   18.5100002       2.82301862E-08
   18.5699997       2.76203451E-08
   18.6299992       2.70984639E-08
   18.6900005       2.66823470E-08
   18.7500000       2.63704631E-08
   18.8099995       2.61412403E-08
   18.8700008       2.59560853E-08
   18.9300003       2.57658197E-08
   18.9899998       2.55196646E-08
   19.0499992       2.51752610E-08
   19.1100006       2.47076279E-08
   19.1700001       2.41146907E-08
   19.2299995       2.34175577E-08
   19.2900009       2.26549606E-08
   19.3500004       2.18729834E-08
   19.4099998       2.11127933E-08
   19.4699993       2.03998933E-08
   19.5300007       1.97381098E-08
   19.5900002       1.91099723E-08
   19.6499996       1.84829787E-08
   19.7099991       1.78193389E-08
   19.7700005       1.70856485E-08
   19.8299999       1.62593032E-08
   19.8899994       1.53298920E-08
   19.9500008       1.42958418E-08
   20.0100002       1.31584237E-08
   20.0699997       1.19160042E-08
   20.1299992       1.05611511E-08
   20.1900005       9.08176379E-09
   20.2500000       7.46570450E-09
   20.3099995       5.70689318E-09
   20.3700008       3.81022991E-09
   20.4300003       1.79304516E-09
   20.4899998      -3.18036431E-10
   20.5499992      -2.49439847E-09
   20.6100006      -4.71511052E-09
   20.6700001      -6.97635372E-09
   20.7299995      -9.29790200E-09
   20.7900009      -1.17246097E-08
   20.8500004      -1.43220449E-08
   20.9099998      -1.71668351E-08
   20.9699993      -2.03335837E-08
   21.0300007      -2.38810891E-08
   21.0900002      -2.78409011E-08
   21.1499996      -3.22106253E-08
   21.2099991      -3.69533666E-08
   21.2700005      -4.20029949E-08
   21.3299999      -4.72736765E-08
   21.3899994      -5.26708845E-08
   21.4500008      -5.81011790E-08
   21.5100002      -6.34785380E-08
   21.5699997      -6.87264148E-08
   21.6299992      -7.37763628E-08
   21.6900005      -7.85649235E-08
   21.7500000      -8.30313311E-08
   21.8099995      -8.71178472E-08
   21.8700008      -9.07737316E-08
   21.9300003      -9.39622069E-08
   21.9899998      -9.66685647E-08
   22.0499992      -9.89068596E-08
   22.1100006      -1.00722751E-07
   22.1700001      -1.02190661E-07
   22.2299995      -1.03404986E-07
   22.2900009      -1.04466487E-07
   22.3500004      -1.05466341E-07
   22.4099998      -1.06471035E-07
   22.4699993      -1.07511170E-07
   22.5300007      -1.08576799E-07
   22.5900002      -1.09620188E-07
   22.6499996      -1.10565509E-07
   22.7099991      -1.11323452E-07
   22.7700005      -1.11807537E-07
   22.8299999      -1.11948822E-07
   22.8899994      -1.11705781E-07
   22.9500008      -1.11067855E-07
   23.0100002      -1.10052277E-07
   23.0699997      -1.08695858E-07
   23.1299992      -1.07044208E-07
   23.1900005      -1.05141673E-07
   23.2500000      -1.03024554E-07
   23.3099995      -1.00719014E-07
   23.3700008      -9.82433761E-08
   23.4300003      -9.56132737E-08
   23.4899998      -9.28469817E-08
   23.5499992      -8.99686441E-08
   23.6100006      -8.70079333E-08
   23.6700001      -8.39961629E-08
   23.7299995      -8.09604757E-08
   23.7900009      -7.79182585E-08
   23.8500004      -7.48739808E-08
   23.9099998      -7.18201605E-08
   23.9699993      -6.87421391E-08
   24.0300007      -6.56257342E-08
   24.0900002      -6.24654675E-08
   24.1499996      -5.92709242E-08
   24.2099991      -5.60695277E-08
   24.2700005      -5.29045110E-08
   24.3299999      -4.98286852E-08
   24.3899994      -4.68952202E-08
   24.4500008      -4.41478569E-08
   24.5100002      -4.16129140E-08
   24.5699997      -3.92952586E-08
   24.6299992      -3.71793156E-08
   24.6900005      -3.52349367E-08
   24.7500000      -3.34265700E-08
   24.8099995      -3.17234452E-08
   24.8700008      -3.01081151E-08
   24.9300003      -2.85814235E-08
   24.9899998      -2.71630078E-08
   25.0499992      -2.58877400E-08
   25.1100006      -2.47994745E-08
   25.1700001      -2.39438744E-08
   25.2299995      -2.33618458E-08
   25.2900009      -2.30845298E-08
   25.3500004      -2.31301556E-08
   25.4099998      -2.35026523E-08
   25.4699993      -2.41918148E-08
   25.5300007      -2.51749768E-08
   25.5900002      -2.64201478E-08
   25.6499996      -2.78903922E-08
   25.7099991      -2.95488505E-08
   25.7700005      -3.13632746E-08
   25.8299999      -3.33087975E-08
   25.8899994      -3.53679823E-08
   25.9500008      -3.75279718E-08
   26.0100002      -3.97756637E-08
   26.0699997      -4.20926085E-08
   26.1299992      -4.44517205E-08
   26.1900005      -4.68172594E-08
   26.2500000      -4.91483512E-08
   26.3099995      -5.14051166E-08
   26.3700008      -5.35552083E-08
   26.4300003      -5.55785107E-08
   26.4899998      -5.74681565E-08
   26.5499992      -5.92274461E-08
   26.6100006      -6.08635702E-08
   26.6700001      -6.23800744E-08
   26.7299995      -6.37704787E-08
   26.7900009      -6.50148166E-08
   26.8500004      -6.60800126E-08
   26.9099998      -6.69236400E-08
   26.9699993      -6.74998972E-08
   27.0300007      -6.77662086E-08
   27.0900002      -6.76889655E-08
   27.1499996      -6.72474698E-08
   27.2099991      -6.64356534E-08
   27.2700005      -6.52617373E-08
   27.3299999      -6.37459294E-08
   27.3899994      -6.19168503E-08
   27.4500008      -5.98071495E-08
   27.5100002      -5.74491708E-08
   27.5699997      -5.48715597E-08
   27.6299992      -5.20976080E-08
   27.6900005      -4.91456298E-08
   27.7500000      -4.60310687E-08
   27.8099995      -4.27691660E-08
   27.8700008      -3.93768715E-08
   27.9300003      -3.58726844E-08
   27.9899998      -3.22741975E-08
   28.0499992      -2.85942150E-08
   28.1100006      -2.48373269E-08
   28.1700001      -2.09990105E-08
   28.2299995      -1.70686238E-08
   28.2900009      -1.30360842E-08
   28.3500004      -8.90036311E-09
   28.4099998      -4.67675410E-09
   28.4699993      -3.99997813E-10
   28.5300007       3.87849441E-09
   28.5900002       8.09899525E-09
   28.6499996       1.22050912E-08
   28.7099991       1.61551039E-08
   28.7700005       1.99299279E-08
   28.8299999       2.35352555E-08
   28.8899994       2.69980305E-08
   28.9500008       3.03588443E-08
   29.0100002       3.36627970E-08
   29.0699997       3.69513096E-08
   29.1299992       4.02562428E-08
   29.1900005       4.35965291E-08
   29.2500000       4.69764494E-08
   29.3099995       5.03845463E-08
   29.3700008       5.37926894E-08
   29.4300003       5.71556349E-08
   29.4899998       6.04120629E-08
   29.5499992       6.34882440E-08
   29.6100006       6.63048780E-08
   29.6700001       6.87862993E-08
   29.7299995       7.08704491E-08
   29.7900009       7.25171532E-08
   29.8500004       7.37125063E-08
   29.9099998       7.44680335E-08
   29.9699993       7.48146860E-08
   30.0300007       7.47930926E-08
   30.0900002       7.44424185E-08
   30.1499996       7.37903463E-08
   30.2099991       7.28463405E-08
   30.2700005       7.15996222E-08
   30.3299999       7.00220895E-08
   30.3899994       6.80756003E-08
   30.4500008       6.57221122E-08
   30.5100002       6.29347454E-08
   30.5699997       5.97074745E-08
   30.6299992       5.60614524E-08
   30.6900005       5.20463672E-08
   30.7500000       4.77363002E-08
   30.8099995       4.32208971E-08
   30.8700008       3.85936119E-08
   30.9300003       3.39396884E-08
   30.9899998       2.93266762E-08
   31.0499992       2.47993448E-08
   31.1100006       2.03799395E-08
   31.1700001       1.60730149E-08
   31.2299995       1.18730208E-08
   31.2900009       7.77216513E-09
   31.3500004       3.76628151E-09
   31.4099998      -1.42823239E-10
   31.4699993      -3.94878752E-09
   31.5300007      -7.64493269E-09
   31.5900002      -1.12294787E-08
   31.6499996      -1.47095758E-08
   31.7099991      -1.81024191E-08
   31.7700005      -2.14326334E-08
   31.8299999      -2.47264147E-08
   31.8899994      -2.80039760E-08
   31.9500008      -3.12724424E-08
   32.0099983      -3.45212605E-08
   32.0699997      -3.77213603E-08
   32.1300011      -4.08281053E-08
   32.1899986      -4.37871002E-08
   32.2500000      -4.65411851E-08
   32.3100014      -4.90371299E-08
   32.3699989      -5.12309946E-08
   32.4300003      -5.30918811E-08
   32.4900017      -5.46042038E-08
   32.5499992      -5.57686768E-08
   32.6100006      -5.66018130E-08
   32.6699982      -5.71336010E-08
   32.7299995      -5.74030032E-08
   32.7900009      -5.74515830E-08
   32.8499985      -5.73166083E-08
   32.9099998      -5.70255914E-08
   32.9700012      -5.65943097E-08
   33.0299988      -5.60294815E-08
   33.0900002      -5.53353949E-08
   33.1500015      -5.45222889E-08
   33.2099991      -5.36131459E-08
   33.2700005      -5.26459552E-08
   33.3300018      -5.16701064E-08
   33.3899994      -5.07379418E-08
   33.4500008      -4.98943962E-08
   33.5099983      -4.91684844E-08
   33.5699997      -4.85697242E-08
   33.6300011      -4.80905733E-08
   33.6899986      -4.77135877E-08
   33.7500000      -4.74204072E-08
   33.8100014      -4.71992294E-08
   33.8699989      -4.70483208E-08
   33.9300003      -4.69749928E-08
   33.9900017      -4.69911932E-08
   34.0499992      -4.71077968E-08
   34.1100006      -4.73296602E-08
   34.1699982      -4.76526729E-08
   34.2299995      -4.80627946E-08
   34.2900009      -4.85363607E-08
   34.3499985      -4.90409029E-08
   34.4099998      -4.95361405E-08
   34.4700012      -4.99756396E-08
   34.5299988      -5.03097759E-08
   34.5900002      -5.04905060E-08
   34.6500015      -5.04775564E-08
   34.7099991      -5.02445303E-08
   34.7700005      -4.97830825E-08
   34.8300018      -4.91033241E-08
   34.8899994      -4.82299001E-08
   34.9500008      -4.71945150E-08
   35.0099983      -4.60271359E-08
   35.0699997      -4.47485284E-08
   35.1300011      -4.33665015E-08
   35.1899986      -4.18766639E-08
   35.2500000      -4.02671745E-08
   35.3100014      -3.85256662E-08
   35.3699989      -3.66460000E-08
   35.4300003      -3.46331781E-08
   35.4900017      -3.25056604E-08
   35.5499992      -3.02953893E-08
   35.6100006      -2.80464274E-08
   35.6699982      -2.58129518E-08
   35.7299995      -2.36568649E-08
   35.7900009      -2.16445972E-08
   35.8499985      -1.98425507E-08
   35.9099998      -1.83109687E-08
   35.9700012      -1.70969532E-08
   36.0299988      -1.62281300E-08
   36.0900002      -1.57088511E-08
   36.1500015      -1.55203583E-08
   36.2099991      -1.56251687E-08
   36.2700005      -1.59745461E-08
   36.3300018      -1.65168199E-08
   36.3899994      -1.72041048E-08
   36.4500008      -1.79956334E-08
   36.5099983      -1.88572837E-08
   36.5699997      -1.97582182E-08
   36.6300011      -2.06664730E-08
   36.6899986      -2.15454019E-08
   36.7500000      -2.23522623E-08
   36.8100014      -2.30393074E-08
   36.8699989      -2.35569804E-08
   36.9300003      -2.38584477E-08
   36.9900017      -2.39047697E-08
   37.0499992      -2.36701325E-08
   37.1100006      -2.31466508E-08
   37.1699982      -2.23479066E-08
   37.2299995      -2.13101643E-08
   37.2900009      -2.00901340E-08
   37.3499985      -1.87588309E-08
   37.4099998      -1.73921517E-08
   37.4700012      -1.60601470E-08
   37.5299988      -1.48177746E-08
   37.5900002      -1.36996059E-08
   37.6500015      -1.27197604E-08
   37.7099991      -1.18763062E-08
   37.7700005      -1.11576970E-08
   37.8300018      -1.05482734E-08
   37.8899994      -1.00306261E-08
   37.9500008      -9.58460245E-09
   38.0099983      -9.18479248E-09
   38.0699997      -8.79953266E-09
   38.1300011      -8.39401082E-09
   38.1899986      -7.93815147E-09
   38.2500000      -7.41736228E-09
   38.3100014      -6.84223833E-09
   38.3699989      -6.25289198E-09
   38.4300003      -5.71513370E-09
   38.4900017      -5.30855138E-09
   38.5499992      -5.10964426E-09
   38.6100006      -5.17508081E-09
   38.6699982      -5.53027446E-09
   38.7299995      -6.16665163E-09
   38.7900009      -7.04807768E-09
   38.8499985      -8.12402767E-09
   38.9099998      -9.34521083E-09
   38.9700012      -1.06770530E-08
   39.0299988      -1.21075576E-08
   39.0900002      -1.36480152E-08
   39.1500015      -1.53270836E-08
   39.2099991      -1.71802927E-08
   39.2700005      -1.92378593E-08
   39.3300018      -2.15136726E-08
   39.3899994      -2.39978899E-08
   39.4500008      -2.66546660E-08
   39.5099983      -2.94255251E-08
   39.5699997      -3.22377538E-08
   39.6300011      -3.50160221E-08
   39.6899986      -3.76946012E-08
   39.7500000      -4.02270786E-08
   39.8100014      -4.25908482E-08
   39.8699989      -4.47847199E-08
   39.9300003      -4.68199453E-08
   39.9900017      -4.87068341E-08
   40.0499992      -5.04409279E-08
   40.1100006      -5.19932115E-08
   40.1699982      -5.33081810E-08
   40.2299995      -5.43114602E-08
   40.2900009      -5.49257386E-08
   40.3499985      -5.50910499E-08
   40.4099998      -5.47834809E-08
   40.4700012      -5.40265042E-08
   40.5299988      -5.28909077E-08
   40.5900002      -5.14827221E-08
   40.6500015      -4.99221571E-08
   40.7099991      -4.83193823E-08
   40.7700005      -4.67538577E-08
   40.8300018      -4.52627020E-08
   40.8899994      -4.38405614E-08
   40.9500008      -4.24499333E-08
   41.0099983      -4.10379961E-08
   41.0699997      -3.95546316E-08
   41.1300011      -3.79668457E-08
   41.1899986      -3.62664885E-08
   41.2500000      -3.44705953E-08
   41.3100014      -3.26154712E-08
   41.3699989      -3.07468397E-08
   41.4300003      -2.89086248E-08
   41.4900017      -2.71327956E-08
   41.5499992      -2.54323371E-08
   41.6100006      -2.37990321E-08
   41.6699982      -2.22071321E-08
   41.7299995      -2.06227817E-08
   41.7900009      -1.90174969E-08
   41.8499985      -1.73822787E-08
   41.9099998      -1.57378466E-08
   41.9700012      -1.41369281E-08
   42.0299988      -1.26564812E-08
   42.0900002      -1.13810437E-08
   42.1500015      -1.03816831E-08
   42.2099991      -9.69718084E-09
   42.2700005      -9.32386435E-09
   42.3300018      -9.21798016E-09
   42.3899994      -9.31035071E-09
   42.4500008      -9.52882839E-09
   42.5099983      -9.82128512E-09
   42.5699997      -1.01716564E-08
   42.6300011      -1.06038858E-08
   42.6899986      -1.11726512E-08
   42.7500000      -1.19441790E-08
   42.8100014      -1.29735414E-08
   42.8699989      -1.42858285E-08
   42.9300003      -1.58670446E-08
   42.9900017      -1.76672277E-08
   43.0499992      -1.96142711E-08
   43.1100006      -2.16334630E-08
   43.1699982      -2.36662299E-08
   43.2299995      -2.56820538E-08
   43.2900009      -2.76801213E-08
   43.3499985      -2.96808409E-08
   43.4099998      -3.17107691E-08
   43.4700012      -3.37864883E-08
   43.5299988      -3.59029606E-08
   43.5900002      -3.80300520E-08
   43.6500015      -4.01178504E-08
   43.7099991      -4.21083755E-08
   43.7700005      -4.39494805E-08
   43.8300018      -4.56063738E-08
   43.8899994      -4.70675872E-08
   43.9500008      -4.83444396E-08
   44.0099983      -4.94651502E-08
   44.0699997      -5.04662054E-08
   44.1300011      -5.13838998E-08
   44.1899986      -5.22483212E-08
   44.2500000      -5.30808286E-08
   44.3100014      -5.38950857E-08
   44.3699989      -5.47005570E-08
   44.4300003      -5.55070301E-08
   44.4900017      -5.63284779E-08
   44.5499992      -5.71847494E-08
   44.6100006      -5.80999604E-08
   44.6699982      -5.90975837E-08
   44.7299995      -6.01932371E-08
   44.7900009      -6.13875102E-08
   44.8499985      -6.26615488E-08
   44.9099998      -6.39778648E-08
   44.9700012      -6.52870398E-08
   45.0299988      -6.65390019E-08
   45.0900002      -6.76951473E-08
   45.1500015      -6.87373429E-08
   45.2099991      -6.96702926E-08
   45.2700005      -7.05165704E-08
   45.3300018      -7.13067934E-08
   45.3899994      -7.20694189E-08
   45.4500008      -7.28252871E-08
   45.5099983      -7.35900159E-08
   45.5699997      -7.43839621E-08
   45.6300011      -7.52461062E-08
   45.6899986      -7.62461880E-08
   45.7500000      -7.74898012E-08
   45.8100014      -7.91139172E-08
   45.8699989      -8.12741376E-08
   45.9300003      -8.41283594E-08
   45.9900017      -8.78229542E-08
   46.0499992      -9.24868786E-08
   46.1100006      -9.82360717E-08
   46.1699982      -1.05186814E-07
   46.2299995      -1.13474137E-07
   46.2900009      -1.23269942E-07
   46.3499985      -1.34796267E-07
   46.4099998      -1.48331978E-07
   46.4700012      -1.64212850E-07
   46.5299988      -1.82828146E-07
   46.5900002      -2.04616754E-07
   46.6500015      -2.30066320E-07
   46.7099991      -2.59717609E-07
   46.7700005      -2.94174896E-07
   46.8300018      -3.34122916E-07
   46.8899994      -3.80349036E-07
   46.9500008      -4.33769600E-07
   47.0099983      -4.95457414E-07
   47.0699997      -5.66667609E-07
   47.1300011      -6.48858816E-07
   47.1899986      -7.43705868E-07
   47.2500000      -8.53104382E-07
   47.3100014      -9.79169727E-07
   47.3699989      -1.12423481E-06
   47.4300003      -1.29085367E-06
   47.4900017      -1.48181709E-06
   47.5499992      -1.70018188E-06
   47.6100006      -1.94931454E-06
   47.6699982      -2.23293955E-06
   47.7299995      -2.55518648E-06
   47.7900009      -2.92062487E-06
   47.8499985      -3.33428284E-06
   47.9099998      -3.80165284E-06
   47.9700012      -4.32868774E-06
   48.0299988      -4.92179697E-06
   48.0900002      -5.58785177E-06
   48.1500015      -6.33420177E-06
   48.2099991      -7.16871000E-06
   48.2700005      -8.09978610E-06
   48.3300018      -9.13641725E-06
   48.3899994      -1.02881913E-05
   48.4500008      -1.15652965E-05
   48.5099983      -1.29785130E-05
   48.5699997      -1.45391896E-05
   48.6300011      -1.62592096E-05
   48.6899986      -1.81509713E-05
   48.7500000      -2.02273586E-05
   48.8100014      -2.25017047E-05
   48.8699989      -2.49877612E-05
   48.9300003      -2.76996507E-05
   48.9900017      -3.06518086E-05
   49.0499992      -3.38589234E-05
   49.1100006      -3.73358307E-05
   49.1699982      -4.10974462E-05
   49.2299995      -4.51586602E-05
   49.2900009      -4.95342138E-05
   49.3499985      -5.42385860E-05
   49.4099998      -5.92858705E-05
   49.4700012      -6.46896515E-05
   49.5299988      -7.04628183E-05
   49.5900002      -7.66174853E-05
   49.6500015      -8.31647922E-05
   49.7099991      -9.01148087E-05
   49.7700005      -9.74763607E-05
   49.8300018      -1.05256862E-04
   49.8899994      -1.13462214E-04
   49.9500008      -1.22096622E-04
   50.0099983      -1.31162436E-04
   50.0699997      -1.40660093E-04
   50.1300011      -1.50587904E-04
   50.1899986      -1.60942043E-04
   50.2500000      -1.71716398E-04
   50.3100014      -1.82902499E-04
   50.3699989      -1.94489534E-04
   50.4300003      -2.06464276E-04
   50.4900017      -2.18811023E-04
   50.5499992      -2.31511702E-04
   50.6100006      -2.44545779E-04