  -2.400000      0.0000000E+00
  -2.340000      0.0000000E+00
  -2.280000      0.0000000E+00
  -2.220000      0.0000000E+00
  -2.160000      0.0000000E+00
  -2.100000     -2.9495782E-19
  -2.040000     -2.5247509E-18
  -1.980000     -1.0896734E-17
  -1.920000     -3.0492127E-17
  -1.860000     -5.8491715E-17
  -1.800000     -6.9690734E-17
  -1.740000     -1.0309835E-17
  -1.680000      1.7763787E-16
  -1.620000      4.9392339E-16
  -1.560000      8.1460826E-16
  -1.500000      8.9920171E-16
  -1.440000      5.3100893E-16
  -1.380000     -2.4971418E-16
  -1.320000     -9.9769417E-16
  -1.260000     -1.0247644E-15
  -1.200000      6.0842019E-17
  -1.140000      1.7076284E-15
  -1.080000      2.2272488E-15
  -1.020000     -4.4661215E-16
 -0.9600000     -7.1041746E-15
 -0.9000000     -1.5584966E-14
 -0.8400000     -2.0463691E-14
 -0.7800000     -1.5108933E-14
 -0.7200000      4.2041443E-15
 -0.6600000      3.4108252E-14
 -0.6000000      6.2756597E-14
 -0.5400000      7.3322228E-14
 -0.4800000      5.2022978E-14
 -0.4200000     -2.6700520E-15
 -0.3600000     -7.4739938E-14
 -0.3000000     -1.3350960E-13
 -0.2400000     -1.4546459E-13
 -0.1800000     -9.1055066E-14
 -0.1200000      2.1072614E-14
 -5.9999999E-02  1.5037928E-13
  0.0000000E+00  2.3576502E-13
  5.9999999E-02  2.2011231E-13
  0.1200000      7.9504254E-14
  0.1800000     -1.5562530E-13
  0.2400000     -3.9951441E-13
  0.3000000     -5.3606739E-13
  0.3600000     -4.6498428E-13
  0.4200000     -1.5284666E-13
  0.4800000      3.3390716E-13
  0.5400000      8.3477523E-13
  0.6000000      1.1468643E-12
  0.6600000      1.1083072E-12
  0.7200000      6.7930481E-13
  0.7800000     -2.0697121E-14
  0.8400000     -7.4798490E-13
  0.9000000     -1.2377720E-12
  0.9600000     -1.3334885E-12
   1.020000     -1.0763133E-12
   1.080000     -6.9727004E-13
   1.140000     -4.9739059E-13
   1.200000     -6.6284397E-13
   1.260000     -1.1098885E-12
   1.320000     -1.4581464E-12
   1.380000     -1.1784357E-12
   1.440000      1.2821324E-13
   1.500000      2.4467557E-12
   1.560000      5.2142800E-12
   1.620000      7.4391326E-12
   1.680000      8.0599642E-12
   1.740000      6.4050384E-12
   1.800000      2.5419976E-12
   1.860000     -2.6618239E-12
   1.920000     -7.8235717E-12
   1.980000     -1.1565322E-11
   2.040000     -1.3042312E-11
   2.100000     -1.2236197E-11
   2.160000     -9.8746558E-12
   2.220000     -7.0124340E-12
   2.280000     -4.4673735E-12
   2.340000     -2.3718028E-12
   2.400000     -4.2247760E-14
   2.460000      3.7802595E-12
   2.520000      1.0437804E-11
   2.580000      2.0839592E-11
   2.640000      3.5152790E-11
   2.700000      5.2828769E-11
   2.760000      7.2938558E-11
   2.820000      9.4653611E-11
   2.880000      1.1764657E-10
   2.940000      1.4222354E-10
   3.000000      1.6911680E-10
   3.060000      1.9901934E-10
   3.120000      2.3206292E-10
   3.180000      2.6748503E-10
   3.240000      3.0366504E-10
   3.300000      3.3856648E-10
   3.360000      3.7044398E-10
   3.420000      3.9854278E-10
   3.480000      4.2349327E-10
   3.540000      4.4720738E-10
   3.600000      4.7227722E-10
   3.660000      5.0108390E-10
   3.720000      5.3494725E-10
   3.780000      5.7363331E-10
   3.840000      6.1538519E-10
   3.900000      6.5742728E-10
   3.960000      6.9670808E-10
   4.020000      7.3057738E-10
   4.080000      7.5715895E-10
   4.140000      7.7535289E-10
   4.200000      7.8458040E-10
   4.260000      7.8449375E-10
   4.320000      7.7486473E-10
   4.380000      7.5574547E-10
   4.440000      7.2782752E-10
   4.500000      6.9279993E-10
   4.560000      6.5347894E-10
   4.620000      6.1358063E-10
   4.680000      5.7716826E-10
   4.740000      5.4796373E-10
   4.800000      5.2878463E-10
   4.860000      5.2131138E-10
   4.920000      5.2624383E-10
   4.980000      5.4373067E-10
   5.040000      5.7383537E-10
   5.100000      6.1678079E-10
   5.160000      6.7279121E-10
   5.220000      7.4148115E-10
   5.280000      8.2088519E-10
   5.340000      9.0634938E-10
   5.400000      9.8958730E-10
   5.460000      1.0582166E-09
   5.520000      1.0959964E-09
   5.580000      1.0837758E-09
   5.640000      1.0008850E-09
   5.700000      8.2648594E-10
   5.760000      5.4037835E-10
   5.820000      1.2302331E-10
   5.880000     -4.4501949E-10
   5.940000     -1.1836327E-09
   6.000000     -2.1129594E-09
   6.060000     -3.2520970E-09
   6.120000     -4.6168616E-09
   6.180000     -6.2173462E-09
   6.240000     -8.0561389E-09
   6.300000     -1.0127740E-08
   6.360000     -1.2419064E-08
   6.420000     -1.4910411E-08
   6.480000     -1.7576189E-08
   6.540000     -2.0385043E-08
   6.600000     -2.3299600E-08
   6.660000     -2.6276421E-08
   6.720000     -2.9266603E-08
   6.780000     -3.2217123E-08
   6.840000     -3.5072514E-08
   6.900000     -3.7776335E-08
   6.960000     -4.0272141E-08
   7.020000     -4.2504094E-08
   7.080000     -4.4417664E-08
   7.140000     -4.5960729E-08
   7.200000     -4.7085322E-08
   7.260000     -4.7749737E-08
   7.320000     -4.7920814E-08
   7.380000     -4.7576272E-08
   7.440000     -4.6706937E-08
   7.500000     -4.5318817E-08
   7.560000     -4.3434508E-08
   7.620000     -4.1093440E-08
   7.680000     -3.8350453E-08
   7.740000     -3.5272908E-08
   7.800000     -3.1936889E-08
   7.860000     -2.8423480E-08
   7.920000     -2.4815694E-08
   7.980000     -2.1196088E-08
   8.040000     -1.7644600E-08
   8.100000     -1.4236119E-08
   8.160000     -1.1037757E-08
   8.220000     -8.1063654E-09
   8.280000     -5.4869522E-09
   8.340000     -3.2122438E-09
   8.400000     -1.3029243E-09
   8.460000      2.3235025E-10
   8.520000      1.3978021E-09
   8.580000      2.2120559E-09
   8.640000      2.7093063E-09
   8.700000      2.9388958E-09
   8.760000      2.9626623E-09
   8.820000      2.8504792E-09
   8.880000      2.6751594E-09
   8.940000      2.5078863E-09
   9.000000      2.4146094E-09
   9.060000      2.4530014E-09
   9.120000      2.6692992E-09
   9.180000      3.0948444E-09
   9.240000      3.7430019E-09
   9.300000      4.6076800E-09
   9.360000      5.6643921E-09
   9.420000      6.8738304E-09
   9.480000      8.1869143E-09
   9.540000      9.5498960E-09
   9.600000      1.0908595E-08
   9.660000      1.2211745E-08
   9.720000      1.3414128E-08
   9.780000      1.4479993E-08
   9.840000      1.5386568E-08
   9.900000      1.6126638E-08
   9.960000      1.6709052E-08
   10.02000      1.7156697E-08
   10.08000      1.7502552E-08
   10.14000      1.7785215E-08
   10.20000      1.8045233E-08
   10.26000      1.8322799E-08
   10.32000      1.8656413E-08
   10.38000      1.9081630E-08
   10.44000      1.9629368E-08
   10.50000      2.0323826E-08
   10.56000      2.1180680E-08
   10.62000      2.2206137E-08
   10.68000      2.3396826E-08
   10.74000      2.4739997E-08
   10.80000      2.6213398E-08
   10.86000      2.7784759E-08
   10.92000      2.9411607E-08
   10.98000      3.1042472E-08
   11.04000      3.2620139E-08
   11.10000      3.4086611E-08
   11.16000      3.5388307E-08
   11.22000      3.6479925E-08
   11.28000      3.7325854E-08
   11.34000      3.7899405E-08
   11.40000      3.8181156E-08
   11.46000      3.8157975E-08
   11.52000      3.7823646E-08
   11.58000      3.7180921E-08
   11.64000      3.6243897E-08
   11.70000      3.5039353E-08
   11.76000      3.3606351E-08
   11.82000      3.1993910E-08
   11.88000      3.0257365E-08
   11.94000      2.8453986E-08
   12.00000      2.6638327E-08
   12.06000      2.4857714E-08
   12.12000      2.3148321E-08
   12.18000      2.1532520E-08
   12.24000      2.0018161E-08
   12.30000      1.8600064E-08
   12.36000      1.7263337E-08
   12.42000      1.5987615E-08
   12.48000      1.4751127E-08
   12.54000      1.3533939E-08
   12.60000      1.2320119E-08
   12.66000      1.1098940E-08
   12.72000      9.8650013E-09
   12.78000      8.6169409E-09
   12.84000      7.3543673E-09
   12.90000      6.0733569E-09
   12.96000      4.7617981E-09
   13.02000      3.3965692E-09
   13.08000      1.9442741E-09
   13.14000      3.6592968E-10
   13.20000     -1.3758071E-09
   13.26000     -3.3095111E-09
   13.32000     -5.4505485E-09
   13.38000     -7.8005336E-09
   13.44000     -1.0350001E-08
   13.50000     -1.3082307E-08
   13.56000     -1.5976715E-08
   13.62000     -1.9009720E-08
   13.68000     -2.2155097E-08
   13.74000     -2.5384075E-08
   13.80000     -2.8666943E-08
   13.86000     -3.1976484E-08
   13.92000     -3.5292626E-08
   13.98000     -3.8606963E-08
   14.04000     -4.1925635E-08
   14.10000     -4.5269296E-08
   14.16000     -4.8669250E-08
   14.22000     -5.2159589E-08
   14.28000     -5.5765952E-08
   14.34000     -5.9492976E-08
   14.40000     -6.3313642E-08
   14.46000     -6.7163974E-08
   14.52000     -7.0945894E-08
   14.58000     -7.4538576E-08
   14.64000     -7.7816033E-08
   14.70000     -8.0666460E-08
   14.76000     -8.3008459E-08
   14.82000     -8.4800142E-08
   14.88000     -8.6039776E-08
   14.94000     -8.6758980E-08
   15.00000     -8.7011145E-08
   15.06000     -8.6858606E-08
   15.12000     -8.6361560E-08
   15.18000     -8.5570726E-08
   15.24000     -8.4524586E-08
   15.30000     -8.3250647E-08
   15.36000     -8.1769230E-08
   15.42000     -8.0097735E-08
   15.48000     -7.8253613E-08
   15.54000     -7.6254985E-08
   15.60000     -7.4119228E-08
   15.66000     -7.1860839E-08
   15.72000     -6.9489893E-08
   15.78000     -6.7012323E-08
   15.84000     -6.4431859E-08
   15.90000     -6.1752971E-08
   15.96000     -5.8983897E-08
   16.02000     -5.6139015E-08
   16.08000     -5.3240278E-08
   16.14000     -5.0317627E-08
   16.20000     -4.7408008E-08
   16.26000     -4.4552678E-08
   16.32000     -4.1792688E-08
   16.38000     -3.9163282E-08
   16.44000     -3.6688672E-08
   16.50000     -3.4378896E-08
   16.56000     -3.2229799E-08
   16.62000     -3.0225916E-08
   16.68000     -2.8344978E-08
   16.74000     -2.6562425E-08
   16.80000     -2.4854998E-08
   16.86000     -2.3203539E-08
   16.92000     -2.1595699E-08
   16.98000     -2.0028907E-08
   17.04000     -1.8512829E-08
   17.10000     -1.7069866E-08
   17.16000     -1.5732315E-08
   17.22000     -1.4536349E-08
   17.28000     -1.3514705E-08
   17.34000     -1.2690961E-08
   17.40000     -1.2077442E-08
   17.46000     -1.1676710E-08
   17.52000     -1.1484252E-08
   17.58000     -1.1489184E-08
   17.64000     -1.1671172E-08
   17.70000     -1.1994703E-08
   17.76000     -1.2404588E-08
   17.82000     -1.2827331E-08
   17.88000     -1.3180840E-08
   17.94000     -1.3390928E-08
   18.00000     -1.3409205E-08
   18.06000     -1.3225342E-08
   18.12000     -1.2868487E-08
   18.18000     -1.2396840E-08
   18.24000     -1.1879150E-08
   18.30000     -1.1374829E-08
   18.36000     -1.0919266E-08
   18.42000     -1.0518210E-08
   18.48000     -1.0151223E-08
   18.54000     -9.7811910E-09
   18.60000     -9.3657526E-09
   18.66000     -8.8672376E-09
   18.72000     -8.2593425E-09
   18.78000     -7.5302058E-09
   18.84000     -6.6822121E-09
   18.90000     -5.7289684E-09
   18.96000     -4.6900381E-09
   19.02000     -3.5846415E-09
   19.08000     -2.4263440E-09
   19.14000     -1.2211581E-09
   19.20000      2.9305197E-11
   19.26000      1.3199896E-09
   19.32000      2.6326323E-09
   19.38000      3.9284496E-09
   19.44000      5.1473075E-09
   19.50000      6.2150556E-09
   19.56000      7.0572832E-09
   19.62000      7.6149034E-09
   19.68000      7.8560882E-09
   19.74000      7.7805851E-09
   19.80000      7.4155579E-09
   19.86000      6.8053017E-09
   19.92000      5.9989413E-09
   19.98000      5.0400817E-09
   20.04000      3.9606358E-09
   20.10000      2.7790170E-09
   20.16000      1.5014903E-09
   20.22000      1.2528704E-10
   20.28000     -1.3573895E-09
   20.34000     -2.9547942E-09
   20.40000     -4.6708633E-09
   20.46000     -6.5011396E-09
   20.52000     -8.4307530E-09
   20.58000     -1.0435552E-08
   20.64000     -1.2486296E-08
   20.70000     -1.4554272E-08
   20.76000     -1.6615740E-08
   20.82000     -1.8652926E-08
   20.88000     -2.0650976E-08
   20.94000     -2.2592420E-08
   21.00000     -2.4452254E-08
   21.06000     -2.6196666E-08
   21.12000     -2.7786848E-08
   21.18000     -2.9186928E-08
   21.24000     -3.0373041E-08
   21.30000     -3.1339919E-08
   21.36000     -3.2102353E-08
   21.42000     -3.2690650E-08
   21.48000     -3.3141646E-08
   21.54000     -3.3488057E-08
   21.60000     -3.3749597E-08
   21.66000     -3.3928540E-08
   21.72000     -3.4010981E-08
   21.78000     -3.3973219E-08
   21.84000     -3.3790947E-08
   21.90000     -3.3448131E-08
   21.96000     -3.2942538E-08
   22.02000     -3.2286366E-08
   22.08000     -3.1502488E-08
   22.14000     -3.0618583E-08
   22.20000     -2.9662168E-08
   22.26000     -2.8658677E-08
   22.32000     -2.7632948E-08
   22.38000     -2.6612387E-08
   22.44000     -2.5629170E-08
   22.50000     -2.4719270E-08
   22.56000     -2.3917556E-08
   22.62000     -2.3250038E-08
   22.68000     -2.2725544E-08
   22.74000     -2.2329360E-08
   22.80000     -2.2020934E-08
   22.86000     -2.1736822E-08
   22.92000     -2.1399062E-08
   22.98000     -2.0928002E-08
   23.04000     -2.0257314E-08
   23.10000     -1.9347748E-08
   23.16000     -1.8195784E-08
   23.22000     -1.6834125E-08
   23.28000     -1.5323362E-08
   23.34000     -1.3736920E-08
   23.40000     -1.2143937E-08
   23.46000     -1.0595302E-08
   23.52000     -9.1168975E-09
   23.58000     -7.7113347E-09
   23.64000     -6.3667076E-09
   23.70000     -5.0689204E-09
   23.76000     -3.8136516E-09
   23.82000     -2.6146183E-09
   23.88000     -1.5059806E-09
   23.94000     -5.3812210E-10
   24.00000      2.3245295E-10
   24.06000      7.5676687E-10
   24.12000      1.0067922E-09
   24.18000      9.8428177E-10
   24.24000      7.2149409E-10
   24.30000      2.7272223E-10
   24.36000     -3.0118907E-10
   24.42000     -9.5040020E-10
   24.48000     -1.6498055E-09
   24.54000     -2.4043976E-09
   24.60000     -3.2448531E-09
   24.66000     -4.2154542E-09
   24.72000     -5.3589875E-09
   24.78000     -6.7039125E-09
   24.84000     -8.2578717E-09
   24.90000     -1.0009150E-08
   24.96000     -1.1934918E-08
   25.02000     -1.4012844E-08
   25.08000     -1.6231587E-08
   25.14000     -1.8596007E-08
   25.20000     -2.1124826E-08
   25.26000     -2.3841121E-08
   25.32000     -2.6759007E-08
   25.38000     -2.9871625E-08
   25.44000     -3.3145518E-08
   25.50000     -3.6524487E-08
   25.56000     -3.9942474E-08
   25.62000     -4.3341771E-08
   25.68000     -4.6690282E-08
   25.74000     -4.9991733E-08
   25.80000     -5.3284424E-08
   25.86000     -5.6627766E-08
   25.92000     -6.0079842E-08
   25.98000     -6.3672402E-08
   26.04000     -6.7391468E-08
   26.10000     -7.1170618E-08
   26.16000     -7.4900683E-08
   26.22000     -7.8454249E-08
   26.28000     -8.1718106E-08
   26.34000     -8.4623466E-08
   26.40000     -8.7163713E-08
   26.46000     -8.9393374E-08
   26.52000     -9.1408346E-08
   26.58000     -9.3313766E-08
   26.64000     -9.5189812E-08
   26.70000     -9.7066248E-08
   26.76000     -9.8913112E-08
   26.82000     -1.0065009E-07
   26.88000     -1.0217121E-07
   26.94000     -1.0337791E-07
   27.00000     -1.0421093E-07
   27.06000     -1.0467186E-07
   27.12000     -1.0482758E-07
   27.18000     -1.0479479E-07
   27.24000     -1.0470797E-07
   27.30000     -1.0467912E-07
   27.36000     -1.0476191E-07
   27.42000     -1.0493209E-07
   27.48000     -1.0509176E-07
   27.54000     -1.0509714E-07
   27.60000     -1.0480122E-07
   27.66000     -1.0409725E-07
   27.72000     -1.0294849E-07
   27.78000     -1.0139493E-07
   27.84000     -9.9535377E-08
   27.90000     -9.7491785E-08
   27.96000     -9.5368257E-08
   28.02000     -9.3217551E-08
   28.08000     -9.1025385E-08
   28.14000     -8.8716170E-08
   28.20000     -8.6177721E-08
   28.26000     -8.3296484E-08
   28.32000     -7.9992468E-08
   28.38000     -7.6242891E-08
   28.44000     -7.2087552E-08
   28.50000     -6.7614373E-08
   28.56000     -6.2930262E-08
   28.62000     -5.8127231E-08
   28.68000     -5.3255498E-08
   28.74000     -4.8312909E-08
   28.80000     -4.3254225E-08
   28.86000     -3.8016690E-08
   28.92000     -3.2552713E-08
   28.98000     -2.6858142E-08
   29.04000     -2.0986638E-08
   29.10000     -1.5045741E-08
   29.16000     -9.1765937E-09
   29.22000     -3.5243319E-09
   29.28000      1.7912818E-09
   29.34000      6.6961188E-09
   29.40000      1.1167207E-08
   29.46000      1.5222549E-08
   29.52000      1.8899042E-08
   29.58000      2.2225890E-08
   29.64000      2.5202343E-08
   29.70000      2.7787330E-08
   29.76000      2.9904783E-08
   29.82000      3.1463106E-08
   29.88000      3.2382236E-08
   29.94000      3.2618864E-08
   30.00000      3.2180942E-08
   30.06000      3.1126557E-08
   30.12000      2.9547996E-08
   30.18000      2.7547076E-08
   30.24000      2.5210539E-08
   30.30000      2.2593483E-08
   30.36000      1.9715243E-08
   30.42000      1.6567437E-08
   30.48000      1.3129985E-08
   30.54000      9.3890691E-09
   30.60000      5.3512963E-09
   30.66000      1.0502663E-09
   30.72000     -3.4557064E-09
   30.78000     -8.0934379E-09
   30.84000     -1.2789119E-08
   30.90000     -1.7482693E-08
   30.96000     -2.2138103E-08
   31.02000     -2.6746337E-08
   31.08000     -3.1320315E-08
   31.14000     -3.5883239E-08
   31.20000     -4.0454143E-08
   31.26000     -4.5035257E-08
   31.32000     -4.9605177E-08
   31.38000     -5.4119756E-08
   31.44000     -5.8520332E-08
   31.50000     -6.2746373E-08
   31.56000     -6.6748527E-08
   31.62000     -7.0497741E-08
   31.68000     -7.3987557E-08
   31.74000     -7.7228705E-08
   31.80000     -8.0237740E-08
   31.86000     -8.3023771E-08
   31.92000     -8.5578122E-08
   31.98000     -8.7870738E-08
   32.04000     -8.9854737E-08
   32.10000     -9.1477141E-08
   32.16000     -9.2691415E-08
   32.22000     -9.3467122E-08
   32.28000     -9.3793858E-08
   32.34000     -9.3679475E-08
   32.40000     -9.3145388E-08
   32.46000     -9.2222464E-08
   32.52000     -9.0949740E-08
   32.58000     -8.9375803E-08
   32.64000     -8.7560700E-08
   32.70000     -8.5575486E-08
   32.76000     -8.3497653E-08
   32.82000     -8.1402625E-08
   32.88000     -7.9353512E-08
   32.94000     -7.7391903E-08
   33.00000     -7.5532540E-08
   33.06000     -7.3763474E-08
   33.12000     -7.2052217E-08
   33.18000     -7.0356819E-08
   33.24000     -6.8639523E-08
   33.30000     -6.6879451E-08
   33.36000     -6.5080499E-08
   33.42000     -6.3271081E-08
   33.48000     -6.1495022E-08
   33.54000     -5.9795710E-08
   33.60000     -5.8198669E-08
   33.66000     -5.6698703E-08
   33.72000     -5.5256564E-08
   33.78000     -5.3806811E-08
   33.84000     -5.2274387E-08
   33.90000     -5.0594355E-08
   33.96000     -4.8728396E-08
   34.02000     -4.6673076E-08
   34.08000     -4.4458172E-08
   34.14000     -4.2136616E-08
   34.20000     -3.9770107E-08
   34.26000     -3.7415049E-08
   34.32000     -3.5112574E-08
   34.38000     -3.2884440E-08
   34.44000     -3.0734522E-08
   34.50000     -2.8654252E-08
   34.56000     -2.6629591E-08
   34.62000     -2.4647509E-08
   34.68000     -2.2700409E-08
   34.74000     -2.0787830E-08
   34.80000     -1.8915454E-08
   34.86000     -1.7092169E-08
   34.92000     -1.5326526E-08
   34.98000     -1.3624301E-08
   35.04000     -1.1988718E-08
   35.10000     -1.0423795E-08
   35.16000     -8.9398542E-09
   35.22000     -7.5586284E-09
   35.28000     -6.3149543E-09
   35.34000     -5.2530411E-09
   35.40000     -4.4175912E-09
   35.46000     -3.8426045E-09
   35.52000     -3.5421073E-09
   35.58000     -3.5064458E-09
   35.64000     -3.7054955E-09
   35.70000     -4.0972865E-09
   35.76000     -4.6386774E-09
   35.82000     -5.2946181E-09
   35.88000     -6.0439231E-09
   35.94000     -6.8812147E-09
   36.00000     -7.8157045E-09
   36.06000     -8.8674765E-09
   36.12000     -1.0061550E-08
   36.18000     -1.1420137E-08
   36.24000     -1.2954524E-08
   36.30000     -1.4659263E-08
   36.36000     -1.6511626E-08
   36.42000     -1.8477698E-08
   36.48000     -2.0523496E-08
   36.54000     -2.2626571E-08
   36.60000     -2.4782603E-08
   36.66000     -2.7003454E-08
   36.72000     -2.9307252E-08
   36.78000     -3.1705085E-08
   36.84000     -3.4190759E-08
   36.90000     -3.6738651E-08
   36.96000     -3.9310642E-08
   37.02000     -4.1868862E-08
   37.08000     -4.4388312E-08
   37.14000     -4.6863825E-08
   37.20000     -4.9308600E-08
   37.26000     -5.1745221E-08
   37.32000     -5.4192903E-08
   37.38000     -5.6655946E-08
   37.44000     -5.9117447E-08
   37.50000     -6.1540291E-08
   37.56000     -6.3875071E-08
   37.62000     -6.6072239E-08
   37.68000     -6.8094671E-08
   37.74000     -6.9926287E-08
   37.80000     -7.1573929E-08
   37.86000     -7.3061464E-08
   37.92000     -7.4418040E-08
   37.98000     -7.5664332E-08
   38.04000     -7.6801612E-08
   38.10000     -7.7807492E-08
   38.16000     -7.8640014E-08
   38.22000     -7.9249013E-08
   38.28000     -7.9591338E-08
   38.34000     -7.9645453E-08
   38.40000     -7.9420801E-08
   38.46000     -7.8958976E-08
   38.52000     -7.8325577E-08
   38.58000     -7.7594599E-08
   38.64000     -7.6829380E-08
   38.70000     -7.6065838E-08
   38.76000     -7.5303284E-08
   38.82000     -7.4506033E-08
   38.88000     -7.3615425E-08
   38.94000     -7.2568177E-08
   39.00000     -7.1314808E-08
   39.06000     -6.9832332E-08
   39.12000     -6.8127932E-08
   39.18000     -6.6233916E-08
   39.24000     -6.4197394E-08
   39.30000     -6.2068892E-08
   39.36000     -5.9893708E-08
   39.42000     -5.7707336E-08
   39.48000     -5.5534841E-08
   39.54000     -5.3393030E-08
   39.60000     -5.1294130E-08
   39.66000     -4.9249927E-08
   39.72000     -4.7275464E-08
   39.78000     -4.5391033E-08
   39.84000     -4.3621380E-08
   39.90000     -4.1991520E-08
   39.96000     -4.0519993E-08
   40.02000     -3.9211788E-08
   40.08000     -3.8053884E-08
   40.14000     -3.7015873E-08
   40.20000     -3.6056310E-08
   40.26000     -3.5133283E-08
   40.32000     -3.4215784E-08
   40.38000     -3.3292174E-08
   40.44000     -3.2372796E-08
   40.50000     -3.1485783E-08
   40.56000     -3.0667316E-08
   40.62000     -2.9949451E-08
   40.68000     -2.9349239E-08
   40.74000     -2.8862566E-08
   40.80000     -2.8464578E-08
   40.86000     -2.8116544E-08
   40.92000     -2.7776968E-08
   40.98000     -2.7413497E-08
   41.04000     -2.7011971E-08
   41.10000     -2.6579883E-08
   41.16000     -2.6143173E-08
   41.22000     -2.5737339E-08
   41.28000     -2.5395464E-08
   41.34000     -2.5136817E-08
   41.40000     -2.4959846E-08
   41.46000     -2.4842320E-08
   41.52000     -2.4749429E-08
   41.58000     -2.4647884E-08
   41.64000     -2.4521540E-08
   41.70000     -2.4382709E-08
   41.76000     -2.4274140E-08
   41.82000     -2.4259787E-08
   41.88000     -2.4406738E-08
   41.94000     -2.4764466E-08
   42.00000     -2.5348943E-08
   42.06000     -2.6137345E-08
   42.12000     -2.7074893E-08
   42.18000     -2.8090712E-08
   42.24000     -2.9116579E-08
   42.30000     -3.0102289E-08
   42.36000     -3.1023600E-08
   42.42000     -3.1882067E-08
   42.48000     -3.2698690E-08
   42.54000     -3.3504360E-08
   42.60000     -3.4329840E-08
   42.66000     -3.5197186E-08
   42.72000     -3.6113942E-08
   42.78000     -3.7071260E-08
   42.84000     -3.8046707E-08
   42.90000     -3.9011503E-08
   42.96000     -3.9940282E-08
   43.02000     -4.0820215E-08
   43.08000     -4.1655831E-08
   43.14000     -4.2467398E-08
   43.20000     -4.3283205E-08
   43.26000     -4.4128626E-08
   43.32000     -4.5016268E-08
   43.38000     -4.5940823E-08
   43.44000     -4.6880398E-08
   43.50000     -4.7803450E-08
   43.56000     -4.8678675E-08
   43.62000     -4.9484456E-08
   43.68000     -5.0215043E-08
   43.74000     -5.0881894E-08
   43.80000     -5.1510050E-08
   43.86000     -5.2130687E-08
   43.92000     -5.2771959E-08
   43.98000     -5.3450638E-08
   44.04000     -5.4166783E-08
   44.10000     -5.4902848E-08
   44.16000     -5.5627044E-08
   44.22000     -5.6299630E-08
   44.28000     -5.6879941E-08
   44.34000     -5.7332219E-08
   44.40000     -5.7629297E-08
   44.46000     -5.7754249E-08
   44.52000     -5.7700944E-08
   44.58000     -5.7474118E-08
   44.64000     -5.7089167E-08
   44.70000     -5.6570940E-08
   44.76000     -5.5950863E-08
   44.82000     -5.5262142E-08
   44.88000     -5.4533832E-08
   44.94000     -5.3785353E-08
   45.00000     -5.3023236E-08
   45.06000     -5.2241276E-08
   45.12000     -5.1424148E-08
   45.18000     -5.0553322E-08
   45.24000     -4.9613352E-08
   45.30000     -4.8596533E-08
   45.36000     -4.7504656E-08
   45.42000     -4.6347740E-08
   45.48000     -4.5140776E-08
   45.54000     -4.3900130E-08
   45.60000     -4.2641197E-08
   45.66000     -4.1377831E-08
   45.72000     -4.0122995E-08
   45.78000     -3.8889251E-08
   45.84000     -3.7687801E-08
   45.90000     -3.6525780E-08
   45.96000     -3.5402934E-08
   46.02000     -3.4309505E-08
   46.08000     -3.3227181E-08
   46.14000     -3.2133467E-08
   46.20000     -3.1008280E-08
   46.26000     -2.9840372E-08
   46.32000     -2.8631177E-08
   46.38000     -2.7394838E-08
   46.44000     -2.6154918E-08
   46.50000     -2.4939373E-08
   46.56000     -2.3775879E-08
   46.62000     -2.2688726E-08
   46.68000     -2.1697508E-08
   46.74000     -2.0816898E-08
   46.80000     -2.0056600E-08
   46.86000     -1.9421048E-08
   46.92000     -1.8908993E-08
   46.98000     -1.8513656E-08
   47.04000     -1.8223924E-08
   47.10000     -1.8026590E-08
   47.16000     -1.7908947E-08
   47.22000     -1.7860632E-08
   47.28000     -1.7873910E-08
   47.34000     -1.7942357E-08
   47.40000     -1.8058929E-08
   47.46000     -1.8215010E-08
   47.52000     -1.8401749E-08
   47.58000     -1.8613740E-08
   47.64000     -1.8853637E-08
   47.70000     -1.9135220E-08
   47.76000     -1.9482767E-08
   47.82000     -1.9926270E-08
   47.88000     -2.0494104E-08
   47.94000     -2.1206276E-08
   48.00000     -2.2070969E-08
   48.06000     -2.3085143E-08
   48.12000     -2.4237716E-08
   48.18000     -2.5512524E-08
   48.24000     -2.6889179E-08
   48.30000     -2.8342251E-08
   48.36000     -2.9841438E-08
   48.42000     -3.1355768E-08
   48.48000     -3.2862701E-08
   48.54000     -3.4359498E-08
   48.60000     -3.5871295E-08
   48.66000     -3.7450612E-08
   48.72000     -3.9166153E-08
   48.78000     -4.1084032E-08
   48.84000     -4.3248768E-08
   48.90000     -4.5672419E-08
   48.96000     -4.8337540E-08
   49.02000     -5.1214176E-08
   49.08000     -5.4285859E-08
   49.14000     -5.7576258E-08
   49.20000     -6.1168564E-08
   49.26000     -6.5212625E-08
   49.32000     -6.9919324E-08
   49.38000     -7.5545856E-08
   49.44000     -8.2377724E-08
   49.50000     -9.0714060E-08
   49.56000     -1.0086114E-07
   49.62000     -1.1313650E-07
   49.68000     -1.2788317E-07
   49.74000     -1.4549083E-07
   49.80000     -1.6641961E-07
   49.86000     -1.9122170E-07
   49.92000     -2.2055802E-07
   49.98000     -2.5520839E-07
   50.04000     -2.9607617E-07
   50.10000     -3.4418937E-07
   50.16000     -4.0070162E-07
   50.22000     -4.6689547E-07
   50.28000     -5.4419161E-07
   50.34000     -6.3416570E-07
   50.40000     -7.3857404E-07
   50.46000     -8.5938706E-07
   50.52000     -9.9882675E-07
   50.58000     -1.1594057E-06
   50.64000     -1.3439625E-06
   50.70000     -1.5556923E-06
   50.76000     -1.7981707E-06
   50.82000     -2.0753771E-06
   50.88000     -2.3917164E-06
   50.94000     -2.7520482E-06
   51.00000     -3.1617192E-06
   51.06000     -3.6266042E-06
   51.12000     -4.1531498E-06
   51.18000     -4.7484195E-06
   51.24000     -5.4201346E-06
   51.30000     -6.1767091E-06
   51.36000     -7.0272758E-06
   51.42000     -7.9817019E-06
   51.48000     -9.0506082E-06
   51.54000     -1.0245378E-05
   51.60000     -1.1578181E-05
   51.66000     -1.3061998E-05
   51.72000     -1.4710646E-05
   51.78000     -1.6538803E-05
   51.84000     -1.8562025E-05
   51.90000     -2.0796726E-05
   51.96000     -2.3260172E-05
   52.02000     -2.5970427E-05
   52.08000     -2.8946304E-05
   52.14000     -3.2207303E-05
   52.20000     -3.5773548E-05
   52.26000     -3.9665716E-05
   52.32000     -4.3904958E-05
   52.38000     -4.8512833E-05
   52.44000     -5.3511201E-05
   52.50000     -5.8922120E-05
   52.56000     -6.4767730E-05
   52.62000     -7.1070092E-05
   52.68000     -7.7851058E-05
   52.74000     -8.5132066E-05
   52.80000     -9.2933951E-05
   52.86000     -1.0127678E-04
   52.92000     -1.1017962E-04
   52.98000     -1.1966033E-04
   53.04000     -1.2973536E-04
   53.10000     -1.4041958E-04
   53.16000     -1.5172607E-04
   53.22000     -1.6366586E-04
   53.28000     -1.7624782E-04
   53.34000     -1.8947839E-04
   53.40000     -2.0336130E-04
   53.46000     -2.1789753E-04
   53.52000     -2.3308498E-04
   53.58000     -2.4891848E-04
   53.64000     -2.6538956E-04
   53.70000     -2.8248635E-04
   53.76000     -3.0019335E-04
   53.82000     -3.1849157E-04
   53.88000     -3.3735856E-04
   53.94000     -3.5676829E-04
   54.00000     -3.7669123E-04
   54.06000     -3.9709438E-04
   54.12000     -4.1794119E-04
   54.18000     -4.3919170E-04
   54.24000     -4.6080281E-04
   54.30000     -4.8272844E-04
   54.36000     -5.0491997E-04
   54.42000     -5.2732643E-04
   54.48000     -5.4989482E-04
   54.54000     -5.7257025E-04
   54.60000     -5.9529633E-04
   54.66000     -6.1801565E-04
   54.72000     -6.4067007E-04
   54.78000     -6.6320121E-04
   54.84000     -6.8555091E-04
   54.90000     -7.0766167E-04
   54.96000     -7.2947680E-04
   55.02000     -7.5094122E-04
   55.08000     -7.7200140E-04
   55.14000     -7.9260627E-04
   55.20000     -8.1270724E-04
   55.26000     -8.3225907E-04
   55.32000     -8.5121975E-04
   55.38000     -8.6955121E-04
   55.44000     -8.8721927E-04
   55.50000     -9.0419373E-04
   55.56000     -9.2044874E-04