 -0.750000000       0.00000000    
 -0.689999998       0.00000000    
 -0.629999995       0.00000000    
 -0.569999993       0.00000000    
 -0.509999990       0.00000000    
 -0.449999988       3.72492572E-22
 -0.389999986       1.54399562E-20
 -0.330000013       1.22461505E-19
 -0.270000011       5.09355849E-19
 -0.209999993       1.32598159E-18
 -0.150000006       2.03131901E-18
  -9.00000036E-02   1.87658136E-19
  -2.99999993E-02  -9.50625656E-18
   2.99999993E-02  -3.40858168E-17
   9.00000036E-02  -7.70342915E-17
  0.150000006      -1.28679154E-16
  0.209999993      -1.56278386E-16
  0.270000011      -1.02271248E-16
  0.330000013       9.98630073E-17
  0.389999986       4.88627367E-16
  0.449999988       1.02553858E-15
  0.509999990       1.55701935E-15
  0.569999993       1.81558399E-15
  0.629999995       1.47899904E-15
  0.689999998       2.82246572E-16
  0.750000000      -1.84937680E-15
  0.810000002      -4.69081679E-15
  0.870000005      -7.66738798E-15
  0.930000007      -9.87744432E-15
  0.990000010      -1.01857906E-14
   1.04999995      -7.39881670E-15
   1.11000001      -5.65634997E-16
   1.16999996       1.05395581E-14
   1.23000002       2.47693220E-14
   1.28999996       3.89824146E-14
   1.35000002       4.78701212E-14
   1.40999997       4.47666298E-14
   1.47000003       2.38013700E-14
   1.52999997      -1.68214408E-14
   1.59000003      -7.14695433E-14
   1.64999998      -1.25427026E-13
   1.71000004      -1.56782316E-13
   1.76999998      -1.42754569E-13
   1.83000004      -6.94382973E-14
   1.88999999       5.82754737E-14
   1.95000005       2.11271105E-13
   2.00999999       3.39512706E-13
   2.06999993       3.85609215E-13
   2.13000011       3.05833755E-13
   2.19000006       9.15334432E-14
   2.25000000      -2.18197585E-13
   2.30999994      -5.40033187E-13
   2.36999989      -7.68108667E-13
   2.43000007      -8.08423207E-13
   2.49000001      -6.14118240E-13
   2.54999995      -2.07631438E-13
   2.60999990       3.20604952E-13
   2.67000008       8.38598668E-13
   2.73000002       1.21565399E-12
   2.78999996       1.36525394E-12
   2.84999990       1.27029864E-12
   2.91000009       9.79399504E-13
   2.97000003       5.74875976E-13
   3.02999997       1.25944055E-13
   3.08999991      -3.51195147E-13
   3.15000010      -9.05092895E-13
   3.21000004      -1.62116934E-12
   3.26999998      -2.55897083E-12
   3.32999992      -3.67603604E-12
   3.39000010      -4.77048175E-12
   3.45000005      -5.47411248E-12
   3.50999999      -5.31524868E-12
   3.56999993      -3.84846191E-12
   3.63000011      -8.23366278E-13
   3.69000006       3.65537375E-12
   3.75000000       9.03225585E-12
   3.80999994       1.43157482E-11
   3.86999989       1.82246423E-11
   3.93000007       1.94507709E-11
   3.99000001       1.69856681E-11
   4.05000019       1.04320797E-11
   4.11000013       2.14804804E-13
   4.17000008      -1.23756708E-11
   4.23000002      -2.53321062E-11
   4.28999996      -3.62446080E-11
   4.34999990      -4.27043297E-11
   4.40999985      -4.26941503E-11
   4.46999979      -3.48677441E-11
   4.53000021      -1.86544200E-11
   4.59000015       5.81756128E-12
   4.65000010       3.79301660E-11
   4.71000004       7.68313538E-11
   4.76999998       1.21646290E-10
   4.82999992       1.71579556E-10
   4.88999987       2.25890001E-10
   4.94999981       2.83766399E-10
   5.01000023       3.44161200E-10
   5.07000017       4.05642825E-10
   5.13000011       4.66308936E-10
   5.19000006       5.23773969E-10
   5.25000000       5.75220760E-10
   5.30999994       6.17500606E-10
   5.36999989       6.47270570E-10
   5.42999983       6.61174782E-10
   5.48999977       6.56080190E-10
   5.55000019       6.29371166E-10
   5.61000013       5.79279402E-10
   5.67000008       5.05193110E-10
   5.73000002       4.07867212E-10
   5.78999996       2.89459956E-10
   5.84999990       1.53360505E-10
   5.90999985       3.83494668E-12
   5.96999979      -1.54415231E-10
   6.03000021      -3.16650983E-10
   6.09000015      -4.78329432E-10
   6.15000010      -6.35121566E-10
   6.21000004      -7.82760134E-10
   6.26999998      -9.16854814E-10
   6.32999992      -1.03284536E-09
   6.38999987      -1.12622767E-09
   6.44999981      -1.19307419E-09
   6.51000023      -1.23073962E-09
   6.57000017      -1.23854316E-09
   6.63000011      -1.21820365E-09
   6.69000006      -1.17387211E-09
   6.75000000      -1.11174925E-09
   6.80999994      -1.03939790E-09
   6.86999989      -9.64948343E-10
   6.92999983      -8.96381858E-10
   6.98999977      -8.41003545E-10
   7.05000019      -8.05112865E-10
   7.11000013      -7.93802524E-10
   7.17000008      -8.10793488E-10
   7.23000002      -8.58240035E-10
   7.28999996      -9.36487221E-10
   7.34999990      -1.04381026E-09
   7.40999985      -1.17618726E-09
   7.46999979      -1.32716393E-09
   7.53000021      -1.48787294E-09
   7.59000015      -1.64727787E-09
   7.65000010      -1.79270343E-09
   7.71000004      -1.91067606E-09
   7.76999998      -1.98801131E-09
   7.82999992      -2.01296180E-09
   7.88999987      -1.97615235E-09
   7.94999981      -1.87101024E-09
   8.01000023      -1.69350722E-09
   8.06999969      -1.44123036E-09
   8.13000011      -1.11203557E-09
   8.18999958      -7.02690406E-10
   8.25000000      -2.07926384E-10
   8.31000042       3.79827669E-10
   8.36999989       1.06999321E-09
   8.43000031       1.87285232E-09
   8.48999977       2.79831025E-09
   8.55000019       3.85466903E-09
   8.60999966       5.04754682E-09
   8.67000008       6.37894315E-09
   8.72999954       7.84641596E-09
   8.78999996       9.44235978E-09
   8.85000038       1.11535003E-08
   8.90999985       1.29607631E-08
   8.97000027       1.48396380E-08
   9.02999973       1.67610441E-08
   9.09000015       1.86924858E-08
   9.14999962       2.05991988E-08
   9.21000004       2.24450520E-08
   9.27000046       2.41930849E-08
   9.32999992       2.58058748E-08
   9.39000034       2.72460561E-08
   9.44999981       2.84773591E-08
   9.51000023       2.94663725E-08
   9.56999969       3.01848786E-08
   9.63000011       3.06123837E-08
   9.68999958       3.07382422E-08
   9.75000000       3.05627950E-08
   9.81000042       3.00971621E-08
   9.86999989       2.93616651E-08
   9.93000031       2.83831447E-08
   9.98999977       2.71917457E-08
   10.0500002       2.58177852E-08
   10.1099997       2.42892817E-08
   10.1700001       2.26305339E-08
   10.2299995       2.08618651E-08
   10.2900000       1.90004457E-08
   10.3500004       1.70618293E-08
   10.4099998       1.50617563E-08
   10.4700003       1.30177611E-08
   10.5299997       1.09501892E-08
   10.5900002       8.88235441E-09
   10.6499996       6.83980206E-09
   10.7100000       4.84876450E-09
   10.7700005       2.93405433E-09
   10.8299999       1.11670384E-09
   10.8900003      -5.88331661E-10
   10.9499998      -2.17411800E-09
   11.0100002      -3.64308761E-09
   11.0699997      -5.00759301E-09
   11.1300001      -6.28953645E-09
   11.1899996      -7.51899520E-09
   11.2500000      -8.73184547E-09
   11.3100004      -9.96652716E-09
   11.3699999      -1.12601803E-08
   11.4300003      -1.26445823E-08
   11.4899998      -1.41423735E-08
   11.5500002      -1.57641367E-08
   11.6099997      -1.75068084E-08
   11.6700001      -1.93537435E-08
   11.7299995      -2.12764597E-08
   11.7900000      -2.32378614E-08
   11.8500004      -2.51963392E-08
   11.9099998      -2.71100777E-08
   11.9700003      -2.89407627E-08
   12.0299997      -3.06561567E-08
   12.0900002      -3.22312026E-08
   12.1499996      -3.36477584E-08
   12.2100000      -3.48933789E-08
   12.2700005      -3.59598324E-08
   12.3299999      -3.68418540E-08
   12.3900003      -3.75366689E-08
   12.4499998      -3.80442984E-08
   12.5100002      -3.83684302E-08
   12.5699997      -3.85172640E-08
   12.6300001      -3.85038916E-08
   12.6899996      -3.83457994E-08
   12.7500000      -3.80633978E-08
   12.8100004      -3.76780065E-08
   12.8699999      -3.72096629E-08
   12.9300003      -3.66754307E-08
   12.9899998      -3.60885366E-08
   13.0500002      -3.54583847E-08
   13.1099997      -3.47913236E-08
   13.1700001      -3.40916806E-08
   13.2299995      -3.33628414E-08
   13.2900000      -3.26080034E-08
   13.3500004      -3.18307478E-08
   13.4099998      -3.10353769E-08
   13.4700003      -3.02270884E-08
   13.5299997      -2.94119840E-08
   13.5900002      -2.85966593E-08
   13.6499996      -2.77872871E-08
   13.7100000      -2.69882072E-08
   13.7700005      -2.62003468E-08
   13.8299999      -2.54199453E-08
   13.8900003      -2.46381529E-08
   13.9499998      -2.38417357E-08
   14.0100002      -2.30148895E-08
   14.0699997      -2.21416538E-08
   14.1300001      -2.12083879E-08
   14.1899996      -2.02057251E-08
   14.2500000      -1.91296898E-08
   14.3100004      -1.79819253E-08
   14.3699999      -1.67691461E-08
   14.4300003      -1.55019819E-08
   14.4899998      -1.41933496E-08
   14.5500002      -1.28564723E-08
   14.6099997      -1.15028369E-08
   14.6700001      -1.01404583E-08
   14.7299995      -8.77296813E-09
   14.7900000      -7.39987005E-09
   14.8500004      -6.01799544E-09
   14.9099998      -4.62372940E-09
   14.9700003      -3.21521920E-09
   15.0299997      -1.79375215E-09
   15.0900002      -3.63819280E-10
   15.1499996       1.06806886E-09
   15.2100000       2.49520249E-09
   15.2700005       3.91225674E-09
   15.3299999       5.31590505E-09
   15.3900003       6.70418343E-09
   15.4499998       8.07488565E-09
   15.5100002       9.42366274E-09
   15.5699997       1.07425979E-08
   15.6300001       1.20198225E-08
   15.6899996       1.32403084E-08
   15.7500000       1.43876573E-08
   15.8100004       1.54463660E-08
   15.8699999       1.64040568E-08
   15.9300003       1.72531802E-08
   15.9899998       1.79918409E-08
   16.0499992       1.86236413E-08
   16.1100006       1.91565643E-08
   16.1700001       1.96012291E-08
   16.2299995       1.99688532E-08
   16.2900009       2.02694963E-08
   16.3500004       2.05108499E-08
   16.4099998       2.06977724E-08
   16.4699993       2.08323581E-08
   16.5300007       2.09142108E-08
   16.5900002       2.09405719E-08
   16.6499996       2.09062136E-08
   16.7099991       2.08032489E-08
   16.7700005       2.06213482E-08
   16.8299999       2.03487787E-08
   16.8899994       1.99744310E-08
   16.9500008       1.94905674E-08
   17.0100002       1.88956033E-08
   17.0699997       1.81960136E-08
   17.1299992       1.74066610E-08
   17.1900005       1.65492473E-08
   17.2500000       1.56491691E-08
   17.3099995       1.47315760E-08
   17.3700008       1.38176439E-08
   17.4300003       1.29220155E-08
   17.4899998       1.20519807E-08
   17.5499992       1.12085008E-08
   17.6100006       1.03886624E-08
   17.6700001       9.58883195E-09
   17.7299995       8.80759554E-09
   17.7900009       8.04772604E-09
   17.8500004       7.31669436E-09
   17.9099998       6.62568667E-09
   17.9699993       5.98751582E-09
   18.0300007       5.41416023E-09
   18.0900002       4.91474017E-09
   18.1499996       4.49460558E-09
   18.2099991       4.15583035E-09
   18.2700005       3.89892296E-09
   18.3299999       3.72516018E-09
   18.3899994       3.63869690E-09
   18.4500008       3.64766617E-09
   18.5100002       3.76378129E-09
   18.5699997       4.00041333E-09
   18.6299992       4.36960956E-09
   18.6900005       4.87884533E-09
   18.7500000       5.52842039E-09
   18.8099995       6.31024077E-09
   18.8700008       7.20836413E-09
   18.9300003       8.20119084E-09
   18.9899998       9.26476584E-09
   19.0499992       1.03763602E-08
   19.1100006       1.15174634E-08
   19.1700001       1.26754918E-08
   19.2299995       1.38438656E-08
   19.2900009       1.50205430E-08
   19.3500004       1.62054672E-08
   19.4099998       1.73976620E-08
   19.4699993       1.85927238E-08
   19.5300007       1.97813534E-08
   19.5900002       2.09492690E-08
   19.6499996       2.20784102E-08
   19.7099991       2.31489672E-08
   19.7700005       2.41415012E-08
   19.8299999       2.50384247E-08
   19.8899994       2.58243382E-08
   19.9500008       2.64851696E-08
   20.0100002       2.70066884E-08
   20.0699997       2.73732024E-08
   20.1299992       2.75674239E-08
   20.1900005       2.75719909E-08
   20.2500000       2.73725949E-08
   20.3099995       2.69618639E-08
   20.3700008       2.63427555E-08
   20.4300003       2.55301913E-08
   20.4899998       2.45502125E-08
   20.5499992       2.34366659E-08
   20.6100006       2.22262369E-08
   20.6700001       2.09531006E-08
   20.7299995       1.96443963E-08
   20.7900009       1.83173938E-08
   20.8500004       1.69785679E-08
   20.9099998       1.56242876E-08
   20.9699993       1.42425982E-08
   21.0300007       1.28155433E-08
   21.0900002       1.13216547E-08
   21.1499996       9.73841630E-09
   21.2099991       8.04453659E-09
   21.2700005       6.22186880E-09
   21.3299999       4.25675895E-09
   21.3899994       2.14068585E-09
   21.4500008      -1.29812119E-10
   21.5100002      -2.55367993E-09
   21.5699997      -5.12601384E-09
   21.6299992      -7.83853693E-09
   21.6900005      -1.06797691E-08
   21.7500000      -1.36350424E-08
   21.8099995      -1.66866592E-08
   21.8700008      -1.98145127E-08
   21.9300003      -2.29972557E-08
   21.9899998      -2.62138187E-08
   22.0499992      -2.94449247E-08
   22.1100006      -3.26742153E-08
   22.1700001      -3.58887391E-08
   22.2299995      -3.90788060E-08
   22.2900009      -4.22374207E-08
   22.3500004      -4.53593998E-08
   22.4099998      -4.84403415E-08
   22.4699993      -5.14753609E-08
   22.5300007      -5.44574732E-08
   22.5900002      -5.73757006E-08
   22.6499996      -6.02130683E-08
   22.7099991      -6.29451051E-08
   22.7700005      -6.55393961E-08
   22.8299999      -6.79566554E-08
   22.8899994      -7.01536393E-08
   22.9500008      -7.20874951E-08
   23.0100002      -7.37209689E-08
   23.0699997      -7.50276214E-08
   23.1299992      -7.59960699E-08
   23.1900005      -7.66324106E-08
   23.2500000      -7.69603616E-08
   23.3099995      -7.70187256E-08
   23.3700008      -7.68565513E-08
   23.4300003      -7.65263337E-08
   23.4899998      -7.60766383E-08
   23.5499992      -7.55452163E-08
   23.6100006      -7.49542508E-08
   23.6700001      -7.43088933E-08
   23.7299995      -7.35992032E-08
   23.7900009      -7.28051148E-08
   23.8500004      -7.19029316E-08
   23.9099998      -7.08713799E-08
   23.9699993      -6.96957301E-08
   24.0300007      -6.83690118E-08
   24.0900002      -6.68905784E-08
   24.1499996      -6.52631371E-08
   24.2099991      -6.34898001E-08
   24.2700005      -6.15725000E-08
   24.3299999      -5.95122067E-08
   24.3899994      -5.73108920E-08
   24.4500008      -5.49741692E-08
   24.5100002      -5.25136379E-08
   24.5699997      -4.99481523E-08
   24.6299992      -4.73035762E-08
   24.6900005      -4.46111628E-08
   24.7500000      -4.19048405E-08
   24.8099995      -3.92178343E-08
   24.8700008      -3.65791131E-08
   24.9300003      -3.40104016E-08
   24.9899998      -3.15245572E-08
   25.0499992      -2.91260882E-08
   25.1100006      -2.68142220E-08
   25.1700001      -2.45880933E-08
   25.2299995      -2.24526726E-08
   25.2900009      -2.04234301E-08
   25.3500004      -1.85276878E-08
   25.4099998      -1.68015593E-08
   25.4699993      -1.52828381E-08
   25.5300007      -1.40017775E-08
   25.5900002      -1.29727198E-08
   25.6499996      -1.21894494E-08
   25.7099991      -1.16260450E-08
   25.7700005      -1.12431984E-08
   25.8299999      -1.09982086E-08
   25.8899994      -1.08557527E-08
   25.9500008      -1.07964091E-08
   26.0100002      -1.08207550E-08
   26.0699997      -1.09482441E-08
   26.1299992      -1.12114815E-08
   26.1900005      -1.16476002E-08
   26.2500000      -1.22888819E-08
   26.3099995      -1.31547111E-08
   26.3700008      -1.42464449E-08
   26.4300003      -1.55460569E-08
   26.4899998      -1.70186443E-08
   26.5499992      -1.86180706E-08
   26.6100006      -2.02943902E-08
   26.6700001      -2.20014407E-08
   26.7299995      -2.37028868E-08
   26.7900009      -2.53755701E-08
   26.8500004      -2.70097686E-08
   26.9099998      -2.86067934E-08
   26.9699993      -3.01750411E-08
   27.0300007      -3.17257935E-08
   27.0900002      -3.32697638E-08
   27.1499996      -3.48148639E-08
   27.2099991      -3.63649164E-08
   27.2700005      -3.79187632E-08
   27.3299999      -3.94691249E-08
   27.3899994      -4.10012113E-08
   27.4500008      -4.24914539E-08
   27.5100002      -4.39073737E-08
   27.5699997      -4.52094184E-08
   27.6299992      -4.63552574E-08
   27.6900005      -4.73060560E-08
   27.7500000      -4.80333640E-08
   27.8099995      -4.85247469E-08
   27.8700008      -4.87862231E-08
   27.9300003      -4.88404872E-08
   27.9899998      -4.87209277E-08
   28.0499992      -4.84630043E-08
   28.1100006      -4.80952558E-08
   28.1700001      -4.76326107E-08
   28.2299995      -4.70739820E-08
   28.2900009      -4.64047787E-08
   28.3500004      -4.56034641E-08
   28.4099998      -4.46499726E-08
   28.4699993      -4.35331131E-08
   28.5300007      -4.22544773E-08
   28.5900002      -4.08274161E-08
   28.6499996      -3.92714092E-08
   28.7099991      -3.76035167E-08
   28.7700005      -3.58298742E-08
   28.8299999      -3.39401574E-08
   28.8899994      -3.19072662E-08
   28.9500008      -2.96929947E-08
   29.0100002      -2.72586451E-08
   29.0699997      -2.45780480E-08
   29.1299992      -2.16496012E-08
   29.1900005      -1.85039220E-08
   29.2500000      -1.52048063E-08
   29.3099995      -1.18427081E-08
   29.3700008      -8.52196536E-09
   29.4300003      -5.34455680E-09
   29.4899998      -2.39420839E-09
   29.5499992       2.75391987E-10
   29.6100006       2.64551470E-09
   29.6700001       4.72948258E-09
   29.7299995       6.56307186E-09
   29.7900009       8.19114199E-09
   29.8500004       9.65437241E-09
   29.9099998       1.09797620E-08
   29.9699993       1.21771597E-08
   30.0300007       1.32420315E-08
   30.0900002       1.41625058E-08
   30.1499996       1.49273767E-08
   30.2099991       1.55315210E-08
   30.2700005       1.59764042E-08
   30.3299999       1.62653713E-08
   30.3899994       1.63957079E-08
   30.4500008       1.63508851E-08
   30.5100002       1.60966991E-08
   30.5699997       1.55837423E-08
   30.6299992       1.47565462E-08
   30.6900005       1.35672806E-08
   30.7500000       1.19902941E-08
   30.8099995       1.00331903E-08
   30.8700008       7.74104070E-09
   30.9300003       5.19218979E-09
   30.9899998       2.48638332E-09
   31.0499992      -2.72060735E-10
   31.1100006      -2.99207636E-09
   31.1700001      -5.61050228E-09
   31.2299995      -8.10020051E-09
   31.2900009      -1.04698286E-08
   31.3500004      -1.27553843E-08
   31.4099998      -1.50056625E-08
   31.4699993      -1.72651742E-08
   31.5300007      -1.95588470E-08
   31.5900002      -2.18824709E-08
   31.6499996      -2.42014107E-08
   31.7099991      -2.64580731E-08
   31.7700005      -2.85861486E-08
   31.8299999      -3.05278753E-08
   31.8899994      -3.22496305E-08
   31.9500008      -3.37516219E-08
   32.0099983      -3.50690570E-08
   32.0699997      -3.62646340E-08
   32.1300011      -3.74144022E-08
   32.1899986      -3.85909047E-08
   32.2500000      -3.98479365E-08
   32.3100014      -4.12107255E-08
   32.3699989      -4.26735980E-08
   32.4300003      -4.42051196E-08
   32.4900017      -4.57588989E-08
   32.5499992      -4.72866830E-08
   32.6100006      -4.87503442E-08
   32.6699982      -5.01296959E-08
   32.7299995      -5.14246352E-08
   32.7900009      -5.26516253E-08
   32.8499985      -5.38361462E-08
   32.9099998      -5.50035715E-08
   32.9700012      -5.61712099E-08
   33.0299988      -5.73434811E-08
   33.0900002      -5.85112154E-08
   33.1500015      -5.96546812E-08
   33.2099991      -6.07489241E-08
   33.2700005      -6.17695619E-08
   33.3300018      -6.26973886E-08
   33.3899994      -6.35204671E-08
   33.4500008      -6.42338236E-08
   33.5099983      -6.48371454E-08
   33.5699997      -6.53318679E-08
   33.6300011      -6.57187798E-08
   33.6899986      -6.59969999E-08
   33.7500000      -6.61645956E-08
   33.8100014      -6.62203590E-08
   33.8699989      -6.61656401E-08
   33.9300003      -6.60053132E-08
   33.9900017      -6.57469030E-08
   34.0499992      -6.53980265E-08
   34.1100006      -6.49626699E-08
   34.1699982      -6.44377067E-08
   34.2299995      -6.38111359E-08
   34.2900009      -6.30630410E-08
   34.3499985      -6.21693843E-08
   34.4099998      -6.11079471E-08
   34.4700012      -5.98646395E-08
   34.5299988      -5.84383386E-08
   34.5900002      -5.68425627E-08
   34.6500015      -5.51034276E-08
   34.7099991      -5.32542330E-08
   34.7700005      -5.13282252E-08
   34.8300018      -4.93515024E-08
   34.8899994      -4.73381228E-08
   34.9500008      -4.52887363E-08
   35.0099983      -4.31930367E-08
   35.0699997      -4.10352072E-08
   35.1300011      -3.88006356E-08
   35.1899986      -3.64818789E-08
   35.2500000      -3.40821451E-08
   35.3100014      -3.16154321E-08
   35.3699989      -2.91036297E-08
   35.4300003      -2.65719464E-08
   35.4900017      -2.40444891E-08
   35.5499992      -2.15416520E-08
   35.6100006      -1.90800762E-08
   35.6699982      -1.66748695E-08
   35.7299995      -1.43427163E-08
   35.7900009      -1.21041710E-08
   35.8499985      -9.98376670E-09
   35.9099998      -8.00744893E-09
   35.9700012      -6.19799634E-09
   36.0299988      -4.56986360E-09
   36.0900002      -3.12518100E-09
   36.1500015      -1.85227034E-09
   36.2099991      -7.27247873E-10
   36.2700005       2.81572016E-10
   36.3300018       1.20751020E-09
   36.3899994       2.07901918E-09
   36.4500008       2.91433810E-09
   36.5099983       3.71858944E-09
   36.5699997       4.48411219E-09
   36.6300011       5.19413179E-09
   36.6899986       5.82903237E-09
   36.7500000       6.37367625E-09
   36.8100014       6.82370338E-09
   36.8699989       7.18880067E-09
   36.9300003       7.49166507E-09
   36.9900017       7.76270515E-09
   37.0499992       8.03196087E-09
   37.1100006       8.32074498E-09
   37.1699982       8.63569660E-09
   37.2299995       8.96716568E-09
   37.2900009       9.29234112E-09
   37.3499985       9.58197433E-09
   37.4099998       9.80843762E-09
   37.4700012       9.95260407E-09
   37.5299988       1.00076996E-08
   37.5900002       9.97940752E-09
   37.6500015       9.88273108E-09
   37.7099991       9.73690106E-09
   37.7700005       9.55988355E-09
   37.8300018       9.36374089E-09
   37.8899994       9.15164744E-09
   37.9500008       8.91680330E-09
   38.0099983       8.64315464E-09
   38.0699997       8.30760261E-09
   38.1300011       7.88324517E-09
   38.1899986       7.34313454E-09
   38.2500000       6.66388367E-09
   38.3100014       5.82852433E-09
   38.3699989       4.82805307E-09
   38.4300003       3.66137742E-09
   38.4900017       2.33369279E-09
   38.5499992       8.53648652E-10
   38.6100006      -7.70038810E-10
   38.6699982      -2.53169041E-09
   38.7299995      -4.43058212E-09
   38.7900009      -6.47087717E-09
   38.8499985      -8.65909122E-09
   38.9099998      -1.09991420E-08
   38.9700012      -1.34857867E-08
   39.0299988      -1.60980154E-08
   39.0900002      -1.87944700E-08
   39.1500015      -2.15129443E-08
   39.2099991      -2.41752485E-08
   39.2700005      -2.66973323E-08
   39.3300018      -2.90028606E-08
   39.3899994      -3.10370325E-08
   39.4500008      -3.27768426E-08
   39.5099983      -3.42345849E-08
   39.5699997      -3.54531196E-08
   39.6300011      -3.64936881E-08
   39.6899986      -3.74193618E-08
   39.7500000      -3.82785679E-08
   39.8100014      -3.90931696E-08
   39.8699989      -3.98543456E-08
   39.9300003      -4.05272473E-08
   39.9900017      -4.10628829E-08
   40.0499992      -4.14136601E-08
   40.1100006      -4.15481018E-08
   40.1699982      -4.14606269E-08
   40.2299995      -4.11738377E-08
   40.2900009      -4.07329779E-08
   40.3499985      -4.01945250E-08
   40.4099998      -3.96124271E-08
   40.4700012      -3.90260908E-08
   40.5299988      -3.84535106E-08
   40.5900002      -3.78911160E-08
   40.6500015      -3.73199285E-08
   40.7099991      -3.67155195E-08
   40.7700005      -3.60582177E-08
   40.8300018      -3.53401894E-08
   40.8899994      -3.45671936E-08
   40.9500008      -3.37547412E-08
   41.0099983      -3.29203580E-08
   41.0699997      -3.20749045E-08
   41.1300011      -3.12160928E-08
   41.1899986      -3.03264862E-08
   41.2500000      -2.93766451E-08
   41.3100014      -2.83324120E-08
   41.3699989      -2.71639369E-08
   41.4300003      -2.58537405E-08
   41.4900017      -2.44014107E-08
   41.5499992      -2.28237553E-08
   41.6100006      -2.11505569E-08
   41.6699982      -1.94174081E-08
   41.7299995      -1.76578343E-08
   41.7900009      -1.58971165E-08
   41.8499985      -1.41496095E-08
   41.9099998      -1.24203545E-08
   41.9700012      -1.07104077E-08
   42.0299988      -9.02406683E-09
   42.0900002      -7.37546735E-09
   42.1500015      -5.79206549E-09
   42.2099991      -4.31339542E-09
   42.2700005      -2.98507219E-09
   42.3300018      -1.84962323E-09
   42.3899994      -9.36982714E-10
   42.4500008      -2.57731836E-10
   42.5099983       1.98633901E-10
   42.5699997       4.59764588E-10
   42.6300011       5.62054459E-10
   42.6899986       5.40401113E-10
   42.7500000       4.19219520E-10
   42.8100014       2.07231732E-10
   42.8699989      -1.02777432E-10
   42.9300003      -5.29611244E-10
   42.9900017      -1.09634590E-09
   43.0499992      -1.82229698E-09
   43.1100006      -2.71643086E-09
   43.1699982      -3.77376752E-09
   43.2299995      -4.97541564E-09
   43.2900009      -6.29194830E-09
   43.3499985      -7.68901653E-09
   43.4099998      -9.13357034E-09
   43.4700012      -1.05989395E-08
   43.5299988      -1.20673658E-08
   43.5900002      -1.35294158E-08
   43.6500015      -1.49808201E-08
   43.7099991      -1.64182907E-08
   43.7700005      -1.78363404E-08
   43.8300018      -1.92268157E-08
   43.8899994      -2.05815827E-08
   43.9500008      -2.18974119E-08
   44.0099983      -2.31806805E-08
   44.0699997      -2.44492817E-08
   44.1300011      -2.57299266E-08
   44.1899986      -2.70507741E-08
   44.2500000      -2.84314012E-08
   44.3100014      -2.98735223E-08
   44.3699989      -3.13559951E-08
   44.4300003      -3.28364820E-08
   44.4900017      -3.42598483E-08
   44.5499992      -3.55712366E-08
   44.6100006      -3.67297730E-08
   44.6699982      -3.77188698E-08
   44.7299995      -3.85498851E-08
   44.7900009      -3.92580191E-08
   44.8499985      -3.98917201E-08
   44.9099998      -4.04989571E-08
   44.9700012      -4.11145749E-08
   45.0299988      -4.17527914E-08
   45.0900002      -4.24071018E-08
   45.1500015      -4.30577352E-08
   45.2099991      -4.36840004E-08
   45.2700005      -4.42775381E-08
   45.3300018      -4.48516779E-08
   45.3899994      -4.54437519E-08
   45.4500008      -4.61093386E-08
   45.5099983      -4.69105750E-08
   45.5699997      -4.79027413E-08
   45.6300011      -4.91242318E-08
   45.6899986      -5.05938793E-08
   45.7500000      -5.23170058E-08
   45.8100014      -5.42986029E-08
   45.8699989      -5.65594256E-08
   45.9300003      -5.91499401E-08
   45.9900017      -6.21578664E-08
   46.0499992      -6.57074963E-08
   46.1100006      -6.99517955E-08
   46.1699982      -7.50608109E-08
   46.2299995      -8.12110557E-08
   46.2900009      -8.85801512E-08
   46.3499985      -9.73496128E-08
   46.4099998      -1.07715856E-07
   46.4700012      -1.19907426E-07
   46.5299988      -1.34204711E-07
   46.5900002      -1.50957618E-07
   46.6500015      -1.70597531E-07
   46.7099991      -1.93641782E-07
   46.7700005      -2.20690978E-07
   46.8300018      -2.52422183E-07
   46.8899994      -2.89582232E-07
   46.9500008      -3.32986275E-07
   47.0099983      -3.83524622E-07
   47.0699997      -4.42178930E-07
   47.1300011      -5.10046618E-07
   47.1899986      -5.88368607E-07
   47.2500000      -6.78556717E-07
   47.3100014      -7.82216773E-07
   47.3699989      -9.01165947E-07
   47.4300003      -1.03744617E-06
   47.4900017      -1.19333561E-06
   47.5499992      -1.37136283E-06
   47.6100006      -1.57432464E-06
   47.6699982      -1.80530913E-06
   47.7299995      -2.06772097E-06
   47.7900009      -2.36530673E-06
   47.8499985      -2.70217652E-06
   47.9099998      -3.08281960E-06
   47.9700012      -3.51211838E-06
   48.0299988      -3.99535611E-06
   48.0900002      -4.53822895E-06
   48.1500015      -5.14685871E-06
   48.2099991      -5.82781240E-06
   48.2700005      -6.58812451E-06
   48.3300018      -7.43531973E-06
   48.3899994      -8.37743664E-06
   48.4500008      -9.42304268E-06
   48.5099983      -1.05812414E-05
   48.5699997      -1.18616626E-05
   48.6300011      -1.32744472E-05
   48.6899986      -1.48302133E-05
   48.7500000      -1.65400106E-05
   48.8100014      -1.84152796E-05
   48.8699989      -2.04678072E-05
   48.9300003      -2.27096880E-05
   48.9900017      -2.51532820E-05
   49.0499992      -2.78111911E-05
   49.1100006      -3.06962102E-05
   49.1699982      -3.38212776E-05
   49.2299995      -3.71994138E-05
   49.2900009      -4.08436063E-05
   49.3499985      -4.47667007E-05
   49.4099998      -4.89812846E-05
   49.4700012      -5.34995343E-05
   49.5299988      -5.83331021E-05
   49.5900002      -6.34929966E-05
   49.6500015      -6.89894659E-05
   49.7099991      -7.48318926E-05
   49.7700005      -8.10286729E-05
   49.8300018      -8.75871410E-05
   49.8899994      -9.45133870E-05
   49.9500008      -1.01812162E-04
   50.0099983      -1.09486689E-04
   50.0699997      -1.17538621E-04
   50.1300011      -1.25967825E-04
   50.1899986      -1.34772359E-04
   50.2500000      -1.43948273E-04
   50.3100014      -1.53489629E-04
   50.3699989      -1.63388424E-04
   50.4300003      -1.73634558E-04
   50.4900017      -1.84215809E-04
   50.5499992      -1.95117842E-04
   50.6100006      -2.06324199E-04