 -0.750000000       0.00000000    
 -0.689999998       0.00000000    
 -0.629999995       0.00000000    
 -0.569999993       0.00000000    
 -0.509999990       0.00000000    
 -0.449999988       8.05883865E-19
 -0.389999986       6.86228623E-18
 -0.330000013       2.99186628E-17
 -0.270000011       8.61436743E-17
 -0.209999993       1.74188276E-16
 -0.150000006       2.29857875E-16
  -9.00000036E-02   8.46015978E-17
  -2.99999993E-02  -5.02634539E-16
   2.99999993E-02  -1.66494808E-15
   9.00000036E-02  -3.11139998E-15
  0.150000006      -3.87064157E-15
  0.209999993      -2.44808255E-15
  0.270000011       2.32353292E-15
  0.330000013       9.90705998E-15
  0.389999986       1.70024432E-14
  0.449999988       1.80630911E-14
  0.509999990       8.17528418E-15
  0.569999993      -1.24617757E-14
  0.629999995      -3.51746220E-14
  0.689999998      -4.41714739E-14
  0.750000000      -2.45742808E-14
  0.810000002       2.51827910E-14
  0.870000005       8.37616990E-14
  0.930000007       1.09179240E-13
  0.990000010       5.78435208E-14
   1.04999995      -8.45720182E-14
   1.11000001      -2.76293582E-13
   1.16999996      -4.17098729E-13
   1.23000002      -3.83305529E-13
   1.28999996      -9.37300164E-14
   1.35000002       4.21951021E-13
   1.40999997       9.92794930E-13
   1.47000003       1.34531318E-12
   1.52999997       1.21202571E-12
   1.59000003       4.71516814E-13
   1.64999998      -7.45423580E-13
   1.71000004      -2.04649991E-12
   1.76999998      -2.89237080E-12
   1.83000004      -2.80598635E-12
   1.88999999      -1.59803854E-12
   1.95000005       4.89270571E-13
   2.00999999       2.79487588E-12
   2.06999993       4.42559574E-12
   2.13000011       4.56687032E-12
   2.19000006       2.81572010E-12
   2.25000000      -5.82574679E-13
   2.30999994      -4.68984920E-12
   2.36999989      -8.06442933E-12
   2.43000007      -9.15709956E-12
   2.49000001      -6.81842256E-12
   2.54999995      -7.72600788E-13
   2.60999990       8.10269213E-12
   2.67000008       1.78199504E-11
   2.73000002       2.56962715E-11
   2.78999996       2.90656683E-11
   2.84999990       2.60928536E-11
   2.91000009       1.64158114E-11
   2.97000003       1.36320078E-12
   3.02999997      -1.63748320E-11
   3.08999991      -3.35286417E-11
   3.15000010      -4.71745039E-11
   3.21000004      -5.53858175E-11
   3.26999998      -5.72761422E-11
   3.32999992      -5.23844162E-11
   3.39000010      -3.97431810E-11
   3.45000005      -1.72861777E-11
   3.50999999       1.77021505E-11
   3.56999993       6.67261316E-11
   3.63000011       1.27088839E-10
   3.69000006       1.88776939E-10
   3.75000000       2.32665512E-10
   3.80999994       2.31349204E-10
   3.86999989       1.53113786E-10
   3.93000007      -3.16438785E-11
   3.99000001      -3.43363643E-10
   4.05000019      -7.87948984E-10
   4.11000013      -1.35493117E-09
   4.17000008      -2.01972328E-09
   4.23000002      -2.74889356E-09
   4.28999996      -3.50617979E-09
   4.34999990      -4.25679358E-09
   4.40999985      -4.96853358E-09
   4.46999979      -5.60994629E-09
   4.53000021      -6.14738660E-09
   4.59000015      -6.54352883E-09
   4.65000010      -6.75927003E-09
   4.71000004      -6.75928735E-09
   4.76999998      -6.51956045E-09
   4.82999992      -6.03392003E-09
   4.88999987      -5.31678213E-09
   4.94999981      -4.40070025E-09
   5.01000023      -3.32954264E-09
   5.07000017      -2.14998574E-09
   5.13000011      -9.04699371E-10
   5.19000006       3.70255604E-10
   5.25000000       1.64331304E-09
   5.30999994       2.88235724E-09
   5.36999989       4.05002920E-09
   5.42999983       5.10270937E-09
   5.48999977       5.99500227E-09
   5.55000019       6.68914035E-09
   5.61000013       7.16641457E-09
   5.67000008       7.43647588E-09
   5.73000002       7.54071738E-09
   5.78999996       7.54777840E-09
   5.84999990       7.54188267E-09
   5.90999985       7.60715935E-09
   5.96999979       7.81246268E-09
   6.03000021       8.20095369E-09
   6.09000015       8.78703954E-09
   6.15000010       9.56071311E-09
   6.21000004       1.04969864E-08
   6.26999998       1.15666108E-08
   6.32999992       1.27443238E-08
   6.38999987       1.40122136E-08
   6.44999981       1.53580171E-08
   6.51000023       1.67703131E-08
   6.57000017       1.82338287E-08
   6.63000011       1.97278158E-08
   6.69000006       2.12289706E-08
   6.75000000       2.27178951E-08
   6.80999994       2.41861731E-08
   6.86999989       2.56402952E-08
   6.92999983       2.70997109E-08
   6.98999977       2.85888149E-08
   7.05000019       3.01256229E-08
   7.11000013       3.17119238E-08
   7.17000008       3.33296590E-08
   7.23000002       3.49459697E-08
   7.28999996       3.65257193E-08
   7.34999990       3.80467036E-08
   7.40999985       3.95111925E-08
   7.46999979       4.09485779E-08
   7.53000021       4.24073399E-08
   7.59000015       4.39389964E-08
   7.65000010       4.55800411E-08
   7.71000004       4.73387836E-08
   7.76999998       4.91918506E-08
   7.82999992       5.10913338E-08
   7.88999987       5.29791073E-08
   7.94999981       5.48023991E-08
   8.01000023       5.65245273E-08
   8.06999969       5.81271813E-08
   8.13000011       5.96044387E-08
   8.18999958       6.09519972E-08
   8.25000000       6.21569711E-08
   8.31000042       6.31927648E-08
   8.36999989       6.40211297E-08
   8.43000031       6.45998952E-08
   8.48999977       6.48927738E-08
   8.55000019       6.48766374E-08
   8.60999966       6.45434284E-08
   8.67000008       6.38966426E-08
   8.72999954       6.29449985E-08
   8.78999996       6.16969444E-08
   8.85000038       6.01590955E-08
   8.90999985       5.83391113E-08
   8.97000027       5.62511175E-08
   9.02999973       5.39205338E-08
   9.09000015       5.13854594E-08
   9.14999962       4.86939058E-08
   9.21000004       4.58982186E-08
   9.27000046       4.30492300E-08
   9.32999992       4.01924147E-08
   9.39000034       3.73667994E-08
   9.44999981       3.46059679E-08
   9.51000023       3.19395319E-08
   9.56999969       2.93938118E-08
   9.63000011       2.69913514E-08
   9.68999958       2.47496619E-08
   9.75000000       2.26799290E-08
   9.81000042       2.07860911E-08
   9.86999989       1.90643927E-08
   9.93000031       1.75034476E-08
   9.98999977       1.60849307E-08
   10.0500002       1.47852939E-08
   10.1099997       1.35785916E-08
   10.1700001       1.24400747E-08
   10.2299995       1.13496101E-08
   10.2900000       1.02939506E-08
   10.3500004       9.26733001E-09
   10.4099998       8.27055757E-09
   10.4700003       7.30935579E-09
   10.5299997       6.39252296E-09
   10.5900002       5.53009727E-09
   10.6499996       4.73129447E-09
   10.7100000       4.00209466E-09
   10.7700005       3.34296080E-09
   10.8299999       2.74769629E-09
   10.8900003       2.20437890E-09
   10.9499998       1.69845138E-09
   11.0100002       1.21684729E-09
   11.0699997       7.51318452E-10
   11.1300001       2.99451602E-10
   11.1899996      -1.36926262E-10
   11.2500000      -5.54897739E-10
   11.3100004      -9.53477297E-10
   11.3699999      -1.33528399E-09
   11.4300003      -1.70671954E-09
   11.4899998      -2.07740558E-09
   11.5500002      -2.45965048E-09
   11.6099997      -2.86800805E-09
   11.6700001      -3.31821504E-09
   11.7299995      -3.82478005E-09
   11.7900000      -4.39737669E-09
   11.8500004      -5.03739672E-09
   11.9099998      -5.73652947E-09
   11.9700003      -6.47848930E-09
   12.0299997      -7.24329130E-09
   12.0900002      -8.01192357E-09
   12.1499996      -8.76893580E-09
   12.2100000      -9.50176293E-09
   12.2700005      -1.01977493E-08
   12.3299999      -1.08414655E-08
   12.3900003      -1.14148744E-08
   12.4499998      -1.19012018E-08
   12.5100002      -1.22909434E-08
   12.5699997      -1.25868871E-08
   12.6300001      -1.28053452E-08
   12.6899996      -1.29726789E-08
   12.7500000      -1.31187132E-08
   12.8100004      -1.32700828E-08
   12.8699999      -1.34463454E-08
   12.9300003      -1.36599247E-08
   12.9899998      -1.39188367E-08
   13.0500002      -1.42299026E-08
   13.1099997      -1.46003787E-08
   13.1700001      -1.50372692E-08
   13.2299995      -1.55451794E-08
   13.2900000      -1.61243960E-08
   13.3500004      -1.67705601E-08
   13.4099998      -1.74761734E-08
   13.4700003      -1.82329529E-08
   13.5299997      -1.90334806E-08
   13.5900002      -1.98709369E-08
   13.6499996      -2.07368149E-08
   13.7100000      -2.16175131E-08
   13.7700005      -2.24915304E-08
   13.8299999      -2.33287469E-08
   13.8900003      -2.40925413E-08
   13.9499998      -2.47443257E-08
   14.0100002      -2.52492622E-08
   14.0699997      -2.55815138E-08
   14.1300001      -2.57278234E-08
   14.1899996      -2.56889443E-08
   14.2500000      -2.54794301E-08
   14.3100004      -2.51265675E-08
   14.3699999      -2.46690135E-08
   14.4300003      -2.41548097E-08
   14.4899998      -2.36376536E-08
   14.5500002      -2.31701716E-08
   14.6099997      -2.27940085E-08
   14.6700001      -2.25285088E-08
   14.7299995      -2.23616290E-08
   14.7900000      -2.22475016E-08
   14.8500004      -2.21135501E-08
   14.9099998      -2.18767724E-08
   14.9700003      -2.14648050E-08
   15.0299997      -2.08348450E-08
   15.0900002      -1.99835934E-08
   15.1499996      -1.89447675E-08
   15.2100000      -1.77756601E-08
   15.2700005      -1.65384790E-08
   15.3299999      -1.52838435E-08
   15.3900003      -1.40419933E-08
   15.4499998      -1.28231408E-08
   15.5100002      -1.16243344E-08
   15.5699997      -1.04380264E-08
   15.6300001      -9.25822086E-09
   15.6899996      -8.08262524E-09
   15.7500000      -6.91192303E-09
   15.8100004      -5.74852876E-09
   15.8699999      -4.59654625E-09
   15.9300003      -3.46299989E-09
   15.9899998      -2.35904207E-09
   16.0499992      -1.29970013E-09
   16.1100006      -3.01707381E-10
   16.1700001       6.19746698E-10
   16.2299995       1.45392287E-09
   16.2900009       2.19599894E-09
   16.3500004       2.84691226E-09
   16.4099998       3.41203865E-09
   16.4699993       3.89920229E-09
   16.5300007       4.31604708E-09
   16.5900002       4.66661021E-09
   16.6499996       4.94735364E-09
   16.7099991       5.14387910E-09
   16.7700005       5.23028376E-09
   16.8299999       5.17286747E-09
   16.8899994       4.93837593E-09
   16.9500008       4.50480941E-09
   17.0100002       3.87122467E-09
   17.0699997       3.06279979E-09
   17.1299992       2.12907714E-09
   17.1900005       1.13593679E-09
   17.2500000       1.54240287E-10
   17.3099995      -7.50893903E-10
   17.3700008      -1.52700141E-09
   17.4300003      -2.13621831E-09
   17.4899998      -2.55342480E-09
   17.5499992      -2.76315726E-09
   17.6100006      -2.75788703E-09
   17.6700001      -2.53896926E-09
   17.7299995      -2.11976037E-09
   17.7900009      -1.52895452E-09
   17.8500004      -8.11806844E-10
   17.9099998      -2.77325801E-11
   17.9699993       7.55744578E-10
   18.0300007       1.47119916E-09
   18.0900002       2.05942752E-09
   18.1499996       2.47544674E-09
   18.2099991       2.69129807E-09
   18.2700005       2.69570832E-09
   18.3299999       2.49153254E-09
   18.3899994       2.09219841E-09
   18.4500008       1.51828150E-09
   18.5100002       7.95047361E-10
   18.5699997      -4.85593163E-11
   18.6299992      -9.79448855E-10
   18.6900005      -1.95900718E-09
   18.7500000      -2.94195668E-09
   18.8099995      -3.87686727E-09
   18.8700008      -4.70925121E-09
   18.9300003      -5.38702905E-09
   18.9899998      -5.86678839E-09
   19.0499992      -6.11858564E-09
   19.1100006      -6.12755047E-09
   19.1700001      -5.89219162E-09
   19.2299995      -5.42110845E-09
   19.2900009      -4.73061190E-09
   19.3500004      -3.84492616E-09
   19.4099998      -2.79853163E-09
   19.4699993      -1.63815428E-09
   19.5300007      -4.21289087E-10
   19.5900002       7.90434218E-10
   19.6499996       1.94192307E-09
   19.7099991       2.99561820E-09
   19.7700005       3.93825328E-09
   19.8299999       4.78029349E-09
   19.8899994       5.54807755E-09
   19.9500008       6.27181418E-09
   20.0100002       6.97424118E-09
   20.0699997       7.66425678E-09
   20.1299992       8.33759639E-09
   20.1900005       8.98373376E-09
   20.2500000       9.59582636E-09
   20.3099995       1.01795363E-08
   20.3700008       1.07569829E-08
   20.4300003       1.13639009E-08
   20.4899998       1.20405081E-08
   20.5499992       1.28190498E-08
   20.6100006       1.37125413E-08
   20.6700001       1.47091939E-08
   20.7299995       1.57750932E-08
   20.7900009       1.68644991E-08
   20.8500004       1.79338020E-08
   20.9099998       1.89534823E-08
   20.9699993       1.99129904E-08
   21.0300007       2.08166355E-08
   21.0900002       2.16725411E-08
   21.1499996       2.24800871E-08
   21.2099991       2.32219133E-08
   21.2700005       2.38647324E-08
   21.3299999       2.43691858E-08
   21.3899994       2.47050274E-08
   21.4500008       2.48654537E-08
   21.5100002       2.48746712E-08
   21.5699997       2.47854164E-08
   21.6299992       2.46671839E-08
   21.6900005       2.45896015E-08
   21.7500000       2.46071536E-08
   21.8099995       2.47507632E-08
   21.8700008       2.50285961E-08
   21.9300003       2.54344972E-08
   21.9899998       2.59592312E-08
   22.0499992       2.65988049E-08
   22.1100006       2.73560552E-08
   22.1700001       2.82353056E-08
   22.2299995       2.92335773E-08
   22.2900009       3.03334673E-08
   22.3500004       3.15017310E-08
   22.4099998       3.26943699E-08
   22.4699993       3.38655219E-08
   22.5300007       3.49756846E-08
   22.5900002       3.59955408E-08
   22.6499996       3.69044457E-08
   22.7099991       3.76855347E-08
   22.7700005       3.83210654E-08
   22.8299999       3.87906987E-08
   22.8899994       3.90733241E-08
   22.9500008       3.91507484E-08
   23.0100002       3.90105832E-08
   23.0699997       3.86467747E-08
   23.1299992       3.80578662E-08
   23.1900005       3.72450373E-08
   23.2500000       3.62118229E-08
   23.3099995       3.49665328E-08
   23.3700008       3.35259784E-08
   23.4300003       3.19181837E-08
   23.4899998       3.01813117E-08
   23.5499992       2.83579169E-08
   23.6100006       2.64858073E-08
   23.6700001       2.45887311E-08
   23.7299995       2.26707328E-08
   23.7900009       2.07167723E-08
   23.8500004       1.86999163E-08
   23.9099998       1.65928160E-08
   23.9699993       1.43795553E-08
   24.0300007       1.20639454E-08
   24.0900002       9.67184732E-09
   24.1499996       7.24750482E-09
   24.2099991       4.84595697E-09
   24.2700005       2.52458277E-09
   24.3299999       3.36388944E-10
   24.3899994      -1.67377190E-09
   24.4500008      -3.47043083E-09
   24.5100002      -5.02748332E-09
   24.5699997      -6.32818997E-09
   24.6299992      -7.36579864E-09
   24.6900005      -8.14457302E-09
   24.7500000      -8.68069971E-09
   24.8099995      -9.00261288E-09
   24.8700008      -9.15059939E-09
   24.9300003      -9.17556875E-09
   24.9899998      -9.13655906E-09
   25.0499992      -9.09613895E-09
   25.1100006      -9.11293174E-09
   25.1700001      -9.23142807E-09
   25.2299995      -9.47088896E-09
   25.2900009      -9.81683002E-09
   25.3500004      -1.02190691E-08
   25.4099998      -1.05990541E-08
   25.4699993      -1.08661391E-08
   25.5300007      -1.09386846E-08
   25.5900002      -1.07631966E-08
   25.6499996      -1.03245572E-08
   25.7099991      -9.64344160E-09
   25.7700005      -8.76205331E-09
   25.8299999      -7.72434561E-09
   25.8899994      -6.55924826E-09
   25.9500008      -5.27392885E-09
   26.0100002      -3.85916321E-09
   26.0699997      -2.30293384E-09
   26.1299992      -6.04484740E-10
   26.1900005       1.21872568E-09
   26.2500000       3.13443449E-09
   26.3099995       5.10665377E-09
   26.3700008       7.10740711E-09
   26.4300003       9.12190679E-09
   26.4899998       1.11439729E-08
   26.5499992       1.31643700E-08
   26.6100006       1.51590438E-08
   26.6700001       1.70844654E-08
   26.7299995       1.88832985E-08
   26.7900009       2.04978612E-08
   26.8500004       2.18844693E-08
   26.9099998       2.30215385E-08
   26.9699993       2.39078854E-08
   27.0300007       2.45530778E-08
   27.0900002       2.49657290E-08
   27.1499996       2.51460950E-08
   27.2099991       2.50863224E-08
   27.2700005       2.47771030E-08
   27.3299999       2.42159892E-08
   27.3899994       2.34122215E-08
   27.4500008       2.23853700E-08
   27.5100002       2.11590070E-08
   27.5699997       1.97534966E-08
   27.6299992       1.81824920E-08
   27.6900005       1.64554592E-08
   27.7500000       1.45851402E-08
   27.8099995       1.25958790E-08
   27.8700008       1.05280851E-08
   27.9300003       8.43583337E-09
   27.9899998       6.37795505E-09
   28.0499992       4.40614079E-09
   28.1100006       2.55497357E-09
   28.1700001       8.37740155E-10
   28.2299995      -7.51008922E-10
   28.2900009      -2.22834196E-09
   28.3500004      -3.61513020E-09
   28.4099998      -4.93079710E-09
   28.4699993      -6.19150686E-09
   28.5300007      -7.41012940E-09
   28.5900002      -8.59528360E-09
   28.6499996      -9.74796954E-09
   28.7099991      -1.08569136E-08
   28.7700005      -1.18959278E-08
   28.8299999      -1.28265274E-08
   28.8899994      -1.36065292E-08
   28.9500008      -1.42015510E-08
   29.0100002      -1.45939190E-08
   29.0699997      -1.47840984E-08
   29.1299992      -1.47836019E-08
   29.1900005      -1.46033363E-08
   29.2500000      -1.42444341E-08
   29.3099995      -1.36977567E-08
   29.3700008      -1.29535342E-08
   29.4300003      -1.20165504E-08
   29.4899998      -1.09183418E-08
   29.5499992      -9.71846603E-09
   29.6100006      -8.49201953E-09
   29.6700001      -7.30749106E-09
   29.7299995      -6.20419938E-09
   29.7900009      -5.17925436E-09
   29.8500004      -4.18980228E-09
   29.9099998      -3.16961302E-09
   29.9699993      -2.05304951E-09
   30.0300007      -7.97034105E-10
   30.0900002       6.06477757E-10
   30.1499996       2.13013718E-09
   30.2099991       3.72044107E-09
   30.2700005       5.31103339E-09
   30.3299999       6.83467061E-09
   30.3899994       8.23102653E-09
   30.4500008       9.45059053E-09
   30.5100002       1.04567217E-08
   30.5699997       1.12275043E-08
   30.6299992       1.17571979E-08
   30.6900005       1.20551809E-08
   30.7500000       1.21401422E-08
   30.8099995       1.20292132E-08
   30.8700008       1.17250165E-08
   30.9300003       1.12061276E-08
   30.9899998       1.04264313E-08
   31.0499992       9.32572064E-09
   31.1100006       7.84872967E-09
   31.1700001       5.96537708E-09
   31.2299995       3.68364073E-09
   31.2900009       1.04940745E-09
   31.3500004      -1.86643723E-09
   31.4099998      -4.98734032E-09
   31.4699993      -8.24751822E-09
   31.5300007      -1.15978835E-08
   31.5900002      -1.49994062E-08
   31.6499996      -1.84084499E-08
   31.7099991      -2.17627179E-08
   31.7700005      -2.49760781E-08
   31.8299999      -2.79458803E-08
   31.8899994      -3.05702237E-08
   31.9500008      -3.27680176E-08
   32.0099983      -3.44939117E-08
   32.0699997      -3.57431809E-08
   32.1300011      -3.65466235E-08
   32.1899986      -3.69592890E-08
   32.2500000      -3.70481814E-08
   32.3100014      -3.68822377E-08
   32.3699989      -3.65251331E-08
   32.4300003      -3.60295225E-08
   32.4900017      -3.54315404E-08
   32.5499992      -3.47462148E-08
   32.6100006      -3.39663480E-08
   32.6699982      -3.30674119E-08
   32.7299995      -3.20187468E-08
   32.7900009      -3.07977963E-08
   32.8499985      -2.94015141E-08
   32.9099998      -2.78494543E-08
   32.9700012      -2.61765223E-08
   33.0299988      -2.44184069E-08
   33.0900002      -2.25965326E-08
   33.1500015      -2.07098818E-08
   33.2099991      -1.87375182E-08
   33.2700005      -1.66502190E-08
   33.3300018      -1.44249759E-08
   33.3899994      -1.20549810E-08
   33.4500008      -9.55055146E-09
   33.5099983      -6.93170943E-09
   33.5699997      -4.21768132E-09
   33.6300011      -1.42002132E-09
   33.6899986       1.45645929E-09
   33.7500000       4.40560388E-09
   33.8100014       7.40968487E-09
   33.8699989       1.04334621E-08
   33.9300003       1.34265745E-08
   33.9900017       1.63337273E-08
   34.0499992       1.91077536E-08
   34.1100006       2.17192095E-08
   34.1699982       2.41580338E-08
   34.2299995       2.64271787E-08
   34.2900009       2.85322201E-08
   34.3499985       3.04727052E-08
   34.4099998       3.22395053E-08
   34.4700012       3.38187114E-08
   34.5299988       3.51987914E-08
   34.5900002       3.63761927E-08
   34.6500015       3.73557469E-08
   34.7099991       3.81456786E-08
   34.7700005       3.87504251E-08
   34.8300018       3.91659256E-08
   34.8899994       3.93806907E-08
   34.9500008       3.93825488E-08
   35.0099983       3.91675208E-08
   35.0699997       3.87458563E-08
   35.1300011       3.81417777E-08
   35.1899986       3.73869931E-08
   35.2500000       3.65119739E-08
   35.3100014       3.55402037E-08
   35.3699989       3.44891227E-08
   35.4300003       3.33771624E-08
   35.4900017       3.22320233E-08
   35.5499992       3.10936379E-08
   35.6100006       3.00074880E-08
   35.6699982       2.90093229E-08
   35.7299995       2.81077810E-08
   35.7900009       2.72742131E-08
   35.8499985       2.64466422E-08
   35.9099998       2.55483137E-08
   35.9700012       2.45139180E-08
   36.0299988       2.33120367E-08
   36.0900002       2.19536300E-08
   36.1500015       2.04828510E-08
   36.2099991       1.89551628E-08
   36.2700005       1.74138037E-08
   36.3300018       1.58760525E-08
   36.3899994       1.43353160E-08
   36.4500008       1.27764901E-08
   36.5099983       1.11953735E-08
   36.5699997       9.61128066E-09
   36.6300011       8.06629874E-09
   36.6899986       6.61213573E-09
   36.7500000       5.29205035E-09
   36.8100014       4.12746637E-09
   36.8699989       3.11573145E-09
   36.9300003       2.23919105E-09
   36.9900017       1.47989443E-09
   37.0499992       8.31946512E-10
   37.1100006       3.05559245E-10
   37.1699982      -7.82795773E-11
   37.2299995      -2.98811059E-10
   37.2900009      -3.46235096E-10
   37.3499985      -2.27288646E-10
   37.4099998       3.58863599E-11
   37.4700012       4.11696205E-10
   37.5299988       8.66225036E-10
   37.5900002       1.36841649E-09
   37.6500015       1.89222282E-09
   37.7099991       2.41671194E-09
   37.7700005       2.92599478E-09
   37.8300018       3.41016748E-09
   37.8899994       3.86690768E-09
   37.9500008       4.30209290E-09
   38.0099983       4.72774930E-09
   38.0699997       5.15691534E-09
   38.1300011       5.59694646E-09
   38.1899986       6.04413408E-09
   38.2500000       6.48245191E-09
   38.3100014       6.88757629E-09
   38.3699989       7.23489313E-09
   38.4300003       7.50827844E-09
   38.4900017       7.70611219E-09
   38.5499992       7.84235876E-09
   38.6100006       7.94287836E-09
   38.6699982       8.03902545E-09
   38.7299995       8.16103451E-09
   38.7900009       8.33269453E-09
   38.8499985       8.56726423E-09
   38.9099998       8.86380480E-09
   38.9700012       9.20375598E-09
   39.0299988       9.54924495E-09
   39.0900002       9.84571091E-09
   39.1500015       1.00307673E-08
   39.2099991       1.00484616E-08
   39.2700005       9.86450210E-09
   39.3300018       9.47596845E-09
   39.3899994       8.91015084E-09
   39.4500008       8.21160384E-09
   39.5099983       7.42222639E-09
   39.5699997       6.56320598E-09
   39.6300011       5.62746605E-09
   39.6899986       4.58667193E-09
   39.7500000       3.40996476E-09
   39.8100014       2.08582507E-09
   39.8699989       6.36843467E-10
   39.9300003      -8.79653905E-10
   39.9900017      -2.38571318E-09
   40.0499992      -3.80571441E-09
   40.1100006      -5.08874054E-09
   40.1699982      -6.22166318E-09
   40.2299995      -7.22860305E-09
   40.2900009      -8.15818080E-09
   40.3499985      -9.06455000E-09
   40.4099998      -9.98996619E-09
   40.4700012      -1.09552376E-08
   40.5299988      -1.19606387E-08
   40.5900002      -1.29954882E-08
   40.6500015      -1.40512002E-08
   40.7099991      -1.51314268E-08
   40.7700005      -1.62543561E-08
   40.8300018      -1.74457018E-08
   40.8899994      -1.87252134E-08
   40.9500008      -2.00926422E-08
   41.0099983      -2.15199236E-08
   41.0699997      -2.29540973E-08
   41.1300011      -2.43310740E-08
   41.1899986      -2.55956589E-08
   41.2500000      -2.67202438E-08
   41.3100014      -2.77147105E-08
   41.3699989      -2.86235284E-08
   41.4300003      -2.95109448E-08
   41.4900017      -3.04398711E-08
   41.5499992      -3.14522524E-08
   41.6100006      -3.25576899E-08
   41.6699982      -3.37334995E-08
   41.7299995      -3.49349278E-08
   41.7900009      -3.61106345E-08
   41.8499985      -3.72174185E-08
   41.9099998      -3.82293344E-08
   41.9700012      -3.91392554E-08
   42.0299988      -3.99541058E-08
   42.0900002      -4.06870129E-08
   42.1500015      -4.13501766E-08
   42.2099991      -4.19509760E-08
   42.2700005      -4.24919975E-08
   42.3300018      -4.29737916E-08
   42.3899994      -4.33980460E-08
   42.4500008      -4.37690986E-08
   42.5099983      -4.40925660E-08
   42.5699997      -4.43714185E-08
   42.6300011      -4.46011335E-08
   42.6899986      -4.47662813E-08
   42.7500000      -4.48408315E-08
   42.8100014      -4.47932784E-08
   42.8699989      -4.45959785E-08
   42.9300003      -4.42360459E-08
   42.9900017      -4.37239080E-08
   43.0499992      -4.30955360E-08
   43.1100006      -4.24062279E-08
   43.1699982      -4.17168522E-08
   43.2299995      -4.10766816E-08
   43.2900009      -4.05090290E-08
   43.3499985      -4.00053537E-08
   43.4099998      -3.95304838E-08
   43.4700012      -3.90372215E-08
   43.5299988      -3.84846146E-08
   43.5900002      -3.78527041E-08
   43.6500015      -3.71481654E-08
   43.7099991      -3.63994133E-08
   43.7700005      -3.56441703E-08
   43.8300018      -3.49155478E-08
   43.8899994      -3.42324924E-08
   43.9500008      -3.35978605E-08
   44.0099983      -3.30034311E-08
   44.0699997      -3.24379563E-08
   44.1300011      -3.18935847E-08
   44.1899986      -3.13674065E-08
   44.2500000      -3.08577732E-08
   44.3100014      -3.03580201E-08
   44.3699989      -2.98514777E-08
   44.4300003      -2.93113604E-08
   44.4900017      -2.87066673E-08
   44.5499992      -2.80127104E-08
   44.6100006      -2.72223435E-08
   44.6699982      -2.63533053E-08
   44.7299995      -2.54479584E-08
   44.7900009      -2.45643097E-08
   44.8499985      -2.37604532E-08
   44.9099998      -2.30773605E-08
   44.9700012      -2.25260965E-08
   45.0299988      -2.20844196E-08
   45.0900002      -2.17046754E-08
   45.1500015      -2.13307079E-08
   45.2099991      -2.09180389E-08
   45.2700005      -2.04501376E-08
   45.3300018      -1.99447125E-08
   45.3899994      -1.94476382E-08
   45.4500008      -1.90166141E-08
   45.5099983      -1.87005575E-08
   45.5699997      -1.85223907E-08
   45.6300011      -1.84716420E-08
   45.6899986      -1.85095672E-08
   45.7500000      -1.85847426E-08
   45.8100014      -1.86529352E-08
   45.8699989      -1.86933136E-08
   45.9300003      -1.87145339E-08
   45.9900017      -1.87482758E-08
   46.0499992      -1.88330276E-08
   46.1100006      -1.89951468E-08
   46.1699982      -1.92353404E-08
   46.2299995      -1.95265066E-08
   46.2900009      -1.98238332E-08
   46.3499985      -2.00826822E-08
   46.4099998      -2.02763246E-08
   46.4700012      -2.04057766E-08
   46.5299988      -2.04975716E-08
   46.5900002      -2.05908304E-08
   46.6500015      -2.07196695E-08
   46.7099991      -2.08989022E-08
   46.7700005      -2.11192219E-08
   46.8300018      -2.13535145E-08
   46.8899994      -2.15707825E-08
   46.9500008      -2.17507683E-08
   47.0099983      -2.18921219E-08
   47.0699997      -2.20101892E-08
   47.1300011      -2.21254162E-08
   47.1899986      -2.22480949E-08
   47.2500000      -2.23672529E-08
   47.3100014      -2.24498500E-08
   47.3699989      -2.24518928E-08
   47.4300003      -2.23372432E-08
   47.4900017      -2.20957563E-08
   47.5499992      -2.17519549E-08
   47.6100006      -2.13591491E-08
   47.6699982      -2.09803961E-08
   47.7299995      -2.06638067E-08
   47.7900009      -2.04227923E-08
   47.8499985      -2.02301038E-08
   47.9099998      -2.00288959E-08
   47.9700012      -1.97569126E-08
   48.0299988      -1.93745606E-08
   48.0900002      -1.88861478E-08
   48.1500015      -1.83463786E-08
   48.2099991      -1.78496506E-08
   48.2700005      -1.75056076E-08
   48.3300018      -1.74086097E-08
   48.3899994      -1.76102279E-08
   48.4500008      -1.81027318E-08
   48.5099983      -1.88182643E-08
   48.5699997      -1.96441299E-08
   48.6300011      -2.04500186E-08
   48.6899986      -2.11194813E-08
   48.7500000      -2.15764100E-08
   48.8100014      -2.17986464E-08
   48.8699989      -2.18150600E-08
   48.9300003      -2.16880931E-08
   48.9900017      -2.14888800E-08
   49.0499992      -2.12743689E-08
   49.1100006      -2.10743405E-08
   49.1699982      -2.08916848E-08
   49.2299995      -2.07135962E-08
   49.2900009      -2.05271267E-08
   49.3499985      -2.03314539E-08
   49.4099998      -2.01415133E-08
   49.4700012      -1.99821830E-08
   49.5299988      -1.98768113E-08
   49.5900002      -1.98364312E-08
   49.6500015      -1.98554506E-08
   49.7099991      -1.99158912E-08
   49.7700005      -1.99973620E-08
   49.8300018      -2.00861603E-08
   49.8899994      -2.01765786E-08
   49.9500008      -2.02613037E-08
   50.0099983      -2.03140100E-08
   50.0699997      -2.02725534E-08
   50.1300011      -2.00323100E-08
   50.1899986      -1.94547720E-08
   50.2500000      -1.83886915E-08
   50.3100014      -1.66939955E-08
   50.3699989      -1.42567815E-08
   50.4300003      -1.09881215E-08
   50.4900017      -6.80777479E-09
   50.5499992      -1.62113656E-09
   50.6100006       4.70028994E-09