 -0.750000000       0.00000000    
 -0.689999998       0.00000000    
 -0.629999995       0.00000000    
 -0.569999993       0.00000000    
 -0.509999990       0.00000000    
 -0.449999988      -4.18070291E-19
 -0.389999986      -3.42965874E-18
 -0.330000013      -1.41674598E-17
 -0.270000011      -3.78701681E-17
 -0.209999993      -6.88658300E-17
 -0.150000006      -7.47388719E-17
  -9.00000036E-02   7.53488002E-18
  -2.99999993E-02   2.41048663E-16
   2.99999993E-02   6.21066050E-16
   9.00000036E-02   1.01042899E-15
  0.150000006       1.15241141E-15
  0.209999993       8.08795974E-16
  0.270000011      -2.97891495E-17
  0.330000013      -1.02706631E-15
  0.389999986      -1.65184935E-15
  0.449999988      -1.60003041E-15
  0.509999990      -1.21570732E-15
  0.569999993      -1.48029394E-15
  0.629999995      -3.31795214E-15
  0.689999998      -6.48594642E-15
  0.750000000      -8.85996463E-15
  0.810000002      -7.00398627E-15
  0.870000005       1.74628844E-15
  0.930000007       1.66109903E-14
  0.990000010       3.19260779E-14
   1.04999995       3.85943786E-14
   1.11000001       2.86237234E-14
   1.16999996       8.45757369E-16
   1.23000002      -3.55421089E-14
   1.28999996      -6.26266007E-14
   1.35000002      -6.13077433E-14
   1.40999997      -2.21023693E-14
   1.47000003       4.59015320E-14
   1.52999997       1.13318561E-13
   1.59000003       1.38913051E-13
   1.64999998       8.68879011E-14
   1.71000004      -5.27675404E-14
   1.76999998      -2.49496089E-13
   1.83000004      -4.31479451E-13
   1.88999999      -5.03912884E-13
   1.95000005      -3.84309500E-13
   2.00999999      -4.45444767E-14
   2.06999993       4.57460025E-13
   2.13000011       9.74813329E-13
   2.19000006       1.30856654E-12
   2.25000000       1.27968003E-12
   2.30999994       8.12048996E-13
   2.36999989      -1.06601002E-14
   2.43000007      -9.49251528E-13
   2.49000001      -1.68723651E-12
   2.54999995      -1.96060247E-12
   2.60999990      -1.68394075E-12
   2.67000008      -1.00704048E-12
   2.73000002      -2.59188477E-13
   2.78999996       2.09415479E-13
   2.84999990       2.21331701E-13
   2.91000009      -9.99739096E-14
   2.97000003      -3.51388542E-13
   3.02999997      -3.78885190E-14
   3.08999991       1.14504792E-12
   3.15000010       3.07127761E-12
   3.21000004       5.12415240E-12
   3.26999998       6.38145873E-12
   3.32999992       5.99058693E-12
   3.39000010       3.57355421E-12
   3.45000005      -5.32538965E-13
   3.50999999      -5.33090629E-12
   3.56999993      -9.51214715E-12
   3.63000011      -1.19468402E-11
   3.69000006      -1.21022983E-11
   3.75000000      -1.01946966E-11
   3.80999994      -7.01408766E-12
   3.86999989      -3.51433726E-12
   3.93000007      -3.64906808E-13
   3.99000001       2.33413636E-12
   4.05000019       5.06618228E-12
   4.11000013       8.67060070E-12
   4.17000008       1.40118655E-11
   4.23000002       2.17134036E-11
   4.28999996       3.20667590E-11
   4.34999990       4.51277384E-11
   4.40999985       6.09150508E-11
   4.46999979       7.95875449E-11
   4.53000021       1.01494577E-10
   4.59000015       1.27061403E-10
   4.65000010       1.56544666E-10
   4.71000004       1.89754587E-10
   4.76999998       2.25865354E-10
   4.82999992       2.63419619E-10
   4.88999987       3.00579089E-10
   4.94999981       3.35586253E-10
   5.01000023       3.67311653E-10
   5.07000017       3.95694116E-10
   5.13000011       4.21883556E-10
   5.19000006       4.47978044E-10
   5.25000000       4.76392592E-10
   5.30999994       5.09052189E-10
   5.36999989       5.46687806E-10
   5.42999983       5.88494753E-10
   5.48999977       6.32275121E-10
   5.55000019       6.74997003E-10
   5.61000013       7.13547221E-10
   5.67000008       7.45392081E-10
   5.73000002       7.68933139E-10
   5.78999996       7.83499265E-10
   5.84999990       7.89078081E-10
   5.90999985       7.85989107E-10
   5.96999979       7.74690256E-10
   6.03000021       7.55803753E-10
   6.09000015       7.30310257E-10
   6.15000010       6.99765523E-10
   6.21000004       6.66374900E-10
   6.26999998       6.32846386E-10
   6.32999992       6.02058403E-10
   6.38999987       5.76683257E-10
   6.44999981       5.58923019E-10
   6.51000023       5.50454460E-10
   6.57000017       5.52568047E-10
   6.63000011       5.66384772E-10
   6.69000006       5.92988880E-10
   6.75000000       6.33348762E-10
   6.80999994       6.87961299E-10
   6.86999989       7.56230523E-10
   6.92999983       8.35666480E-10
   6.98999977       9.21036247E-10
   7.05000019       1.00366548E-09
   7.11000013       1.07110343E-09
   7.17000008       1.10732468E-09
   7.23000002       1.09350307E-09
   7.28999996       1.00917941E-09
   7.34999990       8.33454805E-10
   7.40999985       5.45809287E-10
   7.46999979       1.26336691E-10
   7.53000021      -4.44488085E-10
   7.59000015      -1.18608046E-09
   7.65000010      -2.11753726E-09
   7.71000004      -3.25666139E-09
   7.76999998      -4.61830929E-09
   7.82999992      -6.21250740E-09
   7.88999987      -8.04288902E-09
   7.94999981      -1.01057820E-08
   8.01000023      -1.23899451E-08
   8.06999969      -1.48766999E-08
   8.13000011      -1.75401915E-08
   8.18999958      -2.03477217E-08
   8.25000000      -2.32602702E-08
   8.31000042      -2.62333710E-08
   8.36999989      -2.92182865E-08
   8.43000031      -3.21632605E-08
   8.48999977      -3.50145264E-08
   8.55000019      -3.77169513E-08
   8.60999966      -4.02144806E-08
   8.67000008      -4.24507824E-08
   8.72999954      -4.43703527E-08
   8.78999996      -4.59201779E-08
   8.85000038      -4.70517598E-08
   8.90999985      -4.77231730E-08
   8.97000027      -4.79011533E-08
   9.02999973      -4.75632369E-08
   9.09000015      -4.67000163E-08
   9.14999962      -4.53172859E-08
   9.21000004      -4.34374918E-08
   9.27000046      -4.10999093E-08
   9.32999992      -3.83591718E-08
   9.39000034      -3.52824081E-08
   9.44999981      -3.19457527E-08
   9.51000023      -2.84308683E-08
   9.56999969      -2.48218797E-08
   9.63000011      -2.12026432E-08
   9.68999958      -1.76539388E-08
   9.75000000      -1.42505412E-08
   9.81000042      -1.10585265E-08
   9.86999989      -8.13336332E-09
   9.93000031      -5.51913670E-09
   9.98999977      -3.24861338E-09
   10.0500002      -1.34334033E-09
   10.1099997       1.87025867E-10
   10.1700001       1.34631473E-09
   10.2299995       2.15364881E-09
   10.2900000       2.64427724E-09
   10.3500004       2.86848079E-09
   10.4099998       2.88844526E-09
   10.4700003       2.77384871E-09
   10.5299997       2.59722865E-09
   10.5900002       2.42982079E-09
   10.6499996       2.33788811E-09
   10.7100000       2.37911624E-09
   10.7700005       2.59884936E-09
   10.8299999       3.02657011E-09
   10.8900003       3.67354969E-09
   10.9499998       4.53255788E-09
   11.0100002       5.57983748E-09
   11.0699997       6.77867540E-09
   11.1300001       8.08345835E-09
   11.1899996       9.44336875E-09
   11.2500000       1.08056017E-08
   11.3100004       1.21186172E-08
   11.3699999       1.33359768E-08
   11.4300003       1.44206247E-08
   11.4899998       1.53487765E-08
   11.5500002       1.61121623E-08
   11.6099997       1.67179106E-08
   11.6700001       1.71862169E-08
   11.7299995       1.75469008E-08
   11.7900000       1.78360473E-08
   11.8500004       1.80934769E-08
   11.9099998       1.83608702E-08
   11.9700003       1.86798701E-08
   12.0299997       1.90896117E-08
   12.0900002       1.96237675E-08
   12.1499996       2.03078230E-08
   12.2100000       2.11574402E-08
   12.2700005       2.21781704E-08
   12.3299999       2.33660540E-08
   12.3900003       2.47081573E-08
   12.4499998       2.61823843E-08
   12.5100002       2.77566592E-08
   12.5699997       2.93884987E-08
   12.6300001       3.10261399E-08
   12.6899996       3.26118617E-08
   12.7500000       3.40870159E-08
   12.8100004       3.53973206E-08
   12.8699999       3.64967399E-08
   12.9300003       3.73490323E-08
   12.9899998       3.79270944E-08
   13.0500002       3.82114216E-08
   13.1099997       3.81890821E-08
   13.1700001       3.78541536E-08
   13.2299995       3.72095705E-08
   13.2900000       3.62693520E-08
   13.3500004       3.50601077E-08
   13.4099998       3.36208110E-08
   13.4700003       3.20007345E-08
   13.5299997       3.02557304E-08
   13.5900002       2.84435693E-08
   13.6499996       2.66189168E-08
   13.7100000       2.48285961E-08
   13.7700005       2.31078179E-08
   13.8299999       2.14780052E-08
   13.8900003       1.99466808E-08
   13.9499998       1.85093736E-08
   14.0100002       1.71529564E-08
   14.0699997       1.58593885E-08
   14.1300001       1.46090473E-08
   14.1899996       1.33831541E-08
   14.2500000       1.21655210E-08
   14.3100004       1.09438165E-08
   14.3699999       9.71031522E-09
   14.4300003       8.46152837E-09
   14.4899998       7.19601312E-09
   14.5500002       5.91027227E-09
   14.6099997       4.59381733E-09
   14.6700001       3.22547833E-09
   14.7299995       1.77309512E-09
   14.7900000       1.97515670E-10
   14.8500004      -1.54011259E-09
   14.9099998      -3.47040041E-09
   14.9700003      -5.61013058E-09
   15.0299997      -7.96087463E-09
   15.0900002      -1.05116174E-08
   15.1499996      -1.32434437E-08
   15.2100000      -1.61338196E-08
   15.2700005      -1.91588345E-08
   15.3299999      -2.22933849E-08
   15.3900003      -2.55106478E-08
   15.4499998      -2.87825337E-08
   15.5100002      -3.20822160E-08
   15.5699997      -3.53885703E-08
   15.6300001      -3.86913044E-08
   15.6899996      -4.19948414E-08
   15.7500000      -4.53191298E-08
   15.8100004      -4.86961014E-08
   15.8699999      -5.21613792E-08
   15.9300003      -5.57423228E-08
   15.9899998      -5.94447762E-08
   16.0499992      -6.32420765E-08
   16.1100006      -6.70700260E-08
   16.1700001      -7.08302466E-08
   16.2299995      -7.44020099E-08
   16.2900009      -7.76600970E-08
   16.3500004      -8.04940186E-08
   16.4099998      -8.28237106E-08
   16.4699993      -8.46081463E-08
   16.5300007      -8.58456204E-08
   16.5900002      -8.65668142E-08
   16.6499996      -8.68235119E-08
   16.7099991      -8.66761383E-08
   16.7700005      -8.61831353E-08
   16.8299999      -8.53939355E-08
   16.8899994      -8.43463823E-08
   16.9500008      -8.30681017E-08
   17.0100002      -8.15803034E-08
   17.0699997      -7.99020654E-08
   17.1299992      -7.80530769E-08
   17.1900005      -7.60537517E-08
   17.2500000      -7.39231609E-08
   17.3099995      -7.16760482E-08
   17.3700008      -6.93208690E-08
   17.4300003      -6.68602667E-08
   17.4899998      -6.42938716E-08
   17.5499992      -6.16225648E-08
   17.6100006      -5.88527591E-08
   17.6700001      -5.59992976E-08
   17.7299995      -5.30866586E-08
   17.7900009      -5.01482873E-08
   17.8500004      -4.72243258E-08
   17.9099998      -4.43579928E-08
   17.9699993      -4.15907735E-08
   18.0300007      -3.89572783E-08
   18.0900002      -3.64807882E-08
   18.1499996      -3.41707747E-08
   18.2099991      -3.20231344E-08
   18.2700005      -3.00228500E-08
   18.3299999      -2.81479480E-08
   18.3899994      -2.63735451E-08
   18.4500008      -2.46752840E-08
   18.5100002      -2.30323778E-08
   18.5699997      -2.14308606E-08
   18.6299992      -1.98671479E-08
   18.6900005      -1.83509279E-08
   18.7500000      -1.69056964E-08
   18.8099995      -1.55656110E-08
   18.8700008      -1.43689167E-08
   18.9300003      -1.33500562E-08
   18.9899998      -1.25335049E-08
   19.0499992      -1.19315136E-08
   19.1100006      -1.15456853E-08
   19.1700001      -1.13699263E-08
   19.2299995      -1.13914957E-08
   19.2900009      -1.15882521E-08
   19.3500004      -1.19232366E-08
   19.4099998      -1.23404451E-08
   19.4699993      -1.27663640E-08
   19.5300007      -1.31197240E-08
   19.5900002      -1.33278348E-08
   19.6499996      -1.33441196E-08
   19.7099991      -1.31599114E-08
   19.7700005      -1.28054394E-08
   19.8299999      -1.23391537E-08
   19.8899994      -1.18292336E-08
   19.9500008      -1.13339604E-08
   20.0100002      -1.08874527E-08
   20.0699997      -1.04945004E-08
   20.1299992      -1.01343680E-08
   20.1900005      -9.77043246E-09
   20.2500000      -9.36142541E-09
   20.3099995      -8.87087914E-09
   20.3700008      -8.27312885E-09
   20.4300003      -7.55582175E-09
   20.4899998      -6.71957512E-09
   20.5499992      -5.77540282E-09
   20.6100006      -4.74041828E-09
   20.6700001      -3.63261554E-09
   20.7299995      -2.46623522E-09
   20.7900009      -1.24976274E-09
   20.8500004       1.17993462E-11
   20.9099998       1.31033384E-09
   20.9699993       2.62588196E-09
   21.0300007       3.91970234E-09
   21.0900002       5.13308773E-09
   21.1499996       6.19391738E-09
   21.2099991       7.02965330E-09
   21.2700005       7.58248486E-09
   21.3299999       7.82116683E-09
   21.3899994       7.74542031E-09
   21.4500008       7.38187467E-09
   21.5100002       6.77387924E-09
   21.5699997       5.96943606E-09
   21.6299992       5.01125497E-09
   21.6900005       3.93104393E-09
   21.7500000       2.74789702E-09
   21.8099995       1.46934909E-09
   21.8700008       9.37366088E-11
   21.9300003      -1.38659428E-09
   21.9899998      -2.98104075E-09
   22.0499992      -4.69552086E-09
   22.1100006      -6.52734711E-09
   22.1700001      -8.46214654E-09
   22.2299995      -1.04745279E-08
   22.2900009      -1.25326771E-08
   22.3500004      -1.46050132E-08
   22.4099998      -1.66656910E-08
   22.4699993      -1.86961948E-08
   22.5300007      -2.06822577E-08
   22.5900002      -2.26079102E-08
   22.6499996      -2.44501095E-08
   22.7099991      -2.61772097E-08
   22.7700005      -2.77525860E-08
   22.8299999      -2.91422584E-08
   22.8899994      -3.03234948E-08
   22.9500008      -3.12910160E-08
   23.0100002      -3.20584412E-08
   23.0699997      -3.26544267E-08
   23.1299992      -3.31145849E-08
   23.1900005      -3.34715580E-08
   23.2500000      -3.37460655E-08
   23.3099995      -3.39415678E-08
   23.3700008      -3.40443975E-08
   23.4300003      -3.40294761E-08
   23.4899998      -3.38699699E-08
   23.5499992      -3.35473942E-08
   23.6100006      -3.30585479E-08
   23.6700001      -3.24166969E-08
   23.7299995      -3.16471507E-08
   23.7900009      -3.07799510E-08
   23.8500004      -2.98434806E-08
   23.9099998      -2.88621873E-08
   23.9699993      -2.78587660E-08
   24.0300007      -2.68587819E-08
   24.0900002      -2.58939767E-08
   24.1499996      -2.50013787E-08
   24.2099991      -2.42174281E-08
   24.2700005      -2.35688269E-08
   24.3299999      -2.30633361E-08
   24.3899994      -2.26836256E-08
   24.4500008      -2.23861960E-08
   24.5100002      -2.21057999E-08
   24.5699997      -2.17647624E-08
   24.6299992      -2.12856222E-08
   24.6900005      -2.06050288E-08
   24.7500000      -1.96860608E-08
   24.8099995      -1.85259648E-08
   24.8700008      -1.71567383E-08
   24.9300003      -1.56376547E-08
   24.9899998      -1.40413574E-08
   25.0499992      -1.24373294E-08
   25.1100006      -1.08776863E-08
   25.1700001      -9.38948563E-09
   25.2299995      -7.97550470E-09
   25.2900009      -6.62268107E-09
   25.3500004      -5.31503375E-09
   25.4099998      -4.04680200E-09
   25.4699993      -2.83171397E-09
   25.5300007      -1.70557091E-09
   25.5900002      -7.21227522E-10
   25.6499996       6.27967400E-11
   25.7099991       5.96918459E-10
   25.7700005       8.53949855E-10
   25.8299999       8.37084013E-10
   25.8899994       5.79537751E-10
   25.9500008       1.35554540E-10
   26.0100002      -4.34679709E-10
   26.0699997      -1.08159914E-09
   26.1299992      -1.77920734E-09
   26.1900005      -2.53056420E-09
   26.2500000      -3.36444272E-09
   26.3099995      -4.32459757E-09
   26.3700008      -5.45534551E-09
   26.4300003      -6.78821888E-09
   26.4899998      -8.33401881E-09
   26.5499992      -1.00827879E-08
   26.6100006      -1.20114665E-08
   26.6700001      -1.40961234E-08
   26.7299995      -1.63237495E-08
   26.7900009      -1.86985396E-08
   26.8500004      -2.12396252E-08
   26.9099998      -2.39707418E-08
   26.9699993      -2.69058429E-08
   27.0300007      -3.00366487E-08
   27.0900002      -3.33275842E-08
   27.1499996      -3.67207633E-08
   27.2099991      -4.01497999E-08
   27.2700005      -4.35579217E-08
   27.3299999      -4.69143124E-08
   27.3899994      -5.02230719E-08
   27.4500008      -5.35213829E-08
   27.5100002      -5.68665506E-08
   27.5699997      -6.03148393E-08
   27.6299992      -6.38977227E-08
   27.6900005      -6.76028691E-08
   27.7500000      -7.13666424E-08
   27.8099995      -7.50822835E-08
   27.8700008      -7.86230814E-08
   27.9300003      -8.18744894E-08
   27.9899998      -8.47650270E-08
   28.0499992      -8.72854784E-08
   28.1100006      -8.94892551E-08
   28.1700001      -9.14731686E-08
   28.2299995      -9.33447879E-08
   28.2900009      -9.51871044E-08
   28.3500004      -9.70316023E-08
   28.4099998      -9.88482540E-08
   28.4699993      -1.00554978E-07
   28.5300007      -1.02043472E-07
   28.5900002      -1.03213651E-07
   28.6499996      -1.04006666E-07
   28.7099991      -1.04426654E-07
   28.7700005      -1.04544171E-07
   28.8299999      -1.04479149E-07
   28.8899994      -1.04367309E-07
   28.9500008      -1.04319611E-07
   29.0100002      -1.04387247E-07
   29.0699997      -1.04543822E-07
   29.1299992      -1.04691104E-07
   29.1900005      -1.04687047E-07
   29.2500000      -1.04387098E-07
   29.3099995      -1.03685558E-07
   29.3700008      -1.02543851E-07
   29.4300003      -1.00997383E-07
   29.4899998      -9.91396476E-08
   29.5499992      -9.70893339E-08
   29.6100006      -9.49510621E-08
   29.6700001      -9.27816757E-08
   29.7299995      -9.05722075E-08
   29.7900009      -8.82508786E-08
   29.8500004      -8.57061409E-08
   29.9099998      -8.28224245E-08
   29.9699993      -7.95171999E-08
   30.0300007      -7.57669625E-08
   30.0900002      -7.16132860E-08
   30.1499996      -6.71470985E-08
   30.2099991      -6.24771630E-08
   30.2700005      -5.76944110E-08
   30.3299999      -5.28452446E-08
   30.3899994      -4.79229136E-08
   30.4500008      -4.28794102E-08
   30.5100002      -3.76524341E-08
   30.5699997      -3.21975371E-08
   30.6299992      -2.65142841E-08
   30.6900005      -2.06584279E-08
   30.7500000      -1.47370747E-08
   30.8099995      -8.88910368E-09
   30.8700008      -3.25722604E-09
   30.9300003       2.04000861E-09
   30.9899998       6.92816871E-09
   31.0499992       1.13831478E-08
   31.1100006       1.54219357E-08
   31.1700001       1.90810265E-08
   31.2299995       2.23896865E-08
   31.2900009       2.53473011E-08
   31.3500004       2.79128614E-08
   31.4099998       3.00104830E-08
   31.4699993       3.15491064E-08
   31.5300007       3.24494067E-08
   31.5900002       3.26683853E-08
   31.6499996       3.22132827E-08
   31.7099991       3.11404342E-08
   31.7700005       2.95400895E-08
   31.8299999       2.75128116E-08
   31.8899994       2.51455479E-08
   31.9500008       2.24947989E-08
   32.0099983       1.95815062E-08
   32.0699997       1.63981682E-08
   32.1300011       1.29247031E-08
   32.1899986       9.14713194E-09
   32.2500000       5.07273290E-09
   32.3100014       7.36969208E-10
   32.3699989      -3.79940879E-09
   32.4300003      -8.46145642E-09
   32.4900017      -1.31752280E-08
   32.5499992      -1.78821455E-08
   32.6100006      -2.25483188E-08
   32.6699982      -2.71664540E-08
   32.7299995      -3.17501616E-08
   32.7900009      -3.63225645E-08
   32.8499985      -4.09024423E-08
   32.9099998      -4.54918982E-08
   32.9700012      -5.00692607E-08
   33.0299988      -5.45895809E-08
   33.0900002      -5.89929208E-08
   33.1500015      -6.32178541E-08
   33.2099991      -6.72155807E-08
   33.2700005      -7.09594659E-08
   33.3300018      -7.44463904E-08
   33.3899994      -7.76895206E-08
   33.4500008      -8.07052842E-08
   33.5099983      -8.34999696E-08
   33.5699997      -8.60610072E-08
   33.6300011      -8.83557405E-08
   33.6899986      -9.03374868E-08
   33.7500000      -9.19558474E-08
   33.8100014      -9.31671593E-08
   33.8699989      -9.39418854E-08
   33.9300003      -9.42676976E-08
   33.9900017      -9.41488381E-08
   34.0499992      -9.36038020E-08
   34.1100006      -9.26630861E-08
   34.1699982      -9.13680154E-08
   34.2299995      -8.97705448E-08
   34.2900009      -8.79331168E-08
   34.3499985      -8.59270060E-08
   34.4099998      -8.38282688E-08
   34.4700012      -8.17107448E-08
   34.5299988      -7.96370969E-08
   34.5900002      -7.76497586E-08
   34.6500015      -7.57645680E-08
   34.7099991      -7.39696517E-08
   34.7700005      -7.22310887E-08
   34.8300018      -7.05046617E-08
   34.8899994      -6.87509285E-08
   34.9500008      -6.69489921E-08
   35.0099983      -6.51044374E-08
   35.0699997      -6.32481161E-08
   35.1300011      -6.14258866E-08
   35.1899986      -5.96819945E-08
   35.2500000      -5.80417243E-08
   35.3100014      -5.64992675E-08
   35.3699989      -5.50150610E-08
   35.4300003      -5.35238627E-08
   35.4900017      -5.19510301E-08
   35.5499992      -5.02317903E-08
   35.6100006      -4.83274682E-08
   35.6699982      -4.62339074E-08
   35.7299995      -4.39802719E-08
   35.7900009      -4.16195434E-08
   35.8499985      -3.92144557E-08
   35.9099998      -3.68233479E-08
   35.9700012      -3.44896698E-08
   36.0299988      -3.22370184E-08
   36.0900002      -3.00698169E-08
   36.1500015      -2.79782686E-08
   36.2099991      -2.59455568E-08
   36.2700005      -2.39552325E-08
   36.3300018      -2.19969127E-08
   36.3899994      -2.00690593E-08
   36.4500008      -1.81782394E-08
   36.5099983      -1.63355587E-08
   36.5699997      -1.45519499E-08
   36.6300011      -1.28347466E-08
   36.6899986      -1.11875940E-08
   36.7500000      -9.61425251E-09
   36.8100014      -8.12487322E-09
   36.8699989      -6.74155887E-09
   36.9300003      -5.49990187E-09
   36.9900017      -4.44463177E-09
   37.0499992      -3.62021524E-09
   37.1100006      -3.05966674E-09
   37.1699982      -2.77583601E-09
   37.2299995      -2.75839196E-09
   37.2900009      -2.97732261E-09
   37.3499985      -3.39122419E-09
   37.4099998      -3.95727762E-09
   37.4700012      -4.63999950E-09
   37.5299988      -5.41710543E-09
   37.5900002      -6.28210417E-09
   37.6500015      -7.24381932E-09
   37.7099991      -8.32296543E-09
   37.7700005      -9.54582813E-09
   37.8300018      -1.09357483E-08
   37.8899994      -1.25043780E-08
   37.9500008      -1.42458152E-08
   38.0099983      -1.61365392E-08
   38.0699997      -1.81420869E-08
   38.1300011      -2.02283612E-08
   38.1899986      -2.23728573E-08
   38.2500000      -2.45706495E-08
   38.3100014      -2.68321774E-08
   38.3699989      -2.91737159E-08
   38.4300003      -3.16050794E-08
   38.4900017      -3.41203297E-08
   38.5499992      -3.66958517E-08
   38.6100006      -3.92965340E-08
   38.6699982      -4.18870805E-08
   38.7299995      -4.44433503E-08
   38.7900009      -4.69589523E-08
   38.8499985      -4.94445089E-08
   38.9099998      -5.19200540E-08
   38.9700012      -5.44035359E-08
   39.0299988      -5.68995873E-08
   39.0900002      -5.93925940E-08
   39.1500015      -6.18465634E-08
   39.2099991      -6.42121449E-08
   39.2700005      -6.64387585E-08
   39.3300018      -6.84877719E-08
   39.3899994      -7.03420255E-08
   39.4500008      -7.20081488E-08
   39.5099983      -7.35104067E-08
   39.5699997      -7.48782227E-08
   39.6300011      -7.61318617E-08
   39.6899986      -7.72715154E-08
   39.7500000      -7.82736791E-08
   39.8100014      -7.90962034E-08
   39.8699989      -7.96902029E-08
   39.9300003      -8.00151270E-08
   39.9900017      -8.00524234E-08
   40.0499992      -7.98138657E-08
   40.1100006      -7.93418238E-08
   40.1699982      -7.87010421E-08
   40.2299995      -7.79635698E-08
   40.2900009      -7.71905988E-08
   40.3499985      -7.64165407E-08
   40.4099998      -7.56402656E-08
   40.4700012      -7.48266444E-08
   40.5299988      -7.39181303E-08
   40.5900002      -7.28525222E-08
   40.6500015      -7.15810273E-08
   40.7099991      -7.00808656E-08
   40.7700005      -6.83590855E-08
   40.8300018      -6.64478108E-08
   40.8899994      -6.43940794E-08
   40.9500008      -6.22484251E-08
   41.0099983      -6.00558749E-08
   41.0699997      -5.78511674E-08
   41.1300011      -5.56581803E-08
   41.1899986      -5.34925277E-08
   41.2500000      -5.13657739E-08
   41.3100014      -4.92900156E-08
   41.3699989      -4.72814570E-08
   41.4300003      -4.53620146E-08
   41.4900017      -4.35579750E-08
   41.5499992      -4.18956425E-08
   41.6100006      -4.03947595E-08
   41.6699982      -3.90617139E-08
   41.7299995      -3.78849556E-08
   41.7900009      -3.68349689E-08
   41.8499985      -3.58697214E-08
   41.9099998      -3.49447369E-08
   41.9700012      -3.40251241E-08
   42.0299988      -3.30956098E-08
   42.0900002      -3.21649445E-08
   42.1500015      -3.12625303E-08
   42.2099991      -3.04279304E-08
   42.2700005      -2.96965741E-08
   42.3300018      -2.90867455E-08
   42.3899994      -2.85925665E-08
   42.4500008      -2.81854522E-08
   42.5099983      -2.78232655E-08
   42.5699997      -2.74635426E-08
   42.6300011      -2.70760250E-08
   42.6899986      -2.66504969E-08
   42.7500000      -2.61980606E-08
   42.8100014      -2.57462336E-08
   42.8699989      -2.53298165E-08
   42.9300003      -2.49800944E-08
   42.9900017      -2.47150158E-08
   43.0499992      -2.45329961E-08
   43.1100006      -2.44126266E-08
   43.1699982      -2.43196130E-08
   43.2299995      -2.42200162E-08
   43.2900009      -2.40960460E-08
   43.3499985      -2.39585063E-08
   43.4099998      -2.38500313E-08
   43.4700012      -2.38362166E-08
   43.5299988      -2.39867379E-08
   43.5900002      -2.43530796E-08
   43.6500015      -2.49514489E-08
   43.7099991      -2.57573074E-08
   43.7700005      -2.67131757E-08
   43.8300018      -2.77458909E-08
   43.8899994      -2.87863564E-08
   43.9500008      -2.97849834E-08
   44.0099983      -3.07189474E-08
   44.0699997      -3.15910995E-08
   44.1300011      -3.24230314E-08
   44.1899986      -3.32454597E-08
   44.2500000      -3.40885187E-08
   44.3100014      -3.49735245E-08
   44.3699989      -3.59074441E-08
   44.4300003      -3.68811044E-08
   44.4900017      -3.78721090E-08
   44.5499992      -3.88521286E-08
   44.6100006      -3.97966389E-08
   44.6699982      -4.06937595E-08
   44.7299995      -4.15486561E-08
   44.7900009      -4.23815152E-08
   44.8499985      -4.32197034E-08
   44.9099998      -4.40870700E-08
   44.9700012      -4.49945752E-08
   45.0299988      -4.59357103E-08
   45.0900002      -4.68881609E-08
   45.1500015      -4.78208371E-08
   45.2099991      -4.87035940E-08
   45.2700005      -4.95163412E-08
   45.3300018      -5.02547337E-08
   45.3899994      -5.09309181E-08
   45.4500008      -5.15694794E-08
   45.5099983      -5.21999119E-08
   45.5699997      -5.28480122E-08
   45.6300011      -5.35285771E-08
   45.6899986      -5.42411556E-08
   45.7500000      -5.49696146E-08
   45.8100014      -5.56850246E-08
   45.8699989      -5.63505900E-08
   45.9300003      -5.69272380E-08
   45.9900017      -5.73787027E-08
   46.0499992      -5.76756207E-08
   46.1100006      -5.77985126E-08
   46.1699982      -5.77396762E-08
   46.2299995      -5.75039536E-08
   46.2900009      -5.71081245E-08
   46.3499985      -5.65786777E-08
   46.4099998      -5.59479965E-08
   46.4700012      -5.52493056E-08
   46.5299988      -5.45111725E-08
   46.5900002      -5.37527036E-08
   46.6500015      -5.29806528E-08
   46.7099991      -5.21893675E-08
   46.7700005      -5.13638767E-08
   46.8300018      -5.04854327E-08
   46.8899994      -4.95379240E-08
   46.9500008      -4.85130904E-08
   47.0099983      -4.74128399E-08
   47.0699997      -4.62481005E-08
   47.1300011      -4.50351223E-08
   47.1899986      -4.37911787E-08
   47.2500000      -4.25315569E-08
   47.3100014      -4.12689225E-08
   47.3699989      -4.00144522E-08
   47.4300003      -3.87791488E-08
   47.4900017      -3.75735922E-08
   47.5499992      -3.64055559E-08
   47.6100006      -3.52764005E-08
   47.6699982      -3.41783455E-08
   47.7299995      -3.30946222E-08
   47.7900009      -3.20033848E-08
   47.8499985      -3.08842871E-08
   47.9099998      -2.97253013E-08
   47.9700012      -2.85271096E-08
   48.0299988      -2.73035443E-08
   48.0900002      -2.60782311E-08
   48.1500015      -2.48792524E-08
   48.2099991      -2.37341151E-08
   48.2700005      -2.26665708E-08
   48.3300018      -2.16955947E-08
   48.3899994      -2.08355750E-08
   48.4500008      -2.00964685E-08
   48.5099983      -1.94833003E-08
   48.5699997      -1.89953315E-08
   48.6300011      -1.86258724E-08
   48.6899986      -1.83635365E-08
   48.7500000      -1.81948181E-08
   48.8100014      -1.81069684E-08
   48.8699989      -1.80897732E-08
   48.9300003      -1.81354363E-08
   48.9900017      -1.82369231E-08
   49.0499992      -1.83861157E-08
   49.1100006      -1.85733811E-08
   49.1699982      -1.87893949E-08
   49.2299995      -1.90288798E-08
   49.2900009      -1.92946494E-08
   49.3499985      -1.96000389E-08
   49.4099998      -1.99682599E-08
   49.4700012      -2.04284394E-08
   49.5299988      -2.10094591E-08
   49.5900002      -2.17336034E-08
   49.6500015      -2.26120989E-08
   49.7099991      -2.36437341E-08
   49.7700005      -2.48164067E-08
   49.8300018      -2.61101949E-08
   49.8899994      -2.75002776E-08
   49.9500008      -2.89589117E-08
   50.0099983      -3.04571586E-08
   50.0699997      -3.19682805E-08
   50.1300011      -3.34741159E-08
   50.1899986      -3.49736666E-08
   50.2500000      -3.64903343E-08
   50.3100014      -3.80728942E-08
   50.3699989      -3.97868831E-08
   50.4300003      -4.16975539E-08
   50.4900017      -4.38505623E-08
   50.5499992      -4.62593910E-08
   50.6100006      -4.89066814E-08