  -2.400000      0.0000000E+00
  -2.340000      0.0000000E+00
  -2.280000      0.0000000E+00
  -2.220000      0.0000000E+00
  -2.160000      0.0000000E+00
  -2.100000      8.0991482E-19
  -2.040000      6.6952404E-18
  -1.980000      2.8361714E-17
  -1.920000      7.9512372E-17
  -1.860000      1.5676642E-16
  -1.800000      2.0041844E-16
  -1.740000      5.9777378E-17
  -1.680000     -4.7782394E-16
  -1.620000     -1.5286067E-15
  -1.560000     -2.8311001E-15
  -1.500000     -3.5082197E-15
  -1.440000     -2.1909189E-15
  -1.380000      2.2230475E-15
  -1.320000      9.2934515E-15
  -1.260000      1.6003198E-14
  -1.200000      1.7158590E-14
  -1.140000      8.0383418E-15
  -1.080000     -1.1345999E-14
  -1.020000     -3.2940447E-14
 -0.9600000     -4.1800910E-14
 -0.9000000     -2.3711329E-14
 -0.8400000      2.2883901E-14
 -0.7800000      7.7606968E-14
 -0.7200000      1.0039401E-13
 -0.6600000      5.0047514E-14
 -0.6000000     -8.5906420E-14
 -0.5400000     -2.6578037E-13
 -0.4800000     -3.9262314E-13
 -0.4200000     -3.4938751E-13
 -0.3600000     -6.3088904E-14
 -0.3000000      4.3077334E-13
 -0.2400000      9.6263427E-13
 -0.1800000      1.2706470E-12
 -0.1200000      1.1076717E-12
 -5.9999999E-02  3.7394165E-13
  0.0000000E+00 -7.8798220E-13
  5.9999999E-02 -1.9937331E-12
  0.1200000     -2.7339788E-12
  0.1800000     -2.5751896E-12
  0.2400000     -1.3674216E-12
  0.3000000      6.3133244E-13
  0.3600000      2.7791972E-12
  0.4200000      4.2334439E-12
  0.4800000      4.2421769E-12
  0.5400000      2.4506944E-12
  0.6000000     -8.8340164E-13
  0.6600000     -4.8507747E-12
  0.7200000     -8.0645811E-12
  0.7800000     -9.0273570E-12
  0.8400000     -6.6101634E-12
  0.9000000     -5.1575573E-13
  0.9600000      8.4253785E-12
   1.020000      1.8260216E-11
   1.080000      2.6286412E-11
   1.140000      2.9747402E-11
   1.200000      2.6672841E-11
   1.260000      1.6590508E-11
   1.320000      8.2759526E-13
   1.380000     -1.7766177E-11
   1.440000     -3.5621249E-11
   1.500000     -4.9477786E-11
   1.560000     -5.7189486E-11
   1.620000     -5.7896563E-11
   1.680000     -5.1445011E-11
   1.740000     -3.7358484E-11
   1.800000     -1.4050759E-11
   1.860000      2.0929702E-11
   1.920000      6.9149915E-11
   1.980000      1.2825753E-10
   2.040000      1.8868392E-10
   2.100000      2.3162522E-10
   2.160000      2.2972857E-10
   2.220000      1.5107686E-10
   2.280000     -3.4228401E-11
   2.340000     -3.4679545E-10
   2.400000     -7.9242091E-10
   2.460000     -1.3602630E-09
   2.520000     -2.0252613E-09
   2.580000     -2.7536398E-09
   2.640000     -3.5090959E-09
   2.700000     -4.2571271E-09
   2.760000     -4.9660152E-09
   2.820000     -5.6047900E-09
   2.880000     -6.1401253E-09
   2.940000     -6.5348069E-09
   3.000000     -6.7497217E-09
   3.060000     -6.7495529E-09
   3.120000     -6.5104149E-09
   3.180000     -6.0264100E-09
   3.240000     -5.3122884E-09
   3.300000     -4.4008792E-09
   3.360000     -3.3361836E-09
   3.420000     -2.1648394E-09
   3.480000     -9.2931746E-10
   3.540000      3.3468558E-10
   3.600000      1.5961926E-09
   3.660000      2.8239915E-09
   3.720000      3.9819863E-09
   3.780000      5.0280788E-09
   3.840000      5.9183649E-09
   3.900000      6.6161272E-09
   3.960000      7.1028876E-09
   4.020000      7.3875475E-09
   4.080000      7.5099251E-09
   4.140000      7.5366922E-09
   4.200000      7.5502227E-09
   4.260000      7.6332700E-09
   4.320000      7.8538269E-09
   4.380000      8.2544522E-09
   4.440000      8.8488425E-09
   4.500000      9.6259942E-09
   4.560000      1.0559796E-08
   4.620000      1.1620270E-08
   4.680000      1.2782435E-08
   4.740000      1.4030027E-08
   4.800000      1.5353644E-08
   4.860000      1.6745219E-08
   4.920000      1.8192276E-08
   4.980000      1.9675420E-08
   5.040000      2.1170880E-08
   5.100000      2.2657380E-08
   5.160000      2.4124239E-08
   5.220000      2.5576483E-08
   5.280000      2.7033742E-08
   5.340000      2.8522235E-08
   5.400000      3.0062651E-08
   5.460000      3.1658939E-08
   5.520000      3.3293482E-08
   5.580000      3.4931649E-08
   5.640000      3.6534786E-08
   5.700000      3.8076742E-08
   5.760000      3.9556905E-08
   5.820000      4.1003801E-08
   5.880000      4.2466976E-08
   5.940000      4.3999943E-08
   6.000000      4.5640700E-08
   6.060000      4.7397524E-08
   6.120000      4.9245486E-08
   6.180000      5.1134503E-08
   6.240000      5.3005046E-08
   6.300000      5.4804694E-08
   6.360000      5.6498976E-08
   6.420000      5.8072708E-08
   6.480000      5.9522645E-08
   6.540000      6.0845707E-08
   6.600000      6.2028583E-08
   6.660000      6.3043366E-08
   6.720000      6.3850706E-08
   6.780000      6.4408475E-08
   6.840000      6.4681679E-08
   6.900000      6.4649115E-08
   6.960000      6.4304452E-08
   7.020000      6.3651960E-08
   7.080000      6.2699868E-08
   7.140000      6.1455211E-08
   7.200000      5.9922726E-08
   7.260000      5.8108341E-08
   7.320000      5.6025080E-08
   7.380000      5.3698191E-08
   7.440000      5.1166715E-08
   7.500000      4.8480626E-08
   7.560000      4.5694815E-08
   7.620000      4.2862474E-08
   7.680000      4.0030425E-08
   7.740000      3.7237427E-08
   7.800000      3.4515129E-08
   7.860000      3.1890067E-08
   7.920000      2.9385223E-08
   7.980000      2.7020347E-08
   8.040000      2.4811229E-08
   8.100000      2.2768482E-08
   8.160000      2.0896493E-08
   8.220000      1.9192701E-08
   8.280000      1.7647292E-08
   8.340000      1.6243423E-08
   8.400000      1.4958344E-08
   8.460000      1.3765751E-08
   8.520000      1.2639306E-08
   8.580000      1.1556636E-08
   8.640000      1.0502616E-08
   8.700000      9.4709138E-09
   8.760000      8.4633918E-09
   8.820000      7.4877944E-09
   8.880000      6.5546790E-09
   8.940000      5.6745315E-09
   9.000000      4.8555155E-09
   9.060000      4.1019499E-09
   9.120000      3.4134253E-09
   9.180000      2.7846576E-09
   9.240000      2.2063351E-09
   9.300000      1.6670405E-09
   9.360000      1.1558524E-09
   9.420000      6.6473138E-10
   9.480000      1.8972071E-10
   9.540000     -2.6952535E-10
   9.600000     -7.1157730E-10
   9.660000     -1.1355297E-09
   9.720000     -1.5428400E-09
   9.780000     -1.9382753E-09
   9.840000     -2.3301088E-09
   9.900000     -2.7299010E-09
   9.960000     -3.1519054E-09
   10.02000     -3.6117254E-09
   10.08000     -4.1238364E-09
   10.14000     -4.6981881E-09
   10.20000     -5.3369980E-09
   10.26000     -6.0332908E-09
   10.32000     -6.7722223E-09
   10.38000     -7.5348199E-09
   10.44000     -8.3023135E-09
   10.50000     -9.0587777E-09
   10.56000     -9.7907860E-09
   10.62000     -1.0484736E-08
   10.68000     -1.1124244E-08
   10.74000     -1.1690250E-08
   10.80000     -1.2164939E-08
   10.86000     -1.2538132E-08
   10.92000     -1.2812917E-08
   10.98000     -1.3007252E-08
   11.04000     -1.3150277E-08
   11.10000     -1.3274804E-08
   11.16000     -1.3409501E-08
   11.22000     -1.3574250E-08
   11.28000     -1.3780215E-08
   11.34000     -1.4033474E-08
   11.40000     -1.4339339E-08
   11.46000     -1.4704572E-08
   11.52000     -1.5136450E-08
   11.58000     -1.5639820E-08
   11.64000     -1.6214443E-08
   11.70000     -1.6854559E-08
   11.76000     -1.7550972E-08
   11.82000     -1.8294187E-08
   11.88000     -1.9076509E-08
   11.94000     -1.9891575E-08
   12.00000     -2.0731456E-08
   12.06000     -2.1582821E-08
   12.12000     -2.2424233E-08
   12.18000     -2.3226020E-08
   12.24000     -2.3952971E-08
   12.30000     -2.4568868E-08
   12.36000     -2.5041407E-08
   12.42000     -2.5346340E-08
   12.48000     -2.5470261E-08
   12.54000     -2.5412286E-08
   12.60000     -2.5184956E-08
   12.66000     -2.4814595E-08
   12.72000     -2.4340725E-08
   12.78000     -2.3813728E-08
   12.84000     -2.3289719E-08
   12.90000     -2.2822254E-08
   12.96000     -2.2451598E-08
   13.02000     -2.2193856E-08
   13.08000     -2.2033401E-08
   13.14000     -2.1922151E-08
   13.20000     -2.1787613E-08
   13.26000     -2.1548850E-08
   13.32000     -2.1136193E-08
   13.38000     -2.0508587E-08
   13.44000     -1.9662693E-08
   13.50000     -1.8630709E-08
   13.56000     -1.7468169E-08
   13.62000     -1.6236655E-08
   13.68000     -1.4987984E-08
   13.74000     -1.3755046E-08
   13.80000     -1.2550990E-08
   13.86000     -1.1374873E-08
   13.92000     -1.0219593E-08
   13.98000     -9.0782351E-09
   14.04000     -7.9469062E-09
   14.10000     -6.8246062E-09
   14.16000     -5.7120846E-09
   14.22000     -4.6115205E-09
   14.28000     -3.5275449E-09
   14.34000     -2.4687448E-09
   14.40000     -1.4482221E-09
   14.46000     -4.8226684E-10
   14.52000      4.1270287E-10
   14.58000      1.2238172E-09
   14.64000      1.9446338E-09
   14.70000      2.5761679E-09
   14.76000      3.1257219E-09
   14.82000      3.6037748E-09
   14.88000      4.0195749E-09
   14.94000      4.3763180E-09
   15.00000      4.6670428E-09
   15.06000      4.8726103E-09
   15.12000      4.9630389E-09
   15.18000      4.9028399E-09
   15.24000      4.6597304E-09
   15.30000      4.2146739E-09
   15.36000      3.5702403E-09
   15.42000      2.7544165E-09
   15.48000      1.8183537E-09
   15.54000      8.2862567E-10
   15.60000     -1.4348139E-10
   15.66000     -1.0322624E-09
   15.72000     -1.7845927E-09
   15.78000     -2.3624434E-09
   15.84000     -2.7417004E-09
   15.90000     -2.9094192E-09
   15.96000     -2.8618168E-09
   16.02000     -2.6043252E-09
   16.08000     -2.1535085E-09
   16.14000     -1.5393870E-09
   16.20000     -8.0630436E-10
   16.26000     -1.1023234E-11
   16.32000      7.8215762E-10
   16.38000      1.5083146E-09
   16.44000      2.1092281E-09
   16.50000      2.5394704E-09
   16.56000      2.7700320E-09
   16.62000      2.7889910E-09
   16.68000      2.5994757E-09
   16.74000      2.2158331E-09
   16.80000      1.6593871E-09
   16.86000      9.5526642E-10
   16.92000      1.3136807E-10
   16.98000     -7.8044876E-10
   17.04000     -1.7420011E-09
   17.10000     -2.7071663E-09
   17.16000     -3.6228385E-09
   17.22000     -4.4331743E-09
   17.28000     -5.0861484E-09
   17.34000     -5.5400848E-09
   17.40000     -5.7676743E-09
   17.46000     -5.7562430E-09
   17.52000     -5.5050688E-09
   17.58000     -5.0221107E-09
   17.64000     -4.3226236E-09
   17.70000     -3.4306213E-09
   17.76000     -2.3818230E-09
   17.82000     -1.2251178E-09
   17.88000     -1.9706318E-11
   17.94000      1.1729043E-09
   18.00000      2.3000470E-09
   18.06000      3.3281295E-09
   18.12000      4.2478043E-09
   18.18000      5.0718785E-09
   18.24000      5.8267990E-09
   18.30000      6.5411654E-09
   18.36000      7.2356867E-09
   18.42000      7.9181337E-09
   18.48000      8.5846139E-09
   18.54000      9.2260590E-09
   18.60000      9.8370245E-09
   18.66000      1.0423268E-08
   18.72000      1.1005106E-08
   18.78000      1.1614981E-08
   18.84000      1.2289645E-08
   18.90000      1.3059286E-08
   18.96000      1.3937345E-08
   19.02000      1.4914878E-08
   19.08000      1.5962007E-08
   19.14000      1.7036363E-08
   19.20000      1.8095541E-08
   19.26000      1.9108629E-08
   19.32000      2.0062032E-08
   19.38000      2.0957085E-08
   19.44000      2.1800657E-08
   19.50000      2.2593232E-08
   19.56000      2.3320341E-08
   19.62000      2.3951978E-08
   19.68000      2.4451086E-08
   19.74000      2.4788097E-08
   19.80000      2.4955503E-08
   19.86000      2.4976154E-08
   19.92000      2.4901436E-08
   19.98000      2.4799682E-08
   20.04000      2.4739343E-08
   20.10000      2.4773511E-08
   20.16000      2.4931646E-08
   20.22000      2.5220881E-08
   20.28000      2.5634954E-08
   20.34000      2.6165520E-08
   20.40000      2.6809960E-08
   20.46000      2.7572128E-08
   20.52000      2.8456345E-08
   20.58000      2.9458628E-08
   20.64000      3.0560258E-08
   20.70000      3.1727399E-08
   20.76000      3.2916866E-08
   20.82000      3.4085019E-08
   20.88000      3.5195178E-08
   20.94000      3.6220197E-08
   21.00000      3.7139944E-08
   21.06000      3.7936083E-08
   21.12000      3.8587871E-08
   21.18000      3.9071573E-08
   21.24000      3.9363474E-08
   21.30000      3.9444245E-08
   21.36000      3.9301806E-08
   21.42000      3.8931059E-08
   21.48000      3.8331219E-08
   21.54000      3.7503170E-08
   21.60000      3.6449382E-08
   21.66000      3.5177091E-08
   21.72000      3.3703170E-08
   21.78000      3.2057347E-08
   21.84000      3.0280855E-08
   21.90000      2.8419505E-08
   21.96000      2.6513231E-08
   22.02000      2.4586063E-08
   22.08000      2.2640778E-08
   22.14000      2.0660668E-08
   22.20000      1.8618005E-08
   22.26000      1.6486091E-08
   22.32000      1.4250671E-08
   22.38000      1.1917062E-08
   22.44000      9.5113508E-09
   22.50000      7.0763324E-09
   22.56000      4.6644599E-09
   22.62000      2.3305153E-09
   22.68000      1.2596367E-10
   22.74000     -1.9043369E-09
   22.80000     -3.7235683E-09
   22.86000     -5.3035847E-09
   22.92000     -6.6256529E-09
   22.98000     -7.6816384E-09
   23.04000     -8.4753857E-09
   23.10000     -9.0237533E-09
   23.16000     -9.3568406E-09
   23.22000     -9.5171986E-09
   23.28000     -9.5579278E-09
   23.34000     -9.5394181E-09
   23.40000     -9.5242241E-09
   23.46000     -9.5695905E-09
   23.52000     -9.7178043E-09
   23.58000     -9.9859214E-09
   23.64000     -1.0357910E-08
   23.70000     -1.0782925E-08
   23.76000     -1.1182435E-08
   23.82000     -1.1466097E-08
   23.88000     -1.1552536E-08
   23.94000     -1.1388347E-08
   24.00000     -1.0958294E-08
   24.06000     -1.0282682E-08
   24.12000     -9.4030925E-09
   24.18000     -8.3627132E-09
   24.24000     -7.1899207E-09
   24.30000     -5.8919420E-09
   24.36000     -4.4603436E-09
   24.42000     -2.8842131E-09
   24.48000     -1.1633431E-09
   24.54000      6.8559614E-10
   24.60000      2.6325140E-09
   24.66000      4.6440083E-09
   24.72000      6.6935102E-09
   24.78000      8.7651832E-09
   24.84000      1.0849246E-08
   24.90000      1.2931584E-08
   24.96000      1.4983963E-08
   25.02000      1.6960884E-08
   25.08000      1.8805482E-08
   25.14000      2.0461869E-08
   25.20000      2.1887958E-08
   25.26000      2.3062643E-08
   25.32000      2.3984340E-08
   25.38000      2.4662338E-08
   25.44000      2.5105944E-08
   25.50000      2.5316977E-08
   25.56000      2.5288967E-08
   25.62000      2.5012563E-08
   25.68000      2.4483446E-08
   25.74000      2.3707980E-08
   25.80000      2.2703437E-08
   25.86000      2.1493005E-08
   25.92000      2.0098760E-08
   25.98000      1.8537129E-08
   26.04000      1.6819891E-08
   26.10000      1.4960634E-08
   26.16000      1.2983135E-08
   26.22000      1.0926763E-08
   26.28000      8.8450269E-09
   26.34000      6.7969457E-09
   26.40000      4.8346207E-09
   26.46000      2.9924356E-09
   26.52000      1.2824831E-09
   26.58000     -3.0243608E-10
   26.64000     -1.7806953E-09
   26.70000     -3.1731657E-09
   26.76000     -4.4978470E-09
   26.82000     -5.7687912E-09
   26.88000     -6.9971811E-09
   26.94000     -8.1911580E-09
   27.00000     -9.3524735E-09
   27.06000     -1.0471129E-08
   27.12000     -1.1521784E-08
   27.18000     -1.2465789E-08
   27.24000     -1.3259793E-08
   27.30000     -1.3867843E-08
   27.36000     -1.4271054E-08
   27.42000     -1.4469589E-08
   27.48000     -1.4475683E-08
   27.54000     -1.4301645E-08
   27.60000     -1.3950092E-08
   27.66000     -1.3412866E-08
   27.72000     -1.2680371E-08
   27.78000     -1.1756843E-08
   27.84000     -1.0672993E-08
   27.90000     -9.4878700E-09
   27.96000     -8.2767890E-09
   28.02000     -7.1091804E-09
   28.08000     -6.0256005E-09
   28.14000     -5.0241007E-09
   28.20000     -4.0620862E-09
   28.26000     -3.0729701E-09
   28.32000     -1.9906130E-09
   28.38000     -7.7182938E-10
   28.44000      5.9093203E-10
   28.50000      2.0695379E-09
   28.56000      3.6100816E-09
   28.62000      5.1467977E-09
   28.68000      6.6141905E-09
   28.74000      7.9544344E-09
   28.80000      9.1205452E-09
   28.86000      1.0077763E-08
   28.92000      1.0805129E-08
   28.98000      1.1297052E-08
   29.04000      1.1562568E-08
   29.10000      1.1619789E-08
   29.16000      1.1485124E-08
   29.22000      1.1160318E-08
   29.28000      1.0622981E-08
   29.34000      9.8261799E-09
   29.40000      8.7093399E-09
   29.46000      7.2174848E-09
   29.52000      5.3213833E-09
   29.58000      3.0300693E-09
   29.64000      3.9020384E-10
   29.70000     -2.5271933E-09
   29.76000     -5.6461640E-09
   29.82000     -8.9020515E-09
   29.88000     -1.2247072E-08
   29.94000     -1.5643321E-08
   30.00000     -1.9047876E-08
   30.06000     -2.2398623E-08
   30.12000     -2.5609042E-08
   30.18000     -2.8575526E-08
   30.24000     -3.1194684E-08
   30.30000     -3.3383561E-08
   30.36000     -3.5094871E-08
   30.42000     -3.6322398E-08
   30.48000     -3.7096409E-08
   30.54000     -3.7472741E-08
   30.60000     -3.7520415E-08
   30.66000     -3.7311047E-08
   30.72000     -3.6910841E-08
   30.78000     -3.6374065E-08
   30.84000     -3.5737276E-08
   30.90000     -3.5015077E-08
   30.96000     -3.4199747E-08
   31.02000     -3.3266815E-08
   31.08000     -3.2186442E-08
   31.14000     -3.0937183E-08
   31.20000     -2.9516633E-08
   31.26000     -2.7943965E-08
   31.32000     -2.6252836E-08
   31.38000     -2.4477542E-08
   31.44000     -2.2638954E-08
   31.50000     -2.0736810E-08
   31.56000     -1.8751948E-08
   31.62000     -1.6656973E-08
   31.68000     -1.4429712E-08
   31.74000     -1.2062682E-08
   31.80000     -9.5643138E-09
   31.86000     -6.9523547E-09
   31.92000     -4.2442392E-09
   31.98000     -1.4506115E-09
   32.04000      1.4238660E-09
   32.10000      4.3728128E-09
   32.16000      7.3781936E-09
   32.22000      1.0404375E-08
   32.28000      1.3400402E-08
   32.34000      1.6310207E-08
   32.40000      1.9086020E-08
   32.46000      2.1698405E-08
   32.52000      2.4138144E-08
   32.58000      2.6409502E-08
   32.64000      2.8519048E-08
   32.70000      3.0466186E-08
   32.76000      3.2240340E-08
   32.82000      3.3825444E-08
   32.88000      3.5208377E-08
   32.94000      3.6385583E-08
   33.00000      3.7363666E-08
   33.06000      3.8153463E-08
   33.12000      3.8761314E-08
   33.18000      3.9183075E-08
   33.24000      3.9405034E-08
   33.30000      3.9411784E-08
   33.36000      3.9196873E-08
   33.42000      3.8770228E-08
   33.48000      3.8158021E-08
   33.54000      3.7394987E-08
   33.60000      3.6513846E-08
   33.66000      3.5538310E-08
   33.72000      3.4484039E-08
   33.78000      3.3366980E-08
   33.84000      3.2213379E-08
   33.90000      3.1063777E-08
   33.96000      2.9966071E-08
   34.02000      2.8958823E-08
   34.08000      2.8052364E-08
   34.14000      2.7217864E-08
   34.20000      2.6391730E-08
   34.26000      2.5495400E-08
   34.32000      2.4462649E-08
   34.38000      2.3262309E-08
   34.44000      2.1906128E-08
   34.50000      2.0438689E-08
   34.56000      1.8915118E-08
   34.62000      1.7377904E-08
   34.68000      1.5843991E-08
   34.74000      1.4307379E-08
   34.80000      1.2754189E-08
   34.86000      1.1181125E-08
   34.92000      9.6071826E-09
   34.98000      8.0727922E-09
   35.04000      6.6275891E-09
   35.10000      5.3137224E-09
   35.16000      4.1533541E-09
   35.22000      3.1461309E-09
   35.28000      2.2768902E-09
   35.34000      1.5287722E-09
   35.40000      8.9477825E-10
   35.46000      3.8236092E-10
   35.52000      9.6375755E-12
   35.58000     -2.0402408E-10
   35.64000     -2.4804184E-10
   35.70000     -1.2674628E-10
   35.76000      1.4039025E-10
   35.82000      5.2340227E-10
   35.88000      9.8844255E-10
   35.94000      1.5033857E-09
   36.00000      2.0409159E-09
   36.06000      2.5794209E-09
   36.12000      3.1030976E-09
   36.18000      3.6024426E-09
   36.24000      4.0751411E-09
   36.30000      4.5261999E-09
   36.36000      4.9659317E-09
   36.42000      5.4053721E-09
   36.48000      5.8503793E-09
   36.54000      6.2969319E-09
   36.60000      6.7301289E-09
   36.66000      7.1279160E-09
   36.72000      7.4683362E-09
   36.78000      7.7373929E-09
   36.84000      7.9343518E-09
   36.90000      8.0726332E-09
   36.96000      8.1765439E-09
   37.02000      8.2756575E-09
   37.08000      8.3989562E-09
   37.14000      8.5698213E-09
   37.20000      8.8017131E-09
   37.26000      9.0939691E-09
   37.32000      9.4279731E-09
   37.38000      9.7655137E-09
   37.44000      1.0051886E-08
   37.50000      1.0225286E-08
   37.56000      1.0231180E-08
   37.62000      1.0037001E-08
   37.68000      9.6409440E-09
   37.74000      9.0700523E-09
   37.80000      8.3672260E-09
   37.86000      7.5720914E-09
   37.92000      6.7041328E-09
   37.98000      5.7560641E-09
   38.04000      4.7009214E-09
   38.10000      3.5099925E-09
   38.16000      2.1734579E-09
   38.22000      7.1421430E-10
   38.28000     -8.1165169E-10
   38.34000     -2.3282953E-09
   38.40000     -3.7619725E-09
   38.46000     -5.0624620E-09
   38.52000     -6.2157892E-09
   38.58000     -7.2439938E-09
   38.64000     -8.1931253E-09
   38.70000     -9.1151326E-09
   38.76000     -1.0051116E-08
   38.82000     -1.1022108E-08
   38.88000     -1.2029916E-08
   38.94000     -1.3066254E-08
   39.00000     -1.4125040E-08
   39.06000     -1.5211691E-08
   39.12000     -1.6344774E-08
   39.18000     -1.7548851E-08
   39.24000     -1.8841380E-08
   39.30000     -2.0219515E-08
   39.36000     -2.1653179E-08
   39.42000     -2.3088564E-08
   39.48000     -2.4461981E-08
   39.54000     -2.5719562E-08
   39.60000     -2.6835446E-08
   39.66000     -2.7821262E-08
   39.72000     -2.8722845E-08
   39.78000     -2.9605157E-08
   39.84000     -3.0530973E-08
   39.90000     -3.1541205E-08
   39.96000     -3.2643861E-08
   40.02000     -3.3814842E-08
   40.08000     -3.5008952E-08
   40.14000     -3.6175869E-08
   40.20000     -3.7274528E-08
   40.26000     -3.8281119E-08
   40.32000     -3.9189342E-08
   40.38000     -4.0004895E-08
   40.44000     -4.0738062E-08
   40.50000     -4.1397996E-08
   40.56000     -4.1990535E-08
   40.62000     -4.2519133E-08
   40.68000     -4.2987136E-08
   40.74000     -4.3399428E-08
   40.80000     -4.3762217E-08
   40.86000     -4.4080871E-08
   40.92000     -4.4356483E-08
   40.98000     -4.4582464E-08
   41.04000     -4.4742521E-08
   41.10000     -4.4811326E-08
   41.16000     -4.4758913E-08
   41.22000     -4.4558671E-08
   41.28000     -4.4197289E-08
   41.34000     -4.3683499E-08
   41.40000     -4.3051500E-08
   41.46000     -4.2356195E-08
   41.52000     -4.1660176E-08
   41.58000     -4.1016051E-08
   41.64000     -4.0450477E-08
   41.70000     -3.9956472E-08
   41.76000     -3.9497664E-08
   41.82000     -3.9023213E-08
   41.88000     -3.8487627E-08
   41.94000     -3.7867451E-08
   42.00000     -3.7168288E-08
   42.06000     -3.6420087E-08
   42.12000     -3.5663717E-08
   42.18000     -3.4935379E-08
   42.24000     -3.4255635E-08
   42.30000     -3.3626996E-08
   42.36000     -3.3039502E-08
   42.42000     -3.2479992E-08
   42.48000     -3.1939646E-08
   42.54000     -3.1415848E-08
   42.60000     -3.0907959E-08
   42.66000     -3.0409957E-08
   42.72000     -2.9904736E-08
   42.78000     -2.9364037E-08
   42.84000     -2.8755366E-08
   42.90000     -2.8053677E-08
   42.96000     -2.7253162E-08
   43.02000     -2.6374007E-08
   43.08000     -2.5460713E-08
   43.14000     -2.4571728E-08
   43.20000     -2.3763537E-08
   43.26000     -2.3074454E-08
   43.32000     -2.2513632E-08
   43.38000     -2.2059096E-08
   43.44000     -2.1665679E-08
   43.50000     -2.1280488E-08
   43.56000     -2.0861037E-08
   43.62000     -2.0390161E-08
   43.68000     -1.9882609E-08
   43.74000     -1.9380737E-08
   43.80000     -1.8940311E-08
   43.86000     -1.8611079E-08
   43.92000     -1.8419049E-08
   43.98000     -1.8357261E-08
   44.04000     -1.8389002E-08
   44.10000     -1.8462535E-08
   44.16000     -1.8531571E-08
   44.22000     -1.8573012E-08
   44.28000     -1.8594397E-08
   44.34000     -1.8627826E-08
   44.40000     -1.8713113E-08
   44.46000     -1.8877794E-08
   44.52000     -1.9122943E-08
   44.58000     -1.9421087E-08
   44.64000     -1.9726853E-08
   44.70000     -1.9995340E-08
   44.76000     -2.0199836E-08
   44.82000     -2.0341206E-08
   44.88000     -2.0445258E-08
   44.94000     -2.0549869E-08
   45.00000     -2.0687953E-08
   45.06000     -2.0873905E-08
   45.12000     -2.1099160E-08
   45.18000     -2.1338206E-08
   45.24000     -2.1561750E-08
   45.30000     -2.1750482E-08
   45.36000     -2.1902858E-08
   45.42000     -2.2033037E-08
   45.48000     -2.2159954E-08
   45.54000     -2.2292809E-08
   45.60000     -2.2420439E-08
   45.66000     -2.2510607E-08
   45.72000     -2.2520744E-08
   45.78000     -2.2416087E-08
   45.84000     -2.2187120E-08
   45.90000     -2.1857796E-08
   45.96000     -2.1479750E-08
   46.02000     -2.1113888E-08
   46.08000     -2.0806697E-08
   46.14000     -2.0571308E-08
   46.20000     -2.0381762E-08
   46.26000     -2.0183489E-08
   46.32000     -1.9916385E-08
   46.38000     -1.9541835E-08
   46.44000     -1.9063473E-08
   46.50000     -1.8533971E-08
   46.56000     -1.8045210E-08
   46.62000     -1.7704824E-08
   46.68000     -1.7606389E-08
   46.74000     -1.7802174E-08
   46.80000     -1.8286428E-08
   46.86000     -1.8993962E-08
   46.92000     -1.9814536E-08
   46.98000     -2.0619153E-08
   47.04000     -2.1290928E-08
   47.10000     -2.1751736E-08
   47.16000     -2.1976859E-08
   47.22000     -2.1993468E-08
   47.28000     -2.1864144E-08
   47.34000     -2.1661714E-08
   47.40000     -2.1444894E-08
   47.46000     -2.1243579E-08
   47.52000     -2.1058447E-08
   47.58000     -2.0873239E-08
   47.64000     -2.0672640E-08
   47.70000     -2.0456456E-08
   47.76000     -2.0243268E-08
   47.82000     -2.0062506E-08
   47.88000     -1.9940066E-08
   47.94000     -1.9885908E-08
   48.00000     -1.9890646E-08
   48.06000     -1.9932624E-08
   48.12000     -1.9990610E-08
   48.18000     -2.0053459E-08
   48.24000     -2.0119460E-08
   48.30000     -2.0183741E-08
   48.36000     -2.0219199E-08
   48.42000     -2.0160664E-08
   48.48000     -1.9901064E-08
   48.54000     -1.9302407E-08
   48.60000     -1.8216957E-08
   48.66000     -1.6508713E-08
   48.72000     -1.4065381E-08
   48.78000     -1.0795952E-08
   48.84000     -6.6159020E-09
   48.90000     -1.4272228E-09
   48.96000      4.8988862E-09
   49.02000      1.2532255E-08
   49.08000      2.1687832E-08
   49.14000      3.2628286E-08
   49.20000      4.5670060E-08
   49.26000      6.1194783E-08
   49.32000      7.9663991E-08
   49.38000      1.0163290E-07
   49.44000      1.2775968E-07
   49.50000      1.5881045E-07
   49.56000      1.9566403E-07
   49.62000      2.3932239E-07
   49.68000      2.9093195E-07
   49.74000      3.5181623E-07
   49.80000      4.2351667E-07
   49.86000      5.0783467E-07
   49.92000      6.0686989E-07
   49.98000      7.2305221E-07
   50.04000      8.5917065E-07
   50.10000      1.0184054E-06
   50.16000      1.2043704E-06
   50.22000      1.4211681E-06
   50.28000      1.6734585E-06
   50.34000      1.9665333E-06
   50.40000      2.3063894E-06
   50.46000      2.6997993E-06
   50.52000      3.1543786E-06
   50.58000      3.6786550E-06
   50.64000      4.2821471E-06
   50.70000      4.9754581E-06
   50.76000      5.7703837E-06
   50.82000      6.6800285E-06
   50.88000      7.7189225E-06
   50.94000      8.9031364E-06
   51.00000      1.0250385E-05
   51.06000      1.1780130E-05
   51.12000      1.3513679E-05
   51.18000      1.5474296E-05
   51.24000      1.7687309E-05
   51.30000      2.0180240E-05
   51.36000      2.2982907E-05
   51.42000      2.6127553E-05
   51.48000      2.9648934E-05
   51.54000      3.3584412E-05
   51.60000      3.7974012E-05
   51.66000      4.2860513E-05
   51.72000      4.8289454E-05
   51.78000      5.4309199E-05
   51.84000      6.0970913E-05
   51.90000      6.8328554E-05
   51.96000      7.6438795E-05
   52.02000      8.5360967E-05
   52.08000      9.5156873E-05
   52.14000      1.0589069E-04
   52.20000      1.1762878E-04
   52.26000      1.3043950E-04
   52.32000      1.4439301E-04
   52.38000      1.5956094E-04
   52.44000      1.7601605E-04
   52.50000      1.9383196E-04
   52.56000      2.1308260E-04
   52.62000      2.3384189E-04
   52.68000      2.5618309E-04
   52.74000      2.8017844E-04
   52.80000      3.0589863E-04
   52.86000      3.3341208E-04
   52.92000      3.6278454E-04
   52.98000      3.9407826E-04
   53.04000      4.2735145E-04
   53.10000      4.6265760E-04
   53.16000      5.0004484E-04
   53.22000      5.3955516E-04
   53.28000      5.8122393E-04
   53.34000      6.2507915E-04
   53.40000      6.7114120E-04
   53.46000      7.1942178E-04
   53.52000      7.6992367E-04
   53.58000      8.2264037E-04
   53.64000      8.7755505E-04
   53.70000      9.3464105E-04
   53.76000      9.9386065E-04
   53.82000      1.0551660E-03
   53.88000      1.1184976E-03
   53.94000      1.1837855E-03
   54.00000      1.2509488E-03
   54.06000      1.3198957E-03
   54.12000      1.3905244E-03
   54.18000      1.4627225E-03
   54.24000      1.5363685E-03
   54.30000      1.6113310E-03
   54.36000      1.6874705E-03
   54.42000      1.7646395E-03
   54.48000      1.8426841E-03
   54.54000      1.9214435E-03
   54.60000      2.0007526E-03
   54.66000      2.0804422E-03
   54.72000      2.1603392E-03
   54.78000      2.2402701E-03
   54.84000      2.3200598E-03
   54.90000      2.3995328E-03
   54.96000      2.4785162E-03
   55.02000      2.5568397E-03
   55.08000      2.6343367E-03
   55.14000      2.7108460E-03
   55.20000      2.7862117E-03
   55.26000      2.8602846E-03
   55.32000      2.9329241E-03
   55.38000      3.0039970E-03
   55.44000      3.0733799E-03
   55.50000      3.1409597E-03
   55.56000      3.2066335E-03