  -2.400000      0.0000000E+00
  -2.340000      0.0000000E+00
  -2.280000      0.0000000E+00
  -2.220000      0.0000000E+00
  -2.160000      0.0000000E+00
  -2.100000     -5.9401455E-21
  -2.040000      2.3453543E-20
  -1.980000      5.1748300E-19
  -1.920000      3.1704216E-18
  -1.860000      1.2145495E-17
  -1.800000      3.4509052E-17
  -1.740000      7.8214837E-17
  -1.680000      1.4669224E-16
  -1.620000      2.3134058E-16
  -1.560000      3.0545864E-16
  -1.500000      3.2254297E-16
  -1.440000      2.1678100E-16
  -1.380000     -1.0343134E-16
  -1.320000     -7.7878719E-16
  -1.260000     -2.0330985E-15
  -1.200000     -4.1762752E-15
  -1.140000     -7.4936734E-15
  -1.080000     -1.1929859E-14
  -1.020000     -1.6543301E-14
 -0.9600000     -1.8879777E-14
 -0.9000000     -1.4650124E-14
 -0.8400000      1.7188323E-15
 -0.7800000      3.5145996E-14
 -0.7200000      8.6507441E-14
 -0.6600000      1.4858840E-13
 -0.6000000      2.0316535E-13
 -0.5400000      2.2162911E-13
 -0.4800000      1.7118941E-13
 -0.4200000      2.6956075E-14
 -0.3600000     -2.1270862E-13
 -0.3000000     -5.1323409E-13
 -0.2400000     -8.0058437E-13
 -0.1800000     -9.7366050E-13
 -0.1200000     -9.3337935E-13
 -5.9999999E-02 -6.2192910E-13
  0.0000000E+00 -5.8411385E-14
  5.9999999E-02  6.4621637E-13
  0.1200000      1.3082030E-12
  0.1800000      1.7259412E-12
  0.2400000      1.7566355E-12
  0.3000000      1.3863166E-12
  0.3600000      7.5978546E-13
  0.4200000      1.4636740E-13
  0.4800000     -1.5937260E-13
  0.5400000      2.7197833E-14
  0.6000000      6.6319812E-13
  0.6600000      1.4373953E-12
  0.7200000      1.8447895E-12
  0.7800000      1.3716463E-12
  0.8400000     -2.6635991E-13
  0.9000000     -2.9292647E-12
  0.9600000     -6.0021064E-12
   1.020000     -8.5489359E-12
   1.080000     -9.6542019E-12
   1.140000     -8.8445536E-12
   1.200000     -6.4194839E-12
   1.260000     -3.5135621E-12
   1.320000     -1.7824652E-12
   1.380000     -2.7374691E-12
   1.440000     -6.9080392E-12
   1.500000     -1.3131709E-11
   1.560000     -1.8299841E-11
   1.620000     -1.7797449E-11
   1.680000     -6.6767295E-12
   1.740000      1.8648432E-11
   1.800000      5.8622801E-11
   1.860000      1.0923101E-10
   1.920000      1.6163006E-10
   1.980000      2.0300407E-10
   2.040000      2.1858973E-10
   2.100000      1.9450069E-10
   2.160000      1.2076823E-10
   2.220000     -6.0106820E-12
   2.280000     -1.8086521E-10
   2.340000     -3.8964984E-10
   2.400000     -6.0913924E-10
   2.460000     -8.0774892E-10
   2.520000     -9.4664276E-10
   2.580000     -9.8118769E-10
   2.640000     -8.6297575E-10
   2.700000     -5.4279931E-10
   2.760000      2.5089094E-11
   2.820000      8.7743673E-10
   2.880000      2.0356918E-09
   2.940000      3.5000107E-09
   3.000000      5.2449591E-09
   3.060000      7.2182309E-09
   3.120000      9.3432053E-09
   3.180000      1.1525321E-08
   3.240000      1.3661308E-08
   3.300000      1.5649611E-08
   3.360000      1.7400057E-08
   3.420000      1.8841082E-08
   3.480000      1.9923633E-08
   3.540000      2.0621698E-08
   3.600000      2.0930434E-08
   3.660000      2.0863165E-08
   3.720000      2.0448567E-08
   3.780000      1.9728780E-08
   3.840000      1.8758401E-08
   3.900000      1.7603563E-08
   3.960000      1.6339936E-08
   4.020000      1.5048599E-08
   4.080000      1.3809332E-08
   4.140000      1.2691840E-08
   4.200000      1.1746291E-08
   4.260000      1.0995255E-08
   4.320000      1.0429164E-08
   4.380000      1.0006885E-08
   4.440000      9.6620374E-09
   4.500000      9.3143431E-09
   4.560000      8.8841352E-09
   4.620000      8.3073388E-09
   4.680000      7.5479925E-09
   4.740000      6.6058967E-09
   4.800000      5.5179239E-09
   4.860000      4.3528576E-09
   4.920000      3.2009129E-09
   4.980000      2.1600295E-09
   5.040000      1.3214730E-09
   5.100000      7.5715578E-10
   5.160000      5.1051657E-10
   5.220000      5.9196359E-10
   5.280000      9.7905528E-10
   5.340000      1.6209125E-09
   5.400000      2.4459257E-09
   5.460000      3.3716303E-09
   5.520000      4.3155772E-09
   5.580000      5.2060281E-09
   5.640000      5.9913030E-09
   5.700000      6.6465979E-09
   5.760000      7.1771233E-09
   5.820000      7.6166575E-09
   5.880000      8.0210993E-09
   5.940000      8.4574392E-09
   6.000000      8.9895451E-09
   6.060000      9.6632178E-09
   6.120000      1.0493581E-08
   6.180000      1.1457906E-08
   6.240000      1.2496139E-08
   6.300000      1.3519771E-08
   6.360000      1.4427606E-08
   6.420000      1.5125032E-08
   6.480000      1.5542138E-08
   6.540000      1.5645989E-08
   6.600000      1.5443675E-08
   6.660000      1.4975166E-08
   6.720000      1.4297844E-08
   6.780000      1.3466971E-08
   6.840000      1.2517682E-08
   6.900000      1.1453737E-08
   6.960000      1.0246439E-08
   7.020000      8.8442507E-09
   7.080000      7.1905237E-09
   7.140000      5.2444316E-09
   7.200000      2.9991416E-09
   7.260000      4.9198295E-10
   7.320000     -2.1964945E-09
   7.380000     -4.9546540E-09
   7.440000     -7.6601463E-09
   7.500000     -1.0203394E-08
   7.560000     -1.2508286E-08
   7.620000     -1.4545039E-08
   7.680000     -1.6332306E-08
   7.740000     -1.7928453E-08
   7.800000     -1.9414570E-08
   7.860000     -2.0873644E-08
   7.920000     -2.2370916E-08
   7.980000     -2.3939769E-08
   8.040000     -2.5575835E-08
   8.100000     -2.7240036E-08
   8.160000     -2.8869106E-08
   8.220000     -3.0390819E-08
   8.280000     -3.1740207E-08
   8.340000     -3.2873192E-08
   8.400000     -3.3774636E-08
   8.460000     -3.4459269E-08
   8.520000     -3.4965471E-08
   8.580000     -3.5343746E-08
   8.640000     -3.5642984E-08
   8.700000     -3.5898335E-08
   8.760000     -3.6124131E-08
   8.820000     -3.6313889E-08
   8.880000     -3.6447389E-08
   8.940000     -3.6502460E-08
   9.000000     -3.6467636E-08
   9.060000     -3.6351285E-08
   9.120000     -3.6183952E-08
   9.180000     -3.6012818E-08
   9.240000     -3.5889901E-08
   9.300000     -3.5857870E-08
   9.360000     -3.5938172E-08
   9.420000     -3.6125659E-08
   9.480000     -3.6391430E-08
   9.540000     -3.6692754E-08
   9.600000     -3.6986382E-08
   9.660000     -3.7240273E-08
   9.720000     -3.7439300E-08
   9.780000     -3.7583000E-08
   9.840000     -3.7676326E-08
   9.900000     -3.7717435E-08
   9.960000     -3.7687855E-08
   10.02000     -3.7549654E-08
   10.08000     -3.7251954E-08
   10.14000     -3.6745462E-08
   10.20000     -3.6000607E-08
   10.26000     -3.5023110E-08
   10.32000     -3.3860974E-08
   10.38000     -3.2599562E-08
   10.44000     -3.1344623E-08
   10.50000     -3.0197235E-08
   10.56000     -2.9227063E-08
   10.62000     -2.8451311E-08
   10.68000     -2.7825459E-08
   10.74000     -2.7249117E-08
   10.80000     -2.6586358E-08
   10.86000     -2.5696194E-08
   10.92000     -2.4466059E-08
   10.98000     -2.2840091E-08
   11.04000     -2.0834920E-08
   11.10000     -1.8538600E-08
   11.16000     -1.6092381E-08
   11.22000     -1.3659452E-08
   11.28000     -1.1388318E-08
   11.34000     -9.3799795E-09
   11.40000     -7.6672624E-09
   11.46000     -6.2112973E-09
   11.52000     -4.9155027E-09
   11.58000     -3.6526326E-09
   11.64000     -2.2970437E-09
   11.70000     -7.5339074E-10
   11.76000      1.0253876E-09
   11.82000      3.0342602E-09
   11.88000      5.2255706E-09
   11.94000      7.5272562E-09
   12.00000      9.8634709E-09
   12.06000      1.2171680E-08
   12.12000      1.4412346E-08
   12.18000      1.6570288E-08
   12.24000      1.8649363E-08
   12.30000      2.0663650E-08
   12.36000      2.2628553E-08
   12.42000      2.4554364E-08
   12.48000      2.6443491E-08
   12.54000      2.8291266E-08
   12.60000      3.0089314E-08
   12.66000      3.1829998E-08
   12.72000      3.3510556E-08
   12.78000      3.5135599E-08
   12.84000      3.6717314E-08
   12.90000      3.8273107E-08
   12.96000      3.9821337E-08
   13.02000      4.1376374E-08
   13.08000      4.2944681E-08
   13.14000      4.4523411E-08
   13.20000      4.6102354E-08
   13.26000      4.7668635E-08
   13.32000      4.9212566E-08
   13.38000      5.0732130E-08
   13.44000      5.2233975E-08
   13.50000      5.3729845E-08
   13.56000      5.5229371E-08
   13.62000      5.6731665E-08
   13.68000      5.8219062E-08
   13.74000      5.9655861E-08
   13.80000      6.0993223E-08
   13.86000      6.2179176E-08
   13.92000      6.3170681E-08
   13.98000      6.3943837E-08
   14.04000      6.4498920E-08
   14.10000      6.4858739E-08
   14.16000      6.5060973E-08
   14.22000      6.5147148E-08
   14.28000      6.5151688E-08
   14.34000      6.5094213E-08
   14.40000      6.4976675E-08
   14.46000      6.4785475E-08
   14.52000      6.4497137E-08
   14.58000      6.4085661E-08
   14.64000      6.3529434E-08
   14.70000      6.2816554E-08
   14.76000      6.1947688E-08
   14.82000      6.0936273E-08
   14.88000      5.9806418E-08
   14.94000      5.8588732E-08
   15.00000      5.7314985E-08
   15.06000      5.6012748E-08
   15.12000      5.4701299E-08
   15.18000      5.3390082E-08
   15.24000      5.2080384E-08
   15.30000      5.0769810E-08
   15.36000      4.9458027E-08
   15.42000      4.8151566E-08
   15.48000      4.6865573E-08
   15.54000      4.5621363E-08
   15.60000      4.4440341E-08
   15.66000      4.3336410E-08
   15.72000      4.2309946E-08
   15.78000      4.1346091E-08
   15.84000      4.0418655E-08
   15.90000      3.9498754E-08
   15.96000      3.8565300E-08
   16.02000      3.7613507E-08
   16.08000      3.6658005E-08
   16.14000      3.5729094E-08
   16.20000      3.4863071E-08
   16.26000      3.4089911E-08
   16.32000      3.3422513E-08
   16.38000      3.2851244E-08
   16.44000      3.2345650E-08
   16.50000      3.1862733E-08
   16.56000      3.1358965E-08
   16.62000      3.0802290E-08
   16.68000      3.0180516E-08
   16.74000      2.9504040E-08
   16.80000      2.8802638E-08
   16.86000      2.8117688E-08
   16.92000      2.7492160E-08
   16.98000      2.6960796E-08
   17.04000      2.6542365E-08
   17.10000      2.6235218E-08
   17.16000      2.6016703E-08
   17.22000      2.5846452E-08
   17.28000      2.5673209E-08
   17.34000      2.5444237E-08
   17.40000      2.5115718E-08
   17.46000      2.4661963E-08
   17.52000      2.4081022E-08
   17.58000      2.3394827E-08
   17.64000      2.2643356E-08
   17.70000      2.1873944E-08
   17.76000      2.1128642E-08
   17.82000      2.0433236E-08
   17.88000      1.9791184E-08
   17.94000      1.9184149E-08
   18.00000      1.8578543E-08
   18.06000      1.7935552E-08
   18.12000      1.7221026E-08
   18.18000      1.6411978E-08
   18.24000      1.5497914E-08
   18.30000      1.4477386E-08
   18.36000      1.3351827E-08
   18.42000      1.2119674E-08
   18.48000      1.0773345E-08
   18.54000      9.3002761E-09
   18.60000      7.6875235E-09
   18.66000      5.9279150E-09
   18.72000      4.0251606E-09
   18.78000      1.9955855E-09
   18.84000     -1.3467473E-10
   18.90000     -2.3367346E-09
   18.96000     -4.5885709E-09
   19.02000     -6.8846213E-09
   19.08000     -9.2426307E-09
   19.14000     -1.1705588E-08
   19.20000     -1.4337748E-08
   19.26000     -1.7215177E-08
   19.32000     -2.0412642E-08
   19.38000     -2.3989646E-08
   19.44000     -2.7978631E-08
   19.50000     -3.2377994E-08
   19.56000     -3.7151224E-08
   19.62000     -4.2232063E-08
   19.68000     -4.7533934E-08
   19.74000     -5.2961123E-08
   19.80000     -5.8418738E-08
   19.86000     -6.3819421E-08
   19.92000     -6.9085800E-08
   19.98000     -7.4149355E-08
   20.04000     -7.8947444E-08
   20.10000     -8.3420694E-08
   20.16000     -8.7512937E-08
   20.22000     -9.1174570E-08
   20.28000     -9.4369049E-08
   20.34000     -9.7080914E-08
   20.40000     -9.9322833E-08
   20.46000     -1.0113892E-07
   20.52000     -1.0260264E-07
   20.58000     -1.0380833E-07
   20.64000     -1.0485767E-07
   20.70000     -1.0584340E-07
   20.76000     -1.0683353E-07
   20.82000     -1.0785975E-07
   20.88000     -1.0891250E-07
   20.94000     -1.0994376E-07
   21.00000     -1.1087714E-07
   21.06000     -1.1162287E-07
   21.12000     -1.1209433E-07
   21.18000     -1.1222274E-07
   21.24000     -1.1196693E-07
   21.30000     -1.1131664E-07
   21.36000     -1.1028929E-07
   21.42000     -1.0892165E-07
   21.48000     -1.0725918E-07
   21.54000     -1.0534597E-07
   21.60000     -1.0321794E-07
   21.66000     -1.0090072E-07
   21.72000     -9.8412052E-08
   21.78000     -9.5767064E-08
   21.84000     -9.2983953E-08
   21.90000     -9.0087468E-08
   21.96000     -8.7108567E-08
   22.02000     -8.4080327E-08
   22.08000     -8.1031516E-08
   22.14000     -7.7980367E-08
   22.20000     -7.4931094E-08
   22.26000     -7.1874759E-08
   22.32000     -6.8794648E-08
   22.38000     -6.5674605E-08
   22.44000     -6.2507880E-08
   22.50000     -5.9303911E-08
   22.56000     -5.6090844E-08
   22.62000     -5.2913094E-08
   22.68000     -4.9824532E-08
   22.74000     -4.6878949E-08
   22.80000     -4.4120295E-08
   22.86000     -4.1574999E-08
   22.92000     -3.9248274E-08
   22.98000     -3.7125247E-08
   23.04000     -3.5176608E-08
   23.10000     -3.3367392E-08
   23.16000     -3.1666701E-08
   23.22000     -3.0056121E-08
   23.28000     -2.8534968E-08
   23.34000     -2.7121349E-08
   23.40000     -2.5849262E-08
   23.46000     -2.4762731E-08
   23.52000     -2.3908553E-08
   23.58000     -2.3329251E-08
   23.64000     -2.3057344E-08
   23.70000     -2.3111607E-08
   23.76000     -2.3495412E-08
   23.82000     -2.4197117E-08
   23.88000     -2.5192255E-08
   23.94000     -2.6447296E-08
   24.00000     -2.7924477E-08
   24.06000     -2.9586953E-08
   24.12000     -3.1403154E-08
   24.18000     -3.3349160E-08
   24.24000     -3.5408380E-08
   24.30000     -3.7568462E-08
   24.36000     -3.9816420E-08
   24.42000     -4.2133721E-08
   24.48000     -4.4493202E-08
   24.54000     -4.6859228E-08
   24.60000     -4.9191321E-08
   24.66000     -5.1450158E-08
   24.72000     -5.3603930E-08
   24.78000     -5.5632810E-08
   24.84000     -5.7529711E-08
   24.90000     -5.9297182E-08
   24.96000     -6.0941140E-08
   25.02000     -6.2463641E-08
   25.08000     -6.3856874E-08
   25.14000     -6.5100046E-08
   25.20000     -6.6160034E-08
   25.26000     -6.6995128E-08
   25.32000     -6.7560961E-08
   25.38000     -6.7816750E-08
   25.44000     -6.7730632E-08
   25.50000     -6.7283352E-08
   25.56000     -6.6469759E-08
   25.62000     -6.5298302E-08
   25.68000     -6.3788725E-08
   25.74000     -6.1968457E-08
   25.80000     -5.9868327E-08
   25.86000     -5.7518395E-08
   25.92000     -5.4944920E-08
   25.98000     -5.2169089E-08
   26.04000     -4.9207902E-08
   26.10000     -4.6076632E-08
   26.16000     -4.2791598E-08
   26.22000     -3.9371820E-08
   26.28000     -3.5838443E-08
   26.34000     -3.2211712E-08
   26.40000     -2.8506577E-08
   26.46000     -2.4729040E-08
   26.52000     -2.0875191E-08
   26.58000     -1.6934351E-08
   26.64000     -1.2895911E-08
   26.70000     -8.7579339E-09
   26.76000     -4.5345132E-09
   26.82000     -2.5894387E-10
   26.88000      4.0189057E-09
   26.94000      8.2406979E-09
   27.00000      1.2350946E-08
   27.06000      1.6308180E-08
   27.12000      2.0092717E-08
   27.18000      2.3709068E-08
   27.24000      2.7182791E-08
   27.30000      3.0553306E-08
   27.36000      3.3865106E-08
   27.42000      3.7159619E-08
   27.48000      4.0469150E-08
   27.54000      4.3813110E-08
   27.60000      4.7195972E-08
   27.66000      5.0606015E-08
   27.72000      5.4014468E-08
   27.78000      5.7375310E-08
   27.84000      6.0626661E-08
   27.90000      6.3694664E-08
   27.96000      6.6500249E-08
   28.02000      6.8968127E-08
   28.08000      7.1036524E-08
   28.14000      7.2665159E-08
   28.20000      7.3839644E-08
   28.26000      7.4570892E-08
   28.32000      7.4889456E-08
   28.38000      7.4836187E-08
   28.44000      7.4451250E-08
   28.50000      7.3764049E-08
   28.56000      7.2786122E-08
   28.62000      7.1508651E-08
   28.68000      6.9904893E-08
   28.74000      6.7937243E-08
   28.80000      6.5567335E-08
   28.86000      6.2767299E-08
   28.92000      5.9529796E-08
   28.98000      5.5874622E-08
   29.04000      5.1850268E-08
   29.10000      4.7529923E-08
   29.16000      4.3002704E-08
   29.22000      3.8361929E-08
   29.28000      3.3693244E-08
   29.34000      2.9065157E-08
   29.40000      2.4523970E-08
   29.46000      2.0093786E-08
   29.52000      1.5780945E-08
   29.58000      1.1581059E-08
   29.64000      7.4864248E-09
   29.70000      3.4916687E-09
   29.76000     -4.0372092E-10
   29.82000     -4.1962531E-09
   29.88000     -7.8818987E-09
   29.94000     -1.1460554E-08
   30.00000     -1.4939630E-08
   30.06000     -1.8335140E-08
   30.12000     -2.1669498E-08
   30.18000     -2.4966310E-08
   30.24000     -2.8243498E-08
   30.30000     -3.1506694E-08
   30.36000     -3.4744840E-08
   30.42000     -3.7929262E-08
   30.48000     -4.1016357E-08
   30.54000     -4.3953069E-08
   30.60000     -4.6683613E-08
   30.66000     -4.9155961E-08
   30.72000     -5.1327088E-08
   30.78000     -5.3166680E-08
   30.84000     -5.4659399E-08
   30.90000     -5.5805888E-08
   30.96000     -5.6622355E-08
   31.02000     -5.7138308E-08
   31.08000     -5.7392104E-08
   31.14000     -5.7424636E-08
   31.20000     -5.7272494E-08
   31.26000     -5.6962588E-08
   31.32000     -5.6510348E-08
   31.38000     -5.5922531E-08
   31.44000     -5.5204044E-08
   31.50000     -5.4366282E-08
   31.56000     -5.3433766E-08
   31.62000     -5.2445987E-08
   31.68000     -5.1453370E-08
   31.74000     -5.0508390E-08
   31.80000     -4.9655096E-08
   31.86000     -4.8920761E-08
   31.92000     -4.8312778E-08
   31.98000     -4.7821676E-08
   32.04000     -4.7428856E-08
   32.10000     -4.7115890E-08
   32.16000     -4.6872000E-08
   32.22000     -4.6697366E-08
   32.28000     -4.6601706E-08
   32.34000     -4.6599435E-08
   32.40000     -4.6703558E-08
   32.46000     -4.6920480E-08
   32.52000     -4.7246825E-08
   32.58000     -4.7668433E-08
   32.64000     -4.8160672E-08
   32.70000     -4.8689422E-08
   32.76000     -4.9212300E-08
   32.82000     -4.9680629E-08
   32.88000     -5.0042690E-08
   32.94000     -5.0248751E-08
   33.00000     -5.0257313E-08
   33.06000     -5.0041233E-08
   33.12000     -4.9591783E-08
   33.18000     -4.8919016E-08
   33.24000     -4.8047834E-08
   33.30000     -4.7010595E-08
   33.36000     -4.5838359E-08
   33.42000     -4.4553445E-08
   33.48000     -4.3165418E-08
   33.54000     -4.1671569E-08
   33.60000     -4.0061256E-08
   33.66000     -3.8322465E-08
   33.72000     -3.6448501E-08
   33.78000     -3.4443072E-08
   33.84000     -3.2323012E-08
   33.90000     -3.0118859E-08
   33.96000     -2.7873911E-08
   34.02000     -2.5642473E-08
   34.08000     -2.3487393E-08
   34.14000     -2.1476552E-08
   34.20000     -1.9677872E-08
   34.26000     -1.8152774E-08
   34.32000     -1.6948945E-08
   34.38000     -1.6093983E-08
   34.44000     -1.5591754E-08
   34.50000     -1.5422835E-08
   34.56000     -1.5549199E-08
   34.62000     -1.5921866E-08
   34.68000     -1.6489237E-08
   34.74000     -1.7203687E-08
   34.80000     -1.8024654E-08
   34.86000     -1.8917900E-08
   34.92000     -1.9851992E-08
   34.98000     -2.0793902E-08
   35.04000     -2.1705640E-08
   35.10000     -2.2543183E-08
   35.16000     -2.3257877E-08
   35.22000     -2.3799849E-08
   35.28000     -2.4122498E-08
   35.34000     -2.4187393E-08
   35.40000     -2.3969143E-08
   35.46000     -2.3459815E-08
   35.52000     -2.2672319E-08
   35.58000     -2.1641727E-08
   35.64000     -2.0423357E-08
   35.70000     -1.9087029E-08
   35.76000     -1.7707935E-08
   35.82000     -1.6355987E-08
   35.88000     -1.5086382E-08
   35.94000     -1.3934028E-08
   36.00000     -1.2913224E-08
   36.06000     -1.2021964E-08
   36.12000     -1.1248553E-08
   36.18000     -1.0577430E-08
   36.24000     -9.9918926E-09
   36.30000     -9.4733252E-09
   36.36000     -8.9986658E-09
   36.42000     -8.5391401E-09
   36.48000     -8.0629254E-09
   36.54000     -7.5425479E-09
   36.60000     -6.9652453E-09
   36.66000     -6.3424777E-09
   36.72000     -5.7142859E-09
   36.78000     -5.1456852E-09
   36.84000     -4.7150701E-09
   36.90000     -4.4976858E-09
   36.96000     -4.5491664E-09
   37.02000     -4.8942739E-09
   37.08000     -5.5242171E-09
   37.14000     -6.4030283E-09
   37.20000     -7.4806081E-09
   37.26000     -8.7081728E-09
   37.32000     -1.0051531E-08
   37.38000     -1.1498710E-08
   37.44000     -1.3060470E-08
   37.50000     -1.4764256E-08
   37.56000     -1.6643758E-08
   37.62000     -1.8726956E-08
   37.68000     -2.1025533E-08
   37.74000     -2.3527956E-08
   37.80000     -2.6197611E-08
   37.86000     -2.8976357E-08
   37.92000     -3.1792794E-08
   37.98000     -3.4573503E-08
   38.04000     -3.7254758E-08
   38.10000     -3.9791811E-08
   38.16000     -4.2163091E-08
   38.22000     -4.4367841E-08
   38.28000     -4.6417277E-08
   38.34000     -4.8321464E-08
   38.40000     -5.0075641E-08
   38.46000     -5.1650510E-08
   38.52000     -5.2990263E-08
   38.58000     -5.4020155E-08
   38.64000     -5.4662443E-08
   38.70000     -5.4856688E-08
   38.76000     -5.4578571E-08
   38.82000     -5.3851274E-08
   38.88000     -5.2745467E-08
   38.94000     -5.1367170E-08
   39.00000     -4.9836650E-08
   39.06000     -4.8264116E-08
   39.12000     -4.6728989E-08
   39.18000     -4.5268155E-08
   39.24000     -4.3875776E-08
   39.30000     -4.2513530E-08
   39.36000     -4.1127446E-08
   39.42000     -3.9666062E-08
   39.48000     -3.8095131E-08
   39.54000     -3.6405726E-08
   39.60000     -3.4614917E-08
   39.66000     -3.2760024E-08
   39.72000     -3.0888671E-08
   39.78000     -2.9047136E-08
   39.84000     -2.7269689E-08
   39.90000     -2.5571049E-08
   39.96000     -2.3943935E-08
   40.02000     -2.2362730E-08
   40.08000     -2.0793161E-08
   40.14000     -1.9206068E-08
   40.20000     -1.7591738E-08
   40.26000     -1.5970185E-08
   40.32000     -1.4393361E-08
   40.38000     -1.2937296E-08
   40.44000     -1.1685424E-08
   40.50000     -1.0707694E-08
   40.56000     -1.0041972E-08
   40.62000     -9.6841122E-09
   40.68000     -9.5904555E-09
   40.74000     -9.6924477E-09
   40.80000     -9.9189048E-09
   40.86000     -1.0218754E-08
   40.92000     -1.0576815E-08
   40.98000     -1.1017550E-08
   41.04000     -1.1595698E-08
   41.10000     -1.2377118E-08
   41.16000     -1.3416225E-08
   41.22000     -1.4737379E-08
   41.28000     -1.6326021E-08
   41.34000     -1.8132001E-08
   41.40000     -2.0083419E-08
   41.46000     -2.2106072E-08
   41.52000     -2.4141892E-08
   41.58000     -2.6160516E-08
   41.64000     -2.8160693E-08
   41.70000     -3.0161804E-08
   41.76000     -3.2189018E-08
   41.82000     -3.4257610E-08
   41.88000     -3.6361740E-08
   41.94000     -3.8471221E-08
   42.00000     -4.0536833E-08
   42.06000     -4.2501750E-08
   42.12000     -4.4315058E-08
   42.18000     -4.5943022E-08
   42.24000     -4.7374961E-08
   42.30000     -4.8622805E-08
   42.36000     -4.9715350E-08
   42.42000     -5.0689668E-08
   42.48000     -5.1582553E-08
   42.54000     -5.2424252E-08
   42.60000     -5.3235752E-08
   42.66000     -5.4029787E-08
   42.72000     -5.4814578E-08
   42.78000     -5.5598719E-08
   42.84000     -5.6395439E-08
   42.90000     -5.7224451E-08
   42.96000     -5.8110349E-08
   43.02000     -5.9077465E-08
   43.08000     -6.0142412E-08
   43.14000     -6.1306693E-08
   43.20000     -6.2552232E-08
   43.26000     -6.3842101E-08
   43.32000     -6.5127345E-08
   43.38000     -6.6358197E-08
   43.44000     -6.7496337E-08
   43.50000     -6.8523853E-08
   43.56000     -6.9445605E-08
   43.62000     -7.0284315E-08
   43.68000     -7.1070581E-08
   43.74000     -7.1832588E-08
   43.80000     -7.2590666E-08
   43.86000     -7.3359722E-08
   43.92000     -7.4159445E-08
   43.98000     -7.5028403E-08
   44.04000     -7.6036279E-08
   44.10000     -7.7288881E-08
   44.16000     -7.8923392E-08
   44.22000     -8.1095294E-08
   44.28000     -8.3961822E-08
   44.34000     -8.7668255E-08
   44.40000     -9.2342333E-08
   44.46000     -9.8098973E-08
   44.52000     -1.0505405E-07
   44.58000     -1.1334287E-07
   44.64000     -1.2313816E-07
   44.70000     -1.3466318E-07
   44.76000     -1.4819787E-07
   44.82000     -1.6407890E-07
   44.88000     -1.8269593E-07
   44.94000     -2.0448768E-07
   45.00000     -2.2994129E-07
   45.06000     -2.5959682E-07
   45.12000     -2.9405788E-07
   45.18000     -3.3400875E-07
   45.24000     -3.8023680E-07
   45.30000     -4.3365881E-07
   45.36000     -4.9534850E-07
   45.42000     -5.6656262E-07
   45.48000     -6.4876116E-07
   45.54000     -7.4362021E-07
   45.60000     -8.5303623E-07
   45.66000     -9.7912448E-07
   45.72000     -1.1242161E-06
   45.78000     -1.2908632E-06
   45.84000     -1.4818539E-06
   45.90000     -1.7002436E-06
   45.96000     -1.9493982E-06
   46.02000     -2.2330430E-06
   46.08000     -2.5553097E-06
   46.14000     -2.9207688E-06
   46.20000     -3.3344509E-06
   46.26000     -3.8018482E-06
   46.32000     -4.3289115E-06
   46.38000     -4.9220471E-06
   46.44000     -5.5881237E-06
   46.50000     -6.3344901E-06
   46.56000     -7.1690069E-06
   46.62000     -8.1000826E-06
   46.68000     -9.1367074E-06
   46.74000     -1.0288466E-05
   46.80000     -1.1565549E-05
   46.86000     -1.2978740E-05
   46.92000     -1.4539382E-05
   46.98000     -1.6259370E-05
   47.04000     -1.8151097E-05
   47.10000     -2.0227444E-05
   47.16000     -2.2501748E-05
   47.22000     -2.4987759E-05
   47.28000     -2.7699603E-05
   47.34000     -3.0651718E-05
   47.40000     -3.3858782E-05
   47.46000     -3.7335634E-05
   47.52000     -4.1097199E-05
   47.58000     -4.5158347E-05
   47.64000     -4.9533828E-05
   47.70000     -5.4238131E-05
   47.76000     -5.9285358E-05
   47.82000     -6.4689084E-05
   47.88000     -7.0462207E-05
   47.94000     -7.6616845E-05
   48.00000     -8.3164130E-05
   48.06000     -9.0114117E-05
   48.12000     -9.7475604E-05
   48.18000     -1.0525603E-04
   48.24000     -1.1346130E-04
   48.30000     -1.2209563E-04
   48.36000     -1.3116143E-04
   48.42000     -1.4065909E-04
   48.48000     -1.5058694E-04
   48.54000     -1.6094116E-04
   48.60000     -1.7171552E-04
   48.66000     -1.8290164E-04
   48.72000     -1.9448863E-04
   48.78000     -2.0646332E-04
   48.84000     -2.1881002E-04
   48.90000     -2.3151067E-04
   48.96000     -2.4454476E-04
   49.02000     -2.5788939E-04
   49.08000     -2.7151947E-04
   49.14000     -2.8540767E-04
   49.20000     -2.9952472E-04
   49.26000     -3.1383956E-04
   49.32000     -3.2831944E-04
   49.38000     -3.4293026E-04
   49.44000     -3.5763677E-04
   49.50000     -3.7240284E-04
   49.56000     -3.8719166E-04
   49.62000     -4.0196601E-04
   49.68000     -4.1668874E-04
   49.74000     -4.3132290E-04
   49.80000     -4.4583215E-04
   49.86000     -4.6018121E-04
   49.92000     -4.7433615E-04
   49.98000     -4.8826457E-04
   50.04000     -5.0193619E-04
   50.10000     -5.1532278E-04
   50.16000     -5.2839890E-04
   50.22000     -5.4114161E-04
   50.28000     -5.5353134E-04
   50.34000     -5.6555145E-04
   50.40000     -5.7718897E-04
   50.46000     -5.8843428E-04
   50.52000     -5.9928134E-04
   50.58000     -6.0972798E-04
   50.64000     -6.1977544E-04
   50.70000     -6.2942883E-04
   50.76000     -6.3869671E-04
   50.82000     -6.4759102E-04
   50.88000     -6.5612711E-04
   50.94000     -6.6432299E-04
   51.00000     -6.7219965E-04
   51.06000     -6.7978044E-04
   51.12000     -6.8709085E-04
   51.18000     -6.9415825E-04
   51.24000     -7.0101110E-04
   51.30000     -7.0767920E-04
   51.36000     -7.1419257E-04
   51.42000     -7.2058127E-04
   51.48000     -7.2687503E-04
   51.54000     -7.3310273E-04
   51.60000     -7.3929201E-04
   51.66000     -7.4546883E-04
   51.72000     -7.5165712E-04
   51.78000     -7.5787847E-04
   51.84000     -7.6415145E-04
   51.90000     -7.7049172E-04
   51.96000     -7.7691145E-04
   52.02000     -7.8341935E-04
   52.08000     -7.9002033E-04
   52.14000     -7.9671538E-04
   52.20000     -8.0350175E-04
   52.26000     -8.1037276E-04
   52.32000     -8.1731775E-04
   52.38000     -8.2432246E-04
   52.44000     -8.3136884E-04
   52.50000     -8.3843578E-04
   52.56000     -8.4549881E-04
   52.62000     -8.5253100E-04
   52.68000     -8.5950270E-04
   52.74000     -8.6638256E-04
   52.80000     -8.7313750E-04
   52.86000     -8.7973318E-04
   52.92000     -8.8613469E-04
   52.98000     -8.9230679E-04
   53.04000     -8.9821470E-04
   53.10000     -9.0382405E-04
   53.16000     -9.0910197E-04
   53.22000     -9.1401715E-04
   53.28000     -9.1854035E-04
   53.34000     -9.2264480E-04
   53.40000     -9.2630659E-04
   53.46000     -9.2950457E-04
   53.52000     -9.3222142E-04
   53.58000     -9.3444309E-04
   53.64000     -9.3615934E-04
   53.70000     -9.3736383E-04
   53.76000     -9.3805417E-04
   53.82000     -9.3823188E-04
   53.88000     -9.3790260E-04
   53.94000     -9.3707559E-04
   54.00000     -9.3576359E-04
   54.06000     -9.3398272E-04
   54.12000     -9.3175203E-04
   54.18000     -9.2909293E-04
   54.24000     -9.2602929E-04
   54.30000     -9.2258671E-04
   54.36000     -9.1879250E-04
   54.42000     -9.1467536E-04
   54.48000     -9.1026450E-04
   54.54000     -9.0558961E-04
   54.60000     -9.0067997E-04
   54.66000     -8.9556439E-04
   54.72000     -8.9027040E-04
   54.78000     -8.8482402E-04
   54.84000     -8.7924936E-04
   54.90000     -8.7356812E-04
   54.96000     -8.6779986E-04
   55.02000     -8.6196105E-04
   55.08000     -8.5606554E-04
   55.14000     -8.5012411E-04
   55.20000     -8.4414444E-04
   55.26000     -8.3813106E-04
   55.32000     -8.3208538E-04
   55.38000     -8.2600571E-04
   55.44000     -8.1988703E-04
   55.50000     -8.1372174E-04
   55.56000     -8.0749940E-04