  -2.400000      0.0000000E+00
  -2.340000      0.0000000E+00
  -2.280000      0.0000000E+00
  -2.220000      0.0000000E+00
  -2.160000      0.0000000E+00
  -2.100000     -9.2704437E-19
  -2.040000     -6.8626456E-18
  -1.980000     -2.4973895E-17
  -1.920000     -5.6599635E-17
  -1.860000     -7.9555578E-17
  -1.800000     -3.8638215E-17
  -1.740000      1.2813711E-16
  -1.680000      4.2077328E-16
  -1.620000      7.1460178E-16
  -1.560000      7.9839309E-16
  -1.500000      5.7025302E-16
  -1.440000      2.9254697E-16
  -1.380000      6.1922021E-16
  -1.320000      2.0924877E-15
  -1.260000      4.1398828E-15
  -1.200000      4.2187264E-15
  -1.140000     -1.7767973E-15
  -1.080000     -1.7016624E-14
  -1.020000     -3.9648562E-14
 -0.9600000     -5.9504105E-14
 -0.9000000     -5.9055042E-14
 -0.8400000     -2.0916271E-14
 -0.7800000      5.9576069E-14
 -0.7200000      1.6295271E-13
 -0.6600000      2.4417089E-13
 -0.6000000      2.4729210E-13
 -0.5400000      1.3413848E-13
 -0.4800000     -8.5557863E-14
 -0.4200000     -3.4099072E-13
 -0.3600000     -5.1854192E-13
 -0.3000000     -5.1113210E-13
 -0.2400000     -2.7905475E-13
 -0.1800000      1.1009388E-13
 -0.1200000      4.9129380E-13
 -5.9999999E-02  6.6900668E-13
  0.0000000E+00  5.1718585E-13
  5.9999999E-02  6.4204447E-14
  0.1200000     -4.8752815E-13
  0.1800000     -8.3206613E-13
  0.2400000     -7.0185150E-13
  0.3000000     -2.1437286E-14
  0.3600000      1.0031550E-12
  0.4200000      1.9162569E-12
  0.4800000      2.1727286E-12
  0.5400000      1.3746925E-12
  0.6000000     -5.0849234E-13
  0.6600000     -3.0342519E-12
  0.7200000     -5.3542960E-12
  0.7800000     -6.4497505E-12
  0.8400000     -5.4614776E-12
  0.9000000     -2.0030911E-12
  0.9600000      3.6520600E-12
   1.020000      1.0571320E-11
   1.080000      1.7340221E-11
   1.140000      2.2341490E-11
   1.200000      2.4031912E-11
   1.260000      2.1138277E-11
   1.320000      1.2763043E-11
   1.380000     -1.5290316E-12
   1.440000     -2.1526569E-11
   1.500000     -4.6001491E-11
   1.560000     -7.2176883E-11
   1.620000     -9.5220352E-11
   1.680000     -1.0809754E-10
   1.740000     -1.0217348E-10
   1.800000     -6.8849926E-11
   1.860000     -2.2715083E-12
   1.920000      9.7220079E-11
   1.980000      2.1955039E-10
   2.040000      3.4217854E-10
   2.100000      4.2905005E-10
   2.160000      4.3187989E-10
   2.220000      2.9397537E-10
   2.280000     -4.3707198E-11
   2.340000     -6.3504746E-10
   2.400000     -1.5208780E-09
   2.460000     -2.7219194E-09
   2.520000     -4.2336117E-09
   2.580000     -6.0236522E-09
   2.640000     -8.0326945E-09
   2.700000     -1.0178304E-08
   2.760000     -1.2361896E-08
   2.820000     -1.4478046E-08
   2.880000     -1.6425220E-08
   2.940000     -1.8116701E-08
   3.000000     -1.9490241E-08
   3.060000     -2.0514955E-08
   3.120000     -2.1194229E-08
   3.180000     -2.1563940E-08
   3.240000     -2.1686168E-08
   3.300000     -2.1639444E-08
   3.360000     -2.1507423E-08
   3.420000     -2.1368217E-08
   3.480000     -2.1286395E-08
   3.540000     -2.1308928E-08
   3.600000     -2.1465207E-08
   3.660000     -2.1770074E-08
   3.720000     -2.2228116E-08
   3.780000     -2.2837245E-08
   3.840000     -2.3590255E-08
   3.900000     -2.4474003E-08
   3.960000     -2.5467031E-08
   4.020000     -2.6537215E-08
   4.080000     -2.7641194E-08
   4.140000     -2.8726848E-08
   4.200000     -2.9739061E-08
   4.260000     -3.0627888E-08
   4.320000     -3.1357398E-08
   4.380000     -3.1913011E-08
   4.440000     -3.2305397E-08
   4.500000     -3.2569766E-08
   4.560000     -3.2760251E-08
   4.620000     -3.2940317E-08
   4.680000     -3.3170878E-08
   4.740000     -3.3498342E-08
   4.800000     -3.3944890E-08
   4.860000     -3.4502925E-08
   4.920000     -3.5134843E-08
   4.980000     -3.5778282E-08
   5.040000     -3.6356031E-08
   5.100000     -3.6788808E-08
   5.160000     -3.7008640E-08
   5.220000     -3.6970398E-08
   5.280000     -3.6659465E-08
   5.340000     -3.6094082E-08
   5.400000     -3.5322056E-08
   5.460000     -3.4412356E-08
   5.520000     -3.3443133E-08
   5.580000     -3.2488249E-08
   5.640000     -3.1604678E-08
   5.700000     -3.0822939E-08
   5.760000     -3.0142385E-08
   5.820000     -2.9532218E-08
   5.880000     -2.8938304E-08
   5.940000     -2.8294696E-08
   6.000000     -2.7537787E-08
   6.060000     -2.6620235E-08
   6.120000     -2.5521548E-08
   6.180000     -2.4252730E-08
   6.240000     -2.2853673E-08
   6.300000     -2.1383791E-08
   6.360000     -1.9908287E-08
   6.420000     -1.8483668E-08
   6.480000     -1.7146332E-08
   6.540000     -1.5906963E-08
   6.600000     -1.4751636E-08
   6.660000     -1.3648492E-08
   6.720000     -1.2557437E-08
   6.780000     -1.1439888E-08
   6.840000     -1.0266223E-08
   6.900000     -9.0196846E-09
   6.960000     -7.6967259E-09
   7.020000     -6.3044876E-09
   7.080000     -4.8564268E-09
   7.140000     -3.3670795E-09
   7.200000     -1.8468838E-09
   7.260000     -2.9798808E-10
   7.320000      1.2880073E-09
   7.380000      2.9296052E-09
   7.440000      4.6519624E-09
   7.500000      6.4808847E-09
   7.560000      8.4355021E-09
   7.620000      1.0521410E-08
   7.680000      1.2726140E-08
   7.740000      1.5018390E-08
   7.800000      1.7351594E-08
   7.860000      1.9671326E-08
   7.920000      2.1925040E-08
   7.980000      2.4071849E-08
   8.040000      2.6089884E-08
   8.100000      2.7979155E-08
   8.160000      2.9758919E-08
   8.220000      3.1460100E-08
   8.280000      3.3114627E-08
   8.340000      3.4744691E-08
   8.400000      3.6354773E-08
   8.460000      3.7928743E-08
   8.520000      3.9432624E-08
   8.580000      4.0822176E-08
   8.640000      4.2053177E-08
   8.700000      4.3091720E-08
   8.760000      4.3922025E-08
   8.820000      4.4550092E-08
   8.880000      4.5002668E-08
   8.940000      4.5322164E-08
   9.000000      4.5558927E-08
   9.060000      4.5762839E-08
   9.120000      4.5975892E-08
   9.180000      4.6226980E-08
   9.240000      4.6529340E-08
   9.300000      4.6880572E-08
   9.360000      4.7264859E-08
   9.420000      4.7656957E-08
   9.480000      4.8027541E-08
   9.540000      4.8349296E-08
   9.600000      4.8602814E-08
   9.660000      4.8780887E-08
   9.720000      4.8890037E-08
   9.780000      4.8948522E-08
   9.840000      4.8981200E-08
   9.900000      4.9012765E-08
   9.960000      4.9061317E-08
   10.02000      4.9134172E-08
   10.08000      4.9226795E-08
   10.14000      4.9324786E-08
   10.20000      4.9407831E-08
   10.26000      4.9454481E-08
   10.32000      4.9446648E-08
   10.38000      4.9373167E-08
   10.44000      4.9231989E-08
   10.50000      4.9030550E-08
   10.56000      4.8784095E-08
   10.62000      4.8512060E-08
   10.68000      4.8233275E-08
   10.74000      4.7961301E-08
   10.80000      4.7701370E-08
   10.86000      4.7449777E-08
   10.92000      4.7195659E-08
   10.98000      4.6924001E-08
   11.04000      4.6618482E-08
   11.10000      4.6263210E-08
   11.16000      4.5843372E-08
   11.22000      4.5345764E-08
   11.28000      4.4760174E-08
   11.34000      4.4081819E-08
   11.40000      4.3314014E-08
   11.46000      4.2469292E-08
   11.52000      4.1567610E-08
   11.58000      4.0631317E-08
   11.64000      3.9678405E-08
   11.70000      3.8716685E-08
   11.76000      3.7741405E-08
   11.82000      3.6737692E-08
   11.88000      3.5686892E-08
   11.94000      3.4574377E-08
   12.00000      3.3395562E-08
   12.06000      3.2157701E-08
   12.12000      3.0876947E-08
   12.18000      2.9571986E-08
   12.24000      2.8256981E-08
   12.30000      2.6936581E-08
   12.36000      2.5604830E-08
   12.42000      2.4248170E-08
   12.48000      2.2851163E-08
   12.54000      2.1402728E-08
   12.60000      1.9900577E-08
   12.66000      1.8352313E-08
   12.72000      1.6772921E-08
   12.78000      1.5179658E-08
   12.84000      1.3586168E-08
   12.90000      1.1997955E-08
   12.96000      1.0410744E-08
   13.02000      8.8122123E-09
   13.08000      7.1863773E-09
   13.14000      5.5190172E-09
   13.20000      3.8022350E-09
   13.26000      2.0366964E-09
   13.32000      2.3097094E-10
   13.38000     -1.6016342E-09
   13.44000     -3.4476360E-09
   13.50000     -5.2979567E-09
   13.56000     -7.1512751E-09
   13.62000     -9.0152898E-09
   13.68000     -1.0905514E-08
   13.74000     -1.2841733E-08
   13.80000     -1.4842727E-08
   13.86000     -1.6920321E-08
   13.92000     -1.9074179E-08
   13.98000     -2.1288807E-08
   14.04000     -2.3533945E-08
   14.10000     -2.5768825E-08
   14.16000     -2.7949707E-08
   14.22000     -3.0039089E-08
   14.28000     -3.2014132E-08
   14.34000     -3.3871707E-08
   14.40000     -3.5628155E-08
   14.46000     -3.7313249E-08
   14.52000     -3.8959850E-08
   14.58000     -4.0592358E-08
   14.64000     -4.2217817E-08
   14.70000     -4.3822819E-08
   14.76000     -4.5377305E-08
   14.82000     -4.6843798E-08
   14.88000     -4.8188546E-08
   14.94000     -4.9390465E-08
   15.00000     -5.0444982E-08
   15.06000     -5.1362132E-08
   15.12000     -5.2160594E-08
   15.18000     -5.2860461E-08
   15.24000     -5.3477361E-08
   15.30000     -5.4019207E-08
   15.36000     -5.4485465E-08
   15.42000     -5.4868167E-08
   15.48000     -5.5154064E-08
   15.54000     -5.5327732E-08
   15.60000     -5.5375697E-08
   15.66000     -5.5291036E-08
   15.72000     -5.5077063E-08
   15.78000     -5.4748256E-08
   15.84000     -5.4327160E-08
   15.90000     -5.3837837E-08
   15.96000     -5.3298191E-08
   16.02000     -5.2714718E-08
   16.08000     -5.2082445E-08
   16.14000     -5.1390508E-08
   16.20000     -5.0631154E-08
   16.26000     -4.9807923E-08
   16.32000     -4.8938972E-08
   16.38000     -4.8053650E-08
   16.44000     -4.7183679E-08
   16.50000     -4.6352834E-08
   16.56000     -4.5569735E-08
   16.62000     -4.4826887E-08
   16.68000     -4.4105889E-08
   16.74000     -4.3386105E-08
   16.80000     -4.2652459E-08
   16.86000     -4.1899149E-08
   16.92000     -4.1128434E-08
   16.98000     -4.0346453E-08
   17.04000     -3.9559325E-08
   17.10000     -3.8772029E-08
   17.16000     -3.7990258E-08
   17.22000     -3.7223014E-08
   17.28000     -3.6482877E-08
   17.34000     -3.5782239E-08
   17.40000     -3.5126583E-08
   17.46000     -3.4508417E-08
   17.52000     -3.3906026E-08
   17.58000     -3.3288845E-08
   17.64000     -3.2627838E-08
   17.70000     -3.1905873E-08
   17.76000     -3.1122820E-08
   17.82000     -3.0292611E-08
   17.88000     -2.9433915E-08
   17.94000     -2.8559597E-08
   18.00000     -2.7670895E-08
   18.06000     -2.6759244E-08
   18.12000     -2.5814273E-08
   18.18000     -2.4832715E-08
   18.24000     -2.3822437E-08
   18.30000     -2.2798895E-08
   18.36000     -2.1775890E-08
   18.42000     -2.0756163E-08
   18.48000     -1.9727723E-08
   18.54000     -1.8668581E-08
   18.60000     -1.7557756E-08
   18.66000     -1.6386791E-08
   18.72000     -1.5165597E-08
   18.78000     -1.3919555E-08
   18.84000     -1.2679428E-08
   18.90000     -1.1469344E-08
   18.96000     -1.0298737E-08
   19.02000     -9.1616084E-09
   19.08000     -8.0423455E-09
   19.14000     -6.9241444E-09
   19.20000     -5.7953566E-09
   19.26000     -4.6511404E-09
   19.32000     -3.4910446E-09
   19.38000     -2.3155866E-09
   19.44000     -1.1250552E-09
   19.50000      7.8289701E-11
   19.56000      1.2862893E-09
   19.62000      2.4826066E-09
   19.68000      3.6448617E-09
   19.74000      4.7512847E-09
   19.80000      5.7888694E-09
   19.86000      6.7584391E-09
   19.92000      7.6731546E-09
   19.98000      8.5503871E-09
   20.04000      9.4007380E-09
   20.10000      1.0220012E-08
   20.16000      1.0988904E-08
   20.22000      1.1681283E-08
   20.28000      1.2277432E-08
   20.34000      1.2775694E-08
   20.40000      1.3196573E-08
   20.46000      1.3576892E-08
   20.52000      1.3956575E-08
   20.58000      1.4364048E-08
   20.64000      1.4806652E-08
   20.70000      1.5269729E-08
   20.76000      1.5723767E-08
   20.82000      1.6135614E-08
   20.88000      1.6478838E-08
   20.94000      1.6739834E-08
   21.00000      1.6919032E-08
   21.06000      1.7028652E-08
   21.12000      1.7089034E-08
   21.18000      1.7124572E-08
   21.24000      1.7159183E-08
   21.30000      1.7210983E-08
   21.36000      1.7286725E-08
   21.42000      1.7377999E-08
   21.48000      1.7461668E-08
   21.54000      1.7505936E-08
   21.60000      1.7480973E-08
   21.66000      1.7370537E-08
   21.72000      1.7179939E-08
   21.78000      1.6936877E-08
   21.84000      1.6684428E-08
   21.90000      1.6468730E-08
   21.96000      1.6325837E-08
   22.02000      1.6272265E-08
   22.08000      1.6301978E-08
   22.14000      1.6390066E-08
   22.20000      1.6501239E-08
   22.26000      1.6600120E-08
   22.32000      1.6660353E-08
   22.38000      1.6670237E-08
   22.44000      1.6633782E-08
   22.50000      1.6567267E-08
   22.56000      1.6492551E-08
   22.62000      1.6429194E-08
   22.68000      1.6387753E-08
   22.74000      1.6366181E-08
   22.80000      1.6350150E-08
   22.86000      1.6316854E-08
   22.92000      1.6240838E-08
   22.98000      1.6100042E-08
   23.04000      1.5880575E-08
   23.10000      1.5579413E-08
   23.16000      1.5204771E-08
   23.22000      1.4774279E-08
   23.28000      1.4311370E-08
   23.34000      1.3840467E-08
   23.40000      1.3382052E-08
   23.46000      1.2948891E-08
   23.52000      1.2544549E-08
   23.58000      1.2164599E-08
   23.64000      1.1799905E-08
   23.70000      1.1440540E-08
   23.76000      1.1078782E-08
   23.82000      1.0710330E-08
   23.88000      1.0333919E-08
   23.94000      9.9503472E-09
   24.00000      9.5619477E-09
   24.06000      9.1729131E-09
   24.12000      8.7899839E-09
   24.18000      8.4224592E-09
   24.24000      8.0807032E-09
   24.30000      7.7731528E-09
   24.36000      7.5027691E-09
   24.42000      7.2645134E-09
   24.48000      7.0453012E-09
   24.54000      6.8271522E-09
   24.60000      6.5930874E-09
   24.66000      6.3341905E-09
   24.72000      6.0554544E-09
   24.78000      5.7779790E-09
   24.84000      5.5359100E-09
   24.90000      5.3681317E-09
   24.96000      5.3067222E-09
   25.02000      5.3657483E-09
   25.08000      5.5343112E-09
   25.14000      5.7764837E-09
   25.20000      6.0382810E-09
   25.26000      6.2591297E-09
   25.32000      6.3836660E-09
   25.38000      6.3699104E-09
   25.44000      6.1917254E-09
   25.50000      5.8359371E-09
   25.56000      5.2964073E-09
   25.62000      4.5678030E-09
   25.68000      3.6410348E-09
   25.74000      2.5010336E-09
   25.80000      1.1266310E-09
   25.86000     -5.0783372E-10
   25.92000     -2.4292615E-09
   25.98000     -4.6608570E-09
   26.04000     -7.2159838E-09
   26.10000     -1.0092177E-08
   26.16000     -1.3267325E-08
   26.22000     -1.6699657E-08
   26.28000     -2.0331809E-08
   26.34000     -2.4097478E-08
   26.40000     -2.7927932E-08
   26.46000     -3.1756006E-08
   26.52000     -3.5516742E-08
   26.58000     -3.9145991E-08
   26.64000     -4.2579757E-08
   26.70000     -4.5756860E-08
   26.76000     -4.8625846E-08
   26.82000     -5.1154586E-08
   26.88000     -5.3339207E-08
   26.94000     -5.5208613E-08
   27.00000     -5.6822302E-08
   27.06000     -5.8261556E-08
   27.12000     -5.9616568E-08
   27.18000     -6.0973136E-08
   27.24000     -6.2402314E-08
   27.30000     -6.3954737E-08
   27.36000     -6.5659442E-08
   27.42000     -6.7525697E-08
   27.48000     -6.9545841E-08
   27.54000     -7.1698032E-08
   27.60000     -7.3948719E-08
   27.66000     -7.6255283E-08
   27.72000     -7.8569343E-08
   27.78000     -8.0840650E-08
   27.84000     -8.3020844E-08
   27.90000     -8.5066169E-08
   27.96000     -8.6938691E-08
   28.02000     -8.8606392E-08
   28.08000     -9.0043031E-08
   28.14000     -9.1228429E-08
   28.20000     -9.2149250E-08
   28.26000     -9.2799212E-08
   28.32000     -9.3177384E-08
   28.38000     -9.3283788E-08
   28.44000     -9.3112888E-08
   28.50000     -9.2647184E-08
   28.56000     -9.1853778E-08
   28.62000     -9.0686441E-08
   28.68000     -8.9093952E-08
   28.74000     -8.7033087E-08
   28.80000     -8.4483077E-08
   28.86000     -8.1457330E-08
   28.92000     -7.8009215E-08
   28.98000     -7.4230151E-08
   29.04000     -7.0240290E-08
   29.10000     -6.6173577E-08
   29.16000     -6.2160247E-08
   29.22000     -5.8309833E-08
   29.28000     -5.4697942E-08
   29.34000     -5.1359297E-08
   29.40000     -4.8288570E-08
   29.46000     -4.5448989E-08
   29.52000     -4.2786890E-08
   29.58000     -4.0248739E-08
   29.64000     -3.7796394E-08
   29.70000     -3.5416853E-08
   29.76000     -3.3124302E-08
   29.82000     -3.0954819E-08
   29.88000     -2.8956096E-08
   29.94000     -2.7175743E-08
   30.00000     -2.5651598E-08
   30.06000     -2.4406171E-08
   30.12000     -2.3445613E-08
   30.18000     -2.2762272E-08
   30.24000     -2.2339080E-08
   30.30000     -2.2154156E-08
   30.36000     -2.2184475E-08
   30.42000     -2.2408164E-08
   30.48000     -2.2805395E-08
   30.54000     -2.3358114E-08
   30.60000     -2.4048965E-08
   30.66000     -2.4859814E-08
   30.72000     -2.5770426E-08
   30.78000     -2.6757908E-08
   30.84000     -2.7797494E-08
   30.90000     -2.8864823E-08
   30.96000     -2.9939276E-08
   31.02000     -3.1007303E-08
   31.08000     -3.2064349E-08
   31.14000     -3.3114219E-08
   31.20000     -3.4165758E-08
   31.26000     -3.5227867E-08
   31.32000     -3.6304819E-08
   31.38000     -3.7393818E-08
   31.44000     -3.8485723E-08
   31.50000     -3.9568203E-08
   31.56000     -4.0629203E-08
   31.62000     -4.1658538E-08
   31.68000     -4.2646391E-08
   31.74000     -4.3579593E-08
   31.80000     -4.4438003E-08
   31.86000     -4.5193541E-08
   31.92000     -4.5813113E-08
   31.98000     -4.6264581E-08
   32.04000     -4.6523279E-08
   32.10000     -4.6576535E-08
   32.16000     -4.6424720E-08
   32.22000     -4.6079407E-08
   32.28000     -4.5560391E-08
   32.34000     -4.4893234E-08
   32.40000     -4.4108056E-08
   32.46000     -4.3238796E-08
   32.52000     -4.2321954E-08
   32.58000     -4.1394046E-08
   32.64000     -4.0488224E-08
   32.70000     -3.9631104E-08
   32.76000     -3.8840486E-08
   32.82000     -3.8124114E-08
   32.88000     -3.7478646E-08
   32.94000     -3.6888537E-08
   33.00000     -3.6325350E-08
   33.06000     -3.5749238E-08
   33.12000     -3.5114336E-08
   33.18000     -3.4378484E-08
   33.24000     -3.3515487E-08
   33.30000     -3.2525911E-08
   33.36000     -3.1442084E-08
   33.42000     -3.0324436E-08
   33.48000     -2.9249261E-08
   33.54000     -2.8291158E-08
   33.60000     -2.7505305E-08
   33.66000     -2.6914668E-08
   33.72000     -2.6505505E-08
   33.78000     -2.6231733E-08
   33.84000     -2.6026228E-08
   33.90000     -2.5815458E-08
   33.96000     -2.5533494E-08
   34.02000     -2.5132419E-08
   34.08000     -2.4587667E-08
   34.14000     -2.3898533E-08
   34.20000     -2.3085175E-08
   34.26000     -2.2183693E-08
   34.32000     -2.1240421E-08
   34.38000     -2.0305860E-08
   34.44000     -1.9428304E-08
   34.50000     -1.8647404E-08
   34.56000     -1.7988555E-08
   34.62000     -1.7459373E-08
   34.68000     -1.7049222E-08
   34.74000     -1.6731914E-08
   34.80000     -1.6470453E-08
   34.86000     -1.6222367E-08
   34.92000     -1.5944462E-08
   34.98000     -1.5597118E-08
   35.04000     -1.5148961E-08
   35.10000     -1.4582547E-08
   35.16000     -1.3900300E-08
   35.22000     -1.3128303E-08
   35.28000     -1.2314890E-08
   35.34000     -1.1522247E-08
   35.40000     -1.0812104E-08
   35.46000     -1.0229627E-08
   35.52000     -9.7911652E-09
   35.58000     -9.4805062E-09
   35.64000     -9.2551220E-09
   35.70000     -9.0600798E-09
   35.76000     -8.8446628E-09
   35.82000     -8.5763441E-09
   35.88000     -8.2484162E-09
   35.94000     -7.8802662E-09
   36.00000     -7.5115283E-09
   36.06000     -7.1925861E-09
   36.12000     -6.9739716E-09
   36.18000     -6.8967827E-09
   36.24000     -6.9856876E-09
   36.30000     -7.2456174E-09
   36.36000     -7.6626376E-09
   36.42000     -8.2086649E-09
   36.48000     -8.8487431E-09
   36.54000     -9.5489625E-09
   36.60000     -1.0283061E-08
   36.66000     -1.1036406E-08
   36.72000     -1.1806963E-08
   36.78000     -1.2603694E-08
   36.84000     -1.3443195E-08
   36.90000     -1.4345423E-08
   36.96000     -1.5329285E-08
   37.02000     -1.6408810E-08
   37.08000     -1.7590617E-08
   37.14000     -1.8873148E-08
   37.20000     -2.0247596E-08
   37.26000     -2.1699856E-08
   37.32000     -2.3212534E-08
   37.38000     -2.4766267E-08
   37.44000     -2.6340544E-08
   37.50000     -2.7914844E-08
   37.56000     -2.9471124E-08
   37.62000     -3.0997729E-08
   37.68000     -3.2493439E-08
   37.74000     -3.3969329E-08
   37.80000     -3.5446106E-08
   37.86000     -3.6946361E-08
   37.92000     -3.8483357E-08
   37.98000     -4.0050246E-08
   38.04000     -4.1614090E-08
   38.10000     -4.3117890E-08
   38.16000     -4.4490978E-08
   38.22000     -4.5665033E-08
   38.28000     -4.6590714E-08
   38.34000     -4.7249564E-08
   38.40000     -4.7657185E-08
   38.46000     -4.7856631E-08
   38.52000     -4.7904248E-08
   38.58000     -4.7852641E-08
   38.64000     -4.7736417E-08
   38.70000     -4.7565269E-08
   38.76000     -4.7326274E-08
   38.82000     -4.6993875E-08
   38.88000     -4.6543413E-08
   38.94000     -4.5963045E-08
   39.00000     -4.5259917E-08
   39.06000     -4.4458968E-08
   39.12000     -4.3595602E-08
   39.18000     -4.2705150E-08
   39.24000     -4.1812708E-08
   39.30000     -4.0926039E-08
   39.36000     -4.0033104E-08
   39.42000     -3.9104670E-08
   39.48000     -3.8101707E-08
   39.54000     -3.6986172E-08
   39.60000     -3.5732736E-08
   39.66000     -3.4337795E-08
   39.72000     -3.2821987E-08
   39.78000     -3.1224101E-08
   39.84000     -2.9587557E-08
   39.90000     -2.7944418E-08
   39.96000     -2.6303884E-08
   40.02000     -2.4651177E-08
   40.08000     -2.2958288E-08
   40.14000     -2.1202483E-08
   40.20000     -1.9384364E-08
   40.26000     -1.7537111E-08
   40.32000     -1.5722414E-08
   40.38000     -1.4014753E-08
   40.44000     -1.2480820E-08
   40.50000     -1.1162530E-08
   40.56000     -1.0069757E-08
   40.62000     -9.1839718E-09
   40.68000     -8.4693204E-09
   40.74000     -7.8854789E-09
   40.80000     -7.3974520E-09
   40.86000     -6.9802826E-09
   40.92000     -6.6194605E-09
   40.98000     -6.3091212E-09
   41.04000     -6.0497127E-09
   41.10000     -5.8455418E-09
   41.16000     -5.7017688E-09
   41.22000     -5.6206906E-09
   41.28000     -5.5982952E-09
   41.34000     -5.6230092E-09
   41.40000     -5.6783804E-09
   41.46000     -5.7498322E-09
   41.52000     -5.8333200E-09
   41.58000     -5.9420411E-09
   41.64000     -6.1073737E-09
   41.70000     -6.3722703E-09
   41.76000     -6.7785737E-09
   41.82000     -7.3526221E-09
   41.88000     -8.0946387E-09
   41.94000     -8.9761123E-09
   42.00000     -9.9462083E-09
   42.06000     -1.0944727E-08
   42.12000     -1.1916864E-08
   42.18000     -1.2824939E-08
   42.24000     -1.3654191E-08
   42.30000     -1.4412383E-08
   42.36000     -1.5124987E-08
   42.42000     -1.5828149E-08
   42.48000     -1.6560923E-08
   42.54000     -1.7357165E-08
   42.60000     -1.8237392E-08
   42.66000     -1.9201902E-08
   42.72000     -2.0227723E-08
   42.78000     -2.1272262E-08
   42.84000     -2.2284750E-08
   42.90000     -2.3223123E-08
   42.96000     -2.4070518E-08
   43.02000     -2.4844130E-08
   43.08000     -2.5591307E-08
   43.14000     -2.6372780E-08
   43.20000     -2.7238773E-08
   43.26000     -2.8207381E-08
   43.32000     -2.9254222E-08
   43.38000     -3.0317750E-08
   43.44000     -3.1318113E-08
   43.50000     -3.2182001E-08
   43.56000     -3.2864069E-08
   43.62000     -3.3357601E-08
   43.68000     -3.3692057E-08
   43.74000     -3.3920248E-08
   43.80000     -3.4100943E-08
   43.86000     -3.4283214E-08
   43.92000     -3.4496715E-08
   43.98000     -3.4749441E-08
   44.04000     -3.5032112E-08
   44.10000     -3.5326831E-08
   44.16000     -3.5617170E-08
   44.22000     -3.5896658E-08
   44.28000     -3.6172917E-08
   44.34000     -3.6465675E-08
   44.40000     -3.6798475E-08
   44.46000     -3.7186336E-08
   44.52000     -3.7623771E-08
   44.58000     -3.8078298E-08
   44.64000     -3.8493265E-08
   44.70000     -3.8800636E-08
   44.76000     -3.8940264E-08
   44.82000     -3.8879335E-08
   44.88000     -3.8624879E-08
   44.94000     -3.8224542E-08
   45.00000     -3.7754777E-08
   45.06000     -3.7300026E-08
   45.12000     -3.6929386E-08
   45.18000     -3.6677811E-08
   45.24000     -3.6537180E-08
   45.30000     -3.6459298E-08
   45.36000     -3.6369396E-08
   45.42000     -3.6186158E-08
   45.48000     -3.5842973E-08
   45.54000     -3.5305238E-08
   45.60000     -3.4579660E-08
   45.66000     -3.3713363E-08
   45.72000     -3.2782772E-08
   45.78000     -3.1874528E-08
   45.84000     -3.1062758E-08
   45.90000     -3.0388488E-08
   45.96000     -2.9846934E-08
   46.02000     -2.9386884E-08
   46.08000     -2.8923212E-08
   46.14000     -2.8359526E-08
   46.20000     -2.7614567E-08
   46.26000     -2.6644322E-08
   46.32000     -2.5452898E-08
   46.38000     -2.4088781E-08
   46.44000     -2.2627910E-08
   46.50000     -2.1149370E-08
   46.56000     -1.9711699E-08
   46.62000     -1.8337428E-08
   46.68000     -1.7010368E-08
   46.74000     -1.5685860E-08
   46.80000     -1.4310045E-08
   46.86000     -1.2841421E-08
   46.92000     -1.1267327E-08
   46.98000     -9.6097130E-09
   47.04000     -7.9181026E-09
   47.10000     -6.2520447E-09
   47.16000     -4.6593680E-09
   47.22000     -3.1585192E-09
   47.28000     -1.7323175E-09
   47.34000     -3.3641046E-10
   47.40000      1.0800760E-09
   47.46000      2.5495395E-09
   47.52000      4.0668438E-09
   47.58000      5.5847127E-09
   47.64000      7.0265327E-09
   47.70000      8.3123775E-09
   47.76000      9.3884269E-09
   47.82000      1.0248185E-08
   47.88000      1.0936834E-08
   47.94000      1.1536382E-08
   48.00000      1.2136518E-08
   48.06000      1.2801303E-08
   48.12000      1.3543285E-08
   48.18000      1.4314025E-08
   48.24000      1.5014374E-08
   48.30000      1.5521321E-08
   48.36000      1.5722929E-08
   48.42000      1.5550381E-08
   48.48000      1.4997132E-08
   48.54000      1.4119149E-08
   48.60000      1.3015914E-08
   48.66000      1.1797781E-08
   48.72000      1.0549257E-08
   48.78000      9.2991881E-09
   48.84000      8.0068654E-09
   48.90000      6.5683721E-09
   48.96000      4.8412940E-09
   49.02000      2.6799587E-09
   49.08000     -3.0372205E-11
   49.14000     -3.3520720E-09
   49.20000     -7.2942563E-09
   49.26000     -1.1833235E-08
   49.32000     -1.6947503E-08
   49.38000     -2.2655136E-08
   49.44000     -2.9040637E-08
   49.50000     -3.6262513E-08
   49.56000     -4.4540471E-08
   49.62000     -5.4128957E-08
   49.68000     -6.5288724E-08
   49.74000     -7.8268563E-08
   49.80000     -9.3305331E-08
   49.86000     -1.1064405E-07
   49.92000     -1.3057326E-07
   49.98000     -1.5346653E-07
   50.04000     -1.7981937E-07
   50.10000     -2.1027198E-07
   50.16000     -2.4561311E-07
   50.22000     -2.8676507E-07
   50.28000     -3.3475700E-07
   50.34000     -3.9069633E-07
   50.40000     -4.5575175E-07
   50.46000     -5.3115684E-07
   50.52000     -6.1823852E-07
   50.58000     -7.1846722E-07
   50.64000     -8.3351830E-07
   50.70000     -9.6533324E-07
   50.76000     -1.1161674E-06
   50.82000     -1.2886167E-06
   50.88000     -1.4856205E-06
   50.94000     -1.7104468E-06
   51.00000     -1.9666686E-06
   51.06000     -2.2581501E-06
   51.12000     -2.5890517E-06
   51.18000     -2.9638647E-06
   51.24000     -3.3874701E-06
   51.30000     -3.8652120E-06
   51.36000     -4.4029616E-06
   51.42000     -5.0071603E-06
   51.48000     -5.6848339E-06
   51.54000     -6.4435794E-06
   51.60000     -7.2915464E-06
   51.66000     -8.2374236E-06
   51.72000     -9.2904411E-06
   51.78000     -1.0460391E-05
   51.84000     -1.1757656E-05
   51.90000     -1.3193236E-05
   51.96000     -1.4778773E-05
   52.02000     -1.6526561E-05
   52.08000     -1.8449544E-05
   52.14000     -2.0561291E-05
   52.20000     -2.2875955E-05
   52.26000     -2.5408210E-05
   52.32000     -2.8173190E-05
   52.38000     -3.1186410E-05
   52.44000     -3.4463712E-05
   52.50000     -3.8021226E-05
   52.56000     -4.1875319E-05
   52.62000     -4.6042554E-05
   52.68000     -5.0539631E-05
   52.74000     -5.5383294E-05
   52.80000     -6.0590213E-05
   52.86000     -6.6176886E-05
   52.92000     -7.2159492E-05
   52.98000     -7.8553734E-05
   53.04000     -8.5374697E-05
   53.10000     -9.2636743E-05
   53.16000     -1.0035338E-04
   53.22000     -1.0853718E-04
   53.28000     -1.1719963E-04
   53.34000     -1.2635105E-04
   53.40000     -1.3600047E-04
   53.46000     -1.4615546E-04
   53.52000     -1.5682194E-04
   53.58000     -1.6800409E-04
   53.64000     -1.7970424E-04
   53.70000     -1.9192274E-04
   53.76000     -2.0465798E-04
   53.82000     -2.1790632E-04
   53.88000     -2.3166210E-04
   53.94000     -2.4591747E-04
   54.00000     -2.6066243E-04
   54.06000     -2.7588487E-04
   54.12000     -2.9157053E-04
   54.18000     -3.0770301E-04
   54.24000     -3.2426385E-04
   54.30000     -3.4123258E-04
   54.36000     -3.5858672E-04
   54.42000     -3.7630202E-04
   54.48000     -3.9435257E-04
   54.54000     -4.1271086E-04
   54.60000     -4.3134825E-04
   54.66000     -4.5023486E-04
   54.72000     -4.6933990E-04
   54.78000     -4.8863160E-04
   54.84000     -5.0807779E-04
   54.90000     -5.2764569E-04
   54.96000     -5.4730248E-04
   55.02000     -5.6701514E-04
   55.08000     -5.8675098E-04
   55.14000     -6.0647784E-04
   55.20000     -6.2616420E-04
   55.26000     -6.4577948E-04
   55.32000     -6.6529441E-04
   55.38000     -6.8468077E-04
   55.44000     -7.0391176E-04
   55.50000     -7.2296197E-04
   55.56000     -7.4180757E-04