 -0.750000000       0.00000000    
 -0.689999998       0.00000000    
 -0.629999995       0.00000000    
 -0.569999993       0.00000000    
 -0.509999990       0.00000000    
 -0.449999988      -1.07879830E-18
 -0.389999986      -7.89290198E-18
 -0.330000013      -2.82603245E-17
 -0.270000011      -6.23530268E-17
 -0.209999993      -8.22749571E-17
 -0.150000006      -2.25742850E-17
  -9.00000036E-02   1.86419048E-16
  -2.99999993E-02   5.35901229E-16
   2.99999993E-02   8.64370071E-16
   9.00000036E-02   9.01883201E-16
  0.150000006       4.99217661E-16
  0.209999993      -6.71105197E-17
  0.270000011      -3.33886789E-17
  0.330000013       1.32780144E-15
  0.389999986       3.61644783E-15
  0.449999988       4.32684208E-15
  0.509999990      -8.29619379E-16
  0.569999993      -1.53995469E-14
  0.629999995      -3.79462087E-14
  0.689999998      -5.85294752E-14
  0.750000000      -5.94792024E-14
  0.810000002      -2.28665658E-14
  0.870000005       5.67502927E-14
  0.930000007       1.60586591E-13
  0.990000010       2.43813297E-13
   1.04999995       2.49960453E-13
   1.11000001       1.39563288E-13
   1.16999996      -7.93145660E-14
   1.23000002      -3.37168471E-13
   1.28999996      -5.20427560E-13
   1.35000002      -5.20257177E-13
   1.40999997      -2.93707387E-13
   1.47000003       9.49769844E-14
   1.52999997       4.82275678E-13
   1.59000003       6.70902841E-13
   1.64999998       5.30217905E-13
   1.71000004       8.36915647E-14
   1.76999998      -4.68019449E-13
   1.83000004      -8.15660365E-13
   1.88999999      -6.85156142E-13
   1.95000005       3.02218179E-15
   2.00999999       1.03820186E-12
   2.06999993       1.94950436E-12
   2.13000011       2.17254621E-12
   2.19000006       1.30014445E-12
   2.25000000      -6.83244585E-13
   2.30999994      -3.29087864E-12
   2.36999989      -5.61398367E-12
   2.43000007      -6.58589589E-12
   2.49000001      -5.34572733E-12
   2.54999995      -1.57071654E-12
   2.60999990       4.34665758E-12
   2.67000008       1.13405847E-11
   2.73000002       1.79080951E-11
   2.78999996       2.24377600E-11
   2.84999990       2.35016659E-11
   2.91000009       2.00205373E-11
   2.97000003       1.13026533E-11
   3.02999997      -2.94435548E-12
   3.08999991      -2.24798426E-11
   3.15000010      -4.61659357E-11
   3.21000004      -7.13984288E-11
   3.26999998      -9.35427291E-11
   3.32999992      -1.05740396E-10
   3.39000010      -9.94940866E-11
   3.45000005      -6.63165564E-11
   3.50999999      -4.50584123E-13
   3.56999993       9.76939987E-11
   3.63000011       2.18069965E-10
   3.69000006       3.38355510E-10
   3.75000000       4.22981594E-10
   3.80999994       4.24399488E-10
   3.86999989       2.86753815E-10
   3.93000007      -4.83334033E-11
   3.99000001      -6.34562014E-10
   4.05000019      -1.51329993E-09
   4.11000013      -2.70654388E-09
   4.17000008      -4.21151691E-09
   4.23000002      -5.99776273E-09
   4.28999996      -8.00733435E-09
   4.34999990      -1.01583471E-08
   4.40999985      -1.23517623E-08
   4.46999979      -1.44808334E-08
   4.53000021      -1.64421934E-08
   4.59000015      -1.81471922E-08
   4.65000010      -1.95318925E-08
   4.71000004      -2.05641335E-08
   4.76999998      -2.12464464E-08
   4.82999992      -2.16142251E-08
   4.88999987      -2.17293969E-08
   4.94999981      -2.16707363E-08
   5.01000023      -2.15226397E-08
   5.07000017      -2.13645315E-08
   5.13000011      -2.12628368E-08
   5.19000006      -2.12667057E-08
   5.25000000      -2.14076525E-08
   5.30999994      -2.17021849E-08
   5.36999989      -2.21557688E-08
   5.42999983      -2.27662955E-08
   5.48999977      -2.35257609E-08
   5.55000019      -2.44197409E-08
   5.61000013      -2.54253596E-08
   5.67000008      -2.65091966E-08
   5.73000002      -2.76267915E-08
   5.78999996      -2.87250224E-08
   5.84999990      -2.97477030E-08
   5.90999985      -3.06436441E-08
   5.96999979      -3.13755706E-08
   6.03000021      -3.19277120E-08
   6.09000015      -3.23101190E-08
   6.15000010      -3.25582512E-08
   6.21000004      -3.27275735E-08
   6.26999998      -3.28838574E-08
   6.32999992      -3.30909522E-08
   6.38999987      -3.33983259E-08
   6.44999981      -3.38308688E-08
   6.51000023      -3.43828930E-08
   6.57000017      -3.50176244E-08
   6.63000011      -3.56722900E-08
   6.69000006      -3.62680552E-08
   6.75000000      -3.67229873E-08
   6.80999994      -3.69658331E-08
   6.86999989      -3.69482187E-08
   6.92999983      -3.66529882E-08
   6.98999977      -3.60972123E-08
   7.05000019      -3.53291618E-08
   7.11000013      -3.44197417E-08
   7.17000008      -3.34498580E-08
   7.23000002      -3.24960538E-08
   7.28999996      -3.16170450E-08
   7.34999990      -3.08437293E-08
   7.40999985      -3.01745153E-08
   7.46999979      -2.95768761E-08
   7.53000021      -2.89948776E-08
   7.59000015      -2.83612813E-08
   7.65000010      -2.76119270E-08
   7.71000004      -2.66995066E-08
   7.76999998      -2.56038000E-08
   7.82999992      -2.43360141E-08
   7.88999987      -2.29360868E-08
   7.94999981      -2.14634834E-08
   8.01000023      -1.99836805E-08
   8.06999969      -1.85537363E-08
   8.13000011      -1.72106294E-08
   8.18999958      -1.59651705E-08
   8.25000000      -1.48026844E-08
   8.31000042      -1.36896698E-08
   8.36999989      -1.25840645E-08
   8.43000031      -1.14460423E-08
   8.48999977      -1.02464845E-08
   8.55000019      -8.97132413E-09
   8.60999966      -7.62130803E-09
   8.67000008      -6.20794793E-09
   8.72999954      -4.74726392E-09
   8.78999996      -3.25319416E-09
   8.85000038      -1.73234393E-09
   8.90999985      -1.81204718E-10
   8.97000027       1.41374878E-09
   9.02999973       3.07333403E-09
   9.09000015       4.82106532E-09
   9.14999962       6.67767441E-09
   9.21000004       8.65573924E-09
   9.27000046       1.07553122E-08
   9.32999992       1.29613236E-08
   9.39000034       1.52434385E-08
   9.44999981       1.75588486E-08
   9.51000023       1.98579890E-08
   9.56999969       2.20924949E-08
   9.63000011       2.42237554E-08
   9.68999958       2.62298716E-08
   9.75000000       2.81089054E-08
   9.81000042       2.98770644E-08
   9.86999989       3.15620667E-08
   9.93000031       3.31933734E-08
   9.98999977       3.47920626E-08
   10.0500002       3.63632502E-08
   10.1099997       3.78930771E-08
   10.1700001       3.93510398E-08
   10.2299995       4.06968148E-08
   10.2900000       4.18896882E-08
   10.3500004       4.28981579E-08
   10.4099998       4.37073666E-08
   10.4700003       4.43227535E-08
   10.5299997       4.47692940E-08
   10.5900002       4.50869067E-08
   10.6499996       4.53234037E-08
   10.7100000       4.55267255E-08
   10.7700005       4.57380374E-08
   10.8299999       4.59866882E-08
   10.8900003       4.62873224E-08
   10.9499998       4.66392187E-08
   11.0100002       4.70277257E-08
   11.0699997       4.74278323E-08
   11.1300001       4.78096673E-08
   11.1899996       4.81452673E-08
   11.2500000       4.84150924E-08
   11.3100004       4.86125948E-08
   11.3699999       4.87452247E-08
   11.4300003       4.88315166E-08
   11.4899998       4.88951990E-08
   11.5500002       4.89583947E-08
   11.6099997       4.90360677E-08
   11.6700001       4.91331704E-08
   11.7299995       4.92446439E-08
   11.7900000       4.93575527E-08
   11.8500004       4.94542682E-08
   11.9099998       4.95159220E-08
   11.9700003       4.95257950E-08
   12.0299997       4.94724937E-08
   12.0900002       4.93525150E-08
   12.1499996       4.91714047E-08
   12.2100000       4.89427734E-08
   12.2700005       4.86850205E-08
   12.3299999       4.84164353E-08
   12.3900003       4.81503548E-08
   12.4499998       4.78919233E-08
   12.5100002       4.76374389E-08
   12.5699997       4.73760835E-08
   12.6300001       4.70928896E-08
   12.6899996       4.67715537E-08
   12.7500000       4.63963019E-08
   12.8100004       4.59528913E-08
   12.8699999       4.54294984E-08
   12.9300003       4.48182256E-08
   12.9899998       4.41172396E-08
   13.0500002       4.33327081E-08
   13.1099997       4.24790620E-08
   13.1700001       4.15766728E-08
   13.2299995       4.06468494E-08
   13.2900000       3.97056255E-08
   13.3500004       3.87585644E-08
   13.4099998       3.77989302E-08
   13.4700003       3.68101674E-08
   13.5299997       3.57721710E-08
   13.5900002       3.46689752E-08
   13.6499996       3.34949348E-08
   13.7100000       3.22569278E-08
   13.7700005       3.09717159E-08
   13.8299999       2.96596081E-08
   13.8900003       2.83369523E-08
   13.9499998       2.70105147E-08
   14.0100002       2.56758295E-08
   14.0699997       2.43199771E-08
   14.1300001       2.29275408E-08
   14.1899996       2.14872582E-08
   14.2500000       1.99967811E-08
   14.3100004       1.84638349E-08
   14.3699999       1.69034653E-08
   14.4300003       1.53325477E-08
   14.4899998       1.37637235E-08
   14.5500002       1.22009638E-08
   14.6099997       1.06383187E-08
   14.6700001       9.06214304E-09
   14.7299995       7.45579776E-09
   14.7900000       5.80502890E-09
   14.8500004       4.10215373E-09
   14.9099998       2.34779285E-09
   14.9700003       5.49913892E-10
   15.0299997      -1.27917021E-09
   15.0900002      -3.12674708E-09
   15.1499996      -4.98352204E-09
   15.2100000      -6.84654289E-09
   15.2700005      -8.72075390E-09
   15.3299999      -1.06188196E-08
   15.3900003      -1.25589104E-08
   15.4499998      -1.45603671E-08
   15.5100002      -1.66377312E-08
   15.5699997      -1.87944771E-08
   15.6300001      -2.10184066E-08
   15.6899996      -2.32806716E-08
   15.7500000      -2.55396166E-08
   15.8100004      -2.77489978E-08
   15.8699999      -2.98684775E-08
   15.9300003      -3.18732205E-08
   15.9899998      -3.37593100E-08
   16.0499992      -3.55430956E-08
   16.1100006      -3.72542885E-08
   16.1700001      -3.89251120E-08
   16.2299995      -4.05788398E-08
   16.2900009      -4.22216111E-08
   16.3500004      -4.38400569E-08
   16.4099998      -4.54052902E-08
   16.4699993      -4.68816310E-08
   16.5300007      -4.82367994E-08
   16.5900002      -4.94501080E-08
   16.6499996      -5.05161530E-08
   16.7099991      -5.14435570E-08
   16.7700005      -5.22499128E-08
   16.8299999      -5.29552295E-08
   16.8899994      -5.35760734E-08
   16.9500008      -5.41217595E-08
   17.0100002      -5.45928138E-08
   17.0699997      -5.49815162E-08
   17.1299992      -5.52741106E-08
   17.1900005      -5.54544393E-08
   17.2500000      -5.55086359E-08
   17.3099995      -5.54299895E-08
   17.3700008      -5.52224435E-08
   17.4300003      -5.49009762E-08
   17.4899998      -5.44880869E-08
   17.5499992      -5.40071170E-08
   17.6100006      -5.34749454E-08
   17.6700001      -5.28972492E-08
   17.7299995      -5.22688772E-08
   17.7900009      -5.15794660E-08
   17.8500004      -5.08220204E-08
   17.9099998      -5.00004518E-08
   17.9699993      -4.91324244E-08
   18.0300007      -4.82459548E-08
   18.0900002      -4.73711594E-08
   18.1499996      -4.65308574E-08
   18.2099991      -4.57342004E-08
   18.2700005      -4.49758915E-08
   18.3299999      -4.42408314E-08
   18.3899994      -4.35115055E-08
   18.4500008      -4.27744737E-08
   18.5100002      -4.20232489E-08
   18.5699997      -4.12573300E-08
   18.6299992      -4.04791152E-08
   18.6900005      -3.96915780E-08
   18.7500000      -3.88983565E-08
   18.8099995      -3.81059131E-08
   18.8700008      -3.73254778E-08
   18.9300003      -3.65721142E-08
   18.9899998      -3.58598626E-08
   19.0499992      -3.51946277E-08
   19.1100006      -3.45684832E-08
   19.1700001      -3.39591253E-08
   19.2299995      -3.33358088E-08
   19.2900009      -3.26696750E-08
   19.3500004      -3.19435820E-08
   19.4099998      -3.11566346E-08
   19.4699993      -3.03210541E-08
   19.5300007      -2.94534264E-08
   19.5900002      -2.85651556E-08
   19.6499996      -2.76575598E-08
   19.7099991      -2.67240008E-08
   19.7700005      -2.57573305E-08
   19.8299999      -2.47576608E-08
   19.8899994      -2.37352324E-08
   19.9500008      -2.27061197E-08
   20.0100002      -2.16829381E-08
   20.0699997      -2.06659916E-08
   20.1299992      -1.96403818E-08
   20.1900005      -1.85814883E-08
   20.2500000      -1.74665473E-08
   20.3099995      -1.62865401E-08
   20.3700008      -1.50522137E-08
   20.4300003      -1.37911034E-08
   20.4899998      -1.25369848E-08
   20.5499992      -1.13169749E-08
   20.6100006      -1.01423758E-08
   20.6700001      -9.00698449E-09
   20.7299995      -7.89265364E-09
   20.7900009      -6.77836542E-09
   20.8500004      -5.64804425E-09
   20.9099998      -4.49393411E-09
   20.9699993      -3.31542860E-09
   21.0300007      -2.11583884E-09
   21.0900002      -9.00183372E-10
   21.1499996       3.24422850E-10
   21.2099991       1.54666424E-09
   21.2700005       2.74978995E-09
   21.3299999       3.91357657E-09
   21.3899994       5.01972419E-09
   21.4500008       6.05832229E-09
   21.5100002       7.03160730E-09
   21.5699997       7.95213229E-09
   21.6299992       8.83531825E-09
   21.6900005       9.68967040E-09
   21.7500000       1.05097646E-08
   21.8099995       1.12762191E-08
   21.8700008       1.19635466E-08
   21.9300003       1.25526807E-08
   21.9899998       1.30422677E-08
   22.0499992       1.34530209E-08
   22.1100006       1.38225484E-08
   22.1700001       1.41925689E-08
   22.2299995       1.45939785E-08
   22.2900009       1.50361483E-08
   22.3500004       1.55046695E-08
   22.4099998       1.59678475E-08
   22.4699993       1.63885066E-08
   22.5300007       1.67360170E-08
   22.5900002       1.69942869E-08
   22.6499996       1.71639858E-08
   22.7099991       1.72599197E-08
   22.7700005       1.73057408E-08
   22.8299999       1.73280785E-08
   22.8899994       1.73509935E-08
   22.9500008       1.73909189E-08
   23.0100002       1.74524057E-08
   23.0699997       1.75257195E-08
   23.1299992       1.75880217E-08
   23.1900005       1.76091515E-08
   23.2500000       1.75612911E-08
   23.3099995       1.74296222E-08
   23.3700008       1.72198931E-08
   23.4300003       1.69595165E-08
   23.4899998       1.66912386E-08
   23.5499992       1.64614065E-08
   23.6100006       1.63070091E-08
   23.6700001       1.62459255E-08
   23.7299995       1.62732938E-08
   23.7900009       1.63645684E-08
   23.8500004       1.64836305E-08
   23.9099998       1.65931464E-08
   23.9699993       1.66642007E-08
   24.0300007       1.66828009E-08
   24.0900002       1.66517822E-08
   24.1499996       1.65877907E-08
   24.2099991       1.65142584E-08
   24.2700005       1.64524945E-08
   24.3299999       1.64137663E-08
   24.3899994       1.63949423E-08
   24.4500008       1.63790261E-08
   24.5100002       1.63400902E-08
   24.5699997       1.62505138E-08
   24.6299992       1.60878990E-08
   24.6900005       1.58397349E-08
   24.7500000       1.55051154E-08
   24.8099995       1.50940025E-08
   24.8700008       1.46249288E-08
   24.9300003       1.41217846E-08
   24.9899998       1.36099487E-08
   25.0499992       1.31119959E-08
   25.1100006       1.26436719E-08
   25.1700001       1.22112613E-08
   25.2299995       1.18114105E-08
   25.2900009       1.14336167E-08
   25.3500004       1.10644587E-08
   25.4099998       1.06918963E-08
   25.4699993       1.03080904E-08
   25.5300007       9.91020421E-09
   25.5900002       9.49971746E-09
   25.6499996       9.08141828E-09
   25.7099991       8.66283578E-09
   25.7700005       8.25404634E-09
   25.8299999       7.86705989E-09
   25.8899994       7.51396989E-09
   25.9500008       7.20380866E-09
   26.0100002       6.93903468E-09
   26.0699997       6.71323619E-09
   26.1299992       6.51146825E-09
   26.1900005       6.31381214E-09
   26.2500000       6.10155437E-09
   26.3099995       5.86430371E-09
   26.3700008       5.60573410E-09
   26.4300003       5.34569500E-09
   26.4899998       5.11719822E-09
   26.5499992       4.95829777E-09
   26.6100006       4.90072782E-09
   26.6700001       4.95871300E-09
   26.7299995       5.12184917E-09
   26.7900009       5.35482370E-09
   26.8500004       5.60428592E-09
   26.9099998       5.81037707E-09
   26.9699993       5.91864291E-09
   27.0300007       5.88817262E-09
   27.0900002       5.69378722E-09
   27.1499996       5.32278932E-09
   27.2099991       4.76883066E-09
   27.2700005       4.02587030E-09
   27.3299999       3.08415826E-09
   27.3899994       1.92861638E-09
   27.4500008       5.39002176E-10
   27.5100002      -1.10873588E-09
   27.5699997      -3.03986925E-09
   27.6299992      -5.27666444E-09
   27.6900005      -7.83261989E-09
   27.7500000      -1.07063567E-08
   27.8099995      -1.38773109E-08
   27.8700008      -1.73051600E-08
   27.9300003      -2.09335340E-08
   27.9899998      -2.46965470E-08
   28.0499992      -2.85253883E-08
   28.1100006      -3.23523892E-08
   28.1700001      -3.61116967E-08
   28.2299995      -3.97379409E-08
   28.2900009      -4.31657092E-08
   28.3500004      -4.63324703E-08
   28.4099998      -4.91857328E-08
   28.4699993      -5.16928367E-08
   28.5300007      -5.38498419E-08
   28.5900002      -5.56859270E-08
   28.6499996      -5.72610119E-08
   28.7099991      -5.86569264E-08
   28.7700005      -5.99645560E-08
   28.8299999      -6.12706614E-08
   28.8899994      -6.26475369E-08
   28.9500008      -6.41472653E-08
   29.0100002      -6.58004353E-08
   29.0699997      -6.76176199E-08
   29.1299992      -6.95920264E-08
   29.1900005      -7.17020043E-08
   29.2500000      -7.39134478E-08
   29.3099995      -7.61826584E-08
   29.3700008      -7.84599834E-08
   29.4300003      -8.06943063E-08
   29.4899998      -8.28371682E-08
   29.5499992      -8.48455670E-08
   29.6100006      -8.66828813E-08
   29.6700001      -8.83183588E-08
   29.7299995      -8.97265053E-08
   29.7900009      -9.08872906E-08
   29.8500004      -9.17871787E-08
   29.9099998      -9.24198318E-08
   29.9699993      -9.27845676E-08
   30.0300007      -9.28817272E-08
   30.0900002      -9.27054913E-08
   30.1499996      -9.22369878E-08
   30.2099991      -9.14408744E-08
   30.2700005      -9.02682871E-08
   30.3299999      -8.86663258E-08
   30.3899994      -8.65920669E-08
   30.4500008      -8.40270928E-08
   30.5100002      -8.09884213E-08
   30.5699997      -7.75329028E-08
   30.6299992      -7.37540731E-08
   30.6900005      -6.97723337E-08
   30.7500000      -6.57204851E-08
   30.8099995      -6.17270217E-08
   30.8700008      -5.79001203E-08
   30.9300003      -5.43147607E-08
   30.9899998      -5.10056282E-08
   31.0499992      -4.79674718E-08
   31.1100006      -4.51632545E-08
   31.1700001      -4.25384492E-08
   31.2299995      -4.00380920E-08
   31.2900009      -3.76221827E-08
   31.3500004      -3.52756580E-08
   31.4099998      -3.30107248E-08
   31.4699993      -3.08619086E-08
   31.5300007      -2.88761726E-08
   31.5900002      -2.71015459E-08
   31.6499996      -2.55775365E-08
   31.7099991      -2.43293279E-08
   31.7700005      -2.33662281E-08
   31.8299999      -2.26835368E-08
   31.8899994      -2.22663044E-08
   31.9500008      -2.20935412E-08
   32.0099983      -2.21417871E-08
   32.0699997      -2.23876260E-08
   32.1300011      -2.28089903E-08
   32.1899986      -2.33854553E-08
   32.2500000      -2.40976643E-08
   32.3100014      -2.49261358E-08
   32.3699989      -2.58499782E-08
   32.4300003      -2.68461307E-08
   32.4900017      -2.78899375E-08
   32.5499992      -2.89573858E-08
   32.6100006      -3.00286658E-08
   32.6699982      -3.10917869E-08
   32.7299995      -3.21445057E-08
   32.7900009      -3.31932242E-08
   32.8499985      -3.42487283E-08
   32.9099998      -3.53202445E-08
   32.9700012      -3.64103698E-08
   33.0299988      -3.75131499E-08
   33.0900002      -3.86160863E-08
   33.1500015      -3.97047373E-08
   33.2099991      -4.07670910E-08
   33.2700005      -4.17950083E-08
   33.3300018      -4.27817284E-08
   33.3899994      -4.37168453E-08
   33.4500008      -4.45817250E-08
   33.5099983      -4.53483615E-08
   33.5699997      -4.59827305E-08
   33.6300011      -4.64513477E-08
   33.6899986      -4.67282568E-08
   33.7500000      -4.67996344E-08
   33.8100014      -4.66648409E-08
   33.8699989      -4.63347405E-08
   33.9300003      -4.58289904E-08
   33.9900017      -4.51739020E-08
   34.0499992      -4.44011228E-08
   34.1100006      -4.35463363E-08
   34.1699982      -4.26470876E-08
   34.2299995      -4.17394936E-08
   34.2900009      -4.08547152E-08
   34.3499985      -4.00163209E-08
   34.4099998      -3.92390689E-08
   34.4700012      -3.85286576E-08
   34.5299988      -3.78812679E-08
   34.5900002      -3.72823799E-08
   34.6500015      -3.67055648E-08
   34.7099991      -3.61133061E-08
   34.7700005      -3.54619125E-08
   34.8300018      -3.47110252E-08
   34.8899994      -3.38358248E-08
   34.9500008      -3.28378142E-08
   35.0099983      -3.17496820E-08
   35.0699997      -3.06314512E-08
   35.1300011      -2.95580733E-08
   35.1899986      -2.86019457E-08
   35.2500000      -2.78155543E-08
   35.3100014      -2.72193077E-08
   35.3699989      -2.67977267E-08
   35.4300003      -2.65043205E-08
   35.4900017      -2.62729660E-08
   35.5499992      -2.60321382E-08
   35.6100006      -2.57182169E-08
   35.6699982      -2.52851553E-08
   35.7299995      -2.47093954E-08
   35.7900009      -2.39903954E-08
   35.8499985      -2.31479458E-08
   35.9099998      -2.22176588E-08
   35.9700012      -2.12454925E-08
   36.0299988      -2.02816519E-08
   36.0900002      -1.93740721E-08
   36.1500015      -1.85619413E-08
   36.2099991      -1.78702368E-08
   36.2700005      -1.73064585E-08
   36.3300018      -1.68603229E-08
   36.3899994      -1.65063216E-08
   36.4500008      -1.62080624E-08
   36.5099983      -1.59231259E-08
   36.5699997      -1.56076396E-08
   36.6300011      -1.52208184E-08
   36.6899986      -1.47302579E-08
   36.7500000      -1.41183225E-08
   36.8100014      -1.33885010E-08
   36.8699989      -1.25691182E-08
   36.9300003      -1.17113466E-08
   36.9900017      -1.08799654E-08
   37.0499992      -1.01382476E-08
   37.1100006      -9.53135704E-09
   37.1699982      -9.07408371E-09
   37.2299995      -8.74755912E-09
   37.2900009      -8.50630677E-09
   37.3499985      -8.29306313E-09
   37.4099998      -8.05612643E-09
   37.4700012      -7.76363329E-09
   37.5299988      -7.41099981E-09
   37.5900002      -7.02056635E-09
   37.6500015      -6.63496236E-09
   37.7099991      -6.30686836E-09
   37.7700005      -6.08793727E-09
   37.8300018      -6.01902839E-09
   37.8899994      -6.12330542E-09
   37.9500008      -6.40326236E-09
   38.0099983      -6.84215218E-09
   38.0699997      -7.40943396E-09
   38.1300011      -8.06879896E-09
   38.1899986      -8.78659367E-09
   38.2500000      -9.53840651E-09
   38.3100014      -1.03124123E-08
   38.3699989      -1.11092753E-08
   38.4300003      -1.19394965E-08
   38.4900017      -1.28194886E-08
   38.5499992      -1.37674991E-08
   38.6100006      -1.48000083E-08
   38.6699982      -1.59289240E-08
   38.7299995      -1.71597740E-08
   38.7900009      -1.84910824E-08
   38.8499985      -1.99148769E-08
   38.9099998      -2.14179874E-08
   38.9700012      -2.29834534E-08
   39.0299988      -2.45916283E-08
   39.0900002      -2.62210786E-08
   39.1500015      -2.78500405E-08
   39.2099991      -2.94591960E-08
   39.2700005      -3.10357819E-08
   39.3300018      -3.25777343E-08
   39.3899994      -3.40955211E-08
   39.4500008      -3.56095420E-08
   39.5099983      -3.71424100E-08
   39.5699997      -3.87078813E-08
   39.6300011      -4.03001046E-08
   39.6899986      -4.18875388E-08
   39.7500000      -4.34146550E-08
   39.8100014      -4.48118413E-08
   39.8699989      -4.60109923E-08
   39.9300003      -4.69620289E-08
   39.9900017      -4.76450985E-08
   40.0499992      -4.80743481E-08
   40.1100006      -4.82919873E-08
   40.1699982      -4.83544191E-08
   40.2299995      -4.83150160E-08
   40.2900009      -4.82093405E-08
   40.3499985      -4.80476530E-08
   40.4099998      -4.78169788E-08
   40.4700012      -4.74913406E-08
   40.5299988      -4.70457628E-08
   40.5900002      -4.64685073E-08
   40.6500015      -4.57672016E-08
   40.7099991      -4.49673117E-08
   40.7700005      -4.41043184E-08
   40.8300018      -4.32131237E-08
   40.8899994      -4.23180637E-08
   40.9500008      -4.14262828E-08
   41.0099983      -4.05255669E-08
   41.0699997      -3.95869861E-08
   41.1300011      -3.85719829E-08
   41.1899986      -3.74428915E-08
   41.2500000      -3.61746046E-08
   41.3100014      -3.47637439E-08
   41.3699989      -3.32313910E-08
   41.4300003      -3.16169775E-08
   41.4900017      -2.99644256E-08
   41.5499992      -2.83057613E-08
   41.6100006      -2.66494364E-08
   41.6699982      -2.49794549E-08
   41.7299995      -2.32667556E-08
   41.7900009      -2.14883151E-08
   41.8499985      -1.96454408E-08
   41.9099998      -1.77726989E-08
   41.9700012      -1.59331766E-08
   42.0299988      -1.42020857E-08
   42.0900002      -1.26458506E-08
   42.1500015      -1.13052785E-08
   42.2099991      -1.01887618E-08
   42.2700005      -9.27646404E-09
   42.3300018      -8.53183568E-09
   42.3899994      -7.91470711E-09
   42.4500008      -7.39115658E-09
   42.5099983      -6.93812696E-09
   42.5699997      -6.54356569E-09
   42.6300011      -6.20415319E-09
   42.6899986      -5.92236349E-09
   42.7500000      -5.70345060E-09
   42.8100014      -5.55214053E-09
   42.8699989      -5.46902923E-09
   42.9300003      -5.44761214E-09
   42.9900017      -5.47370727E-09
   43.0499992      -5.52875656E-09
   43.1100006      -5.59697533E-09
   43.1699982      -5.67414782E-09
   43.2299995      -5.77426151E-09
   43.2900009      -5.93022298E-09
   43.3499985      -6.18690477E-09
   43.4099998      -6.58800081E-09
   43.4700012      -7.16111304E-09
   43.5299988      -7.90670818E-09
   43.5900002      -8.79533246E-09
   43.6500015      -9.77423653E-09
   43.7099991      -1.07809273E-08
   43.7700005      -1.17586536E-08
   43.8300018      -1.26687327E-08
   43.8899994      -1.34965346E-08
   43.9500008      -1.42508396E-08
   44.0099983      -1.49584434E-08
   44.0699997      -1.56565196E-08
   44.1300011      -1.63844351E-08
   44.1899986      -1.71755890E-08
   44.2500000      -1.80495512E-08
   44.3100014      -1.90055829E-08
   44.3699989      -2.00199839E-08
   44.4300003      -2.10499742E-08
   44.4900017      -2.20451764E-08
   44.5499992      -2.29643895E-08
   44.6100006      -2.37918769E-08
   44.6699982      -2.45460043E-08
   44.7299995      -2.52750869E-08
   44.7900009      -2.60403752E-08
   44.8499985      -2.68919731E-08
   44.9099998      -2.78471930E-08
   44.9700012      -2.88803790E-08
   45.0299988      -2.99286391E-08
   45.0900002      -3.09111812E-08
   45.1500015      -3.17545776E-08
   45.2099991      -3.24141851E-08
   45.2700005      -3.28845147E-08
   45.3300018      -3.31962262E-08
   45.3899994      -3.34028520E-08
   45.4500008      -3.35633281E-08
   45.5099983      -3.37266641E-08
   45.5699997      -3.39227419E-08
   45.6300011      -3.41604647E-08
   45.6899986      -3.44320057E-08
   45.7500000      -3.47208342E-08
   45.8100014      -3.50109346E-08
   45.8699989      -3.52946579E-08
   45.9300003      -3.55769210E-08
   45.9900017      -3.58739705E-08
   46.0499992      -3.62063126E-08
   46.1100006      -3.65875437E-08
   46.1699982      -3.70129634E-08
   46.2299995      -3.74528248E-08
   46.2900009      -3.78542282E-08
   46.3499985      -3.81525744E-08
   46.4099998      -3.82897518E-08
   46.4700012      -3.82330363E-08
   46.5299988      -3.79878955E-08
   46.5900002      -3.75996763E-08
   46.6500015      -3.71430104E-08
   46.7099991      -3.67018202E-08
   46.7700005      -3.63461723E-08
   46.8300018      -3.61127910E-08
   46.8899994      -3.59950008E-08
   46.9500008      -3.59446872E-08
   47.0099983      -3.58855097E-08
   47.0699997      -3.57335388E-08
   47.1300011      -3.54197098E-08
   47.1899986      -3.49082647E-08
   47.2500000      -3.42065114E-08
   47.3100014      -3.33634986E-08
   47.3699989      -3.24579048E-08
   47.4300003      -3.15780895E-08
   47.4900017      -3.07990611E-08
   47.5499992      -3.01621164E-08
   47.6100006      -2.96625604E-08
   47.6699982      -2.92491649E-08
   47.7299995      -2.88362703E-08
   47.7900009      -2.83259549E-08
   47.8499985      -2.76344103E-08
   47.9099998      -2.67148064E-08
   47.9700012      -2.55694363E-08
   48.0299988      -2.42469813E-08
   48.0900002      -2.28256365E-08
   48.1500015      -2.13876987E-08
   48.2099991      -1.99942161E-08
   48.2700005      -1.86682509E-08
   48.3300018      -1.73919421E-08
   48.3899994      -1.61176761E-08
   48.4500008      -1.47887471E-08
   48.5099983      -1.33619835E-08
   48.5699997      -1.18245369E-08
   48.6300011      -1.01992832E-08
   48.6899986      -8.53716919E-09
   48.7500000      -6.89920698E-09
   48.8100014      -5.33446265E-09
   48.8699989      -3.86218613E-09
   48.9300003      -2.46532417E-09
   48.9900017      -1.09885401E-09
   49.0499992       2.89320512E-10
   49.1100006       1.73272863E-09
   49.1699982       3.22658122E-09
   49.2299995       4.72296380E-09
   49.2900009       6.14419049E-09
   49.3499985       7.40984207E-09
   49.4099998       8.46689829E-09
   49.4700012       9.31075306E-09
   49.5299988       9.98846961E-09
   49.5900002       1.05827009E-08
   49.6500015       1.11820873E-08
   49.7099991       1.18486128E-08
   49.7700005       1.25930324E-08
   49.8300018       1.33663329E-08
   49.8899994       1.40699203E-08
   49.9500008       1.45815449E-08
   50.0099983       1.47893795E-08
   50.0699997       1.46240859E-08
   50.1300011       1.40788190E-08
   50.1899986       1.32103244E-08
   50.2500000       1.21199006E-08
   50.3100014       1.09195870E-08
   50.3699989       9.69408376E-09
   50.4300003       8.47054782E-09
   50.4900017       7.20575555E-09
   50.5499992       5.79419135E-09
   50.6100006       4.09375112E-09