 -0.750000000       0.00000000    
 -0.689999998       0.00000000    
 -0.629999995       0.00000000    
 -0.569999993       0.00000000    
 -0.509999990       0.00000000    
 -0.449999988      -1.32783636E-20
 -0.389999986      -9.53759926E-20
 -0.330000013      -2.38107326E-19
 -0.270000011       3.79912294E-19
 -0.209999993       5.46886285E-18
 -0.150000006       2.46725676E-17
  -9.00000036E-02   7.41480598E-17
  -2.99999993E-02   1.67440732E-16
   2.99999993E-02   2.89612582E-16
   9.00000036E-02   3.57820572E-16
  0.150000006       1.92790377E-16
  0.209999993      -4.53233407E-16
  0.270000011      -1.76859029E-15
  0.330000013      -3.65813963E-15
  0.389999986      -5.51639524E-15
  0.449999988      -6.17774247E-15
  0.509999990      -4.22765960E-15
  0.569999993       1.28654765E-15
  0.629999995       9.98967449E-15
  0.689999998       1.96857657E-14
  0.750000000       2.68262009E-14
  0.810000002       2.81668152E-14
  0.870000005       2.30770925E-14
  0.930000007       1.51266752E-14
  0.990000010       1.12492345E-14
   1.04999995       1.75195246E-14
   1.11000001       3.24710589E-14
   1.16999996       4.12623020E-14
   1.23000002       1.55059579E-14
   1.28999996      -7.72798912E-14
   1.35000002      -2.54553648E-13
   1.40999997      -4.95971591E-13
   1.47000003      -7.28456737E-13
   1.52999997      -8.31997069E-13
   1.59000003      -6.73623646E-13
   1.64999998      -1.64957552E-13
   1.71000004       6.75938526E-13
   1.76999998       1.68783596E-12
   1.83000004       2.58262856E-12
   1.88999999       3.02580530E-12
   1.95000005       2.76389133E-12
   2.00999999       1.75242861E-12
   2.06999993       2.22817275E-13
   2.13000011      -1.36273469E-12
   2.19000006      -2.47921302E-12
   2.25000000      -2.78352276E-12
   2.30999994      -2.33794559E-12
   2.36999989      -1.69492914E-12
   2.43000007      -1.75723184E-12
   2.49000001      -3.40864316E-12
   2.54999995      -7.01672834E-12
   2.60999990      -1.19978090E-11
   2.67000008      -1.66611221E-11
   2.73000002      -1.84869672E-11
   2.78999996      -1.48494949E-11
   2.84999990      -4.01267561E-12
   2.91000009       1.39227917E-11
   2.97000003       3.64943874E-11
   3.02999997       5.90580918E-11
   3.08999991       7.57414062E-11
   3.15000010       8.09592671E-11
   3.21000004       7.10469253E-11
   3.26999998       4.54681987E-11
   3.32999992       7.15839063E-12
   3.39000010      -3.81577617E-11
   3.45000005      -8.34629379E-11
   3.50999999      -1.22228866E-10
   3.56999993      -1.49818283E-10
   3.63000011      -1.63968991E-10
   3.69000006      -1.64186442E-10
   3.75000000      -1.50350038E-10
   3.80999994      -1.21245819E-10
   3.86999989      -7.38908032E-11
   3.93000007      -4.31505005E-12
   3.99000001       9.00563374E-11
   4.05000019       2.06957895E-10
   4.11000013       3.35896921E-10
   4.17000008       4.56192223E-10
   4.23000002       5.37569878E-10
   4.28999996       5.43758982E-10
   4.34999990       4.38591108E-10
   4.40999985       1.93235983E-10
   4.46999979      -2.07281345E-10
   4.53000021      -7.60037477E-10
   4.59000015      -1.44371537E-09
   4.65000010      -2.22167418E-09
   4.71000004      -3.04753844E-09
   4.76999998      -3.87154886E-09
   4.82999992      -4.64582861E-09
   4.88999987      -5.32727773E-09
   4.94999981      -5.87781823E-09
   5.01000023      -6.26278540E-09
   5.07000017      -6.44901998E-09
   5.13000011      -6.40432107E-09
   5.19000006      -6.09935347E-09
   5.25000000      -5.51204105E-09
   5.30999994      -4.63331373E-09
   5.36999989      -3.47225226E-09
   5.42999983      -2.05853423E-09
   5.48999977      -4.40722764E-10
   5.55000019       1.31982192E-09
   5.61000013       3.15821369E-09
   5.67000008       5.01616793E-09
   5.73000002       6.85023949E-09
   5.78999996       8.63590532E-09
   5.84999990       1.03664526E-08
   5.90999985       1.20472352E-08
   5.96999979       1.36873552E-08
   6.03000021       1.52915867E-08
   6.09000015       1.68552887E-08
   6.15000010       1.83639273E-08
   6.21000004       1.97972412E-08
   6.26999998       2.11363318E-08
   6.32999992       2.23708696E-08
   6.38999987       2.35034427E-08
   6.44999981       2.45490543E-08
   6.51000023       2.55294719E-08
   6.57000017       2.64641535E-08
   6.63000011       2.73608940E-08
   6.69000006       2.82097741E-08
   6.75000000       2.89830506E-08
   6.80999994       2.96417717E-08
   6.86999989       3.01474437E-08
   6.92999983       3.04752099E-08
   6.98999977       3.06241397E-08
   7.05000019       3.06208605E-08
   7.11000013       3.05148617E-08
   7.17000008       3.03663761E-08
   7.23000002       3.02303462E-08
   7.28999996       3.01412513E-08
   7.34999990       3.01034895E-08
   7.40999985       3.00902236E-08
   7.46999979       3.00508276E-08
   7.53000021       2.99245144E-08
   7.59000015       2.96557587E-08
   7.65000010       2.92067899E-08
   7.71000004       2.85638126E-08
   7.76999998       2.77358030E-08
   7.82999992       2.67473101E-08
   7.88999987       2.56285464E-08
   7.94999981       2.44066349E-08
   8.01000023       2.31010322E-08
   8.06999969       2.17243290E-08
   8.13000011       2.02875174E-08
   8.18999958       1.88071585E-08
   8.25000000       1.73112653E-08
   8.31000042       1.58412821E-08
   8.36999989       1.44489478E-08
   8.43000031       1.31886857E-08
   8.48999977       1.21076846E-08
   8.55000019       1.12367164E-08
   8.60999966       1.05846079E-08
   8.67000008       1.01382813E-08
   8.72999954       9.86869164E-09
   8.78999996       9.74118120E-09
   8.85000038       9.72733361E-09
   8.90999985       9.81473658E-09
   8.97000027       1.00113962E-08
   9.02999973       1.03429896E-08
   9.09000015       1.08432685E-08
   9.14999962       1.15402266E-08
   9.21000004       1.24422748E-08
   9.27000046       1.35290597E-08
   9.32999992       1.47502952E-08
   9.39000034       1.60335123E-08
   9.44999981       1.72985306E-08
   9.51000023       1.84740561E-08
   9.56999969       1.95108036E-08
   9.63000011       2.03866826E-08
   9.68999958       2.11023146E-08
   9.75000000       2.16686740E-08
   9.81000042       2.20915624E-08
   9.86999989       2.23587993E-08
   9.93000031       2.24350725E-08
   9.98999977       2.22664323E-08
   10.0500002       2.17928733E-08
   10.1099997       2.09643574E-08
   10.1700001       1.97543830E-08
   10.2299995       1.81662294E-08
   10.2900000       1.62297553E-08
   10.3500004       1.39903085E-08
   10.4099998       1.14942216E-08
   10.4700003       8.77668160E-09
   10.5299997       5.85682436E-09
   10.5900002       2.74204792E-09
   10.6499996      -5.60061719E-10
   10.7100000      -4.02699429E-09
   10.7700005      -7.61000685E-09
   10.8299999      -1.12316272E-08
   10.8900003      -1.47943968E-08
   10.9499998      -1.81992004E-08
   11.0100002      -2.13677644E-08
   11.0699997      -2.42618334E-08
   11.1300001      -2.68921347E-08
   11.1899996      -2.93132789E-08
   11.2500000      -3.16054383E-08
   11.3100004      -3.38482344E-08
   11.3699999      -3.60951091E-08
   11.4300003      -3.83564931E-08
   11.4899998      -4.05970511E-08
   11.5500002      -4.27476188E-08
   11.6099997      -4.47272335E-08
   11.6700001      -4.64676795E-08
   11.7299995      -4.79323177E-08
   11.7900000      -4.91237167E-08
   11.8500004      -5.00787465E-08
   11.9099998      -5.08544318E-08
   11.9700003      -5.15105469E-08
   12.0299997      -5.20953556E-08
   12.0900002      -5.26386579E-08
   12.1499996      -5.31529167E-08
   12.2100000      -5.36399085E-08
   12.2700005      -5.40986420E-08
   12.3299999      -5.45302150E-08
   12.3900003      -5.49375443E-08
   12.4499998      -5.53202888E-08
   12.5100002      -5.56676838E-08
   12.5699997      -5.59528885E-08
   12.6300001      -5.61320981E-08
   12.6899996      -5.61498368E-08
   12.7500000      -5.59497266E-08
   12.8100004      -5.54881403E-08
   12.8699999      -5.47471011E-08
   12.9300003      -5.37428200E-08
   12.9899998      -5.25272839E-08
   13.0500002      -5.11819387E-08
   13.1099997      -4.98045551E-08
   13.1700001      -4.84918985E-08
   13.2299995      -4.73219863E-08
   13.2900000      -4.63399736E-08
   13.3500004      -4.55508449E-08
   13.4099998      -4.49205828E-08
   13.4700003      -4.43853700E-08
   13.5299997      -4.38665566E-08
   13.5900002      -4.32875176E-08
   13.6499996      -4.25884323E-08
   13.7100000      -4.17354258E-08
   13.7700005      -4.07224796E-08
   13.8299999      -3.95663484E-08
   13.8900003      -3.82967684E-08
   13.9499998      -3.69453588E-08
   14.0100002      -3.55367398E-08
   14.0699997      -3.40843123E-08
   14.1300001      -3.25913909E-08
   14.1899996      -3.10563557E-08
   14.2500000      -2.94790521E-08
   14.3100004      -2.78653278E-08
   14.3699999      -2.62274575E-08
   14.4300003      -2.45801122E-08
   14.4899998      -2.29335360E-08
   14.5500002      -2.12870912E-08
   14.6099997      -1.96264143E-08
   14.6700001      -1.79261441E-08
   14.7299995      -1.61578928E-08
   14.7900000      -1.43008041E-08
   14.8500004      -1.23507524E-08
   14.9099998      -1.03245164E-08
   14.9700003      -8.25711588E-09
   15.0299997      -6.19320684E-09
   15.0900002      -4.17579038E-09
   15.1499996      -2.23654828E-09
   15.2100000      -3.91344124E-10
   15.2700005       1.35779787E-09
   15.3299999       3.01572189E-09
   15.3900003       4.58576022E-09
   15.4499998       6.06405948E-09
   15.5100002       7.43944062E-09
   15.5699997       8.69904238E-09
   15.6300001       9.83728565E-09
   15.6899996       1.08639009E-08
   15.7500000       1.18068115E-08
   15.8100004       1.27075435E-08
   15.8699999       1.36097871E-08
   15.9300003       1.45447618E-08
   15.9899998       1.55187436E-08
   16.0499992       1.65078760E-08
   16.1100006       1.74630781E-08
   16.1700001       1.83243092E-08
   16.2299995       1.90398755E-08
   16.2900009       1.95843590E-08
   16.3500004       1.99687147E-08
   16.4099998       2.02387049E-08
   16.4699993       2.04617958E-08
   16.5300007       2.07068709E-08
   16.5900002       2.10238404E-08
   16.6499996       2.14303704E-08
   16.7099991       2.19104024E-08
   16.7700005       2.24247962E-08
   16.8299999       2.29297896E-08
   16.8899994       2.33961011E-08
   16.9500008       2.38212383E-08
   17.0100002       2.42303582E-08
   17.0699997       2.46655016E-08
   17.1299992       2.51676529E-08
   17.1900005       2.57588528E-08
   17.2500000       2.64315219E-08
   17.3099995       2.71492588E-08
   17.3700008       2.78588281E-08
   17.4300003       2.85086408E-08
   17.4899998       2.90665856E-08
   17.5499992       2.95303444E-08
   17.6100006       2.99263299E-08
   17.6700001       3.02977270E-08
   17.7299995       3.06861736E-08
   17.7900009       3.11140269E-08
   17.8500004       3.15736202E-08
   17.9099998       3.20275291E-08
   17.9699993       3.24196030E-08
   18.0300007       3.26930270E-08
   18.0900002       3.28092824E-08
   18.1499996       3.27617613E-08
   18.2099991       3.25798517E-08
   18.2700005       3.23224896E-08
   18.3299999       3.20634825E-08
   18.3899994       3.18732738E-08
   18.4500008       3.18026814E-08
   18.5100002       3.18732027E-08
   18.5699997       3.20763078E-08
   18.6299992       3.23812408E-08
   18.6900005       3.27485274E-08
   18.7500000       3.31444703E-08
   18.8099995       3.35519843E-08
   18.8700008       3.39740502E-08
   18.9300003       3.44287088E-08
   18.9899998       3.49371483E-08
   19.0499992       3.55089433E-08
   19.1100006       3.61296877E-08
   19.1700001       3.67556581E-08
   19.2299995       3.73180704E-08
   19.2900009       3.77362035E-08
   19.3500004       3.79355782E-08
   19.4099998       3.78655898E-08
   19.4699993       3.75107305E-08
   19.5300007       3.68918229E-08
   19.5900002       3.60566901E-08
   19.6499996       3.50635148E-08
   19.7099991       3.39622410E-08
   19.7700005       3.27803349E-08
   19.8299999       3.15172848E-08
   19.8899994       3.01495326E-08
   19.9500008       2.86437931E-08
   20.0100002       2.69740532E-08
   20.0699997       2.51363748E-08
   20.1299992       2.31565558E-08
   20.1900005       2.10881357E-08
   20.2500000       1.90015932E-08
   20.3099995       1.69684267E-08
   20.3700008       1.50455026E-08
   20.4300003       1.32646543E-08
   20.4899998       1.16305952E-08
   20.5499992       1.01270876E-08
   20.6100006       8.72837091E-09
   20.6700001       7.41109663E-09
   20.7299995       6.16205309E-09
   20.7900009       4.97889863E-09
   20.8500004       3.86408683E-09
   20.9099998       2.81502599E-09
   20.9699993       1.81513293E-09
   21.0300007       8.30088720E-10
   21.0900002      -1.88493221E-10
   21.1499996      -1.29281363E-09
   21.2099991      -2.52553489E-09
   21.2700005      -3.90803345E-09
   21.3299999      -5.43427658E-09
   21.3899994      -7.07209846E-09
   21.4500008      -8.77086137E-09
   21.5100002      -1.04723261E-08
   21.5699997      -1.21208403E-08
   21.6299992      -1.36699310E-08
   21.6900005      -1.50843480E-08
   21.7500000      -1.63387774E-08
   21.8099995      -1.74156884E-08
   21.8700008      -1.83047391E-08
   21.9300003      -1.90049185E-08
   21.9899998      -1.95287821E-08
   22.0499992      -1.99067092E-08
   22.1100006      -2.01885584E-08
   22.1700001      -2.04407886E-08
   22.2299995      -2.07387387E-08
   22.2900009      -2.11554010E-08
   22.3500004      -2.17493898E-08
   22.4099998      -2.25550405E-08
   22.4699993      -2.35769786E-08
   22.5300007      -2.47900829E-08
   22.5900002      -2.61443827E-08
   22.6499996      -2.75733303E-08
   22.7099991      -2.90033988E-08
   22.7700005      -3.03631325E-08
   22.8299999      -3.15903357E-08
   22.8899994      -3.26367271E-08
   22.9500008      -3.34700054E-08
   23.0100002      -3.40737820E-08
   23.0699997      -3.44460815E-08
   23.1299992      -3.45972140E-08
   23.1900005      -3.45478739E-08
   23.2500000      -3.43278330E-08
   23.3099995      -3.39752440E-08
   23.3700008      -3.35358763E-08
   23.4300003      -3.30613723E-08
   23.4899998      -3.26056906E-08
   23.5499992      -3.22196172E-08
   23.6100006      -3.19442606E-08
   23.6700001      -3.18053814E-08
   23.7299995      -3.18106572E-08
   23.7900009      -3.19514406E-08
   23.8500004      -3.22088276E-08
   23.9099998      -3.25622942E-08
   23.9699993      -3.29976011E-08
   24.0300007      -3.35108297E-08
   24.0900002      -3.41065878E-08
   24.1499996      -3.47909719E-08
   24.2099991      -3.55620848E-08
   24.2700005      -3.64024295E-08
   24.3299999      -3.72767843E-08
   24.3899994      -3.81373333E-08
   24.4500008      -3.89344699E-08
   24.5100002      -3.96293416E-08
   24.5699997      -4.02031368E-08
   24.6299992      -4.06591312E-08
   24.6900005      -4.10166052E-08
   24.7500000      -4.12989145E-08
   24.8099995      -4.15206962E-08
   24.8700008      -4.16796588E-08
   24.9300003      -4.17567811E-08
   24.9899998      -4.17253183E-08
   25.0499992      -4.15654959E-08
   25.1100006      -4.12793000E-08
   25.1700001      -4.08994296E-08
   25.2299995      -4.04884126E-08
   25.2900009      -4.01273574E-08
   25.3500004      -3.98974933E-08
   25.4099998      -3.98602893E-08
   25.4699993      -4.00424192E-08
   25.5300007      -4.04303400E-08
   25.5900002      -4.09761398E-08
   25.6499996      -4.16126262E-08
   25.7099991      -4.22728803E-08
   25.7700005      -4.29082192E-08
   25.8299999      -4.34991954E-08
   25.8899994      -4.40564776E-08
   25.9500008      -4.46117703E-08
   26.0100002      -4.52016877E-08
   26.0699997      -4.58499265E-08
   26.1299992      -4.65533567E-08
   26.1900005      -4.72766040E-08
   26.2500000      -4.79571689E-08
   26.3099995      -4.85198548E-08
   26.3700008      -4.88963536E-08
   26.4300003      -4.90439582E-08
   26.4899998      -4.89574035E-08
   26.5499992      -4.86697154E-08
   26.6100006      -4.82414357E-08
   26.6700001      -4.77413522E-08
   26.7299995      -4.72250186E-08
   26.7900009      -4.67182666E-08
   26.8500004      -4.62115644E-08
   26.9099998      -4.56672886E-08
   26.9699993      -4.50374813E-08
   27.0300007      -4.42855459E-08
   27.0900002      -4.34036629E-08
   27.1499996      -4.24189786E-08
   27.2099991      -4.13856505E-08
   27.2700005      -4.03652223E-08
   27.3299999      -3.94025008E-08
   27.3899994      -3.85062009E-08
   27.4500008      -3.76423017E-08
   27.5100002      -3.67434225E-08
   27.5699997      -3.57315848E-08
   27.6299992      -3.45464279E-08
   27.6900005      -3.31686216E-08
   27.7500000      -3.16297530E-08
   27.8099995      -3.00047027E-08
   27.8700008      -2.83890387E-08
   27.9300003      -2.68693796E-08
   27.9899998      -2.54971919E-08
   28.0499992      -2.42751934E-08
   28.1100006      -2.31607729E-08
   28.1700001      -2.20846523E-08
   28.2299995      -2.09776463E-08
   28.2900009      -1.97957277E-08
   28.3500004      -1.85346902E-08
   28.4099998      -1.72297785E-08
   28.4699993      -1.59412732E-08
   28.5300007      -1.47320396E-08
   28.5900002      -1.36454990E-08
   28.6499996      -1.26919355E-08
   28.7099991      -1.18475292E-08
   28.7700005      -1.10656684E-08
   28.8299999      -1.02956479E-08
   28.8899994      -9.50145207E-09
   28.9500008      -8.67367334E-09
   29.0100002      -7.83055754E-09
   29.0699997      -7.00835878E-09
   29.1299992      -6.24522301E-09
   29.1900005      -5.56502533E-09
   29.2500000      -4.96739272E-09
   29.3099995      -4.42763959E-09
   29.3700008      -3.90657640E-09
   29.4300003      -3.36652795E-09
   29.4899998      -2.78773915E-09
   29.5499992      -2.17930940E-09
   29.6100006      -1.58080338E-09
   29.6700001      -1.05389464E-09
   29.7299995      -6.66663058E-10
   29.7900009      -4.75427198E-10
   29.8500004      -5.09612186E-10
   29.9099998      -7.64110553E-10
   29.9699993      -1.20128751E-09
   30.0300007      -1.76199511E-09
   30.0900002      -2.38241560E-09
   30.1499996      -3.01190184E-09
   30.2099991      -3.62662922E-09
   30.2700005      -4.23493818E-09
   30.3299999      -4.87251972E-09
   30.3899994      -5.58861846E-09
   30.4500008      -6.42729692E-09
   30.5100002      -7.40969464E-09
   30.5699997      -8.52329585E-09
   30.6299992      -9.72226211E-09
   30.6900005      -1.09393428E-08
   30.7500000      -1.21057795E-08
   30.8099995      -1.31726265E-08
   30.8700008      -1.41260328E-08
   30.9300003      -1.49909081E-08
   30.9899998      -1.58214899E-08
   31.0499992      -1.66820513E-08
   31.1100006      -1.76246679E-08
   31.1700001      -1.86720026E-08
   31.2299995      -1.98111589E-08
   31.2900009      -2.10003623E-08
   31.3500004      -2.21853682E-08
   31.4099998      -2.33190054E-08
   31.4699993      -2.43762859E-08
   31.5300007      -2.53597143E-08
   31.5900002      -2.62934421E-08
   31.6499996      -2.72093992E-08
   31.7099991      -2.81314811E-08
   31.7700005      -2.90643332E-08
   31.8299999      -2.99910106E-08
   31.8899994      -3.08801056E-08
   31.9500008      -3.16990807E-08
   32.0099983      -3.24282787E-08
   32.0699997      -3.30700090E-08
   32.1300011      -3.36492150E-08
   32.1899986      -3.42053816E-08
   32.2500000      -3.47787115E-08
   32.3100014      -3.53952601E-08
   32.3699989      -3.60561287E-08
   32.4300003      -3.67339901E-08
   32.4900017      -3.73780971E-08
   32.5499992      -3.79260428E-08
   32.6100006      -3.83187810E-08
   32.6699982      -3.85148056E-08
   32.7299995      -3.84995218E-08
   32.7900009      -3.82875278E-08
   32.8499985      -3.79172889E-08
   32.9099998      -3.74397118E-08
   32.9700012      -3.69038737E-08
   33.0299988      -3.63438595E-08
   33.0900002      -3.57706931E-08
   33.1500015      -3.51719223E-08
   33.2099991      -3.45194522E-08
   33.2700005      -3.37835253E-08
   33.3300018      -3.29487975E-08
   33.3899994      -3.20272555E-08
   33.4500008      -3.10633403E-08
   33.5099983      -3.01286818E-08
   33.5699997      -2.93071221E-08
   33.6300011      -2.86739876E-08
   33.6899986      -2.82758936E-08
   33.7500000      -2.81178032E-08
   33.8100014      -2.81621251E-08
   33.8699989      -2.83409314E-08
   33.9300003      -2.85778352E-08
   33.9900017      -2.88124831E-08
   34.0499992      -2.90191462E-08
   34.1100006      -2.92124600E-08
   34.1699982      -2.94377198E-08
   34.2299995      -2.97486000E-08
   34.2900009      -3.01802814E-08
   34.3499985      -3.07281027E-08
   34.4099998      -3.13404769E-08
   34.4700012      -3.19299076E-08
   34.5299988      -3.23991820E-08
   34.5900002      -3.26738920E-08
   34.6500015      -3.27295311E-08
   34.7099991      -3.26030545E-08
   34.7700005      -3.23840190E-08
   34.8300018      -3.21881153E-08
   34.8899994      -3.21221130E-08
   34.9500008      -3.22525224E-08
   35.0099983      -3.25886482E-08
   35.0699997      -3.30852004E-08
   35.1300011      -3.36623884E-08
   35.1899986      -3.42350326E-08
   35.2500000      -3.47396423E-08
   35.3100014      -3.51496858E-08
   35.3699989      -3.54745247E-08
   35.4300003      -3.57439234E-08
   35.4900017      -3.59854084E-08
   35.5499992      -3.62039785E-08
   35.6100006      -3.63721533E-08
   35.6699982      -3.64338320E-08
   35.7299995      -3.63199391E-08
   35.7900009      -3.59695527E-08
   35.8499985      -3.53484069E-08
   35.9099998      -3.44582070E-08
   35.9700012      -3.33339614E-08
   36.0299988      -3.20310640E-08
   36.0900002      -3.06076089E-08
   36.1500015      -2.91086106E-08
   36.2099991      -2.75578600E-08
   36.2700005      -2.59598654E-08
   36.3300018      -2.43104967E-08
   36.3899994      -2.26117507E-08
   36.4500008      -2.08846060E-08
   36.5099983      -1.91747347E-08
   36.5699997      -1.75482970E-08
   36.6300011      -1.60787081E-08
   36.6899986      -1.48283430E-08
   36.7500000      -1.38310625E-08
   36.8100014      -1.30813440E-08
   36.8699989      -1.25338131E-08
   36.9300003      -1.21136843E-08
   36.9900017      -1.17352252E-08
   37.0499992      -1.13227436E-08
   37.1100006      -1.08278346E-08
   37.1699982      -1.02377422E-08
   37.2299995      -9.57251078E-09
   37.2900009      -8.87212792E-09
   37.3499985      -8.17808132E-09
   37.4099998      -7.51548423E-09
   37.4700012      -6.88186397E-09
   37.5299988      -6.24653573E-09
   37.5900002      -5.56114266E-09
   37.6500015      -4.77826045E-09
   37.7099991      -3.87219323E-09
   37.7700005      -2.85512414E-09
   37.8300018      -1.78293857E-09
   37.8899994      -7.48116125E-10
   37.9500008       1.38874121E-10
   38.0099983       7.74484421E-10
   38.0699997       1.08585463E-09
   38.1300011       1.04605624E-09
   38.1899986       6.75940859E-10
   38.2500000       3.19370363E-11
   38.3100014      -8.16248735E-10
   38.3699989      -1.81063553E-09
   38.4300003      -2.92426439E-09
   38.4900017      -4.16822488E-09
   38.5499992      -5.58404523E-09
   38.6100006      -7.22422167E-09
   38.6699982      -9.12788067E-09
   38.7299995      -1.13003846E-08
   38.7900009      -1.37042724E-08
   38.8499985      -1.62647567E-08
   38.9099998      -1.88876399E-08
   38.9700012      -2.14828511E-08
   39.0299988      -2.39847004E-08
   39.0900002      -2.63612776E-08
   39.1500015      -2.86096959E-08
   39.2099991      -3.07394501E-08
   39.2700005      -3.27509966E-08
   39.3300018      -3.46186901E-08
   39.3899994      -3.62857264E-08
   39.4500008      -3.76742264E-08
   39.5099983      -3.87075758E-08
   39.5699997      -3.93372268E-08
   39.6300011      -3.95639717E-08
   39.6899986      -3.94452400E-08
   39.7500000      -3.90846893E-08
   39.8100014      -3.86065473E-08
   39.8699989      -3.81225327E-08
   39.9300003      -3.77018630E-08
   39.9900017      -3.73539955E-08
   40.0499992      -3.70294515E-08
   40.1100006      -3.66382018E-08
   40.1699982      -3.60794559E-08
   40.2299995      -3.52731462E-08
   40.2900009      -3.41833655E-08
   40.3499985      -3.28269039E-08
   40.4099998      -3.12652553E-08
   40.4700012      -2.95838660E-08
   40.5299988      -2.78662782E-08
   40.5900002      -2.61720920E-08
   40.6500015      -2.45256331E-08
   40.7099991      -2.29181794E-08
   40.7700005      -2.13216129E-08
   40.8300018      -1.97074694E-08
   40.8899994      -1.80637389E-08
   40.9500008      -1.64029998E-08
   41.0099983      -1.47589203E-08
   41.0699997      -1.31726443E-08
   41.1300011      -1.16744241E-08
   41.1899986      -1.02676196E-08
   41.2500000      -8.92149554E-09
   41.3100014      -7.57621343E-09
   41.3699989      -6.15918783E-09
   41.4300003      -4.60802951E-09
   41.4900017      -2.89285818E-09
   41.5499992      -1.03069897E-09
   41.6100006       9.13125298E-10
   41.6699982       2.83779134E-09
   41.7299995       4.63083172E-09
   41.7900009       6.19642604E-09
   41.8499985       7.47993845E-09
   41.9099998       8.48138360E-09
   41.9700012       9.25364674E-09
   42.0299988       9.88584503E-09
   42.0900002       1.04767981E-08
   42.1500015       1.11067857E-08
   42.2099991       1.18164571E-08
   42.2700005       1.25995152E-08
   42.3300018       1.34113431E-08
   42.3899994       1.41903191E-08
   42.4500008       1.48841774E-08
   42.5099983       1.54719704E-08
   42.5699997       1.59736544E-08
   42.6300011       1.64438436E-08
   42.6899986       1.69520025E-08
   42.7500000       1.75564665E-08
   42.8100014       1.82821118E-08
   42.8699989       1.91101570E-08
   42.9300003       1.99842987E-08
   42.9900017       2.08311786E-08
   43.0499992       2.15878853E-08
   43.1100006       2.22264092E-08
   43.1699982       2.27660006E-08
   43.2299995       2.32686403E-08
   43.2900009       2.38188811E-08
   43.3499985       2.44949394E-08
   43.4099998       2.53409702E-08
   43.4700012       2.63501061E-08
   43.5299988       2.74640222E-08
   43.5900002       2.85891382E-08
   43.6500015       2.96239229E-08
   43.7099991       3.04880210E-08
   43.7700005       3.11435429E-08
   43.8300018       3.16016262E-08
   43.8899994       3.19124993E-08
   43.9500008       3.21429283E-08
   44.0099983       3.23491065E-08
   44.0699997       3.25544676E-08
   44.1300011       3.27400151E-08
   44.1899986       3.28502416E-08
   44.2500000       3.28121672E-08
   44.3100014       3.25605001E-08
   44.3699989       3.20598197E-08
   44.4300003       3.13159845E-08
   44.4900017       3.03730054E-08
   44.5499992       2.92969400E-08
   44.6100006       2.81531722E-08
   44.6699982       2.69856404E-08
   44.7299995       2.58057753E-08
   44.7900009       2.45951970E-08
   44.8499985       2.33211015E-08
   44.9099998       2.19586944E-08
   44.9700012       2.05126103E-08
   45.0299988       1.90297200E-08
   45.0900002       1.75989499E-08
   45.1500015       1.63383440E-08
   45.2099991       1.53741215E-08
   45.2700005       1.48190535E-08
   45.3300018       1.47578803E-08
   45.3899994       1.52450479E-08
   45.4500008       1.63162017E-08
   45.5099983       1.80105673E-08
   45.5699997       2.03981294E-08
   45.6300011       2.36042688E-08
   45.6899986       2.78255481E-08
   45.7500000       3.33335244E-08
   45.8100014       4.04673450E-08
   45.8699989       4.96197003E-08
   45.9300003       6.12228348E-08
   45.9900017       7.57414043E-08
   46.0499992       9.36767677E-08
   46.1100006       1.15584072E-07
   46.1699982       1.42099751E-07
   46.2299995       1.73974627E-07
   46.2900009       2.12107338E-07
   46.3499985       2.57573788E-07
   46.4099998       3.11651263E-07
   46.4700012       3.75837573E-07
   46.5299988       4.51868488E-07
   46.5900002       5.41736995E-07
   46.6500015       6.47717172E-07
   46.7099991       7.72396049E-07
   46.7700005       9.18713681E-07
   46.8300018       1.09001246E-06
   46.8899994       1.29009504E-06
   46.9500008       1.52328835E-06
   47.0099983       1.79451274E-06
   47.0699997       2.10935264E-06
   47.1300011       2.47412663E-06
   47.1899986       2.89595278E-06
   47.2500000       3.38281484E-06
   47.3100014       3.94362951E-06
   47.3699989       4.58832073E-06
   47.4300003       5.32790273E-06
   47.4900017       6.17458636E-06
   47.5499992       7.14189173E-06
   47.6100006       8.24477684E-06
   47.6699982       9.49976493E-06
   47.7299995       1.09250695E-05
   47.7900009       1.25406968E-05
   47.8499985       1.43685502E-05
   47.9099998       1.64325102E-05
   47.9700012       1.87585229E-05
   48.0299988       2.13746789E-05
   48.0900002       2.43113100E-05
   48.1500015       2.76010742E-05
   48.2099991       3.12790617E-05
   48.2700005       3.53828764E-05
   48.3300018       3.99526834E-05
   48.3899994       4.50312509E-05
   48.4500008       5.06639335E-05
   48.5099983       5.68986361E-05
   48.5699997       6.37857302E-05
   48.6300011       7.13780391E-05
   48.6899986       7.97306348E-05
   48.7500000       8.89008006E-05
   48.8100014       9.89478431E-05
   48.8699989       1.09932953E-04
   48.9300003       1.21918943E-04
   48.9900017       1.34969974E-04
   49.0499992       1.49151267E-04
   49.1100006       1.64528668E-04
   49.1699982       1.81168274E-04
   49.2299995       1.99135859E-04
   49.2900009       2.18496498E-04
   49.3499985       2.39313929E-04
   49.4099998       2.61650071E-04
   49.4700012       2.85564427E-04
   49.5299988       3.11113457E-04
   49.5900002       3.38350015E-04
   49.6500015       3.67322617E-04
   49.7099991       3.98074742E-04
   49.7700005       4.30644257E-04
   49.8300018       4.65062389E-04
   49.8899994       5.01353352E-04
   49.9500008       5.39533503E-04
   50.0099983       5.79610700E-04
   50.0699997       6.21583895E-04
   50.1300011       6.65442611E-04
   50.1899986       7.11166067E-04
   50.2500000       7.58723181E-04
   50.3100014       8.08072218E-04
   50.3699989       8.59160209E-04
   50.4300003       9.11922951E-04
   50.4900017       9.66285064E-04
   50.5499992       1.02215970E-03
   50.6100006       1.07944920E-03