  -2.400000      0.0000000E+00
  -2.340000      0.0000000E+00
  -2.280000      0.0000000E+00
  -2.220000      0.0000000E+00
  -2.160000      0.0000000E+00
  -2.100000     -5.7961131E-21
  -2.040000     -5.0887948E-20
  -1.980000     -2.3030021E-19
  -1.920000     -6.9886406E-19
  -1.860000     -1.5346103E-18
  -1.800000     -2.3608541E-18
  -1.740000     -1.7128538E-18
  -1.680000      3.6701491E-18
  -1.620000      1.9211923E-17
  -1.560000      5.1894261E-17
  -1.500000      1.0781136E-16
  -1.440000      1.8666320E-16
  -1.380000      2.7170681E-16
  -1.320000      3.1450050E-16
  -1.260000      2.1744662E-16
  -1.200000     -1.7494133E-16
  -1.140000     -1.0544477E-15
  -1.080000     -2.5690266E-15
  -1.020000     -4.6652656E-15
 -0.9600000     -6.8713036E-15
 -0.9000000     -8.1024470E-15
 -0.8400000     -6.6420377E-15
 -0.7800000     -4.8022321E-16
 -0.7200000      1.1872442E-14
 -0.6600000      3.0173411E-14
 -0.6000000      5.1207096E-14
 -0.5400000      6.8158647E-14
 -0.4800000      7.1330162E-14
 -0.4200000      5.0653475E-14
 -0.3600000     -2.2120522E-16
 -0.3000000     -7.9394709E-14
 -0.2400000     -1.7364833E-13
 -0.1800000     -2.5887842E-13
 -0.1200000     -3.0524349E-13
 -5.9999999E-02 -2.8644001E-13
  0.0000000E+00 -1.9033164E-13
  5.9999999E-02 -2.6548579E-14
  0.1200000      1.7329497E-13
  0.1800000      3.6486883E-13
  0.2400000      5.0789689E-13
  0.3000000      5.8400138E-13
  0.3600000      6.0658065E-13
  0.4200000      6.1488905E-13
  0.4800000      6.5021550E-13
  0.5400000      7.2089990E-13
  0.6000000      7.7141651E-13
  0.6600000      6.7446829E-13
  0.7200000      2.6049798E-13
  0.7800000     -6.1424791E-13
  0.8400000     -1.9783307E-12
  0.9000000     -3.6679067E-12
  0.9600000     -5.3010964E-12
   1.020000     -6.3331584E-12
   1.080000     -6.1956330E-12
   1.140000     -4.4881412E-12
   1.200000     -1.1617907E-12
   1.260000      3.3779574E-12
   1.320000      8.3046365E-12
   1.380000      1.2553465E-11
   1.440000      1.5110755E-11
   1.500000      1.5319281E-11
   1.560000      1.3089704E-11
   1.620000      8.9299618E-12
   1.680000      3.7646956E-12
   1.740000     -1.4044078E-12
   1.800000     -5.8783516E-12
   1.860000     -9.5328467E-12
   1.920000     -1.2861077E-11
   1.980000     -1.6742007E-11
   2.040000     -2.1990161E-11
   2.100000     -2.8831590E-11
   2.160000     -3.6493076E-11
   2.220000     -4.3069381E-11
   2.280000     -4.5753196E-11
   2.340000     -4.1402617E-11
   2.400000     -2.7320804E-11
   2.460000     -2.0655502E-12
   2.520000      3.3892372E-11
   2.580000      7.7793445E-11
   2.640000      1.2455699E-10
   2.700000      1.6709412E-10
   2.760000      1.9694049E-10
   2.820000      2.0518627E-10
   2.880000      1.8369001E-10
   2.940000      1.2654658E-10
   3.000000      3.1715859E-11
   3.060000     -9.7391289E-11
   3.120000     -2.5069094E-10
   3.180000     -4.1096093E-10
   3.240000     -5.5449140E-10
   3.300000     -6.5304051E-10
   3.360000     -6.7699824E-10
   3.420000     -5.9932237E-10
   3.480000     -3.9953058E-10
   3.540000     -6.6908520E-11
   3.600000      3.9780038E-10
   3.660000      9.8262209E-10
   3.720000      1.6664172E-09
   3.780000      2.4222133E-09
   3.840000      3.2208971E-09
   3.900000      4.0342836E-09
   3.960000      4.8368238E-09
   4.020000      5.6056870E-09
   4.080000      6.3195440E-09
   4.140000      6.9568493E-09
   4.200000      7.4946405E-09
   4.260000      7.9087483E-09
   4.320000      8.1758271E-09
   4.380000      8.2769693E-09
   4.440000      8.2020248E-09
   4.500000      7.9533296E-09
   4.560000      7.5475217E-09
   4.620000      7.0145401E-09
   4.680000      6.3936234E-09
   4.740000      5.7270242E-09
   4.800000      5.0528604E-09
   4.860000      4.3989279E-09
   4.920000      3.7790975E-09
   4.980000      3.1932843E-09
   5.040000      2.6309659E-09
   5.100000      2.0772217E-09
   5.160000      1.5195298E-09
   5.220000      9.5339125E-10
   5.280000      3.8525760E-10
   5.340000     -1.6787047E-10
   5.400000     -6.8176037E-10
   5.460000     -1.1299206E-09
   5.520000     -1.4885919E-09
   5.580000     -1.7403419E-09
   5.640000     -1.8755391E-09
   5.700000     -1.8918769E-09
   5.760000     -1.7928469E-09
   5.820000     -1.5863516E-09
   5.880000     -1.2843960E-09
   5.940000     -9.0409530E-10
   6.000000     -4.6938686E-10
   6.060000     -1.2183945E-11
   6.120000      4.2845108E-10
   6.180000      8.1007251E-10
   6.240000      1.0935517E-09
   6.300000      1.2515339E-09
   6.360000      1.2765100E-09
   6.420000      1.1859727E-09
   6.480000      1.0225265E-09
   6.540000      8.4796958E-10
   6.600000      7.3197987E-10
   6.660000      7.3767109E-10
   6.720000      9.0742086E-10
   6.780000      1.2526614E-09
   6.840000      1.7505722E-09
   6.900000      2.3489835E-09
   6.960000      2.9786709E-09
   7.020000      3.5701575E-09
   7.080000      4.0707340E-09
   7.140000      4.4570916E-09
   7.200000      4.7399071E-09
   7.260000      4.9587716E-09
   7.320000      5.1684887E-09
   7.380000      5.4203153E-09
   7.440000      5.7433911E-09
   7.500000      6.1319039E-09
   7.560000      6.5421943E-09
   7.620000      6.9013906E-09
   7.680000      7.1258297E-09
   7.740000      7.1445352E-09
   7.800000      6.9211867E-09
   7.860000      6.4680212E-09
   7.920000      5.8470162E-09
   7.980000      5.1571138E-09
   8.040000      4.5101580E-09
   8.100000      4.0015773E-09
   8.160000      3.6836159E-09
   8.220000      3.5485173E-09
   8.280000      3.5265455E-09
   8.340000      3.4997663E-09
   8.400000      3.3282026E-09
   8.460000      2.8815550E-09
   8.520000      2.0681727E-09
   8.580000      8.5381130E-10
   8.640000     -7.3433065E-10
   8.700000     -2.6185900E-09
   8.760000     -4.6929340E-09
   8.820000     -6.8493344E-09
   8.880000     -9.0007433E-09
   8.940000     -1.1094475E-08
   9.000000     -1.3113024E-08
   9.060000     -1.5063367E-08
   9.120000     -1.6959273E-08
   9.180000     -1.8803092E-08
   9.240000     -2.0573403E-08
   9.300000     -2.2222750E-08
   9.360000     -2.3686429E-08
   9.420000     -2.4899581E-08
   9.480000     -2.5817231E-08
   9.540000     -2.6430751E-08
   9.600000     -2.6775242E-08
   9.660000     -2.6924893E-08
   9.720000     -2.6977066E-08
   9.780000     -2.7029328E-08
   9.840000     -2.7155975E-08
   9.900000     -2.7390985E-08
   9.960000     -2.7722630E-08
   10.02000     -2.8101569E-08
   10.08000     -2.8460216E-08
   10.14000     -2.8737615E-08
   10.20000     -2.8902271E-08
   10.26000     -2.8965752E-08
   10.32000     -2.8982523E-08
   10.38000     -2.9035492E-08
   10.44000     -2.9211204E-08
   10.50000     -2.9571840E-08
   10.56000     -3.0132608E-08
   10.62000     -3.0851872E-08
   10.68000     -3.1637935E-08
   10.74000     -3.2371631E-08
   10.80000     -3.2938846E-08
   10.86000     -3.3263838E-08
   10.92000     -3.3333098E-08
   10.98000     -3.3201697E-08
   11.04000     -3.2978782E-08
   11.10000     -3.2795072E-08
   11.16000     -3.2760912E-08
   11.22000     -3.2926994E-08
   11.28000     -3.3259862E-08
   11.34000     -3.3640461E-08
   11.40000     -3.3887758E-08
   11.46000     -3.3801790E-08
   11.52000     -3.3214704E-08
   11.58000     -3.2035693E-08
   11.64000     -3.0277004E-08
   11.70000     -2.8053627E-08
   11.76000     -2.5556494E-08
   11.82000     -2.3006498E-08
   11.88000     -2.0601822E-08
   11.94000     -1.8472713E-08
   12.00000     -1.6655417E-08
   12.06000     -1.5091535E-08
   12.12000     -1.3651947E-08
   12.18000     -1.2177804E-08
   12.24000     -1.0526851E-08
   12.30000     -8.6122380E-09
   12.36000     -6.4235564E-09
   12.42000     -4.0251056E-09
   12.48000     -1.5328602E-09
   12.54000      9.2239660E-10
   12.60000      3.2345966E-09
   12.66000      5.3528475E-09
   12.72000      7.2939845E-09
   12.78000      9.1337791E-09
   12.84000      1.0979809E-08
   12.90000      1.2934519E-08
   12.96000      1.5059971E-08
   13.02000      1.7355239E-08
   13.08000      1.9753477E-08
   13.14000      2.2139634E-08
   13.20000      2.4383334E-08
   13.26000      2.6376844E-08
   13.32000      2.8066546E-08
   13.38000      2.9468485E-08
   13.44000      3.0663603E-08
   13.50000      3.1774501E-08
   13.56000      3.2931133E-08
   13.62000      3.4235804E-08
   13.68000      3.5737596E-08
   13.74000      3.7423035E-08
   13.80000      3.9224574E-08
   13.86000      4.1043126E-08
   13.92000      4.2776996E-08
   13.98000      4.4348294E-08
   14.04000      4.5719371E-08
   14.10000      4.6895568E-08
   14.16000      4.7914952E-08
   14.22000      4.8829712E-08
   14.28000      4.9685962E-08
   14.34000      5.0508532E-08
   14.40000      5.1295043E-08
   14.46000      5.2020223E-08
   14.52000      5.2647962E-08
   14.58000      5.3146330E-08
   14.64000      5.3500212E-08
   14.70000      5.3717489E-08
   14.76000      5.3826909E-08
   14.82000      5.3868753E-08
   14.88000      5.3881386E-08
   14.94000      5.3888098E-08
   15.00000      5.3888208E-08
   15.06000      5.3855150E-08
   15.12000      5.3742138E-08
   15.18000      5.3493835E-08
   15.24000      5.3060827E-08
   15.30000      5.2412961E-08
   15.36000      5.1547911E-08
   15.42000      5.0492631E-08
   15.48000      4.9297451E-08
   15.54000      4.8024518E-08
   15.60000      4.6733803E-08
   15.66000      4.5470529E-08
   15.72000      4.4257337E-08
   15.78000      4.3092928E-08
   15.84000      4.1957076E-08
   15.90000      4.0820076E-08
   15.96000      3.9653550E-08
   16.02000      3.8439421E-08
   16.08000      3.7174633E-08
   16.14000      3.5870567E-08
   16.20000      3.4547647E-08
   16.26000      3.3227092E-08
   16.32000      3.1922397E-08
   16.38000      3.0633288E-08
   16.44000      2.9344273E-08
   16.50000      2.8028703E-08
   16.56000      2.6657721E-08
   16.62000      2.5211945E-08
   16.68000      2.3692616E-08
   16.74000      2.2128571E-08
   16.80000      2.0576078E-08
   16.86000      1.9110356E-08
   16.92000      1.7809985E-08
   16.98000      1.6737797E-08
   17.04000      1.5923529E-08
   17.10000      1.5353551E-08
   17.16000      1.4971372E-08
   17.22000      1.4689647E-08
   17.28000      1.4410879E-08
   17.34000      1.4051134E-08
   17.40000      1.3559997E-08
   17.46000      1.2930937E-08
   17.52000      1.2199211E-08
   17.58000      1.1428308E-08
   17.64000      1.0689515E-08
   17.70000      1.0041234E-08
   17.76000      9.5145536E-09
   17.82000      9.1093124E-09
   17.88000      8.8012637E-09
   17.94000      8.5572411E-09
   18.00000      8.3525267E-09
   18.06000      8.1839824E-09
   18.12000      8.0739255E-09
   18.18000      8.0628775E-09
   18.24000      8.1930667E-09
   18.30000      8.4878051E-09
   18.36000      8.9334726E-09
   18.42000      9.4703738E-09
   18.48000      9.9962909E-09
   18.54000      1.0382832E-08
   18.60000      1.0500815E-08
   18.66000      1.0248060E-08
   18.72000      9.5720454E-09
   18.78000      8.4810541E-09
   18.84000      7.0406316E-09
   18.90000      5.3563287E-09
   18.96000      3.5476584E-09
   19.02000      1.7208086E-09
   19.08000     -5.2022525E-11
   19.14000     -1.7409030E-09
   19.20000     -3.3522800E-09
   19.26000     -4.9118403E-09
   19.32000     -6.4428534E-09
   19.38000     -7.9483762E-09
   19.44000     -9.4044132E-09
   19.50000     -1.0767288E-08
   19.56000     -1.1993261E-08
   19.62000     -1.3063704E-08
   19.68000     -1.4006621E-08
   19.74000     -1.4906046E-08
   19.80000     -1.5894578E-08
   19.86000     -1.7129864E-08
   19.92000     -1.8761245E-08
   19.98000     -2.0896088E-08
   20.04000     -2.3575534E-08
   20.10000     -2.6766468E-08
   20.16000     -3.0371591E-08
   20.22000     -3.4254203E-08
   20.28000     -3.8270397E-08
   20.34000     -4.2299742E-08
   20.40000     -4.6266770E-08
   20.46000     -5.0148369E-08
   20.52000     -5.3966573E-08
   20.58000     -5.7769817E-08
   20.64000     -6.1608567E-08
   20.70000     -6.5512289E-08
   20.76000     -6.9473984E-08
   20.82000     -7.3446245E-08
   20.88000     -7.7349611E-08
   20.94000     -8.1090718E-08
   21.00000     -8.4585054E-08
   21.06000     -8.7777757E-08
   21.12000     -9.0656492E-08
   21.18000     -9.3252524E-08
   21.24000     -9.5629446E-08
   21.30000     -9.7862561E-08
   21.36000     -1.0001471E-07
   21.42000     -1.0211537E-07
   21.48000     -1.0414926E-07
   21.54000     -1.0605749E-07
   21.60000     -1.0775128E-07
   21.66000     -1.0913403E-07
   21.72000     -1.1012563E-07
   21.78000     -1.1068190E-07
   21.84000     -1.1080402E-07
   21.90000     -1.1053569E-07
   21.96000     -1.0994932E-07
   22.02000     -1.0912600E-07
   22.08000     -1.0813481E-07
   22.14000     -1.0701761E-07
   22.20000     -1.0578254E-07
   22.26000     -1.0440749E-07
   22.32000     -1.0285138E-07
   22.38000     -1.0106971E-07
   22.44000     -9.9029911E-08
   22.50000     -9.6722545E-08
   22.56000     -9.4165785E-08
   22.62000     -9.1402363E-08
   22.68000     -8.8490111E-08
   22.74000     -8.5488509E-08
   22.80000     -8.2445176E-08
   22.86000     -7.9386020E-08
   22.92000     -7.6312311E-08
   22.98000     -7.3206088E-08
   23.04000     -7.0042709E-08
   23.10000     -6.6806955E-08
   23.16000     -6.3507400E-08
   23.22000     -6.0184085E-08
   23.28000     -5.6905943E-08
   23.34000     -5.3758267E-08
   23.40000     -5.0823495E-08
   23.46000     -4.8161304E-08
   23.52000     -4.5794302E-08
   23.58000     -4.3703846E-08
   23.64000     -4.1837236E-08
   23.70000     -4.0123730E-08
   23.76000     -3.8494321E-08
   23.82000     -3.6899198E-08
   23.88000     -3.5318028E-08
   23.94000     -3.3760859E-08
   24.00000     -3.2260328E-08
   24.06000     -3.0858502E-08
   24.12000     -2.9592794E-08
   24.18000     -2.8485294E-08
   24.24000     -2.7538274E-08
   24.30000     -2.6736657E-08
   24.36000     -2.6055940E-08
   24.42000     -2.5472508E-08
   24.48000     -2.4972673E-08
   24.54000     -2.4557286E-08
   24.60000     -2.4240350E-08
   24.66000     -2.4042171E-08
   24.72000     -2.3979529E-08
   24.78000     -2.4056449E-08
   24.84000     -2.4259039E-08
   24.90000     -2.4556467E-08
   24.96000     -2.4907925E-08
   25.02000     -2.5273337E-08
   25.08000     -2.5624287E-08
   25.14000     -2.5951618E-08
   25.20000     -2.6267395E-08
   25.26000     -2.6600881E-08
   25.32000     -2.6989975E-08
   25.38000     -2.7470760E-08
   25.44000     -2.8067937E-08
   25.50000     -2.8788291E-08
   25.56000     -2.9618224E-08
   25.62000     -3.0525470E-08
   25.68000     -3.1464307E-08
   25.74000     -3.2383269E-08
   25.80000     -3.3234045E-08
   25.86000     -3.3979973E-08
   25.92000     -3.4602408E-08
   25.98000     -3.5103209E-08
   26.04000     -3.5502215E-08
   26.10000     -3.5829665E-08
   26.16000     -3.6114947E-08
   26.22000     -3.6374562E-08
   26.28000     -3.6602714E-08
   26.34000     -3.6767457E-08
   26.40000     -3.6813937E-08
   26.46000     -3.6673892E-08
   26.52000     -3.6278692E-08
   26.58000     -3.5572000E-08
   26.64000     -3.4518401E-08
   26.70000     -3.3105959E-08
   26.76000     -3.1342726E-08
   26.82000     -2.9249421E-08
   26.88000     -2.6851367E-08
   26.94000     -2.4172680E-08
   27.00000     -2.1234117E-08
   27.06000     -1.8054333E-08
   27.12000     -1.4652828E-08
   27.18000     -1.1052510E-08
   27.24000     -7.2804900E-09
   27.30000     -3.3670657E-09
   27.36000      6.5601374E-10
   27.42000      4.7565001E-09
   27.48000      8.9008996E-09
   27.54000      1.3052338E-08
   27.60000      1.7168453E-08
   27.66000      2.1201092E-08
   27.72000      2.5098904E-08
   27.78000      2.8812533E-08
   27.84000      3.2300736E-08
   27.90000      3.5535141E-08
   27.96000      3.8501895E-08
   28.02000      4.1199712E-08
   28.08000      4.3635552E-08
   28.14000      4.5819768E-08
   28.20000      4.7762473E-08
   28.26000      4.9471726E-08
   28.32000      5.0952703E-08
   28.38000      5.2206467E-08
   28.44000      5.3227403E-08
   28.50000      5.3999727E-08
   28.56000      5.4494961E-08
   28.62000      5.4672991E-08
   28.68000      5.4488403E-08
   28.74000      5.3901843E-08
   28.80000      5.2893448E-08
   28.86000      5.1473982E-08
   28.92000      4.9689071E-08
   28.98000      4.7614197E-08
   29.04000      4.5341061E-08
   29.10000      4.2959190E-08
   29.16000      4.0538339E-08
   29.22000      3.8117069E-08
   29.28000      3.5700637E-08
   29.34000      3.3268485E-08
   29.40000      3.0788573E-08
   29.46000      2.8234274E-08
   29.52000      2.5599082E-08
   29.58000      2.2905617E-08
   29.64000      2.0206922E-08
   29.70000      1.7579930E-08
   29.76000      1.5112505E-08
   29.82000      1.2886739E-08
   29.88000      1.0961984E-08
   29.94000      9.3614627E-09
   30.00000      8.0659222E-09
   30.06000      7.0165518E-09
   30.12000      6.1271521E-09
   30.18000      5.3030869E-09
   30.24000      4.4623643E-09
   30.30000      3.5532586E-09
   30.36000      2.5636828E-09
   30.42000      1.5198298E-09
   30.48000      4.7472748E-10
   30.54000     -5.0978893E-10
   30.60000     -1.3825880E-09
   30.66000     -2.1191613E-09
   30.72000     -2.7303513E-09
   30.78000     -3.2624448E-09
   30.84000     -3.7892542E-09
   30.90000     -4.3982822E-09
   30.96000     -5.1737583E-09
   31.02000     -6.1796173E-09
   31.08000     -7.4454953E-09
   31.14000     -8.9586871E-09
   31.20000     -1.0664452E-08
   31.26000     -1.2475747E-08
   31.32000     -1.4291366E-08
   31.38000     -1.6018951E-08
   31.44000     -1.7597205E-08
   31.50000     -1.9011086E-08
   31.56000     -2.0295108E-08
   31.62000     -2.1523219E-08
   31.68000     -2.2787781E-08
   31.74000     -2.4173783E-08
   31.80000     -2.5735915E-08
   31.86000     -2.7485019E-08
   31.92000     -2.9387353E-08
   31.98000     -3.1375869E-08
   32.04000     -3.3369297E-08
   32.10000     -3.5293027E-08
   32.16000     -3.7096271E-08
   32.22000     -3.8761907E-08
   32.28000     -4.0308034E-08
   32.34000     -4.1782361E-08
   32.40000     -4.3251841E-08
   32.46000     -4.4790088E-08
   32.52000     -4.6464837E-08
   32.58000     -4.8327323E-08
   32.64000     -5.0405085E-08
   32.70000     -5.2699370E-08
   32.76000     -5.5187698E-08
   32.82000     -5.7830871E-08
   32.88000     -6.0582607E-08
   32.94000     -6.3398730E-08
   33.00000     -6.6242833E-08
   33.06000     -6.9086610E-08
   33.12000     -7.1904793E-08
   33.18000     -7.4667305E-08
   33.24000     -7.7332267E-08
   33.30000     -7.9843360E-08
   33.36000     -8.2133255E-08
   33.42000     -8.4131933E-08
   33.48000     -8.5776492E-08
   33.54000     -8.7018023E-08
   33.60000     -8.7822634E-08
   33.66000     -8.8166161E-08
   33.72000     -8.8025445E-08
   33.78000     -8.7370630E-08
   33.84000     -8.6162935E-08
   33.90000     -8.4359975E-08
   33.96000     -8.1927524E-08
   34.02000     -7.8853624E-08
   34.08000     -7.5160138E-08
   34.14000     -7.0907717E-08
   34.20000     -6.6192747E-08
   34.26000     -6.1137754E-08
   34.32000     -5.5878395E-08
   34.38000     -5.0550547E-08
   34.44000     -4.5279904E-08
   34.50000     -4.0174896E-08
   34.56000     -3.5322721E-08
   34.62000     -3.0788016E-08
   34.68000     -2.6614131E-08
   34.74000     -2.2827194E-08
   34.80000     -1.9442915E-08
   34.86000     -1.6474901E-08
   34.92000     -1.3942013E-08
   34.98000     -1.1871725E-08
   35.04000     -1.0297365E-08
   35.10000     -9.2492467E-09
   35.16000     -8.7424095E-09
   35.22000     -8.7654666E-09
   35.28000     -9.2750625E-09
   35.34000     -1.0198349E-08
   35.40000     -1.1442629E-08
   35.46000     -1.2908401E-08
   35.52000     -1.4500820E-08
   35.58000     -1.6135779E-08
   35.64000     -1.7739792E-08
   35.70000     -1.9246126E-08
   35.76000     -2.0591573E-08
   35.82000     -2.1717801E-08
   35.88000     -2.2578572E-08
   35.94000     -2.3150436E-08
   36.00000     -2.3441865E-08
   36.06000     -2.3495387E-08
   36.12000     -2.3379510E-08
   36.18000     -2.3171422E-08
   36.24000     -2.2935454E-08
   36.30000     -2.2704526E-08
   36.36000     -2.2471241E-08
   36.42000     -2.2192026E-08
   36.48000     -2.1803100E-08
   36.54000     -2.1243064E-08
   36.60000     -2.0474740E-08
   36.66000     -1.9499467E-08
   36.72000     -1.8359779E-08
   36.78000     -1.7130128E-08
   36.84000     -1.5898808E-08
   36.90000     -1.4746464E-08
   36.96000     -1.3727107E-08
   37.02000     -1.2856609E-08
   37.08000     -1.2111646E-08
   37.14000     -1.1439498E-08
   37.20000     -1.0776429E-08
   37.26000     -1.0070005E-08
   37.32000     -9.2993204E-09
   37.38000     -8.4869782E-09
   37.44000     -7.6984428E-09
   37.50000     -7.0277233E-09
   37.56000     -6.5726065E-09
   37.62000     -6.4064971E-09
   37.68000     -6.5558110E-09
   37.74000     -6.9908563E-09
   37.80000     -7.6341626E-09
   37.86000     -8.3844229E-09
   37.92000     -9.1486951E-09
   37.98000     -9.8722746E-09
   38.04000     -1.0556136E-08
   38.10000     -1.1256005E-08
   38.16000     -1.2063483E-08
   38.22000     -1.3075800E-08
   38.28000     -1.4364501E-08
   38.34000     -1.5953139E-08
   38.40000     -1.7810489E-08
   38.46000     -1.9859955E-08
   38.52000     -2.2000572E-08
   38.58000     -2.4131820E-08
   38.64000     -2.6174503E-08
   38.70000     -2.8082544E-08
   38.76000     -2.9844376E-08
   38.82000     -3.1475942E-08
   38.88000     -3.3009123E-08
   38.94000     -3.4479481E-08
   39.00000     -3.5916116E-08
   39.06000     -3.7335091E-08
   39.12000     -3.8736935E-08
   39.18000     -4.0108137E-08
   39.24000     -4.1426222E-08
   39.30000     -4.2667214E-08
   39.36000     -4.3813614E-08
   39.42000     -4.4860261E-08
   39.48000     -4.5815813E-08
   39.54000     -4.6698808E-08
   39.60000     -4.7529454E-08
   39.66000     -4.8320285E-08
   39.72000     -4.9069698E-08
   39.78000     -4.9761450E-08
   39.84000     -5.0370716E-08
   39.90000     -5.0874437E-08
   39.96000     -5.1261619E-08
   40.02000     -5.1539093E-08
   40.08000     -5.1730254E-08
   40.14000     -5.1867282E-08
   40.20000     -5.1980170E-08
   40.26000     -5.2087088E-08
   40.32000     -5.2189755E-08
   40.38000     -5.2275194E-08
   40.44000     -5.2322463E-08
   40.50000     -5.2311186E-08
   40.56000     -5.2228518E-08
   40.62000     -5.2072490E-08
   40.68000     -5.1851682E-08
   40.74000     -5.1582685E-08
   40.80000     -5.1287373E-08
   40.86000     -5.0991154E-08
   40.92000     -5.0722331E-08
   40.98000     -5.0511392E-08
   41.04000     -5.0388781E-08
   41.10000     -5.0380525E-08
   41.16000     -5.0502070E-08
   41.22000     -5.0752039E-08
   41.28000     -5.1108003E-08
   41.34000     -5.1526044E-08
   41.40000     -5.1944834E-08
   41.46000     -5.2293561E-08
   41.52000     -5.2502120E-08
   41.58000     -5.2511329E-08
   41.64000     -5.2281326E-08
   41.70000     -5.1796611E-08
   41.76000     -5.1067190E-08
   41.82000     -5.0125909E-08
   41.88000     -4.9022589E-08
   41.94000     -4.7816108E-08
   42.00000     -4.6565749E-08
   42.06000     -4.5323308E-08
   42.12000     -4.4127450E-08
   42.18000     -4.3001332E-08
   42.24000     -4.1953996E-08
   42.30000     -4.0985174E-08
   42.36000     -4.0092345E-08
   42.42000     -3.9278213E-08
   42.48000     -3.8556678E-08
   42.54000     -3.7955530E-08
   42.60000     -3.7514784E-08
   42.66000     -3.7280547E-08
   42.72000     -3.7295440E-08
   42.78000     -3.7587423E-08
   42.84000     -3.8159889E-08
   42.90000     -3.8985803E-08
   42.96000     -4.0008409E-08
   43.02000     -4.1149587E-08
   43.08000     -4.2325070E-08
   43.14000     -4.3463469E-08
   43.20000     -4.4524313E-08
   43.26000     -4.5509687E-08
   43.32000     -4.6465168E-08
   43.38000     -4.7468419E-08
   43.44000     -4.8607632E-08
   43.50000     -4.9955382E-08
   43.56000     -5.1545562E-08
   43.62000     -5.3360683E-08
   43.68000     -5.5333690E-08
   43.74000     -5.7364328E-08
   43.80000     -5.9345101E-08
   43.86000     -6.1189084E-08
   43.92000     -6.2851413E-08
   43.98000     -6.4338508E-08
   44.04000     -6.5703468E-08
   44.10000     -6.7030342E-08
   44.16000     -6.8412930E-08
   44.22000     -6.9934863E-08
   44.28000     -7.1655990E-08
   44.34000     -7.3607481E-08
   44.40000     -7.5794993E-08
   44.46000     -7.8207435E-08
   44.52000     -8.0827945E-08
   44.58000     -8.3644451E-08
   44.64000     -8.6657764E-08
   44.70000     -8.9886605E-08
   44.76000     -9.3369053E-08
   44.82000     -9.7160971E-08
   44.88000     -1.0133225E-07
   44.94000     -1.0596296E-07
   45.00000     -1.1114179E-07
   45.06000     -1.1696930E-07
   45.12000     -1.2356722E-07
   45.18000     -1.3109272E-07
   45.24000     -1.3975411E-07
   45.30000     -1.4982335E-07
   45.36000     -1.6164132E-07
   45.42000     -1.7561437E-07
   45.48000     -1.9220508E-07
   45.54000     -2.1192277E-07
   45.60000     -2.3532056E-07
   45.66000     -2.6300324E-07
   45.72000     -2.9564657E-07
   45.78000     -3.3402347E-07
   45.84000     -3.7902981E-07
   45.90000     -4.3170323E-07
   45.96000     -4.9323160E-07
   46.02000     -5.6495293E-07
   46.08000     -6.4835325E-07
   46.14000     -7.4507000E-07
   46.20000     -8.5690777E-07
   46.26000     -9.8586702E-07
   46.32000     -1.1341851E-06
   46.38000     -1.3043788E-06
   46.44000     -1.4992838E-06
   46.50000     -1.7220824E-06
   46.56000     -1.9763193E-06
   46.62000     -2.2659069E-06
   46.68000     -2.5951267E-06
   46.74000     -2.9686335E-06
   46.80000     -3.3914687E-06
   46.86000     -3.8690837E-06
   46.92000     -4.4073777E-06
   46.98000     -5.0127401E-06
   47.04000     -5.6921008E-06
   47.10000     -6.4529713E-06
   47.16000     -7.3034767E-06
   47.22000     -8.2523693E-06
   47.28000     -9.3090257E-06
   47.34000     -1.0483426E-05
   47.40000     -1.1786124E-05
   47.46000     -1.3228206E-05
   47.52000     -1.4821271E-05
   47.58000     -1.6577413E-05
   47.64000     -1.8509209E-05
   47.70000     -2.0629726E-05
   47.76000     -2.2952523E-05
   47.82000     -2.5491616E-05
   47.88000     -2.8261449E-05
   47.94000     -3.1276806E-05
   48.00000     -3.4552711E-05
   48.06000     -3.8104328E-05
   48.12000     -4.1946805E-05
   48.18000     -4.6095211E-05
   48.24000     -5.0564377E-05
   48.30000     -5.5368837E-05
   48.36000     -6.0522725E-05
   48.42000     -6.6039654E-05
   48.48000     -7.1932613E-05
   48.54000     -7.8213794E-05
   48.60000     -8.4894455E-05
   48.66000     -9.1984715E-05
   48.72000     -9.9493409E-05
   48.78000     -1.0742788E-04
   48.84000     -1.1579385E-04
   48.90000     -1.2459522E-04
   48.96000     -1.3383401E-04
   49.02000     -1.4351022E-04
   49.08000     -1.5362173E-04
   49.14000     -1.6416420E-04
   49.20000     -1.7513102E-04
   49.26000     -1.8651322E-04
   49.32000     -1.9829937E-04
   49.38000     -2.1047555E-04
   49.44000     -2.2302532E-04
   49.50000     -2.3592953E-04
   49.56000     -2.4916665E-04
   49.62000     -2.6271254E-04
   49.68000     -2.7654081E-04
   49.74000     -2.9062279E-04
   49.80000     -3.0492785E-04
   49.86000     -3.1942345E-04
   49.92000     -3.3407542E-04
   49.98000     -3.4884817E-04
   50.04000     -3.6370492E-04
   50.10000     -3.7860795E-04
   50.16000     -3.9351883E-04
   50.22000     -4.0839886E-04
   50.28000     -4.2320922E-04
   50.34000     -4.3791140E-04
   50.40000     -4.5246759E-04
   50.46000     -4.6684098E-04
   50.52000     -4.8099607E-04
   50.58000     -4.9489900E-04
   50.64000     -5.0851802E-04
   50.70000     -5.2182371E-04
   50.76000     -5.3478917E-04
   50.82000     -5.4739043E-04
   50.88000     -5.5960671E-04
   50.94000     -5.7142007E-04
   51.00000     -5.8281654E-04
   51.06000     -5.9378572E-04
   51.12000     -6.0432078E-04
   51.18000     -6.1441876E-04
   51.24000     -6.2408048E-04
   51.30000     -6.3331076E-04
   51.36000     -6.4211781E-04
   51.42000     -6.5051357E-04
   51.48000     -6.5851316E-04
   51.54000     -6.6613511E-04
   51.60000     -6.7340070E-04
   51.66000     -6.8033376E-04
   51.72000     -6.8696053E-04
   51.78000     -6.9330918E-04
   51.84000     -6.9940952E-04
   51.90000     -7.0529233E-04
   51.96000     -7.1098947E-04
   52.02000     -7.1653276E-04
   52.08000     -7.2195404E-04
   52.14000     -7.2728418E-04
   52.20000     -7.3255319E-04
   52.26000     -7.3778915E-04
   52.32000     -7.4301846E-04
   52.38000     -7.4826524E-04
   52.44000     -7.5355085E-04
   52.50000     -7.5889373E-04
   52.56000     -7.6430931E-04
   52.62000     -7.6980930E-04
   52.68000     -7.7540177E-04
   52.74000     -7.8109099E-04
   52.80000     -7.8687718E-04
   52.86000     -7.9275668E-04
   52.92000     -7.9872191E-04
   52.98000     -8.0476160E-04
   53.04000     -8.1086060E-04
   53.10000     -8.1700052E-04
   53.16000     -8.2315924E-04
   53.22000     -8.2931208E-04
   53.28000     -8.3543162E-04
   53.34000     -8.4148819E-04
   53.40000     -8.4745046E-04
   53.46000     -8.5328537E-04
   53.52000     -8.5895922E-04
   53.58000     -8.6443766E-04
   53.64000     -8.6968625E-04
   53.70000     -8.7467104E-04
   53.76000     -8.7935885E-04
   53.82000     -8.8371820E-04
   53.88000     -8.8771892E-04
   53.94000     -8.9133339E-04
   54.00000     -8.9453638E-04
   54.06000     -8.9730584E-04
   54.12000     -8.9962303E-04
   54.18000     -9.0147287E-04
   54.24000     -9.0284395E-04
   54.30000     -9.0372859E-04
   54.36000     -9.0412307E-04
   54.42000     -9.0402743E-04
   54.48000     -9.0344576E-04
   54.54000     -9.0238603E-04
   54.60000     -9.0085989E-04
   54.66000     -8.9888292E-04
   54.72000     -8.9647400E-04
   54.78000     -8.9365488E-04
   54.84000     -8.9045049E-04
   54.90000     -8.8688789E-04
   54.96000     -8.8299601E-04
   55.02000     -8.7880553E-04
   55.08000     -8.7434851E-04
   55.14000     -8.6965784E-04
   55.20000     -8.6476648E-04
   55.26000     -8.5970730E-04
   55.32000     -8.5451233E-04
   55.38000     -8.4921223E-04
   55.44000     -8.4383611E-04
   55.50000     -8.3841122E-04
   55.56000     -8.3296222E-04