 -0.750000000       0.00000000    
 -0.689999998       0.00000000    
 -0.629999995       0.00000000    
 -0.569999993       0.00000000    
 -0.509999990       0.00000000    
 -0.449999988       1.79238790E-22
 -0.389999986       6.53410686E-22
 -0.330000013      -2.17546461E-21
 -0.270000011      -2.63720915E-20
 -0.209999993      -1.18149270E-19
 -0.150000006      -3.44953211E-19
  -9.00000036E-02  -7.26195560E-19
  -2.99999993E-02  -1.07407665E-18
   2.99999993E-02  -7.95123021E-19
   9.00000036E-02   1.16315398E-18
  0.150000006       5.93114928E-18
  0.209999993       1.36852185E-17
  0.270000011       2.21235328E-17
  0.330000013       2.52406306E-17
  0.389999986       1.37614391E-17
  0.449999988      -2.14362334E-17
  0.509999990      -8.26932260E-17
  0.569999993      -1.57699932E-16
  0.629999995      -2.14787928E-16
  0.689999998      -2.06918939E-16
  0.750000000      -8.81046548E-17
  0.810000002       1.59410555E-16
  0.870000005       4.96572483E-16
  0.930000007       8.13433585E-16
  0.990000010       9.46188106E-16
   1.04999995       7.33353873E-16
   1.11000001       1.01367483E-16
   1.16999996      -8.51593267E-16
   1.23000002      -1.81970756E-15
   1.28999996      -2.34471764E-15
   1.35000002      -1.97764405E-15
   1.40999997      -5.13178829E-16
   1.47000003       1.79143424E-15
   1.52999997       4.13399554E-15
   1.59000003       5.32641803E-15
   1.64999998       4.22195949E-15
   1.71000004       3.10064140E-16
   1.76999998      -5.75234178E-15
   1.83000004      -1.19707312E-14
   1.88999999      -1.54408313E-14
   1.95000005      -1.34007981E-14
   2.00999999      -4.62197970E-15
   2.06999993       9.43675934E-15
   2.13000011       2.43893464E-14
   2.19000006       3.40608516E-14
   2.25000000       3.29225240E-14
   2.30999994       1.90290407E-14
   2.36999989      -3.89816294E-15
   2.43000007      -2.66474448E-14
   2.49000001      -3.76735589E-14
   2.54999995      -2.86271149E-14
   2.60999990      -1.55962734E-16
   2.67000008       3.50420715E-14
   2.73000002       5.45854086E-14
   2.78999996       3.49824472E-14
   2.84999990      -3.57502791E-14
   2.91000009      -1.46431221E-13
   2.97000003      -2.58268233E-13
   3.02999997      -3.12387946E-13
   3.08999991      -2.49825686E-13
   3.15000010      -3.86961750E-14
   3.21000004       3.01587829E-13
   3.26999998       6.90596018E-13
   3.32999992       9.99725693E-13
   3.39000010       1.08783750E-12
   3.45000005       8.50396305E-13
   3.50999999       2.65530463E-13
   3.56999993      -5.81141905E-13
   3.63000011      -1.50545266E-12
   3.69000006      -2.26856424E-12
   3.75000000      -2.64391850E-12
   3.80999994      -2.48572755E-12
   3.86999989      -1.77528879E-12
   3.93000007      -6.28069699E-13
   3.99000001       7.42064396E-13
   4.05000019       2.08954880E-12
   4.11000013       3.21092458E-12
   4.17000008       3.99830646E-12
   4.23000002       4.45162093E-12
   4.28999996       4.64366306E-12
   4.34999990       4.65043802E-12
   4.40999985       4.47443124E-12
   4.46999979       3.99433915E-12
   4.53000021       2.96819687E-12
   4.59000015       1.09903579E-12
   4.65000010      -1.85098269E-12
   4.71000004      -5.93225469E-12
   4.76999998      -1.09088511E-11
   4.82999992      -1.62268116E-11
   4.88999987      -2.10675800E-11
   4.94999981      -2.44768875E-11
   5.01000023      -2.55328467E-11
   5.07000017      -2.35002625E-11
   5.13000011      -1.79165675E-11
   5.19000006      -8.57047159E-12
   5.25000000       4.63515641E-12
   5.30999994       2.19059406E-11
   5.36999989       4.37961369E-11
   5.42999983       7.13742052E-11
   5.48999977       1.06223183E-10
   5.55000019       1.50219490E-10
   5.61000013       2.05097689E-10
   5.67000008       2.71885764E-10
   5.73000002       3.50357909E-10
   5.78999996       4.38673320E-10
   5.84999990       5.33331046E-10
   5.90999985       6.29482688E-10
   5.96999979       7.21532500E-10
   6.03000021       8.03864364E-10
   6.09000015       8.71502592E-10
   6.15000010       9.20554244E-10
   6.21000004       9.48378598E-10
   6.26999998       9.53542023E-10
   6.32999992       9.35690747E-10
   6.38999987       8.95484686E-10
   6.44999981       8.34667557E-10
   6.51000023       7.56242291E-10
   6.57000017       6.64621913E-10
   6.63000011       5.65581137E-10
   6.69000006       4.65872063E-10
   6.75000000       3.72479630E-10
   6.80999994       2.91626834E-10
   6.86999989       2.27758465E-10
   6.92999983       1.82770396E-10
   6.98999977       1.55702340E-10
   7.05000019       1.42989412E-10
   7.11000013       1.39215625E-10
   7.17000008       1.38184214E-10
   7.23000002       1.34064218E-10
   7.28999996       1.22383104E-10
   7.34999990       1.00708192E-10
   7.40999985       6.89493324E-11
   7.46999979       2.92881761E-11
   7.53000021      -1.42123292E-11
   7.59000015      -5.62394124E-11
   7.65000010      -9.10071463E-11
   7.71000004      -1.13059194E-10
   7.76999998      -1.17965443E-10
   7.82999992      -1.02790297E-10
   7.88999987      -6.62611424E-11
   7.94999981      -8.65338790E-12
   8.01000023       6.85024815E-11
   8.06999969       1.62736241E-10
   8.13000011       2.70843958E-10
   8.18999958       3.88944960E-10
   8.25000000       5.12471343E-10
   8.31000042       6.36253605E-10
   8.36999989       7.54854956E-10
   8.43000031       8.63207561E-10
   8.48999977       9.57443680E-10
   8.55000019       1.03568609E-09
   8.60999966       1.09852172E-09
   8.67000008       1.14897536E-09
   8.72999954       1.19197463E-09
   8.78999996       1.23348931E-09
   8.85000038       1.27965194E-09
   8.90999985       1.33615430E-09
   8.97000027       1.40808720E-09
   9.02999973       1.50019785E-09
   9.09000015       1.61736879E-09
   9.14999962       1.76504311E-09
   9.21000004       1.94937533E-09
   9.27000046       2.17702367E-09
   9.32999992       2.45467024E-09
   9.39000034       2.78847612E-09
   9.44999981       3.18369442E-09
   9.51000023       3.64458219E-09
   9.56999969       4.17458912E-09
   9.63000011       4.77667061E-09
   9.68999958       5.45348566E-09
   9.75000000       6.20728402E-09
   9.81000042       7.03939795E-09
   9.86999989       7.94941535E-09
   9.93000031       8.93423291E-09
   9.98999977       9.98721461E-09
   10.0500002       1.10976792E-08
   10.1099997       1.22507746E-08
   10.1700001       1.34277833E-08
   10.2299995       1.46067656E-08
   10.2900000       1.57634794E-08
   10.3500004       1.68724945E-08
   10.4099998       1.79083859E-08
   10.4700003       1.88468992E-08
   10.5299997       1.96659027E-08
   10.5900002       2.03460484E-08
   10.6499996       2.08710667E-08
   10.7100000       2.12278550E-08
   10.7700005       2.14065334E-08
   10.8299999       2.14006555E-08
   10.8900003       2.12076454E-08
   10.9499998       2.08292352E-08
   11.0100002       2.02716048E-08
   11.0699997       1.95448866E-08
   11.1300001       1.86619840E-08
   11.1899996       1.76369923E-08
   11.2500000       1.64837584E-08
   11.3100004       1.52152158E-08
   11.3699999       1.38437510E-08
   11.4300003       1.23824515E-08
   11.4899998       1.08465841E-08
   11.5500002       9.25450117E-09
   11.6099997       7.62736541E-09
   11.6700001       5.98758332E-09
   11.7299995       4.35635172E-09
   11.7900000       2.75110068E-09
   11.8500004       1.18357280E-09
   11.9099998      -3.40997425E-10
   11.9700003      -1.82357651E-09
   12.0299997      -3.27017302E-09
   12.0900002      -4.69022066E-09
   12.1499996      -6.09482464E-09
   12.2100000      -7.49506590E-09
   12.2700005      -8.90048302E-09
   12.3299999      -1.03178790E-08
   12.3900003      -1.17506280E-08
   12.4499998      -1.31986484E-08
   12.5100002      -1.46590233E-08
   12.5699997      -1.61270393E-08
   12.6300001      -1.75972144E-08
   12.6899996      -1.90638918E-08
   12.7500000      -2.05211492E-08
   12.8100004      -2.19620624E-08
   12.8699999      -2.33777087E-08
   12.9300003      -2.47563090E-08
   12.9899998      -2.60829403E-08
   13.0500002      -2.73399685E-08
   13.1099997      -2.85081310E-08
   13.1700001      -2.95680440E-08
   13.2299995      -3.05017949E-08
   13.2900000      -3.12943733E-08
   13.3500004      -3.19346611E-08
   13.4099998      -3.24158478E-08
   13.4700003      -3.27351977E-08
   13.5299997      -3.28932508E-08
   13.5900002      -3.28927321E-08
   13.6499996      -3.27375247E-08
   13.7100000      -3.24321334E-08
   13.7700005      -3.19819122E-08
   13.8299999      -3.13939701E-08
   13.8900003      -3.06783683E-08
   13.9499998      -2.98490228E-08
   14.0100002      -2.89237381E-08
   14.0699997      -2.79229777E-08
   14.1300001      -2.68676352E-08
   14.1899996      -2.57762505E-08
   14.2500000      -2.46625582E-08
   14.3100004      -2.35340920E-08
   14.3699999      -2.23922605E-08
   14.4300003      -2.12339035E-08
   14.4899998      -2.00538253E-08
   14.5500002      -1.88476292E-08
   14.6099997      -1.76141395E-08
   14.6700001      -1.63569176E-08
   14.7299995      -1.50846322E-08
   14.7900000      -1.38104177E-08
   14.8500004      -1.25504602E-08
   14.9099998      -1.13222214E-08
   14.9700003      -1.01426778E-08
   15.0299997      -9.02690100E-09
   15.0900002      -7.98720468E-09
   15.1499996      -7.03291736E-09
   15.2100000      -6.17064178E-09
   15.2700005      -5.40464784E-09
   15.3299999      -4.73691841E-09
   15.3900003      -4.16641566E-09
   15.4499998      -3.68739439E-09
   15.5100002      -3.28704264E-09
   15.5699997      -2.94316771E-09
   15.6300001      -2.62292787E-09
   15.6899996      -2.28353536E-09
   15.7500000      -1.87540317E-09
   15.8100004      -1.34752065E-09
   15.8699999      -6.54145793E-10
   15.9300003       2.38522702E-10
   15.9899998       1.34705180E-09
   16.0499992       2.66784017E-09
   16.1100006       4.17692281E-09
   16.1700001       5.83228266E-09
   16.2299995       7.57802976E-09
   16.2900009       9.34966060E-09
   16.3500004       1.10796501E-08
   16.4099998       1.27028326E-08
   16.4699993       1.41611514E-08
   16.5300007       1.54074780E-08
   16.5900002       1.64082987E-08
   16.6499996       1.71451067E-08
   16.7099991       1.76145054E-08
   16.7700005       1.78270660E-08
   16.8299999       1.78052346E-08
   16.8899994       1.75804278E-08
   16.9500008       1.71896719E-08
   17.0100002       1.66719722E-08
   17.0699997       1.60647140E-08
   17.1299992       1.54004542E-08
   17.1900005       1.47045371E-08
   17.2500000       1.39939189E-08
   17.3099995       1.32774414E-08
   17.3700008       1.25574848E-08
   17.4300003       1.18325181E-08
   17.4899998       1.10998348E-08
   17.5499992       1.03577209E-08
   17.6100006       9.60653068E-09
   17.6700001       8.84864182E-09
   17.7299995       8.08765765E-09
   17.7900009       7.32756344E-09
   17.8500004       6.57242971E-09
   17.9099998       5.82697890E-09
   17.9699993       5.09780262E-09
   18.0300007       4.39467485E-09
   18.0900002       3.73124465E-09
   18.1499996       3.12457304E-09
   18.2099991       2.59334731E-09
   18.2700005       2.15502882E-09
   18.3299999       1.82249416E-09
   18.3899994       1.60083335E-09
   18.4500008       1.48490198E-09
   18.5100002       1.45806001E-09
   18.5699997       1.49233093E-09
   18.6299992       1.55003910E-09
   18.6900005       1.58678104E-09
   18.7500000       1.55538449E-09
   18.8099995       1.41031087E-09
   18.8700008       1.11185361E-09
   18.9300003       6.29531538E-10
   18.9899998      -5.56637479E-11
   19.0499992      -9.50155732E-10
   19.1100006      -2.04745731E-09
   19.1700001      -3.32812755E-09
   19.2299995      -4.75963446E-09
   19.2900009      -6.29606900E-09
   19.3500004      -7.87805643E-09
   19.4099998      -9.43348422E-09
   19.4699993      -1.08796838E-08
   19.5300007      -1.21274937E-08
   19.5900002      -1.30872344E-08
   19.6499996      -1.36762601E-08
   19.7099991      -1.38273952E-08
   19.7700005      -1.34973570E-08
   19.8299999      -1.26740547E-08
   19.8899994      -1.13815313E-08
   19.9500008      -9.68132952E-09
   20.0100002      -7.66927588E-09
   20.0699997      -5.46731949E-09
   20.1299992      -3.21099769E-09
   20.1900005      -1.03417275E-09
   20.2500000       9.46447809E-10
   20.3099995       2.64421618E-09
   20.3700008       4.01053635E-09
   20.4300003       5.03672437E-09
   20.4899998       5.74992542E-09
   20.5499992       6.20453600E-09
   20.6100006       6.47126397E-09
   20.6700001       6.62601440E-09
   20.7299995       6.74023504E-09
   20.7900009       6.87363100E-09
   20.8500004       7.06945880E-09
   20.9099998       7.35225081E-09
   20.9699993       7.72767006E-09
   21.0300007       8.18420443E-09
   21.0900002       8.69637518E-09
   21.1499996       9.22901577E-09
   21.2099991       9.74200898E-09
   21.2700005       1.01948059E-08
   21.3299999       1.05501439E-08
   21.3899994       1.07766649E-08
   21.4500008       1.08504565E-08
   21.5100002       1.07557367E-08
   21.5699997       1.04849542E-08
   21.6299992       1.00384208E-08
   21.6900005       9.42341405E-09
   21.7500000       8.65267147E-09
   21.8099995       7.74226905E-09
   21.8700008       6.70923495E-09
   21.9300003       5.56940050E-09
   21.9899998       4.33607950E-09
   22.0499992       3.01985459E-09
   22.1100006       1.62930491E-09
   22.1700001       1.72041603E-10
   22.2299995      -1.34476286E-09
   22.2900009      -2.91496471E-09
   22.3500004      -4.53521309E-09
   22.4099998      -6.20728002E-09
   22.4699993      -7.93988963E-09
   22.5300007      -9.74894920E-09
   22.5900002      -1.16555414E-08
   22.6499996      -1.36818112E-08
   22.7099991      -1.58456128E-08
   22.7700005      -1.81552480E-08
   22.8299999      -2.06056185E-08
   22.8899994      -2.31766180E-08
   22.9500008      -2.58340087E-08
   23.0100002      -2.85323729E-08
   23.0699997      -3.12194288E-08
   23.1299992      -3.38408874E-08
   23.1900005      -3.63452415E-08
   23.2500000      -3.86879719E-08
   23.3099995      -4.08348022E-08
   23.3700008      -4.27637445E-08
   23.4300003      -4.44655690E-08
   23.4899998      -4.59427056E-08
   23.5499992      -4.72066617E-08
   23.6100006      -4.82745435E-08
   23.6700001      -4.91653935E-08
   23.7299995      -4.98970110E-08
   23.7900009      -5.04837168E-08
   23.8500004      -5.09350748E-08
   23.9099998      -5.12552454E-08
   23.9699993      -5.14425658E-08
   24.0300007      -5.14893799E-08
   24.0900002      -5.13822727E-08
   24.1499996      -5.11034095E-08
   24.2099991      -5.06332967E-08
   24.2700005      -4.99550410E-08
   24.3299999      -4.90592953E-08
   24.3899994      -4.79485323E-08
   24.4500008      -4.66393217E-08
   24.5100002      -4.51616806E-08
   24.5699997      -4.35555556E-08
   24.6299992      -4.18655546E-08
   24.6900005      -4.01353937E-08
   24.7500000      -3.84036198E-08
   24.8099995      -3.67014401E-08
   24.8700008      -3.50525156E-08
   24.9300003      -3.34740626E-08
   24.9899998      -3.19781819E-08
   25.0499992      -3.05728456E-08
   25.1100006      -2.92621500E-08
   25.1700001      -2.80463031E-08
   25.2299995      -2.69216667E-08
   25.2900009      -2.58812474E-08
   25.3500004      -2.49157033E-08
   25.4099998      -2.40147422E-08
   25.4699993      -2.31687043E-08
   25.5300007      -2.23702177E-08
   25.5900002      -2.16157616E-08
   25.6499996      -2.09069846E-08
   25.7099991      -2.02514396E-08
   25.7700005      -1.96622754E-08
   25.8299999      -1.91565750E-08
   25.8899994      -1.87524414E-08
   25.9500008      -1.84653750E-08
   26.0100002      -1.83049984E-08
   26.0699997      -1.82731359E-08
   26.1299992      -1.83639965E-08
   26.1900005      -1.85663751E-08
   26.2500000      -1.88672065E-08
   26.3099995      -1.92552569E-08
   26.3700008      -1.97238847E-08
   26.4300003      -2.02721644E-08
   26.4899998      -2.09044071E-08
   26.5499992      -2.16286171E-08
   26.6100006      -2.24547509E-08
   26.6700001      -2.33935236E-08
   26.7299995      -2.44561562E-08
   26.7900009      -2.56548649E-08
   26.8500004      -2.70035621E-08
   26.9099998      -2.85178743E-08
   26.9699993      -3.02137408E-08
   27.0300007      -3.21041398E-08
   27.0900002      -3.41941480E-08
   27.1499996      -3.64752637E-08
   27.2099991      -3.89204864E-08
   27.2700005      -4.14818899E-08
   27.3299999      -4.40921895E-08
   27.3899994      -4.66708734E-08
   27.4500008      -4.91343464E-08
   27.5100002      -5.14081400E-08
   27.5699997      -5.34385549E-08
   27.6299992      -5.52009318E-08
   27.6900005      -5.67023157E-08
   27.7500000      -5.79778288E-08
   27.8099995      -5.90814473E-08
   27.8700008      -6.00732903E-08
   27.9300003      -6.10063964E-08
   27.9899998      -6.19159195E-08
   28.0499992      -6.28130934E-08
   28.1100006      -6.36851780E-08
   28.1700001      -6.45011653E-08
   28.2299995      -6.52218048E-08
   28.2900009      -6.58113422E-08
   28.3500004      -6.62479991E-08
   28.4099998      -6.65304469E-08
   28.4699993      -6.66783677E-08
   28.5300007      -6.67268978E-08
   28.5900002      -6.67164031E-08
   28.6499996      -6.66807551E-08
   28.7099991      -6.66375897E-08
   28.7700005      -6.65838868E-08
   28.8299999      -6.64982167E-08
   28.8899994      -6.63490027E-08
   28.9500008      -6.61059829E-08
   29.0100002      -6.57508750E-08
   29.0699997      -6.52835439E-08
   29.1299992      -6.47215970E-08
   29.1900005      -6.40934488E-08
   29.2500000      -6.34272439E-08
   29.3099995      -6.27392680E-08
   29.3700008      -6.20255420E-08
   29.4300003      -6.12593638E-08
   29.4899998      -6.03956067E-08
   29.5499992      -5.93807314E-08
   29.6100006      -5.81659840E-08
   29.6700001      -5.67202569E-08
   29.7299995      -5.50393331E-08
   29.7900009      -5.31488524E-08
   29.8500004      -5.10998852E-08
   29.9099998      -4.89577516E-08
   29.9699993      -4.67866990E-08
   30.0300007      -4.46343407E-08
   30.0900002      -4.25202202E-08
   30.1499996      -4.04320417E-08
   30.2099991      -3.83310095E-08
   30.2700005      -3.61650798E-08
   30.3299999      -3.38862947E-08
   30.3899994      -3.14670601E-08
   30.4500008      -2.89103124E-08
   30.5100002      -2.62504027E-08
   30.5699997      -2.35445032E-08
   30.6299992      -2.08572928E-08
   30.6900005      -1.82437674E-08
   30.7500000      -1.57355107E-08
   30.8099995      -1.33345948E-08
   30.8700008      -1.10167173E-08
   30.9300003      -8.74237305E-09
   30.9899998      -6.47234932E-09
   31.0499992      -4.18264712E-09
   31.1100006      -1.87420057E-09
   31.1700001       4.25478291E-10
   31.2299995       2.66906008E-09
   31.2900009       4.80226081E-09
   31.3500004       6.77865275E-09
   31.4099998       8.57179039E-09
   31.4699993       1.01810098E-08
   31.5300007       1.16294192E-08
   31.5900002       1.29551445E-08
   31.6499996       1.41989620E-08
   31.7099991       1.53923789E-08
   31.7700005       1.65497820E-08
   31.8299999       1.76666344E-08
   31.8899994       1.87236093E-08
   31.9500008       1.96946228E-08
   32.0099983       2.05557100E-08
   32.0699997       2.12915854E-08
   32.1300011       2.18977991E-08
   32.1899986       2.23779519E-08
   32.2500000       2.27370496E-08
   32.3100014       2.29734489E-08
   32.3699989       2.30723387E-08
   32.4300003       2.30033734E-08
   32.4900017       2.27238441E-08
   32.5499992       2.21870309E-08
   32.6100006       2.13536158E-08
   32.6699982       2.02027923E-08
   32.7299995       1.87394793E-08
   32.7900009       1.69950862E-08
   32.8499985       1.50211541E-08
   32.9099998       1.28774973E-08
   32.9700012       1.06182574E-08
   33.0299988       8.27997759E-09
   33.0900002       5.87511906E-09
   33.1500015       3.39267303E-09
   33.2099991       8.05231271E-10
   33.2700005      -1.92002503E-09
   33.3300018      -4.80995110E-09
   33.3899994      -7.87697552E-09
   33.4500008      -1.11155938E-08
   33.5099983      -1.45041357E-08
   33.5699997      -1.80104962E-08
   33.6300011      -2.15995044E-08
   33.6899986      -2.52394230E-08
   33.7500000      -2.89055748E-08
   33.8100014      -3.25802780E-08
   33.8699989      -3.62494035E-08
   33.9300003      -3.98969711E-08
   33.9900017      -4.34997780E-08
   34.0499992      -4.70242192E-08
   34.1100006      -5.04267987E-08
   34.1699982      -5.36589013E-08
   34.2299995      -5.66750771E-08
   34.2900009      -5.94428293E-08
   34.3499985      -6.19510061E-08
   34.4099998      -6.42138858E-08
   34.4700012      -6.62688748E-08
   34.5299988      -6.81675232E-08
   34.5900002      -6.99613665E-08
   34.6500015      -7.16863937E-08
   34.7099991      -7.33504564E-08
   34.7700005      -7.49276836E-08
   34.8300018      -7.63620562E-08
   34.8899994      -7.75796423E-08
   34.9500008      -7.85062184E-08
   35.0099983      -7.90852965E-08
   35.0699997      -7.92911550E-08
   35.1300011      -7.91332440E-08
   35.1899986      -7.86508139E-08
   35.2500000      -7.78997773E-08
   35.3100014      -7.69361463E-08
   35.3699989      -7.58010756E-08
   35.4300003      -7.45121582E-08
   35.4900017      -7.30630276E-08
   35.5499992      -7.14309110E-08
   35.6100006      -6.95892268E-08
   35.6699982      -6.75209719E-08
   35.7299995      -6.52287113E-08
   35.7900009      -6.27381596E-08
   35.8499985      -6.00947843E-08
   35.9099998      -5.73545975E-08
   35.9700012      -5.45724568E-08
   36.0299988      -5.17915026E-08
   36.0900002      -4.90369878E-08
   36.1500015      -4.63162522E-08
   36.2099991      -4.36245315E-08
   36.2700005      -4.09546921E-08
   36.3300018      -3.83075580E-08
   36.3899994      -3.56996850E-08
   36.4500008      -3.31662022E-08
   36.5099983      -3.07580308E-08
   36.5699997      -2.85344921E-08
   36.6300011      -2.65535842E-08
   36.6899986      -2.48627394E-08
   36.7500000      -2.34924400E-08
   36.8100014      -2.24539658E-08
   36.8699989      -2.17413341E-08
   36.9300003      -2.13363460E-08
   36.9900017      -2.12150333E-08
   37.0499992      -2.13537756E-08
   37.1100006      -2.17336265E-08
   37.1699982      -2.23420145E-08
   37.2299995      -2.31715696E-08
   37.2900009      -2.42163924E-08
   37.3499985      -2.54666261E-08
   37.4099998      -2.69025406E-08
   37.4700012      -2.84896373E-08
   37.5299988      -3.01761389E-08
   37.5900002      -3.18939222E-08
   37.6500015      -3.35630901E-08
   37.7099991      -3.50995961E-08
   37.7700005      -3.64243036E-08
   37.8300018      -3.74715974E-08
   37.8899994      -3.81955871E-08
   37.9500008      -3.85725762E-08
   38.0099983      -3.85994490E-08
   38.0699997      -3.82885155E-08
   38.1300011      -3.76601363E-08
   38.1899986      -3.67349529E-08
   38.2500000      -3.55273180E-08
   38.3100014      -3.40413600E-08
   38.3699989      -3.22704814E-08
   38.4300003      -3.02003222E-08
   38.4900017      -2.78146217E-08
   38.5499992      -2.51027217E-08
   38.6100006      -2.20671286E-08
   38.6699982      -1.87294145E-08
   38.7299995      -1.51330823E-08
   38.7900009      -1.13426708E-08
   38.8499985      -7.43915285E-09
   38.9099998      -3.51247631E-09
   38.9700012       3.47335521E-10
   39.0299988       4.05896383E-09
   39.0900002       7.55701457E-09
   39.1500015       1.07966374E-08
   39.2099991       1.37549891E-08
   39.2700005       1.64294907E-08
   39.3300018       1.88332816E-08
   39.3899994       2.09887414E-08
   39.4500008       2.29202470E-08
   39.5099983       2.46476350E-08
   39.5699997       2.61817483E-08
   39.6300011       2.75230523E-08
   39.6899986       2.86635906E-08
   39.7500000       2.95916287E-08
   39.8100014       3.02975600E-08
   39.8699989       3.07791943E-08
   39.9300003       3.10447632E-08
   39.9900017       3.11125881E-08
   40.0499992       3.10075130E-08
   40.1100006       3.07551389E-08
   40.1699982       3.03756025E-08
   40.2299995       2.98788336E-08
   40.2900009       2.92626829E-08
   40.3499985       2.85145028E-08
   40.4099998       2.76156218E-08
   40.4700012       2.65472870E-08
   40.5299988       2.52962735E-08
   40.5900002       2.38583926E-08
   40.6500015       2.22390106E-08
   40.7099991       2.04506510E-08
   40.7700005       1.85088229E-08
   40.8300018       1.64278564E-08
   40.8899994       1.42183412E-08
   40.9500008       1.18870993E-08
   41.0099983       9.43946077E-09
   41.0699997       6.88259449E-09
   41.1300011       4.22825108E-09
   41.1899986       1.49356627E-09
   41.2500000      -1.30038869E-09
   41.3100014      -4.13151824E-09
   41.3699989      -6.97952940E-09
   41.4300003      -9.82710979E-09
   41.4900017      -1.26587052E-08
   41.5499992      -1.54573225E-08
   41.6100006      -1.82008204E-08
   41.6699982      -2.08595861E-08
   41.7299995      -2.33970550E-08
   41.7900009      -2.57734634E-08
   41.8499985      -2.79519785E-08
   41.9099998      -2.99054292E-08
   41.9700012      -3.16215463E-08
   42.0299988      -3.31050032E-08
   42.0900002      -3.43756348E-08
   42.1500015      -3.54630494E-08
   42.2099991      -3.63991859E-08
   42.2700005      -3.72105866E-08
   42.3300018      -3.79125069E-08
   42.3899994      -3.85063963E-08
   42.4500008      -3.89814616E-08
   42.5099983      -3.93199855E-08
   42.5699997      -3.95048936E-08
   42.6300011      -3.95274355E-08
   42.6899986      -3.93925887E-08
   42.7500000      -3.91205397E-08
   42.8100014      -3.87435897E-08
   42.8699989      -3.82994365E-08
   42.9300003      -3.78228258E-08
   42.9900017      -3.73382036E-08
   43.0499992      -3.68556208E-08
   43.1100006      -3.63709169E-08
   43.1699982      -3.58699914E-08
   43.2299995      -3.53354075E-08
   43.2900009      -3.47530573E-08
   43.3499985      -3.41166633E-08
   43.4099998      -3.34288792E-08
   43.4700012      -3.26989884E-08
   43.5299988      -3.19384483E-08
   43.5900002      -3.11562154E-08
   43.6500015      -3.03557606E-08
   43.7099991      -2.95349771E-08
   43.7700005      -2.86890049E-08
   43.8300018      -2.78148988E-08
   43.8899994      -2.69163021E-08
   43.9500008      -2.60063544E-08
   44.0099983      -2.51074646E-08
   44.0699997      -2.42477824E-08
   44.1300011      -2.34551738E-08
   44.1899986      -2.27503794E-08
   44.2500000      -2.21413039E-08
   44.3100014      -2.16202078E-08
   44.3699989      -2.11647890E-08
   44.4300003      -2.07432169E-08
   44.4900017      -2.03221031E-08
   44.5499992      -1.98756407E-08
   44.6100006      -1.93936174E-08
   44.6699982      -1.88862082E-08
   44.7299995      -1.83840978E-08
   44.7900009      -1.79336954E-08
   44.8499985      -1.75885830E-08
   44.9099998      -1.73995218E-08
   44.9700012      -1.74058830E-08
   45.0299988      -1.76309225E-08
   45.0900002      -1.80821154E-08
   45.1500015      -1.87560136E-08
   45.2099991      -1.96454479E-08
   45.2700005      -2.07461106E-08
   45.3300018      -2.20596696E-08
   45.3899994      -2.35920421E-08
   45.4500008      -2.53472905E-08
   45.5099983      -2.73194463E-08
   45.5699997      -2.94857347E-08
   45.6300011      -3.18043796E-08
   45.6899986      -3.42188855E-08
   45.7500000      -3.66684922E-08
   45.8100014      -3.91022184E-08
   45.8699989      -4.14923917E-08
   45.9300003      -4.38432863E-08
   45.9900017      -4.61918184E-08
   46.0499992      -4.85995031E-08
   46.1100006      -5.11377714E-08
   46.1699982      -5.38709948E-08
   46.2299995      -5.68424454E-08
   46.2900009      -6.00677481E-08
   46.3499985      -6.35379678E-08
   46.4099998      -6.72317526E-08
   46.4700012      -7.11329307E-08
   46.5299988      -7.52486997E-08
   46.5900002      -7.96236819E-08
   46.6500015      -8.43466239E-08
   46.7099991      -8.95493741E-08
   46.7700005      -9.53996846E-08
   46.8300018      -1.02091512E-07
   46.8899994      -1.09836236E-07
   46.9500008      -1.18857848E-07
   47.0099983      -1.29393541E-07
   47.0699997      -1.41699530E-07
   47.1300011      -1.56061148E-07
   47.1899986      -1.72805215E-07
   47.2500000      -1.92313038E-07
   47.3100014      -2.15032372E-07
   47.3699989      -2.41487072E-07
   47.4300003      -2.72284041E-07
   47.4900017      -3.08118075E-07
   47.5499992      -3.49775860E-07
   47.6100006      -3.98141083E-07
   47.6699982      -4.54202734E-07
   47.7299995      -5.19068294E-07
   47.7900009      -5.93981213E-07
   47.8499985      -6.80342112E-07
   47.9099998      -7.79730556E-07
   47.9700012      -8.93925801E-07
   48.0299988      -1.02492459E-06
   48.0900002      -1.17495608E-06
   48.1500015      -1.34649622E-06
   48.2099991      -1.54228110E-06
   48.2700005      -1.76532478E-06
   48.3300018      -2.01893772E-06
   48.3899994      -2.30674777E-06
   48.4500008      -2.63272182E-06
   48.5099983      -3.00118495E-06
   48.5699997      -3.41683653E-06
   48.6300011      -3.88476747E-06
   48.6899986      -4.41047086E-06
   48.7500000      -4.99985845E-06
   48.8100014      -5.65927530E-06
   48.8699989      -6.39551536E-06
   48.9300003      -7.21583820E-06
   48.9900017      -8.12798407E-06
   49.0499992      -9.14019074E-06
   49.1100006      -1.02611866E-05
   49.1699982      -1.15001949E-05
   49.2299995      -1.28669144E-05
   49.2900009      -1.43714969E-05
   49.3499985      -1.60245163E-05
   49.4099998      -1.78369337E-05
   49.4700012      -1.98200432E-05
   49.5299988      -2.19854355E-05
   49.5900002      -2.43449394E-05
   49.6500015      -2.69105658E-05
   49.7099991      -2.96944509E-05
   49.7700005      -3.27087982E-05
   49.8300018      -3.59658188E-05
   49.8899994      -3.94776325E-05
   49.9500008      -4.32562119E-05
   50.0099983      -4.73132750E-05
   50.0699997      -5.16601613E-05
   50.1300011      -5.63077447E-05
   50.1899986      -6.12662698E-05
   50.2500000      -6.65452462E-05
   50.3100014      -7.21533361E-05
   50.3699989      -7.80981718E-05
   50.4300003      -8.43862872E-05
   50.4900017      -9.10229064E-05
   50.5499992      -9.80119585E-05
   50.6100006      -1.05355844E-04