  -2.400000      0.0000000E+00
  -2.340000      0.0000000E+00
  -2.280000      0.0000000E+00
  -2.220000      0.0000000E+00
  -2.160000     -7.4298397E-18
  -2.100000     -5.0908606E-17
  -2.040000     -1.7995656E-16
  -1.980000     -4.2077855E-16
  -1.920000     -6.7669383E-16
  -1.860000     -6.1063791E-16
  -1.800000      3.9308774E-16
  -1.740000      3.0578667E-15
  -1.680000      7.7431009E-15
  -1.620000      1.3721075E-14
  -1.560000      1.8484600E-14
  -1.500000      1.7610540E-14
  -1.440000      5.7903575E-15
  -1.380000     -2.0637736E-14
  -1.320000     -6.0078129E-14
  -1.260000     -1.0250469E-13
  -1.200000     -1.2914287E-13
  -1.140000     -1.1732678E-13
  -1.080000     -5.1068125E-14
  -1.020000      6.5548763E-14
 -0.9600000      1.9883606E-13
 -0.9000000      2.8835371E-13
 -0.8400000      2.6802009E-13
 -0.7800000      1.0328447E-13
 -0.7200000     -1.6926612E-13
 -0.6600000     -4.2283798E-13
 -0.6000000     -4.6513189E-13
 -0.5400000     -1.1631400E-13
 -0.4800000      6.7667703E-13
 -0.4200000      1.7359934E-12
 -0.3600000      2.6223637E-12
 -0.3000000      2.7306566E-12
 -0.2400000      1.5192559E-12
 -0.1800000     -1.1867260E-12
 -0.1200000     -4.9415138E-12
 -5.9999999E-02 -8.6205496E-12
  0.0000000E+00 -1.0661832E-11
  5.9999999E-02 -9.6003119E-12
  0.1200000     -4.7450655E-12
  0.1800000      3.2680263E-12
  0.2400000      1.2340071E-11
  0.3000000      1.9375421E-11
  0.3600000      2.1313829E-11
  0.4200000      1.6426567E-11
  0.4800000      5.3780240E-12
  0.5400000     -8.4671463E-12
  0.6000000     -1.9807756E-11
  0.6600000     -2.3169945E-11
  0.7200000     -1.5160670E-11
  0.7800000      3.6122832E-12
  0.8400000      2.7805536E-11
  0.9000000      4.8324900E-11
  0.9600000      5.4974726E-11
   1.020000      4.0054602E-11
   1.080000      1.7074548E-12
   1.140000     -5.4257057E-11
   1.200000     -1.1494160E-10
   1.260000     -1.6344483E-10
   1.320000     -1.8365902E-10
   1.380000     -1.6530766E-10
   1.440000     -1.0754870E-10
   1.500000     -1.9857248E-11
   1.560000      8.0230461E-11
   1.620000      1.7187435E-10
   1.680000      2.3668367E-10
   1.740000      2.6359501E-10
   1.800000      2.5128249E-10
   1.860000      2.0734058E-10
   1.920000      1.4458165E-10
   1.980000      7.5779327E-11
   2.040000      8.7205495E-12
   2.100000     -5.6672767E-11
   2.160000     -1.2809948E-10
   2.220000     -2.1753173E-10
   2.280000     -3.3586628E-10
   2.340000     -4.8741378E-10
   2.400000     -6.6620731E-10
   2.460000     -8.5559804E-10
   2.520000     -1.0315736E-09
   2.580000     -1.1689928E-09
   2.640000     -1.2488574E-09
   2.700000     -1.2642060E-09
   2.760000     -1.2224309E-09
   2.820000     -1.1427969E-09
   2.880000     -1.0494520E-09
   2.940000     -9.6181818E-10
   3.000000     -8.8539948E-10
   3.060000     -8.0629109E-10
   3.120000     -6.9180417E-10
   3.180000     -4.9777366E-10
   3.240000     -1.8082842E-10
   3.300000      2.8806682E-10
   3.360000      9.1338231E-10
   3.420000      1.6720392E-09
   3.480000      2.5194531E-09
   3.540000      3.4033678E-09
   3.600000      4.2813690E-09
   3.660000      5.1363185E-09
   3.720000      5.9842518E-09
   3.780000      6.8715944E-09
   3.840000      7.8621323E-09
   3.900000      9.0178078E-09
   3.960000      1.0379714E-08
   4.020000      1.1955764E-08
   4.080000      1.3719195E-08
   4.140000      1.5618216E-08
   4.200000      1.7593084E-08
   4.260000      1.9594150E-08
   4.320000      2.1594163E-08
   4.380000      2.3590353E-08
   4.440000      2.5595801E-08
   4.500000      2.7623795E-08
   4.560000      2.9671698E-08
   4.620000      3.1711153E-08
   4.680000      3.3689059E-08
   4.740000      3.5539610E-08
   4.800000      3.7203321E-08
   4.860000      3.8645954E-08
   4.920000      3.9870098E-08
   4.980000      4.0914575E-08
   5.040000      4.1841339E-08
   5.100000      4.2714124E-08
   5.160000      4.3576264E-08
   5.220000      4.4435613E-08
   5.280000      4.5262009E-08
   5.340000      4.5998430E-08
   5.400000      4.6582194E-08
   5.460000      4.6969181E-08
   5.520000      4.7153154E-08
   5.580000      4.7173977E-08
   5.640000      4.7112206E-08
   5.700000      4.7071897E-08
   5.760000      4.7156735E-08
   5.820000      4.7446441E-08
   5.880000      4.7979473E-08
   5.940000      4.8746159E-08
   6.000000      4.9693018E-08
   6.060000      5.0736176E-08
   6.120000      5.1779775E-08
   6.180000      5.2734560E-08
   6.240000      5.3532307E-08
   6.300000      5.4133331E-08
   6.360000      5.4526314E-08
   6.420000      5.4721642E-08
   6.480000      5.4740962E-08
   6.540000      5.4606513E-08
   6.600000      5.4333409E-08
   6.660000      5.3927117E-08
   6.720000      5.3386390E-08
   6.780000      5.2710153E-08
   6.840000      5.1905293E-08
   6.900000      5.0991900E-08
   6.960000      5.0003301E-08
   7.020000      4.8980144E-08
   7.080000      4.7960079E-08
   7.140000      4.6966630E-08
   7.200000      4.6001496E-08
   7.260000      4.5043826E-08
   7.320000      4.4057515E-08
   7.380000      4.3004736E-08
   7.440000      4.1861206E-08
   7.500000      4.0627615E-08
   7.560000      3.9332431E-08
   7.620000      3.8024215E-08
   7.680000      3.6755186E-08
   7.740000      3.5561399E-08
   7.800000      3.4446398E-08
   7.860000      3.3374619E-08
   7.920000      3.2277736E-08
   7.980000      3.1072545E-08
   8.040000      2.9684880E-08
   8.100000      2.8071687E-08
   8.160000      2.6233650E-08
   8.220000      2.4213932E-08
   8.280000      2.2083462E-08
   8.340000      1.9917744E-08
   8.400000      1.7773280E-08
   8.460000      1.5671537E-08
   8.520000      1.3595677E-08
   8.580000      1.1500526E-08
   8.640000      9.3315826E-09
   8.700000      7.0458150E-09
   8.760000      4.6266968E-09
   8.820000      2.0884141E-09
   8.880000     -5.3163213E-10
   8.940000     -3.1886109E-09
   9.000000     -5.8480993E-09
   9.060000     -8.4993541E-09
   9.120000     -1.1159457E-08
   9.180000     -1.3867285E-08
   9.240000     -1.6669938E-08
   9.300000     -1.9606675E-08
   9.360000     -2.2695867E-08
   9.420000     -2.5928998E-08
   9.480000     -2.9273016E-08
   9.540000     -3.2679434E-08
   9.600000     -3.6096541E-08
   9.660000     -3.9480391E-08
   9.720000     -4.2801155E-08
   9.780000     -4.6043226E-08
   9.840000     -4.9199642E-08
   9.900000     -5.2263363E-08
   9.960000     -5.5218717E-08
   10.02000     -5.8036225E-08
   10.08000     -6.0672853E-08
   10.14000     -6.3077884E-08
   10.20000     -6.5202869E-08
   10.26000     -6.7012628E-08
   10.32000     -6.8493883E-08
   10.38000     -6.9658611E-08
   10.44000     -7.0540757E-08
   10.50000     -7.1186697E-08
   10.56000     -7.1642233E-08
   10.62000     -7.1939489E-08
   10.68000     -7.2087843E-08
   10.74000     -7.2071927E-08
   10.80000     -7.1857691E-08
   10.86000     -7.1405147E-08
   10.92000     -7.0684479E-08
   10.98000     -6.9690557E-08
   11.04000     -6.8451229E-08
   11.10000     -6.7026498E-08
   11.16000     -6.5498206E-08
   11.22000     -6.3953202E-08
   11.28000     -6.2465148E-08
   11.34000     -6.1080833E-08
   11.40000     -5.9815477E-08
   11.46000     -5.8658323E-08
   11.52000     -5.7586053E-08
   11.58000     -5.6578536E-08
   11.64000     -5.5630458E-08
   11.70000     -5.4754011E-08
   11.76000     -5.3971434E-08
   11.82000     -5.3300621E-08
   11.88000     -5.2740063E-08
   11.94000     -5.2260152E-08
   12.00000     -5.1805419E-08
   12.06000     -5.1308007E-08
   12.12000     -5.0707740E-08
   12.18000     -4.9971231E-08
   12.24000     -4.9102365E-08
   12.30000     -4.8139697E-08
   12.36000     -4.7141288E-08
   12.42000     -4.6162569E-08
   12.48000     -4.5235538E-08
   12.54000     -4.4357151E-08
   12.60000     -4.3491138E-08
   12.66000     -4.2582197E-08
   12.72000     -4.1576815E-08
   12.78000     -4.0442618E-08
   12.84000     -3.9178953E-08
   12.90000     -3.7815227E-08
   12.96000     -3.6398266E-08
   13.02000     -3.4974303E-08
   13.08000     -3.3572771E-08
   13.14000     -3.2198031E-08
   13.20000     -3.0831572E-08
   13.26000     -2.9442925E-08
   13.32000     -2.8004077E-08
   13.38000     -2.6501116E-08
   13.44000     -2.4938341E-08
   13.50000     -2.3333442E-08
   13.56000     -2.1706262E-08
   13.62000     -2.0066363E-08
   13.68000     -1.8405242E-08
   13.74000     -1.6697095E-08
   13.80000     -1.4908604E-08
   13.86000     -1.3014420E-08
   13.92000     -1.1012431E-08
   13.98000     -8.9326981E-09
   14.04000     -6.8359367E-09
   14.10000     -4.8012203E-09
   14.16000     -2.9064948E-09
   14.22000     -1.2082698E-09
   14.28000      2.7269986E-10
   14.34000      1.5548806E-09
   14.40000      2.6874232E-09
   14.46000      3.7325765E-09
   14.52000      4.7450577E-09
   14.58000      5.7553033E-09
   14.64000      6.7620443E-09
   14.70000      7.7362765E-09
   14.76000      8.6346894E-09
   14.82000      9.4173220E-09
   14.88000      1.0062847E-08
   14.94000      1.0575897E-08
   15.00000      1.0983869E-08
   15.06000      1.1324597E-08
   15.12000      1.1629845E-08
   15.18000      1.1911199E-08
   15.24000      1.2154224E-08
   15.30000      1.2323659E-08
   15.36000      1.2378226E-08
   15.42000      1.2289752E-08
   15.48000      1.2059359E-08
   15.54000      1.1724207E-08
   15.60000      1.1351571E-08
   15.66000      1.1021604E-08
   15.72000      1.0804465E-08
   15.78000      1.0739702E-08
   15.84000      1.0825255E-08
   15.90000      1.1020195E-08
   15.96000      1.1260525E-08
   16.02000      1.1482823E-08
   16.08000      1.1647693E-08
   16.14000      1.1754909E-08
   16.20000      1.1844882E-08
   16.26000      1.1985589E-08
   16.32000      1.2249048E-08
   16.38000      1.2685114E-08
   16.44000      1.3301593E-08
   16.50000      1.4057878E-08
   16.56000      1.4875095E-08
   16.62000      1.5660079E-08
   16.68000      1.6335534E-08
   16.74000      1.6865958E-08
   16.80000      1.7269752E-08
   16.86000      1.7612244E-08
   16.92000      1.7981058E-08
   16.98000      1.8451923E-08
   17.04000      1.9057257E-08
   17.10000      1.9769633E-08
   17.16000      2.0507393E-08
   17.22000      2.1161691E-08
   17.28000      2.1635874E-08
   17.34000      2.1882814E-08
   17.40000      2.1925752E-08
   17.46000      2.1853822E-08
   17.52000      2.1792649E-08
   17.58000      2.1860119E-08
   17.64000      2.2123313E-08
   17.70000      2.2572904E-08
   17.76000      2.3124997E-08
   17.82000      2.3650470E-08
   17.88000      2.4021409E-08
   17.94000      2.4157812E-08
   18.00000      2.4057350E-08
   18.06000      2.3797208E-08
   18.12000      2.3507269E-08
   18.18000      2.3324461E-08
   18.24000      2.3344937E-08
   18.30000      2.3591388E-08
   18.36000      2.4007152E-08
   18.42000      2.4478773E-08
   18.48000      2.4878455E-08
   18.54000      2.5110710E-08
   18.60000      2.5146376E-08
   18.66000      2.5032003E-08
   18.72000      2.4871648E-08
   18.78000      2.4787942E-08
   18.84000      2.4876391E-08
   18.90000      2.5168813E-08
   18.96000      2.5618261E-08
   19.02000      2.6110012E-08
   19.08000      2.6494293E-08
   19.14000      2.6629273E-08
   19.20000      2.6419958E-08
   19.26000      2.5840579E-08
   19.32000      2.4934074E-08
   19.38000      2.3790140E-08
   19.44000      2.2510353E-08
   19.50000      2.1172861E-08
   19.56000      1.9808843E-08
   19.62000      1.8398568E-08
   19.68000      1.6888041E-08
   19.74000      1.5220003E-08
   19.80000      1.3368044E-08
   19.86000      1.1361401E-08
   19.92000      9.2909547E-09
   19.98000      7.2933837E-09
   20.04000      5.5178768E-09
   20.10000      4.0859547E-09
   20.16000      3.0574461E-09
   20.22000      2.4136948E-09
   20.28000      2.0632016E-09
   20.34000      1.8672714E-09
   20.40000      1.6765965E-09
   20.46000      1.3664263E-09
   20.52000      8.5923396E-10
   20.58000      1.2894022E-10
   20.64000     -8.1224394E-10
   20.70000     -1.9371638E-09
   20.76000     -3.2270673E-09
   20.82000     -4.6858299E-09
   20.88000     -6.3403727E-09
   20.94000     -8.2284259E-09
   21.00000     -1.0379653E-08
   21.06000     -1.2798256E-08
   21.12000     -1.5453933E-08
   21.18000     -1.8284311E-08
   21.24000     -2.1207372E-08
   21.30000     -2.4138775E-08
   21.36000     -2.7007701E-08
   21.42000     -2.9766023E-08
   21.48000     -3.2388563E-08
   21.54000     -3.4865753E-08
   21.60000     -3.7192500E-08
   21.66000     -3.9358138E-08
   21.72000     -4.1341274E-08
   21.78000     -4.3111267E-08
   21.84000     -4.4635332E-08
   21.90000     -4.5888271E-08
   21.96000     -4.6860933E-08
   22.02000     -4.7564267E-08
   22.08000     -4.8027278E-08
   22.14000     -4.8289618E-08
   22.20000     -4.8391264E-08
   22.26000     -4.8362814E-08
   22.32000     -4.8219416E-08
   22.38000     -4.7960164E-08
   22.44000     -4.7572687E-08
   22.50000     -4.7040825E-08
   22.56000     -4.6352387E-08
   22.62000     -4.5504141E-08
   22.68000     -4.4502499E-08
   22.74000     -4.3360377E-08
   22.80000     -4.2092385E-08
   22.86000     -4.0711338E-08
   22.92000     -3.9228503E-08
   22.98000     -3.7658278E-08
   23.04000     -3.6025625E-08
   23.10000     -3.4372867E-08
   23.16000     -3.2761754E-08
   23.22000     -3.1268065E-08
   23.28000     -2.9968618E-08
   23.34000     -2.8923612E-08
   23.40000     -2.8159699E-08
   23.46000     -2.7659752E-08
   23.52000     -2.7363539E-08
   23.58000     -2.7180235E-08
   23.64000     -2.7009657E-08
   23.70000     -2.6766010E-08
   23.76000     -2.6396942E-08
   23.82000     -2.5892168E-08
   23.88000     -2.5279398E-08
   23.94000     -2.4609607E-08
   24.00000     -2.3937195E-08
   24.06000     -2.3302093E-08
   24.12000     -2.2719991E-08
   24.18000     -2.2183769E-08
   24.24000     -2.1674948E-08
   24.30000     -2.1180362E-08
   24.36000     -2.0707118E-08
   24.42000     -2.0289475E-08
   24.48000     -1.9984142E-08
   24.54000     -1.9854882E-08
   24.60000     -1.9951637E-08
   24.66000     -2.0291894E-08
   24.72000     -2.0851838E-08
   24.78000     -2.1571539E-08
   24.84000     -2.2373341E-08
   24.90000     -2.3187397E-08
   24.96000     -2.3975188E-08
   25.02000     -2.4742128E-08
   25.08000     -2.5534208E-08
   25.14000     -2.6419588E-08
   25.20000     -2.7461972E-08
   25.26000     -2.8695831E-08
   25.32000     -3.0112950E-08
   25.38000     -3.1665326E-08
   25.44000     -3.3282969E-08
   25.50000     -3.4899269E-08
   25.56000     -3.6473754E-08
   25.62000     -3.8003176E-08
   25.68000     -3.9516834E-08
   25.74000     -4.1058396E-08
   25.80000     -4.2661778E-08
   25.86000     -4.4331035E-08
   25.92000     -4.6032156E-08
   25.98000     -4.7700013E-08
   26.04000     -4.9257512E-08
   26.10000     -5.0639457E-08
   26.16000     -5.1811909E-08
   26.22000     -5.2779882E-08
   26.28000     -5.3580663E-08
   26.34000     -5.4265552E-08
   26.40000     -5.4876860E-08
   26.46000     -5.5428458E-08
   26.52000     -5.5896749E-08
   26.58000     -5.6225257E-08
   26.64000     -5.6341218E-08
   26.70000     -5.6178965E-08
   26.76000     -5.5702735E-08
   26.82000     -5.4921781E-08
   26.88000     -5.3892940E-08
   26.94000     -5.2709414E-08
   27.00000     -5.1478420E-08
   27.06000     -5.0293572E-08
   27.12000     -4.9209721E-08
   27.18000     -4.8227662E-08
   27.24000     -4.7293753E-08
   27.30000     -4.6315346E-08
   27.36000     -4.5188177E-08
   27.42000     -4.3827807E-08
   27.48000     -4.2195477E-08
   27.54000     -4.0309875E-08
   27.60000     -3.8240803E-08
   27.66000     -3.6086650E-08
   27.72000     -3.3943305E-08
   27.78000     -3.1875409E-08
   27.84000     -2.9900136E-08
   27.90000     -2.7989172E-08
   27.96000     -2.6087910E-08
   28.02000     -2.4144184E-08
   28.08000     -2.2135325E-08
   28.14000     -2.0082870E-08
   28.20000     -1.8049054E-08
   28.26000     -1.6116383E-08
   28.32000     -1.4358228E-08
   28.38000     -1.2811991E-08
   28.44000     -1.1465432E-08
   28.50000     -1.0261577E-08
   28.56000     -9.1203747E-09
   28.62000     -7.9687039E-09
   28.68000     -6.7671171E-09
   28.74000     -5.5231166E-09
   28.80000     -4.2861426E-09
   28.86000     -3.1267333E-09
   28.92000     -2.1084401E-09
   28.98000     -1.2637259E-09
   29.04000     -5.8316951E-10
   29.10000     -2.1740240E-11
   29.16000      4.8100157E-10
   29.22000      9.7535680E-10
   29.28000      1.4809910E-09
   29.34000      1.9795054E-09
   29.40000      2.4226268E-09
   29.46000      2.7523348E-09
   29.52000      2.9247749E-09
   29.58000      2.9287337E-09
   29.64000      2.7919935E-09
   29.70000      2.5737759E-09
   29.76000      2.3466884E-09
   29.82000      2.1750874E-09
   29.88000      2.0974307E-09
   29.94000      2.1180797E-09
   30.00000      2.2102078E-09
   30.06000      2.3275739E-09
   30.12000      2.4203255E-09
   30.18000      2.4494129E-09
   30.24000      2.3955038E-09
   30.30000      2.2606921E-09
   30.36000      2.0637885E-09
   30.42000      1.8317056E-09
   30.48000      1.5900385E-09
   30.54000      1.3554974E-09
   30.60000      1.1318172E-09
   30.66000      9.0962388E-10
   30.72000      6.6980599E-10
   30.78000      3.8933770E-10
   30.84000      4.8133844E-11
   30.90000     -3.6465952E-10
   30.96000     -8.4653112E-10
   31.02000     -1.3808958E-09
   31.08000     -1.9403574E-09
   31.14000     -2.4934004E-09
   31.20000     -3.0128176E-09
   31.26000     -3.4833829E-09
   31.32000     -3.9062384E-09
   31.38000     -4.2983608E-09
   31.44000     -4.6870192E-09
   31.50000     -5.1009037E-09
   31.56000     -5.5607887E-09
   31.62000     -6.0728578E-09
   31.68000     -6.6269079E-09
   31.74000     -7.1999495E-09
   31.80000     -7.7638056E-09
   31.86000     -8.2939033E-09
   31.92000     -8.7760670E-09
   31.98000     -9.2088772E-09
   32.04000     -9.6008970E-09
   32.10000     -9.9640438E-09
   32.16000     -1.0305977E-08
   32.22000     -1.0624826E-08
   32.28000     -1.0908770E-08
   32.34000     -1.1140924E-08
   32.40000     -1.1307714E-08
   32.46000     -1.1407066E-08
   32.52000     -1.1452471E-08
   32.58000     -1.1470378E-08
   32.64000     -1.1491133E-08
   32.70000     -1.1536642E-08
   32.76000     -1.1609838E-08
   32.82000     -1.1690867E-08
   32.88000     -1.1742509E-08
   32.94000     -1.1723634E-08
   33.00000     -1.1605954E-08
   33.06000     -1.1387510E-08
   33.12000     -1.1097177E-08
   33.18000     -1.0787778E-08
   33.24000     -1.0519852E-08
   33.30000     -1.0341910E-08
   33.36000     -1.0274574E-08
   33.42000     -1.0304626E-08
   33.48000     -1.0391187E-08
   33.54000     -1.0481627E-08
   33.60000     -1.0531107E-08
   33.66000     -1.0518421E-08
   33.72000     -1.0452444E-08
   33.78000     -1.0367219E-08
   33.84000     -1.0308073E-08
   33.90000     -1.0314370E-08
   33.96000     -1.0405414E-08
   34.02000     -1.0574383E-08
   34.08000     -1.0791831E-08
   34.14000     -1.1016641E-08
   34.20000     -1.1209826E-08
   34.26000     -1.1346073E-08
   34.32000     -1.1419473E-08
   34.38000     -1.1442488E-08
   34.44000     -1.1439841E-08
   34.50000     -1.1440461E-08
   34.56000     -1.1470553E-08
   34.62000     -1.1549568E-08
   34.68000     -1.1689187E-08
   34.74000     -1.1894175E-08
   34.80000     -1.2163759E-08
   34.86000     -1.2492775E-08
   34.92000     -1.2872743E-08
   34.98000     -1.3293570E-08
   35.04000     -1.3746290E-08
   35.10000     -1.4226337E-08
   35.16000     -1.4735823E-08
   35.22000     -1.5282968E-08
   35.28000     -1.5877543E-08
   35.34000     -1.6522980E-08
   35.40000     -1.7207730E-08
   35.46000     -1.7899824E-08
   35.52000     -1.8548208E-08
   35.58000     -1.9092449E-08
   35.64000     -1.9479076E-08
   35.70000     -1.9679792E-08
   35.76000     -1.9705009E-08
   35.82000     -1.9606976E-08
   35.88000     -1.9469992E-08
   35.94000     -1.9389798E-08
   36.00000     -1.9448537E-08
   36.06000     -1.9693822E-08
   36.12000     -2.0129395E-08
   36.18000     -2.0720819E-08
   36.24000     -2.1413980E-08
   36.30000     -2.2159377E-08
   36.36000     -2.2932795E-08
   36.42000     -2.3744532E-08
   36.48000     -2.4633877E-08
   36.54000     -2.5651616E-08
   36.60000     -2.6838039E-08
   36.66000     -2.8205736E-08
   36.72000     -2.9734240E-08
   36.78000     -3.1378587E-08
   36.84000     -3.3088082E-08
   36.90000     -3.4827302E-08
   36.96000     -3.6590706E-08
   37.02000     -3.8404931E-08
   37.08000     -4.0317914E-08
   37.14000     -4.2379128E-08
   37.20000     -4.4618353E-08
   37.26000     -4.7030380E-08
   37.32000     -4.9570186E-08
   37.38000     -5.2159031E-08
   37.44000     -5.4698056E-08
   37.50000     -5.7084417E-08
   37.56000     -5.9225357E-08
   37.62000     -6.1047757E-08
   37.68000     -6.2502863E-08
   37.74000     -6.3567363E-08
   37.80000     -6.4241789E-08
   37.86000     -6.4546867E-08
   37.92000     -6.4517501E-08
   37.98000     -6.4194438E-08
   38.04000     -6.3614984E-08
   38.10000     -6.2805356E-08
   38.16000     -6.1777648E-08
   38.22000     -6.0533409E-08
   38.28000     -5.9073102E-08
   38.34000     -5.7407807E-08
   38.40000     -5.5567927E-08
   38.46000     -5.3604204E-08
   38.52000     -5.1579395E-08
   38.58000     -4.9553105E-08
   38.64000     -4.7565766E-08
   38.70000     -4.5628674E-08
   38.76000     -4.3724814E-08
   38.82000     -4.1820865E-08
   38.88000     -3.9885766E-08
   38.94000     -3.7908254E-08
   39.00000     -3.5905867E-08
   39.06000     -3.3921189E-08
   39.12000     -3.2006376E-08
   39.18000     -3.0201758E-08
   39.24000     -2.8516993E-08
   39.30000     -2.6922311E-08
   39.36000     -2.5353842E-08
   39.42000     -2.3731705E-08
   39.48000     -2.1984878E-08
   39.54000     -2.0074276E-08
   39.60000     -1.8006064E-08
   39.66000     -1.5830487E-08
   39.72000     -1.3626468E-08
   39.78000     -1.1476945E-08
   39.84000     -9.4430455E-09
   39.90000     -7.5455038E-09
   39.96000     -5.7592349E-09
   40.02000     -4.0225538E-09
   40.08000     -2.2576703E-09
   40.14000     -3.9542464E-10
   40.20000      1.6039212E-09
   40.26000      3.7403813E-09
   40.32000      5.9771237E-09
   40.38000      8.2545792E-09
   40.44000      1.0510111E-08
   40.50000      1.2695986E-08
   40.56000      1.4789559E-08
   40.62000      1.6792763E-08
   40.68000      1.8722227E-08
   40.74000      2.0594653E-08
   40.80000      2.2413648E-08
   40.86000      2.4163260E-08
   40.92000      2.5810584E-08
   40.98000      2.7316183E-08
   41.04000      2.8648049E-08
   41.10000      2.9793574E-08
   41.16000      3.0764934E-08
   41.22000      3.1596031E-08
   41.28000      3.2332267E-08
   41.34000      3.3017265E-08
   41.40000      3.3681324E-08
   41.46000      3.4335500E-08
   41.52000      3.4972715E-08
   41.58000      3.5574395E-08
   41.64000      3.6119197E-08
   41.70000      3.6590034E-08
   41.76000      3.6976864E-08
   41.82000      3.7275036E-08
   41.88000      3.7481222E-08
   41.94000      3.7590013E-08
   42.00000      3.7593804E-08
   42.06000      3.7486789E-08
   42.12000      3.7271551E-08
   42.18000      3.6965073E-08
   42.24000      3.6600781E-08
   42.30000      3.6224556E-08
   42.36000      3.5885133E-08
   42.42000      3.5621778E-08
   42.48000      3.5453592E-08
   42.54000      3.5374374E-08
   42.60000      3.5355079E-08
   42.66000      3.5353011E-08
   42.72000      3.5324447E-08
   42.78000      3.5236081E-08
   42.84000      3.5071494E-08
   42.90000      3.4830997E-08
   42.96000      3.4525932E-08
   43.02000      3.4170668E-08
   43.08000      3.3776040E-08
   43.14000      3.3346907E-08
   43.20000      3.2884266E-08
   43.26000      3.2390194E-08
   43.32000      3.1872496E-08
   43.38000      3.1346424E-08
   43.44000      3.0832144E-08
   43.50000      3.0348787E-08
   43.56000      2.9907426E-08
   43.62000      2.9505586E-08
   43.68000      2.9125218E-08
   43.74000      2.8734570E-08
   43.80000      2.8293117E-08
   43.86000      2.7758110E-08
   43.92000      2.7091428E-08
   43.98000      2.6265923E-08
   44.04000      2.5270893E-08
   44.10000      2.4116183E-08
   44.16000      2.2834096E-08
   44.22000      2.1477947E-08
   44.28000      2.0116554E-08
   44.34000      1.8825036E-08
   44.40000      1.7674028E-08
   44.46000      1.6720742E-08
   44.52000      1.6005558E-08
   44.58000      1.5556527E-08
   44.64000      1.5401556E-08
   44.70000      1.5585101E-08
   44.76000      1.6184151E-08
   44.82000      1.7318166E-08
   44.88000      1.9149834E-08
   44.94000      2.1877135E-08
   45.00000      2.5721130E-08
   45.06000      3.0916169E-08
   45.12000      3.7708922E-08
   45.18000      4.6369543E-08
   45.24000      5.7213736E-08
   45.30000      7.0630009E-08
   45.36000      8.7104304E-08
   45.42000      1.0723554E-07
   45.48000      1.3173941E-07
   45.54000      1.6144359E-07
   45.60000      1.9728186E-07
   45.66000      2.4029626E-07
   45.72000      2.9165477E-07
   45.78000      3.5268630E-07
   45.84000      4.2492948E-07
   45.90000      5.1018736E-07
   45.96000      6.1057830E-07
   46.02000      7.2857637E-07
   46.08000      8.6704114E-07
   46.14000      1.0292401E-06
   46.20000      1.2188729E-06
   46.26000      1.4401070E-06
   46.32000      1.6976311E-06
   46.38000      1.9967254E-06
   46.44000      2.3433470E-06
   46.50000      2.7442200E-06
   46.56000      3.2069256E-06
   46.62000      3.7399852E-06
   46.68000      4.3529380E-06
   46.74000      5.0564154E-06
   46.80000      5.8622240E-06
   46.86000      6.7834326E-06
   46.92000      7.8344747E-06
   46.98000      9.0312624E-06
   47.04000      1.0391303E-05
   47.10000      1.1933824E-05
   47.16000      1.3679884E-05
   47.22000      1.5652493E-05
   47.28000      1.7876702E-05
   47.34000      2.0379706E-05
   47.40000      2.3190927E-05
   47.46000      2.6342081E-05
   47.52000      2.9867253E-05
   47.58000      3.3802949E-05
   47.64000      3.8188162E-05
   47.70000      4.3064381E-05
   47.76000      4.8475649E-05
   47.82000      5.4468535E-05
   47.88000      6.1092134E-05
   47.94000      6.8397996E-05
   48.00000      7.6440054E-05
   48.06000      8.5274485E-05
   48.12000      9.4959578E-05
   48.18000      1.0555550E-04
   48.24000      1.1712410E-04
   48.30000      1.2972862E-04
   48.36000      1.4343343E-04
   48.42000      1.5830364E-04
   48.48000      1.7440479E-04
   48.54000      1.9180239E-04
   48.60000      2.1056148E-04
   48.66000      2.3074610E-04
   48.72000      2.5241871E-04
   48.78000      2.7563961E-04
   48.84000      3.0046643E-04
   48.90000      3.2695342E-04
   48.96000      3.5515075E-04
   49.02000      3.8510398E-04
   49.08000      4.1685335E-04
   49.14000      4.5043303E-04
   49.20000      4.8587058E-04
   49.26000      5.2318623E-04
   49.32000      5.6239212E-04
   49.38000      6.0349202E-04
   49.44000      6.4648048E-04
   49.50000      6.9134228E-04
   49.56000      7.3805253E-04
   49.62000      7.8657561E-04
   49.68000      8.3686534E-04
   49.74000      8.8886486E-04
   49.80000      9.4250619E-04
   49.86000      9.9771051E-04
   49.92000      1.0543881E-03
   49.98000      1.1124385E-03
   50.04000      1.1717514E-03
   50.10000      1.2322067E-03
   50.16000      1.2936745E-03
   50.22000      1.3560173E-03
   50.28000      1.4190899E-03
   50.34000      1.4827398E-03
   50.40000      1.5468099E-03
   50.46000      1.6111376E-03
   50.52000      1.6755582E-03
   50.58000      1.7399042E-03
   50.64000      1.8040086E-03
   50.70000      1.8677053E-03
   50.76000      1.9308304E-03
   50.82000      1.9932245E-03
   50.88000      2.0547330E-03
   50.94000      2.1152091E-03
   51.00000      2.1745136E-03
   51.06000      2.2325171E-03
   51.12000      2.2891022E-03
   51.18000      2.3441624E-03
   51.24000      2.3976057E-03
   51.30000      2.4493539E-03
   51.36000      2.4993436E-03
   51.42000      2.5475272E-03
   51.48000      2.5938735E-03
   51.54000      2.6383665E-03
   51.60000      2.6810074E-03
   51.66000      2.7218133E-03
   51.72000      2.7608166E-03
   51.78000      2.7980653E-03
   51.84000      2.8336216E-03
   51.90000      2.8675608E-03
   51.96000      2.8999720E-03
   52.02000      2.9309539E-03
   52.08000      2.9606149E-03
   52.14000      2.9890707E-03
   52.20000      3.0164439E-03
   52.26000      3.0428616E-03
   52.32000      3.0684518E-03
   52.38000      3.0933449E-03
   52.44000      3.1176684E-03
   52.50000      3.1415476E-03
   52.56000      3.1651012E-03
   52.62000      3.1884424E-03
   52.68000      3.2116745E-03
   52.74000      3.2348905E-03
   52.80000      3.2581717E-03
   52.86000      3.2815854E-03
   52.92000      3.3051863E-03
   52.98000      3.3290123E-03
   53.04000      3.3530868E-03
   53.10000      3.3774157E-03
   53.16000      3.4019900E-03
   53.22000      3.4267835E-03
   53.28000      3.4517541E-03
   53.34000      3.4768442E-03
   53.40000      3.5019808E-03
   53.46000      3.5270783E-03
   53.52000      3.5520378E-03
   53.58000      3.5767502E-03
   53.64000      3.6010966E-03
   53.70000      3.6249505E-03
   53.76000      3.6481803E-03
   53.82000      3.6706498E-03
   53.88000      3.6922211E-03
   53.94000      3.7127573E-03
   54.00000      3.7321222E-03
   54.06000      3.7501857E-03
   54.12000      3.7668226E-03
   54.18000      3.7819170E-03
   54.24000      3.7953632E-03
   54.30000      3.8070669E-03
   54.36000      3.8169471E-03
   54.42000      3.8249374E-03
   54.48000      3.8309866E-03
   54.54000      3.8350595E-03
   54.60000      3.8371382E-03
   54.66000      3.8372218E-03
   54.72000      3.8353263E-03
   54.78000      3.8314855E-03
   54.84000      3.8257493E-03
   54.90000      3.8181844E-03
   54.96000      3.8088716E-03
   55.02000      3.7979069E-03
   55.08000      3.7853979E-03
   55.14000      3.7714634E-03
   55.20000      3.7562323E-03
   55.26000      3.7398406E-03
   55.32000      3.7224304E-03
   55.38000      3.7041476E-03
   55.44000      3.6851401E-03
   55.50000      3.6655550E-03
   55.56000      3.6455381E-03