 -0.750000000       0.00000000    
 -0.689999998       0.00000000    
 -0.629999995       0.00000000    
 -0.569999993       0.00000000    
 -0.509999990      -7.42049748E-18
 -0.449999988      -5.08493003E-17
 -0.389999986      -1.79761938E-16
 -0.330000013      -4.20353123E-16
 -0.270000011      -6.76066917E-16
 -0.209999993      -6.10274533E-16
 -0.150000006       3.91750726E-16
  -9.00000036E-02   3.05188427E-15
  -2.99999993E-02   7.72834640E-15
   2.99999993E-02   1.36949168E-14
   9.00000036E-02   1.84519792E-14
  0.150000006       1.75918968E-14
  0.209999993       5.82543098E-15
  0.270000011      -2.04996017E-14
  0.330000013      -5.98082781E-14
  0.389999986      -1.02141819E-13
  0.449999988      -1.28833969E-13
  0.509999990      -1.17326044E-13
  0.569999993      -5.16606648E-14
  0.629999995       6.42013772E-14
  0.689999998       1.96880828E-13
  0.750000000       2.86366769E-13
  0.810000002       2.66957490E-13
  0.870000005       1.04206865E-13
  0.930000007      -1.65648636E-13
  0.990000010      -4.16641873E-13
   1.04999995      -4.57575709E-13
   1.11000001      -1.09610786E-13
   1.16999996       6.79855369E-13
   1.23000002       1.73333917E-12
   1.28999996       2.61276330E-12
   1.35000002       2.71473078E-12
   1.40999997       1.49943014E-12
   1.47000003      -1.20659765E-12
   1.52999997      -4.95679929E-12
   1.59000003      -8.62654479E-12
   1.64999998      -1.06544322E-11
   1.71000004      -9.57671789E-12
   1.76999998      -4.70468976E-12
   1.83000004       3.32240594E-12
   1.88999999       1.24012094E-11
   1.95000005       1.94311772E-11
   2.00999999       2.13482374E-11
   2.06999993       1.64229203E-11
   2.13000011       5.32375402E-12
   2.19000006      -8.57497927E-12
   2.25000000      -1.99583614E-11
   2.30999994      -2.33381179E-11
   2.36999989      -1.53107527E-11
   2.43000007       3.51823974E-12
   2.49000001       2.77976565E-11
   2.54999995       4.84167914E-11
   2.60999990       5.51594534E-11
   2.67000008       4.03068481E-11
   2.73000002       1.99090592E-12
   2.78999996      -5.39803827E-11
   2.84999990      -1.14704156E-10
   2.91000009      -1.63271480E-10
   2.97000003      -1.83570090E-10
   3.02999997      -1.65324199E-10
   3.08999991      -1.07694943E-10
   3.15000010      -2.01563315E-11
   3.21000004       7.97680533E-11
   3.26999998       1.71265835E-10
   3.32999992       2.35985509E-10
   3.39000010       2.62903727E-10
   3.45000005       2.50721444E-10
   3.50999999       2.07034792E-10
   3.56999993       1.44628864E-10
   3.63000011       7.62267471E-11
   3.69000006       9.55578672E-12
   3.75000000      -5.55154672E-11
   3.80999994      -1.26722285E-10
   3.86999989      -2.16054966E-10
   3.93000007      -3.34417549E-10
   3.99000001      -4.86128138E-10
   4.05000019      -6.65234035E-10
   4.11000013      -8.55102378E-10
   4.17000008      -1.03172171E-09
   4.23000002      -1.16991183E-09
   4.28999996      -1.25057498E-09
   4.34999990      -1.26658528E-09
   4.40999985      -1.22512867E-09
   4.46999979      -1.14527243E-09
   4.53000021      -1.05104470E-09
   4.59000015      -9.61891455E-10
   4.65000010      -8.83523199E-10
   4.71000004      -8.02417521E-10
   4.76999998      -6.86382340E-10
   4.82999992      -4.91762575E-10
   4.88999987      -1.75597814E-10
   4.94999981       2.90922397E-10
   5.01000023       9.12259990E-10
   5.07000017       1.66551106E-09
   5.13000011       2.50637266E-09
   5.19000006       3.38289308E-09
   5.25000000       4.25293711E-09
   5.30999994       5.09963183E-09
   5.36999989       5.93932814E-09
   5.42999983       6.81888457E-09
   5.48999977       7.80266873E-09
   5.55000019       8.95329944E-09
   5.61000013       1.03125100E-08
   5.67000008       1.18886527E-08
   5.73000002       1.36550602E-08
   5.78999996       1.55596531E-08
   5.84999990       1.75420869E-08
   5.90999985       1.95519689E-08
   5.96999979       2.15613518E-08
   6.03000021       2.35669546E-08
   6.09000015       2.55815475E-08
   6.15000010       2.76182277E-08
   6.21000004       2.96741209E-08
   6.26999998       3.17204574E-08
   6.32999992       3.37035146E-08
   6.38999987       3.55567522E-08
   6.44999981       3.72200475E-08
   6.51000023       3.86588752E-08
   6.57000017       3.98760598E-08
   6.63000011       4.09112424E-08
   6.69000006       4.18276578E-08
   6.75000000       4.26905089E-08
   6.80999994       4.35444889E-08
   6.86999989       4.43984476E-08
   6.92999983       4.52226523E-08
   6.98999977       4.59599896E-08
   7.05000019       4.65473029E-08
   7.11000013       4.69398245E-08
   7.17000008       4.71306763E-08
   7.23000002       4.71591513E-08
   7.28999996       4.71053312E-08
   7.34999990       4.70727493E-08
   7.40999985       4.71644945E-08
   7.46999979       4.74595581E-08
   7.53000021       4.79956732E-08
   7.59000015       4.87626295E-08
   7.65000010       4.97067703E-08
   7.71000004       5.07445641E-08
   7.76999998       5.17809404E-08
   7.82999992       5.27276889E-08
   7.88999987       5.35175637E-08
   7.94999981       5.41115135E-08
   8.01000023       5.44983401E-08
   8.06999969       5.46880763E-08
   8.13000011       5.47018040E-08
   8.18999958       5.45612338E-08
   8.25000000       5.42813581E-08
   8.31000042       5.38679892E-08
   8.36999989       5.33206936E-08
   8.43000031       5.26394004E-08
   8.48999977       5.18318970E-08
   8.55000019       5.09188212E-08
   8.60999966       4.99335826E-08
   8.67000008       4.89165046E-08
   8.72999954       4.79046918E-08
   8.78999996       4.69211017E-08
   8.85000038       4.59670169E-08
   8.90999985       4.50213520E-08
   8.97000027       4.40478551E-08
   9.02999973       4.30085194E-08
   9.09000015       4.18787671E-08
   9.14999962       4.06588399E-08
   9.21000004       3.93767188E-08
   9.27000046       3.80805893E-08
   9.32999992       3.68225770E-08
   9.39000034       3.56389620E-08
   9.44999981       3.45337838E-08
   9.51000023       3.34720731E-08
   9.56999969       3.23859268E-08
   9.63000011       3.11922221E-08
   9.68999958       2.98164515E-08
   9.75000000       2.82148509E-08
   9.81000042       2.63872071E-08
   9.86999989       2.43758631E-08
   9.93000031       2.22511858E-08
   9.98999977       2.00884980E-08
   10.0500002       1.79444317E-08
   10.1099997       1.58407900E-08
   10.1700001       1.37610972E-08
   10.2299995       1.16604628E-08
   10.2900000       9.48455892E-09
   10.3500004       7.19046556E-09
   10.4099998       4.76179984E-09
   10.4700003       2.21296559E-09
   10.5299997      -4.18357682E-10
   10.5900002      -3.08708015E-09
   10.6499996      -5.75862824E-09
   10.7100000      -8.42225756E-09
   10.7700005      -1.10951479E-08
   10.8299999      -1.38162735E-08
   10.8900003      -1.66327201E-08
   10.9499998      -1.95835810E-08
   11.0100002      -2.26869865E-08
   11.0699997      -2.59342539E-08
   11.1300001      -2.92923605E-08
   11.1899996      -3.27130749E-08
   11.2500000      -3.61450283E-08
   11.3100004      -3.95445099E-08
   11.3699999      -4.28815703E-08
   11.4300003      -4.61400340E-08
   11.4899998      -4.93120638E-08
   11.5500002      -5.23896411E-08
   11.6099997      -5.53562955E-08
   11.6700001      -5.81821489E-08
   11.7299995      -6.08241706E-08
   11.7900000      -6.32319512E-08
   11.8500004      -6.53574546E-08
   11.9099998      -6.71658640E-08
   11.9700003      -6.86442192E-08
   12.0299997      -6.98047202E-08
   12.0900002      -7.06814873E-08
   12.1499996      -7.13210753E-08
   12.2100000      -7.17693212E-08
   12.2700005      -7.20581852E-08
   12.3299999      -7.21968192E-08
   12.3900003      -7.21696267E-08
   12.4499998      -7.19425586E-08
   12.5100002      -7.14760873E-08
   12.5699997      -7.07413790E-08
   12.6300001      -6.97345470E-08
   12.6899996      -6.84847237E-08
   12.7500000      -6.70527527E-08
   12.8100004      -6.55206804E-08
   12.8699999      -6.39748592E-08
   12.9300003      -6.24879490E-08
   12.9899998      -6.11056237E-08
   13.0500002      -5.98422218E-08
   13.1099997      -5.86865454E-08
   13.1700001      -5.76152992E-08
   13.2299995      -5.66086662E-08
   13.2900000      -5.56616975E-08
   13.3500004      -5.47867245E-08
   13.4099998      -5.40058416E-08
   13.4700003      -5.33365103E-08
   13.5299997      -5.27766986E-08
   13.5900002      -5.22963965E-08
   13.6499996      -5.18400682E-08
   13.7100000      -5.13401517E-08
   13.7700005      -5.07370501E-08
   13.8299999      -4.99980146E-08
   13.8900003      -4.91273582E-08
   13.9499998      -4.81636206E-08
   14.0100002      -4.71643311E-08
   14.0699997      -4.61839633E-08
   14.1300001      -4.52534401E-08
   14.1899996      -4.43688464E-08
   14.2500000      -4.34935359E-08
   14.3100004      -4.25724238E-08
   14.3699999      -4.15527168E-08
   14.4300003      -4.04029983E-08
   14.4899998      -3.91235169E-08
   14.5500002      -3.77442788E-08
   14.6099997      -3.63123966E-08
   14.6700001      -3.48742120E-08
   14.7299995      -3.34593082E-08
   14.7900000      -3.20724602E-08
   14.8500004      -3.06958725E-08
   14.9099998      -2.92999243E-08
   14.9700003      -2.78573662E-08
   15.0299997      -2.63546607E-08
   15.0900002      -2.47959644E-08
   15.1499996      -2.31983108E-08
   15.2100000      -2.15805755E-08
   15.2700005      -1.99512975E-08
   15.3299999      -1.83011277E-08
   15.3900003      -1.66037371E-08
   15.4499998      -1.48256136E-08
   15.5100002      -1.29414435E-08
   15.5699997      -1.09492682E-08
   15.6300001      -8.87930796E-09
   15.6899996      -6.79240664E-09
   15.7500000      -4.76771511E-09
   15.8100004      -2.88321300E-09
   15.8699999      -1.19538035E-09
   15.9300003       2.75154566E-10
   15.9899998       1.54710555E-09
   16.0499992       2.66996647E-09
   16.1100006       3.70633280E-09
   16.1700001       4.71112704E-09
   16.2299995       5.71471670E-09
   16.2900009       6.71543310E-09
   16.3500004       7.68361819E-09
   16.4099998       8.57523474E-09
   16.4699993       9.34976541E-09
   16.5300007       9.98566918E-09
   16.5900002       1.04877529E-08
   16.6499996       1.08838396E-08
   16.7099991       1.12122382E-08
   16.7700005       1.15050227E-08
   16.8299999       1.17738423E-08
   16.8899994       1.20041497E-08
   16.9500008       1.21605854E-08
   17.0100002       1.22019648E-08
   17.0699997       1.21004762E-08
   17.1299992       1.18577690E-08
   17.1900005       1.15114833E-08
   17.2500000       1.11290843E-08
   17.3099995       1.07905160E-08
   17.3700008       1.05653868E-08
   17.4300003       1.04925837E-08
   17.4899998       1.05695639E-08
   17.5499992       1.07553060E-08
   17.6100006       1.09861658E-08
   17.6700001       1.11994023E-08
   17.7299995       1.13563816E-08
   17.7900009       1.14575114E-08
   17.8500004       1.15435634E-08
   17.9099998       1.16825953E-08
   17.9699993       1.19465264E-08
   18.0300007       1.23850583E-08
   18.0900002       1.30058799E-08
   18.1499996       1.37683438E-08
   18.2099991       1.45935779E-08
   18.2700005       1.53884230E-08
   18.3299999       1.60755604E-08
   18.3899994       1.66194400E-08
   18.4500008       1.70383974E-08
   18.5100002       1.73977028E-08
   18.5699997       1.77849149E-08
   18.6299992       1.82756832E-08
   18.6900005       1.89022948E-08
   18.7500000       1.96371257E-08
   18.8099995       2.03982715E-08
   18.8700008       2.10766284E-08
   18.9300003       2.15753051E-08
   18.9899998       2.18469740E-08
   19.0499992       2.19147100E-08
   19.1100006       2.18674483E-08
   19.1700001       2.18305640E-08
   19.2299995       2.19215721E-08
   19.2900009       2.22071073E-08
   19.3500004       2.26773551E-08
   19.4099998       2.32480151E-08
   19.4699993       2.37897613E-08
   19.5300007       2.41747369E-08
   19.5900002       2.43232510E-08
   19.6499996       2.42334242E-08
   19.7099991       2.39828530E-08
   19.7700005       2.37016291E-08
   19.8299999       2.35266029E-08
   19.8899994       2.35536000E-08
   19.9500008       2.38049171E-08
   20.0100002       2.42236116E-08
   20.0699997       2.46962468E-08
   20.1299992       2.50953640E-08
   20.1900005       2.53260133E-08
   20.2500000       2.53595474E-08
   20.3099995       2.52427927E-08
   20.3700008       2.50797623E-08
   20.4300003       2.49927918E-08
   20.4899998       2.50770746E-08
   20.5499992       2.53643488E-08
   20.6100006       2.58079851E-08
   20.6700001       2.62939235E-08
   20.7299995       2.66731544E-08
   20.7900009       2.68044023E-08
   20.8500004       2.65927369E-08
   20.9099998       2.60118895E-08
   20.9699993       2.51039118E-08
   21.0300007       2.39575790E-08
   21.0900002       2.26739036E-08
   21.1499996       2.13310507E-08
   21.2099991       1.99607921E-08
   21.2700005       1.85443128E-08
   21.3299999       1.70284622E-08
   21.3899994       1.53563970E-08
   21.4500008       1.35015572E-08
   21.5100002       1.14925154E-08
   21.5699997       9.41928224E-09
   21.6299992       7.41779882E-09
   21.6900005       5.63692337E-09
   21.7500000       4.19831592E-09
   21.8099995       3.16227644E-09
   21.8700008       2.51068144E-09
   21.9300003       2.15236429E-09
   21.9899998       1.94864080E-09
   22.0499992       1.74996451E-09
   22.1100006       1.43133316E-09
   22.1700001       9.15231890E-10
   22.2299995       1.76032924E-10
   22.2900009      -7.73190956E-10
   22.3500004      -1.90424720E-09
   22.4099998      -3.19751670E-09
   22.4699993      -4.65648231E-09
   22.5300007      -6.30826102E-09
   22.5900002      -8.19125390E-09
   22.6499996      -1.03359810E-08
   22.7099991      -1.27473818E-08
   22.7700005      -1.53955941E-08
   22.8299999      -1.82184099E-08
   22.8899994      -2.11338751E-08
   22.9500008      -2.40577993E-08
   23.0100002      -2.69196772E-08
   23.0699997      -2.96717122E-08
   23.1299992      -3.22888383E-08
   23.1900005      -3.47611468E-08
   23.2500000      -3.70827244E-08
   23.3099995      -3.92418649E-08
   23.3700008      -4.12163530E-08
   23.4300003      -4.29753797E-08
   23.4899998      -4.44868355E-08
   23.5499992      -4.57269458E-08
   23.6100006      -4.66883101E-08
   23.6700001      -4.73833772E-08
   23.7299995      -4.78420397E-08
   23.7900009      -4.81040736E-08
   23.8500004      -4.82090385E-08
   23.9099998      -4.81868874E-08
   23.9699993      -4.80522360E-08
   24.0300007      -4.78038942E-08
   24.0900002      -4.74293493E-08
   24.1499996      -4.69122625E-08
   24.2099991      -4.62400003E-08
   24.2700005      -4.54086155E-08
   24.3299999      -4.44236825E-08
   24.3899994      -4.32974403E-08
   24.4500008      -4.20442134E-08
   24.5100002      -4.06769978E-08
   24.5699997      -3.92076309E-08
   24.6299992      -3.76511444E-08
   24.6900005      -3.60329757E-08
   24.7500000      -3.43955193E-08
   24.8099995      -3.28001910E-08
   24.8700008      -3.13222159E-08
   24.9300003      -3.00378353E-08
   24.9899998      -2.90069071E-08
   25.0499992      -2.82560837E-08
   25.1100006      -2.77685182E-08
   25.1700001      -2.74843703E-08
   25.2299995      -2.73130834E-08
   25.2900009      -2.71544351E-08
   25.3500004      -2.69221960E-08
   25.4099998      -2.65632600E-08
   25.4699993      -2.60664237E-08
   25.5300007      -2.54585490E-08
   25.5900002      -2.47900100E-08
   25.6499996      -2.41149589E-08
   25.7099991      -2.34734454E-08
   25.7700005      -2.28816077E-08
   25.8299999      -2.23329888E-08
   25.8899994      -2.18099032E-08
   25.9500008      -2.12999947E-08
   26.0100002      -2.08111217E-08
   26.0699997      -2.03781525E-08
   26.1299992      -2.00582164E-08
   26.1900005      -1.99153174E-08
   26.2500000      -1.99995061E-08
   26.3099995      -2.03283204E-08
   26.3700008      -2.08779838E-08
   26.4300003      -2.15886189E-08
   26.4899998      -2.23825563E-08
   26.5499992      -2.31897843E-08
   26.6100006      -2.39714026E-08
   26.6700001      -2.47322518E-08
   26.7299995      -2.55176467E-08
   26.7900009      -2.63951634E-08
   26.8500004      -2.74281415E-08
   26.9099998      -2.86510033E-08
   26.9699993      -3.00557588E-08
   27.0300007      -3.15948441E-08
   27.0900002      -3.31987735E-08
   27.1499996      -3.48014417E-08
   27.2099991      -3.63628097E-08
   27.2700005      -3.78799605E-08
   27.3299999      -3.93823889E-08
   27.3899994      -4.09137471E-08
   27.4500008      -4.25077573E-08
   27.5100002      -4.41681216E-08
   27.5699997      -4.58604852E-08
   27.6299992      -4.75195776E-08
   27.6900005      -4.90685075E-08
   27.7500000      -5.04426332E-08
   27.8099995      -5.16087759E-08
   27.8700008      -5.25726307E-08
   27.9300003      -5.33718172E-08
   27.9899998      -5.40574732E-08
   28.0499992      -5.46712968E-08
   28.1100006      -5.52263408E-08
   28.1700001      -5.56983117E-08
   28.2299995      -5.60303342E-08
   28.2900009      -5.61496485E-08
   28.3500004      -5.59908635E-08
   28.4099998      -5.55185622E-08
   28.4699993      -5.47421770E-08
   28.5300007      -5.37184697E-08
   28.5900002      -5.25403259E-08
   28.6499996      -5.13144904E-08
   28.7099991      -5.01340729E-08
   28.7700005      -4.90535150E-08
   28.8299999      -4.80733746E-08
   28.8899994      -4.71399559E-08
   28.9500008      -4.61607605E-08
   29.0100002      -4.50318680E-08
   29.0699997      -4.36693242E-08
   29.1299992      -4.20348663E-08
   29.1900005      -4.01476399E-08
   29.2500000      -3.80777223E-08
   29.3099995      -3.59236303E-08
   29.3700008      -3.37812907E-08
   29.4300003      -3.17154054E-08
   29.4899998      -2.97432869E-08
   29.5499992      -2.78368582E-08
   29.6100006      -2.59416915E-08
   29.6700001      -2.40055957E-08
   29.7299995      -2.20055245E-08
   29.7900009      -1.99622914E-08
   29.8500004      -1.79372019E-08
   29.9099998      -1.60118780E-08
   29.9699993      -1.42591006E-08
   30.0300007      -1.27160984E-08
   30.0900002      -1.13708376E-08
   30.1499996      -1.01667617E-08
   30.2099991      -9.02424357E-09
   30.2700005      -7.87044563E-09
   30.3299999      -6.66607036E-09
   30.3899994      -5.41873924E-09
   30.4500008      -4.17813251E-09
   30.5100002      -3.01521696E-09
   30.5699997      -1.99410333E-09
   30.6299992      -1.14775345E-09
   30.6900005      -4.66956751E-10
   30.7500000       9.35383507E-11
   30.8099995       5.94800820E-10
   30.8700008       1.08796616E-09
   30.9300003       1.59343794E-09
   30.9899998       2.09319095E-09
   31.0499992       2.53884269E-09
   31.1100006       2.87186830E-09
   31.1700001       3.04775560E-09
   31.2299995       3.05476133E-09
   31.2900009       2.92045166E-09
   31.3500004       2.70415579E-09
   31.4099998       2.47875453E-09
   31.4699993       2.30880071E-09
   31.5300007       2.23267471E-09
   31.5900002       2.25432828E-09
   31.6499996       2.34630204E-09
   31.7099991       2.46173060E-09
   31.7700005       2.55038834E-09
   31.8299999       2.57326005E-09
   31.8899994       2.51145926E-09
   31.9500008       2.36779374E-09
   32.0099983       2.16182738E-09
   32.0699997       1.92103822E-09
   32.1300011       1.67124392E-09
   32.1899986       1.42900369E-09
   32.2500000       1.19761023E-09
   32.3100014       9.67111946E-10
   32.3699989       7.17862214E-10
   32.4300003       4.26484209E-10
   32.4900017       7.28013275E-11
   32.5499992      -3.53874235E-10
   32.6100006      -8.50669479E-10
   32.6699982      -1.40053891E-09
   32.7299995      -1.97562944E-09
   32.7900009      -2.54405963E-09
   32.8499985      -3.07840597E-09
   32.9099998      -3.56339802E-09
   32.9700012      -4.00029254E-09
   33.0299988      -4.40627090E-09
   33.0900002      -4.80879958E-09
   33.1500015      -5.23662447E-09
   33.2099991      -5.71033221E-09
   33.2700005      -6.23564711E-09
   33.3300018      -6.80171874E-09
   33.3899994      -7.38492290E-09
   33.4500008      -7.95670463E-09
   33.5099983      -8.49255866E-09
   33.5699997      -8.97884345E-09
   33.6300011      -9.41496481E-09
   33.6899986      -9.81025838E-09
   33.7500000      -1.01770112E-08
   33.8100014      -1.05226388E-08
   33.8699989      -1.08444826E-08
   33.9300003      -1.11297087E-08
   33.9900017      -1.13606582E-08
   34.0499992      -1.15235794E-08
   34.1100006      -1.16169430E-08
   34.1699982      -1.16552847E-08
   34.2299995      -1.16661631E-08
   34.2900009      -1.16806325E-08
   34.3499985      -1.17206458E-08
   34.4099998      -1.17885870E-08
   34.4700012      -1.18637891E-08
   34.5299988      -1.19084058E-08
   34.5900002      -1.18812125E-08
   34.6500015      -1.17544188E-08
   34.7099991      -1.15269252E-08
   34.7700005      -1.12284244E-08
   34.8300018      -1.09121325E-08
   34.8899994      -1.06383666E-08
   34.9500008      -1.04549009E-08
   35.0099983      -1.03814246E-08
   35.0699997      -1.04039657E-08
   35.1300011      -1.04813287E-08
   35.1899986      -1.05610418E-08
   35.2500000      -1.05987148E-08
   35.3100014      -1.05736202E-08
   35.3699989      -1.04949258E-08
   35.4300003      -1.03967679E-08
   35.4900017      -1.03245270E-08
   35.5499992      -1.03178524E-08
   35.6100006      -1.03967555E-08
   35.6699982      -1.05555547E-08
   35.7299995      -1.07661622E-08
   35.7900009      -1.09886757E-08
   35.8499985      -1.11848273E-08
   35.9099998      -1.13293508E-08
   35.9700012      -1.14157421E-08
   36.0299988      -1.14554499E-08
   36.0900002      -1.14720358E-08
   36.1500015      -1.14933174E-08
   36.2099991      -1.15445173E-08
   36.2700005      -1.16442251E-08
   36.3300018      -1.18033530E-08
   36.3899994      -1.20260388E-08
   36.4500008      -1.23111352E-08
   36.5099983      -1.26534720E-08
   36.5699997      -1.30449767E-08
   36.6300011      -1.34762690E-08
   36.6899986      -1.39391823E-08
   36.7500000      -1.44297907E-08
   36.8100014      -1.49505581E-08
   36.8699989      -1.55097784E-08
   36.9300003      -1.61171823E-08
   36.9900017      -1.67762249E-08
   37.0499992      -1.74755570E-08
   37.1100006      -1.81835045E-08
   37.1699982      -1.88492173E-08
   37.2299995      -1.94120933E-08
   37.2900009      -1.98179961E-08
   37.3499985      -2.00374686E-08
   37.4099998      -2.00794634E-08
   37.4700012      -1.99948094E-08
   37.5299988      -1.98667411E-08
   37.5900002      -1.97905035E-08
   37.6500015      -1.98483647E-08
   37.7099991      -2.00885495E-08
   37.7700005      -2.05156514E-08
   37.8300018      -2.10960032E-08
   37.8899994      -2.17759428E-08
   37.9500008      -2.25059509E-08
   38.0099983      -2.32613537E-08
   38.0699997      -2.40517224E-08
   38.1300011      -2.49156571E-08
   38.1899986      -2.59035566E-08
   38.2500000      -2.70558598E-08
   38.3100014      -2.83858679E-08
   38.3699989      -2.98742968E-08
   38.4300003      -3.14776081E-08
   38.4900017      -3.31465060E-08
   38.5499992      -3.48467353E-08
   38.6100006      -3.65735886E-08
   38.6699982      -3.83541838E-08
   38.7299995      -4.02366851E-08
   38.7900009      -4.22706528E-08
   38.8499985      -4.44859296E-08
   38.9099998      -4.68774353E-08
   38.9700012      -4.94004304E-08
   39.0299988      -5.19765315E-08
   39.0900002      -5.45072574E-08
   39.1500015      -5.68899985E-08
   39.2099991      -5.90319722E-08
   39.2700005      -6.08596835E-08
   39.3300018      -6.23237071E-08
   39.3899994      -6.33999235E-08
   39.4500008      -6.40882192E-08
   39.5099983      -6.44089582E-08
   39.5699997      -6.43969784E-08
   39.6300011      -6.40930935E-08
   39.6899986      -6.35344719E-08
   39.7500000      -6.27467074E-08
   39.8100014      -6.17407281E-08
   39.8699989      -6.05165766E-08
   39.9300003      -5.90732228E-08
   39.9900017      -5.74207206E-08
   40.0499992      -5.55891653E-08
   40.1100006      -5.36296341E-08
   40.1699982      -5.16055323E-08
   40.2299995      -4.95770429E-08
   40.2900009      -4.75847806E-08
   40.3499985      -4.56398368E-08
   40.4099998      -4.37248566E-08
   40.4700012      -4.18064587E-08
   40.5299988      -3.98541182E-08
   40.5900002      -3.78577596E-08
   40.6500015      -3.58365213E-08
   40.7099991      -3.38345778E-08
   40.7700005      -3.19052376E-08
   40.8300018      -3.00892999E-08
   40.8899994      -2.83962294E-08
   40.9500008      -2.67956448E-08
   41.0099983      -2.52229242E-08
   41.0699997      -2.35975488E-08
   41.1300011      -2.18480416E-08
   41.1899986      -1.99350030E-08
   41.2500000      -1.78643660E-08
   41.3100014      -1.56861919E-08
   41.3699989      -1.34793119E-08
   41.4300003      -1.13267484E-08
   41.4900017      -9.28994748E-09
   41.5499992      -7.39016315E-09
   41.6100006      -5.60292523E-09
   41.6699982      -3.86715193E-09
   41.7299995      -2.10557838E-09
   41.7900009      -2.49496424E-10
   41.8499985       1.74041026E-09
   41.9099998       3.86376042E-09
   41.9700012       6.08343820E-09
   42.0299988       8.33986835E-09
   42.0900002       1.05708429E-08
   42.1500015       1.27295419E-08
   42.2099991       1.47946002E-08
   42.2700005       1.67693539E-08
   42.3300018       1.86716616E-08
   42.3899994       2.05191117E-08
   42.4500008       2.23158398E-08
   42.5099983       2.40462334E-08
   42.5699997       2.56777586E-08
   42.6300011       2.71714971E-08
   42.6899986       2.84961121E-08
   42.7500000       2.96396205E-08
   42.8100014       3.06145864E-08
   42.8699989       3.14548565E-08
   42.9300003       3.22053211E-08
   42.9900017       3.29086944E-08
   43.0499992       3.35941230E-08
   43.1100006       3.42714728E-08
   43.1699982       3.49325084E-08
   43.2299995       3.55576155E-08
   43.2900009       3.61245576E-08
   43.3499985       3.66155000E-08
   43.4099998       3.70198521E-08
   43.4700012       3.73326081E-08
   43.5299988       3.75502403E-08
   43.5900002       3.76672524E-08
   43.6500015       3.76759921E-08
   43.7099991       3.75706080E-08
   43.7700005       3.73537326E-08
   43.8300018       3.70425681E-08
   43.8899994       3.66710786E-08
   43.9500008       3.62859893E-08
   44.0099983       3.59371484E-08
   44.0699997       3.56650069E-08
   44.1300011       3.54896734E-08
   44.1899986       3.54056411E-08
   44.2500000       3.53841969E-08
   44.3100014       3.53827438E-08
   44.3699989       3.53575480E-08
   44.4300003       3.52753169E-08
   44.4900017       3.51196974E-08
   44.5499992       3.48910234E-08
   44.6100006       3.46005038E-08
   44.6699982       3.42620226E-08
   44.7299995       3.38855912E-08
   44.7900009       3.34749544E-08
   44.8499985       3.30298775E-08
   44.9099998       3.25512843E-08
   44.9700012       3.20461133E-08
   45.0299988       3.15291828E-08
   45.0900002       3.10207255E-08
   45.1500015       3.05403702E-08
   45.2099991       3.00998728E-08
   45.2700005       2.96973379E-08
   45.3300018       2.93148794E-08
   45.3899994       2.89203825E-08
   45.4500008       2.84725719E-08
   45.5099983       2.79279160E-08
   45.5699997       2.72479213E-08
   45.6300011       2.64057771E-08
   45.6899986       2.53918344E-08
   45.7500000       2.42173801E-08
   45.8100014       2.29160673E-08
   45.8699989       2.15420286E-08
   45.9300003       2.01641424E-08
   45.9900017       1.88569427E-08
   46.0499992       1.76901764E-08
   46.1100006       1.67203034E-08
   46.1699982       1.59874496E-08
   46.2299995       1.55200599E-08
   46.2900009       1.53469841E-08
   46.3499985       1.55138515E-08
   46.4099998       1.60985980E-08
   46.4700012       1.72210104E-08
   46.5299988       1.90432523E-08
   46.5900002       2.17620411E-08
   46.6500015       2.55968438E-08
   46.7099991       3.07806545E-08
   46.7700005       3.75595164E-08
   46.8300018       4.62039296E-08
   46.8899994       5.70307535E-08
   46.9500008       7.04300618E-08
   47.0099983       8.68893437E-08
   47.0699997       1.07008631E-07
   47.1300011       1.31504265E-07
   47.1899986       1.61204113E-07
   47.2500000       1.97041842E-07
   47.3100014       2.40059421E-07
   47.3699989       2.91424669E-07
   47.4300003       3.52466429E-07
   47.4900017       4.24723481E-07
   47.5499992       5.09998870E-07
   47.6100006       6.10410439E-07
   47.6699982       7.28431814E-07
   47.7299995       8.66921141E-07
   47.7900009       1.02914396E-06
   47.8499985       1.21879850E-06
   47.9099998       1.44005116E-06
   47.9700012       1.69759016E-06
   48.0299988       1.99669648E-06
   48.0900002       2.34332811E-06
   48.1500015       2.74421063E-06
   48.2099991       3.20692516E-06
   48.2700005       3.73999342E-06
   48.3300018       4.35295306E-06
   48.3899994       5.05643493E-06
   48.4500008       5.86224405E-06
   48.5099983       6.78345077E-06
   48.5699997       7.83448831E-06
   48.6300011       9.03126875E-06
   48.6899986       1.03913017E-05
   48.7500000       1.19338156E-05
   48.8100014       1.36798726E-05
   48.8699989       1.56524766E-05
   48.9300003       1.78766841E-05
   48.9900017       2.03796826E-05
   49.0499992       2.31908962E-05
   49.1100006       2.63420407E-05
   49.1699982       2.98672003E-05
   49.2299995       3.38028804E-05
   49.2900009       3.81880782E-05
   49.3499985       4.30642831E-05
   49.4099998       4.84755365E-05
   49.4700012       5.44684044E-05
   49.5299988       6.10919888E-05
   49.5900002       6.83978433E-05
   49.6500015       7.64398792E-05
   49.7099991       8.52742960E-05
   49.7700005       9.49593596E-05
   49.8300018       1.05555235E-04
   49.8899994       1.17123796E-04
   49.9500008       1.29728272E-04
   50.0099983       1.43433048E-04
   50.0699997       1.58303243E-04
   50.1300011       1.74404384E-04
   50.1899986       1.91801984E-04
   50.2500000       2.10561062E-04
   50.3100014       2.30745645E-04
   50.3699989       2.52418191E-04
   50.4300003       2.75639060E-04
   50.4900017       3.00465879E-04
   50.5499992       3.26952868E-04
   50.6100006       3.55150172E-04