  -2.400000      0.0000000E+00
  -2.340000      0.0000000E+00
  -2.280000      0.0000000E+00
  -2.220000      0.0000000E+00
  -2.160000     -1.3100927E-18
  -2.100000     -9.2803990E-18
  -2.040000     -3.3990847E-17
  -1.980000     -8.3649328E-17
  -1.920000     -1.5122929E-16
  -1.860000     -2.0869277E-16
  -1.800000     -2.3274128E-16
  -1.740000     -2.6951077E-16
  -1.680000     -4.9101611E-16
  -1.620000     -1.1280268E-15
  -1.560000     -2.1518861E-15
  -1.500000     -2.7022282E-15
  -1.440000     -5.3668442E-16
  -1.380000      7.9036145E-15
  -1.320000      2.6116265E-14
  -1.260000      5.4541549E-14
  -1.200000      8.6619771E-14
  -1.140000      1.0585139E-13
  -1.080000      8.6688781E-14
  -1.020000      1.7033641E-15
 -0.9600000     -1.6471607E-13
 -0.9000000     -3.9955720E-13
 -0.8400000     -6.4847102E-13
 -0.7800000     -8.1608478E-13
 -0.7200000     -7.8600950E-13
 -0.6600000     -4.6038883E-13
 -0.6000000      1.9082659E-13
 -0.5400000      1.0893038E-12
 -0.4800000      2.0376537E-12
 -0.4200000      2.7534101E-12
 -0.3600000      2.9469201E-12
 -0.3000000      2.4226680E-12
 -0.2400000      1.1678576E-12
 -0.1800000     -6.1096554E-13
 -0.1200000     -2.5282536E-12
 -5.9999999E-02 -4.1328269E-12
  0.0000000E+00 -5.0571578E-12
  5.9999999E-02 -5.1428514E-12
  0.1200000     -4.4837814E-12
  0.1800000     -3.3577609E-12
  0.2400000     -2.0670841E-12
  0.3000000     -7.5788806E-13
  0.3600000      6.8628279E-13
  0.4200000      2.5981099E-12
  0.4800000      5.3093758E-12
  0.5400000      8.8305014E-12
  0.6000000      1.2568942E-11
  0.6600000      1.5254296E-11
  0.7200000      1.5190096E-11
  0.7800000      1.0834690E-11
  0.8400000      1.5625706E-12
  0.9000000     -1.1667619E-11
  0.9600000     -2.6051074E-11
   1.020000     -3.7309697E-11
   1.080000     -4.0731408E-11
   1.140000     -3.2653949E-11
   1.200000     -1.1953681E-11
   1.260000      1.8989081E-11
   1.320000      5.4279688E-11
   1.380000      8.5610553E-11
   1.440000      1.0425826E-10
   1.500000      1.0341861E-10
   1.560000      8.0145890E-11
   1.620000      3.6240195E-11
   1.680000     -2.2242659E-11
   1.740000     -8.6698301E-11
   1.800000     -1.4826688E-10
   1.860000     -1.9980616E-10
   1.920000     -2.3668706E-10
   1.980000     -2.5593927E-10
   2.040000     -2.5388461E-10
   2.100000     -2.2302062E-10
   2.160000     -1.4932655E-10
   2.220000     -1.1181749E-11
   2.280000      2.1932195E-10
   2.340000      5.7261723E-10
   2.400000      1.0761958E-09
   2.460000      1.7487940E-09
   2.520000      2.5957803E-09
   2.580000      3.6069929E-09
   2.640000      4.7575806E-09
   2.700000      6.0115477E-09
   2.760000      7.3269577E-09
   2.820000      8.6613952E-09
   2.880000      9.9763868E-09
   2.940000      1.1240022E-08
   3.000000      1.2427702E-08
   3.060000      1.3521617E-08
   3.120000      1.4509893E-08
   3.180000      1.5386222E-08
   3.240000      1.6150382E-08
   3.300000      1.6809379E-08
   3.360000      1.7378396E-08
   3.420000      1.7880540E-08
   3.480000      1.8344537E-08
   3.540000      1.8800177E-08
   3.600000      1.9272132E-08
   3.660000      1.9773411E-08
   3.720000      2.0300204E-08
   3.780000      2.0829635E-08
   3.840000      2.1321286E-08
   3.900000      2.1722430E-08
   3.960000      2.1975843E-08
   4.020000      2.2028441E-08
   4.080000      2.1838892E-08
   4.140000      2.1382757E-08
   4.200000      2.0654678E-08
   4.260000      1.9668004E-08
   4.320000      1.8452933E-08
   4.380000      1.7054333E-08
   4.440000      1.5529846E-08
   4.500000      1.3948141E-08
   4.560000      1.2386354E-08
   4.620000      1.0925503E-08
   4.680000      9.6430863E-09
   4.740000      8.6031786E-09
   4.800000      7.8456344E-09
   4.860000      7.3771185E-09
   4.920000      7.1669355E-09
   4.980000      7.1498452E-09
   5.040000      7.2364044E-09
   5.100000      7.3292385E-09
   5.160000      7.3417934E-09
   5.220000      7.2151893E-09
   5.280000      6.9290977E-09
   5.340000      6.5040977E-09
   5.400000      5.9952301E-09
   5.460000      5.4787810E-09
   5.520000      5.0359397E-09
   5.580000      4.7374629E-09
   5.640000      4.6327493E-09
   5.700000      4.7450728E-09
   5.760000      5.0728044E-09
   5.820000      5.5948672E-09
   5.880000      6.2778938E-09
   5.940000      7.0827730E-09
   6.000000      7.9692022E-09
   6.060000      8.8981142E-09
   6.120000      9.8328190E-09
   6.180000      1.0740070E-08
   6.240000      1.1591863E-08
   6.300000      1.2367932E-08
   6.360000      1.3057941E-08
   6.420000      1.3661794E-08
   6.480000      1.4186856E-08
   6.540000      1.4641736E-08
   6.600000      1.5027915E-08
   6.660000      1.5331779E-08
   6.720000      1.5520305E-08
   6.780000      1.5543089E-08
   6.840000      1.5341724E-08
   6.900000      1.4864971E-08
   6.960000      1.4085780E-08
   7.020000      1.3014694E-08
   7.080000      1.1704465E-08
   7.140000      1.0242776E-08
   7.200000      8.7336138E-09
   7.260000      7.2716606E-09
   7.320000      5.9170238E-09
   7.380000      4.6782529E-09
   7.440000      3.5096810E-09
   7.500000      2.3248741E-09
   7.560000      1.0228332E-09
   7.620000     -4.8077081E-10
   7.680000     -2.2270117E-09
   7.740000     -4.2002273E-09
   7.800000     -6.3319598E-09
   7.860000     -8.5209679E-09
   7.920000     -1.0662687E-08
   7.980000     -1.2678510E-08
   8.040000     -1.4535511E-08
   8.100000     -1.6250658E-08
   8.160000     -1.7878891E-08
   8.220000     -1.9489885E-08
   8.280000     -2.1141787E-08
   8.340000     -2.2860990E-08
   8.400000     -2.4634565E-08
   8.460000     -2.6417489E-08
   8.520000     -2.8151852E-08
   8.580000     -2.9791371E-08
   8.640000     -3.1322887E-08
   8.700000     -3.2777649E-08
   8.760000     -3.4228410E-08
   8.820000     -3.5772715E-08
   8.880000     -3.7506961E-08
   8.940000     -3.9498556E-08
   9.000000     -4.1764199E-08
   9.060000     -4.4260744E-08
   9.120000     -4.6891731E-08
   9.180000     -4.9528236E-08
   9.240000     -5.2038850E-08
   9.300000     -5.4320580E-08
   9.360000     -5.6322179E-08
   9.420000     -5.8053125E-08
   9.480000     -5.9575559E-08
   9.540000     -6.0981428E-08
   9.600000     -6.2361650E-08
   9.660000     -6.3776668E-08
   9.720000     -6.5237749E-08
   9.780000     -6.6704928E-08
   9.840000     -6.8102118E-08
   9.900000     -6.9344445E-08
   9.960000     -7.0368117E-08
   10.02000     -7.1152279E-08
   10.08000     -7.1724784E-08
   10.14000     -7.2149028E-08
   10.20000     -7.2495780E-08
   10.26000     -7.2809648E-08
   10.32000     -7.3081729E-08
   10.38000     -7.3238866E-08
   10.44000     -7.3154332E-08
   10.50000     -7.2677999E-08
   10.56000     -7.1677398E-08
   10.62000     -7.0077554E-08
   10.68000     -6.7887257E-08
   10.74000     -6.5203835E-08
   10.80000     -6.2194388E-08
   10.86000     -5.9058589E-08
   10.92000     -5.5982888E-08
   10.98000     -5.3098532E-08
   11.04000     -5.0454069E-08
   11.10000     -4.8009213E-08
   11.16000     -4.5650982E-08
   11.22000     -4.3227377E-08
   11.28000     -4.0589438E-08
   11.34000     -3.7630606E-08
   11.40000     -3.4313437E-08
   11.46000     -3.0677178E-08
   11.52000     -2.6825164E-08
   11.58000     -2.2896414E-08
   11.64000     -1.9030029E-08
   11.70000     -1.5332731E-08
   11.76000     -1.1858366E-08
   11.82000     -8.6043643E-09
   11.88000     -5.5246194E-09
   11.94000     -2.5534899E-09
   12.00000      3.6746159E-10
   12.06000      3.2684531E-09
   12.12000      6.1421361E-09
   12.18000      8.9476542E-09
   12.24000      1.1625530E-08
   12.30000      1.4117764E-08
   12.36000      1.6386547E-08
   12.42000      1.8426164E-08
   12.48000      2.0265219E-08
   12.54000      2.1959368E-08
   12.60000      2.3577252E-08
   12.66000      2.5183910E-08
   12.72000      2.6826081E-08
   12.78000      2.8523061E-08
   12.84000      3.0265074E-08
   12.90000      3.2019134E-08
   12.96000      3.3740434E-08
   13.02000      3.5385849E-08
   13.08000      3.6925599E-08
   13.14000      3.8349686E-08
   13.20000      3.9667469E-08
   13.26000      4.0900876E-08
   13.32000      4.2074060E-08
   13.38000      4.3203482E-08
   13.44000      4.4292197E-08
   13.50000      4.5330591E-08
   13.56000      4.6303136E-08
   13.62000      4.7198412E-08
   13.68000      4.8018116E-08
   13.74000      4.8781096E-08
   13.80000      4.9520295E-08
   13.86000      5.0273197E-08
   13.92000      5.1068966E-08
   13.98000      5.1916963E-08
   14.04000      5.2800807E-08
   14.10000      5.3680370E-08
   14.16000      5.4501239E-08
   14.22000      5.5208456E-08
   14.28000      5.5760236E-08
   14.34000      5.6137289E-08
   14.40000      5.6345304E-08
   14.46000      5.6410403E-08
   14.52000      5.6369760E-08
   14.58000      5.6260564E-08
   14.64000      5.6110657E-08
   14.70000      5.5932954E-08
   14.76000      5.5724222E-08
   14.82000      5.5467662E-08
   14.88000      5.5137903E-08
   14.94000      5.4707105E-08
   15.00000      5.4151357E-08
   15.06000      5.3456464E-08
   15.12000      5.2622493E-08
   15.18000      5.1665950E-08
   15.24000      5.0618397E-08
   15.30000      4.9520985E-08
   15.36000      4.8415348E-08
   15.42000      4.7332982E-08
   15.48000      4.6286480E-08
   15.54000      4.5265882E-08
   15.60000      4.4242327E-08
   15.66000      4.3178506E-08
   15.72000      4.2042643E-08
   15.78000      4.0821121E-08
   15.84000      3.9524771E-08
   15.90000      3.8186077E-08
   15.96000      3.6848089E-08
   16.02000      3.5549142E-08
   16.08000      3.4309458E-08
   16.14000      3.3125250E-08
   16.20000      3.1972959E-08
   16.26000      3.0822378E-08
   16.32000      2.9653620E-08
   16.38000      2.8471142E-08
   16.44000      2.7308893E-08
   16.50000      2.6223846E-08
   16.56000      2.5279419E-08
   16.62000      2.4524205E-08
   16.68000      2.3973254E-08
   16.74000      2.3598620E-08
   16.80000      2.3332857E-08
   16.86000      2.3085020E-08
   16.92000      2.2764768E-08
   16.98000      2.2307450E-08
   17.04000      2.1692893E-08
   17.10000      2.0952287E-08
   17.16000      2.0161128E-08
   17.22000      1.9420122E-08
   17.28000      1.8829253E-08
   17.34000      1.8462035E-08
   17.40000      1.8346812E-08
   17.46000      1.8459897E-08
   17.52000      1.8732125E-08
   17.58000      1.9066803E-08
   17.64000      1.9364069E-08
   17.70000      1.9545153E-08
   17.76000      1.9570217E-08
   17.82000      1.9445368E-08
   17.88000      1.9217344E-08
   17.94000      1.8957779E-08
   18.00000      1.8741581E-08
   18.06000      1.8625487E-08
   18.12000      1.8632624E-08
   18.18000      1.8747137E-08
   18.24000      1.8920082E-08
   18.30000      1.9084563E-08
   18.36000      1.9175445E-08
   18.42000      1.9147631E-08
   18.48000      1.8987373E-08
   18.54000      1.8713120E-08
   18.60000      1.8365661E-08
   18.66000      1.7990722E-08
   18.72000      1.7619653E-08
   18.78000      1.7254628E-08
   18.84000      1.6863467E-08
   18.90000      1.6386178E-08
   18.96000      1.5751459E-08
   19.02000      1.4898057E-08
   19.08000      1.3794050E-08
   19.14000      1.2447591E-08
   19.20000      1.0905196E-08
   19.26000      9.2375725E-09
   19.32000      7.5169542E-09
   19.38000      5.7926033E-09
   19.44000      4.0718189E-09
   19.50000      2.3121471E-09
   19.56000      4.2718484E-10
   19.62000     -1.6955601E-09
   19.68000     -4.1696255E-09
   19.74000     -7.0839881E-09
   19.80000     -1.0483316E-08
   19.86000     -1.4358575E-08
   19.92000     -1.8649517E-08
   19.98000     -2.3257538E-08
   20.04000     -2.8065058E-08
   20.10000     -3.2956482E-08
   20.16000     -3.7835981E-08
   20.22000     -4.2638529E-08
   20.28000     -4.7332470E-08
   20.34000     -5.1913947E-08
   20.40000     -5.6395219E-08
   20.46000     -6.0790320E-08
   20.52000     -6.5101851E-08
   20.58000     -6.9312726E-08
   20.64000     -7.3385110E-08
   20.70000     -7.7267103E-08
   20.76000     -8.0905387E-08
   20.82000     -8.4260002E-08
   20.88000     -8.7316650E-08
   20.94000     -9.0092179E-08
   21.00000     -9.2631119E-08
   21.06000     -9.4993652E-08
   21.12000     -9.7238591E-08
   21.18000     -9.9406464E-08
   21.24000     -1.0150818E-07
   21.30000     -1.0352265E-07
   21.36000     -1.0540406E-07
   21.42000     -1.0709609E-07
   21.48000     -1.0854808E-07
   21.54000     -1.0972798E-07
   21.60000     -1.1062795E-07
   21.66000     -1.1126140E-07
   21.72000     -1.1165328E-07
   21.78000     -1.1182750E-07
   21.84000     -1.1179629E-07
   21.90000     -1.1155534E-07
   21.96000     -1.1108647E-07
   22.02000     -1.1036700E-07
   22.08000     -1.0938250E-07
   22.14000     -1.0813884E-07
   22.20000     -1.0666872E-07
   22.26000     -1.0503034E-07
   22.32000     -1.0329725E-07
   22.38000     -1.0154179E-07
   22.44000     -9.9816504E-08
   22.50000     -9.8139026E-08
   22.56000     -9.6485401E-08
   22.62000     -9.4794594E-08
   22.68000     -9.2983761E-08
   22.74000     -9.0970374E-08
   22.80000     -8.8695053E-08
   22.86000     -8.6138542E-08
   22.92000     -8.3327805E-08
   22.98000     -8.0329734E-08
   23.04000     -7.7234617E-08
   23.10000     -7.4134562E-08
   23.16000     -7.1103244E-08
   23.22000     -6.8182715E-08
   23.28000     -6.5380050E-08
   23.34000     -6.2673841E-08
   23.40000     -6.0027439E-08
   23.46000     -5.7404272E-08
   23.52000     -5.4780710E-08
   23.58000     -5.2152913E-08
   23.64000     -4.9536609E-08
   23.70000     -4.6960462E-08
   23.76000     -4.4455806E-08
   23.82000     -4.2046146E-08
   23.88000     -3.9739803E-08
   23.94000     -3.7528032E-08
   24.00000     -3.5389370E-08
   24.06000     -3.3298992E-08
   24.12000     -3.1240482E-08
   24.18000     -2.9216489E-08
   24.24000     -2.7254943E-08
   24.30000     -2.5408671E-08
   24.36000     -2.3748107E-08
   24.42000     -2.2348715E-08
   24.48000     -2.1276310E-08
   24.54000     -2.0574120E-08
   24.60000     -2.0254937E-08
   24.66000     -2.0300467E-08
   24.72000     -2.0667906E-08
   24.78000     -2.1301943E-08
   24.84000     -2.2148850E-08
   24.90000     -2.3168814E-08
   24.96000     -2.4343102E-08
   25.02000     -2.5674195E-08
   25.08000     -2.7178940E-08
   25.14000     -2.8876881E-08
   25.20000     -3.0777375E-08
   25.26000     -3.2869451E-08
   25.32000     -3.5117711E-08
   25.38000     -3.7465728E-08
   25.44000     -3.9846110E-08
   25.50000     -4.2194408E-08
   25.56000     -4.4462574E-08
   25.62000     -4.6627935E-08
   25.68000     -4.8694503E-08
   25.74000     -5.0685951E-08
   25.80000     -5.2631961E-08
   25.86000     -5.4551737E-08
   25.92000     -5.6439703E-08
   25.98000     -5.8257772E-08
   26.04000     -5.9937001E-08
   26.10000     -6.1388555E-08
   26.16000     -6.2521067E-08
   26.22000     -6.3259719E-08
   26.28000     -6.3561338E-08
   26.34000     -6.3421510E-08
   26.40000     -6.2871827E-08
   26.46000     -6.1968571E-08
   26.52000     -6.0776600E-08
   26.58000     -5.9353500E-08
   26.64000     -5.7738443E-08
   26.70000     -5.5948444E-08
   26.76000     -5.3982131E-08
   26.82000     -5.1828803E-08
   26.88000     -4.9479283E-08
   26.94000     -4.6934812E-08
   27.00000     -4.4211443E-08
   27.06000     -4.1338748E-08
   27.12000     -3.8353420E-08
   27.18000     -3.5289709E-08
   27.24000     -3.2169208E-08
   27.30000     -2.8992847E-08
   27.36000     -2.5737563E-08
   27.42000     -2.2359243E-08
   27.48000     -1.8802298E-08
   27.54000     -1.5014427E-08
   27.60000     -1.0963507E-08
   27.66000     -6.6522472E-09
   27.72000     -2.1261586E-09
   27.78000      2.5282827E-09
   27.84000      7.1958088E-09
   27.90000      1.1752218E-08
   27.96000      1.6086652E-08
   28.02000      2.0120057E-08
   28.08000      2.3814717E-08
   28.14000      2.7172758E-08
   28.20000      3.0225124E-08
   28.26000      3.3015525E-08
   28.32000      3.5584875E-08
   28.38000      3.7960707E-08
   28.44000      4.0153402E-08
   28.50000      4.2158188E-08
   28.56000      4.3960092E-08
   28.62000      4.5538911E-08
   28.68000      4.6872699E-08
   28.74000      4.7940002E-08
   28.80000      4.8722377E-08
   28.86000      4.9208467E-08
   28.92000      4.9399461E-08
   28.98000      4.9313954E-08
   29.04000      4.8989317E-08
   29.10000      4.8477368E-08
   29.16000      4.7834227E-08
   29.22000      4.7107044E-08
   29.28000      4.6322164E-08
   29.34000      4.5479510E-08
   29.40000      4.4555808E-08
   29.46000      4.3516103E-08
   29.52000      4.2329599E-08
   29.58000      4.0984073E-08
   29.64000      3.9493518E-08
   29.70000      3.7896097E-08
   29.76000      3.6243065E-08
   29.82000      3.4582484E-08
   29.88000      3.2943259E-08
   29.94000      3.1324650E-08
   30.00000      2.9694490E-08
   30.06000      2.7996332E-08
   30.12000      2.6163367E-08
   30.18000      2.4135238E-08
   30.24000      2.1873642E-08
   30.30000      1.9373344E-08
   30.36000      1.6666503E-08
   30.42000      1.3819575E-08
   30.48000      1.0923238E-08
   30.54000      8.0768618E-09
   30.60000      5.3700151E-09
   30.66000      2.8645002E-09
   30.72000      5.8091260E-10
   30.78000     -1.5064026E-09
   30.84000     -3.4635703E-09
   30.90000     -5.3806946E-09
   30.96000     -7.3479867E-09
   31.02000     -9.4306243E-09
   31.08000     -1.1649687E-08
   31.14000     -1.3975402E-08
   31.20000     -1.6335497E-08
   31.26000     -1.8636735E-08
   31.32000     -2.0793205E-08
   31.38000     -2.2752477E-08
   31.44000     -2.4511198E-08
   31.50000     -2.6115165E-08
   31.56000     -2.7644090E-08
   31.62000     -2.9186396E-08
   31.68000     -3.0812544E-08
   31.74000     -3.2555530E-08
   31.80000     -3.4404490E-08
   31.86000     -3.6312532E-08
   31.92000     -3.8215408E-08
   31.98000     -4.0054282E-08
   32.04000     -4.1795204E-08
   32.10000     -4.3439631E-08
   32.16000     -4.5023775E-08
   32.22000     -4.6608058E-08
   32.28000     -4.8260791E-08
   32.34000     -5.0041123E-08
   32.40000     -5.1985676E-08
   32.46000     -5.4101509E-08
   32.52000     -5.6365856E-08
   32.58000     -5.8731409E-08
   32.64000     -6.1134998E-08
   32.70000     -6.3507450E-08
   32.76000     -6.5782828E-08
   32.82000     -6.7905923E-08
   32.88000     -6.9837434E-08
   32.94000     -7.1556101E-08
   33.00000     -7.3057855E-08
   33.06000     -7.4351782E-08
   33.12000     -7.5453535E-08
   33.18000     -7.6377482E-08
   33.24000     -7.7129613E-08
   33.30000     -7.7703277E-08
   33.36000     -7.8079402E-08
   33.42000     -7.8231530E-08
   33.48000     -7.8134349E-08
   33.54000     -7.7773009E-08
   33.60000     -7.7149735E-08
   33.66000     -7.6285190E-08
   33.72000     -7.5213400E-08
   33.78000     -7.3971592E-08
   33.84000     -7.2588143E-08
   33.90000     -7.1072769E-08
   33.96000     -6.9412437E-08
   34.02000     -6.7574931E-08
   34.08000     -6.5519060E-08
   34.14000     -6.3208844E-08
   34.20000     -6.0627372E-08
   34.26000     -5.7786501E-08
   34.32000     -5.4729831E-08
   34.38000     -5.1528122E-08
   34.44000     -4.8268465E-08
   34.50000     -4.5039641E-08
   34.56000     -4.1916898E-08
   34.62000     -3.8949207E-08
   34.68000     -3.6151729E-08
   34.74000     -3.3505344E-08
   34.80000     -3.0963811E-08
   34.86000     -2.8467699E-08
   34.92000     -2.5962366E-08
   34.98000     -2.3415858E-08
   35.04000     -2.0831733E-08
   35.10000     -1.8252651E-08
   35.16000     -1.5752516E-08
   35.22000     -1.3418385E-08
   35.28000     -1.1326655E-08
   35.34000     -9.5203774E-09
   35.40000     -7.9948119E-09
   35.46000     -6.6962160E-09
   35.52000     -5.5348992E-09
   35.58000     -4.4090136E-09
   35.64000     -3.2320147E-09
   35.70000     -1.9553874E-09
   35.76000     -5.7964777E-10
   35.82000      8.4961888E-10
   35.88000      2.2591566E-09
   35.94000      3.5730923E-09
   36.00000      4.7375375E-09
   36.06000      5.7369780E-09
   36.12000      6.5974928E-09
   36.18000      7.3761792E-09
   36.24000      8.1405744E-09
   36.30000      8.9449284E-09
   36.36000      9.8109840E-09
   36.42000      1.0719245E-08
   36.48000      1.1613137E-08
   36.54000      1.2414234E-08
   36.60000      1.3043169E-08
   36.66000      1.3439176E-08
   36.72000      1.3571911E-08
   36.78000      1.3442094E-08
   36.84000      1.3071459E-08
   36.90000      1.2486282E-08
   36.96000      1.1700820E-08
   37.02000      1.0706863E-08
   37.08000      9.4730641E-09
   37.14000      7.9539992E-09
   37.20000      6.1052616E-09
   37.26000      3.8988586E-09
   37.32000      1.3333963E-09
   37.38000     -1.5640725E-09
   37.44000     -4.7442006E-09
   37.50000     -8.1460687E-09
   37.56000     -1.1707641E-08
   37.62000     -1.5371901E-08
   37.68000     -1.9087105E-08
   37.74000     -2.2802663E-08
   37.80000     -2.6464264E-08
   37.86000     -3.0012203E-08
   37.92000     -3.3385138E-08
   37.98000     -3.6528760E-08
   38.04000     -3.9406181E-08
   38.10000     -4.2005620E-08
   38.16000     -4.4341846E-08
   38.22000     -4.6450001E-08
   38.28000     -4.8373735E-08
   38.34000     -5.0151687E-08
   38.40000     -5.1806971E-08
   38.46000     -5.3343193E-08
   38.52000     -5.4747886E-08
   38.58000     -5.6001539E-08
   38.64000     -5.7088570E-08
   38.70000     -5.8006236E-08
   38.76000     -5.8768684E-08
   38.82000     -5.9405298E-08
   38.88000     -5.9954459E-08
   38.94000     -6.0454958E-08
   39.00000     -6.0937609E-08
   39.06000     -6.1418746E-08
   39.12000     -6.1896614E-08
   39.18000     -6.2350892E-08
   39.24000     -6.2745180E-08
   39.30000     -6.3032402E-08
   39.36000     -6.3162616E-08
   39.42000     -6.3092237E-08
   39.48000     -6.2792608E-08
   39.54000     -6.2255502E-08
   39.60000     -6.1492983E-08
   39.66000     -6.0530688E-08
   39.72000     -5.9395997E-08
   39.78000     -5.8104572E-08
   39.84000     -5.6650592E-08
   39.90000     -5.5004872E-08
   39.96000     -5.3122683E-08
   40.02000     -5.0959169E-08
   40.08000     -4.8486900E-08
   40.14000     -4.5708873E-08
   40.20000     -4.2661586E-08
   40.26000     -3.9406718E-08
   40.32000     -3.6014534E-08
   40.38000     -3.2545497E-08
   40.44000     -2.9037444E-08
   40.50000     -2.5503251E-08
   40.56000     -2.1939545E-08
   40.62000     -1.8342615E-08
   40.68000     -1.4724802E-08
   40.74000     -1.1124770E-08
   40.80000     -7.6077837E-09
   40.86000     -4.2561608E-09
   40.92000     -1.1535977E-09
   40.98000      1.6311525E-09
   41.04000      4.0564148E-09
   41.10000      6.1129177E-09
   41.16000      7.8223952E-09
   41.22000      9.2314298E-09
   41.28000      1.0403004E-08
   41.34000      1.1407523E-08
   41.40000      1.2313992E-08
   41.46000      1.3181333E-08
   41.52000      1.4050123E-08
   41.58000      1.4935846E-08
   41.64000      1.5825657E-08
   41.70000      1.6680566E-08
   41.76000      1.7443904E-08
   41.82000      1.8054827E-08
   41.88000      1.8463583E-08
   41.94000      1.8644220E-08
   42.00000      1.8600817E-08
   42.06000      1.8365247E-08
   42.12000      1.7987247E-08
   42.18000      1.7519934E-08
   42.24000      1.7005156E-08
   42.30000      1.6462803E-08
   42.36000      1.5886608E-08
   42.42000      1.5246890E-08
   42.48000      1.4498720E-08
   42.54000      1.3592968E-08
   42.60000      1.2487358E-08
   42.66000      1.1155166E-08
   42.72000      9.5898605E-09
   42.78000      7.8049318E-09
   42.84000      5.8289378E-09
   42.90000      3.6968064E-09
   42.96000      1.4393431E-09
   43.02000     -9.2635399E-10
   43.08000     -3.4026706E-09
   43.14000     -6.0112648E-09
   43.20000     -8.7862650E-09
   43.26000     -1.1762411E-08
   43.32000     -1.4961552E-08
   43.38000     -1.8381831E-08
   43.44000     -2.1993268E-08
   43.50000     -2.5741498E-08
   43.56000     -2.9558715E-08
   43.62000     -3.3378402E-08
   43.68000     -3.7149302E-08
   43.74000     -4.0844370E-08
   43.80000     -4.4462489E-08
   43.86000     -4.8023068E-08
   43.92000     -5.1556057E-08
   43.98000     -5.5090780E-08
   44.04000     -5.8647053E-08
   44.10000     -6.2230484E-08
   44.16000     -6.5832282E-08
   44.22000     -6.9432517E-08
   44.28000     -7.3004948E-08
   44.34000     -7.6521758E-08
   44.40000     -7.9957225E-08
   44.46000     -8.3289926E-08
   44.52000     -8.6503718E-08
   44.58000     -8.9588042E-08
   44.64000     -9.2537981E-08
   44.70000     -9.5354686E-08
   44.76000     -9.8046606E-08
   44.82000     -1.0063206E-07
   44.88000     -1.0314327E-07
   44.94000     -1.0563133E-07
   45.00000     -1.0817060E-07
   45.06000     -1.1086063E-07
   45.12000     -1.1382353E-07
   45.18000     -1.1719602E-07
   45.24000     -1.2111690E-07
   45.30000     -1.2571331E-07
   45.36000     -1.3109010E-07
   45.42000     -1.3732667E-07
   45.48000     -1.4448401E-07
   45.54000     -1.5262174E-07
   45.60000     -1.6182146E-07
   45.66000     -1.7221126E-07
   45.72000     -1.8398553E-07
   45.78000     -1.9741665E-07
   45.84000     -2.1285760E-07
   45.90000     -2.3073795E-07
   45.96000     -2.5155776E-07
   46.02000     -2.7588365E-07
   46.08000     -3.0435052E-07
   46.14000     -3.3766980E-07
   46.20000     -3.7664265E-07
   46.26000     -4.2217607E-07
   46.32000     -4.7529869E-07
   46.38000     -5.3717503E-07
   46.44000     -6.0911754E-07
   46.50000     -6.9259823E-07
   46.56000     -7.8926075E-07
   46.62000     -9.0093454E-07
   46.68000     -1.0296527E-06
   46.74000     -1.1776729E-06
   46.80000     -1.3475003E-06
   46.86000     -1.5419135E-06
   46.92000     -1.7639886E-06
   46.98000     -2.0171228E-06
   47.04000     -2.3050545E-06
   47.10000     -2.6318839E-06
   47.16000     -3.0020890E-06
   47.22000     -3.4205416E-06
   47.28000     -3.8925268E-06
   47.34000     -4.4237590E-06
   47.40000     -5.0204089E-06
   47.46000     -5.6891240E-06
   47.52000     -6.4370552E-06
   47.58000     -7.2718776E-06
   47.64000     -8.2018114E-06
   47.70000     -9.2356249E-06
   47.76000     -1.0382642E-05
   47.82000     -1.1652728E-05
   47.88000     -1.3056273E-05
   47.94000     -1.4604173E-05
   48.00000     -1.6307808E-05
   48.06000     -1.8179007E-05
   48.12000     -2.0230040E-05
   48.18000     -2.2473570E-05
   48.24000     -2.4922627E-05
   48.30000     -2.7590550E-05
   48.36000     -3.0490926E-05
   48.42000     -3.3637527E-05
   48.48000     -3.7044207E-05
   48.54000     -4.0724815E-05
   48.60000     -4.4693090E-05
   48.66000     -4.8962549E-05
   48.72000     -5.3546373E-05
   48.78000     -5.8457303E-05
   48.84000     -6.3707528E-05
   48.90000     -6.9308575E-05
   48.96000     -7.5271149E-05
   49.02000     -8.1605038E-05
   49.08000     -8.8318935E-05
   49.14000     -9.5420342E-05
   49.20000     -1.0291541E-04
   49.26000     -1.1080881E-04
   49.32000     -1.1910363E-04
   49.38000     -1.2780122E-04
   49.44000     -1.3690113E-04
   49.50000     -1.4640090E-04
   49.56000     -1.5629607E-04
   49.62000     -1.6658005E-04
   49.68000     -1.7724410E-04
   49.74000     -1.8827723E-04
   49.80000     -1.9966626E-04
   49.86000     -2.1139583E-04
   49.92000     -2.2344840E-04
   49.98000     -2.3580430E-04
   50.04000     -2.4844176E-04
   50.10000     -2.6133712E-04
   50.16000     -2.7446484E-04
   50.22000     -2.8779759E-04
   50.28000     -3.0130660E-04
   50.34000     -3.1496165E-04
   50.40000     -3.2873134E-04
   50.46000     -3.4258337E-04
   50.52000     -3.5648476E-04
   50.58000     -3.7040203E-04
   50.64000     -3.8430167E-04
   50.70000     -3.9815038E-04
   50.76000     -4.1191519E-04
   50.82000     -4.2556386E-04
   50.88000     -4.3906530E-04
   50.94000     -4.5238962E-04
   51.00000     -4.6550858E-04
   51.06000     -4.7839578E-04
   51.12000     -4.9102685E-04
   51.18000     -5.0337974E-04
   51.24000     -5.1543507E-04
   51.30000     -5.2717619E-04
   51.36000     -5.3858943E-04
   51.42000     -5.4966391E-04
   51.48000     -5.6039210E-04
   51.54000     -5.7076942E-04
   51.60000     -5.8079453E-04
   51.66000     -5.9046899E-04
   51.72000     -5.9979741E-04
   51.78000     -6.0878729E-04
   51.84000     -6.1744900E-04
   51.90000     -6.2579528E-04
   51.96000     -6.3384144E-04
   52.02000     -6.4160483E-04
   52.08000     -6.4910488E-04
   52.14000     -6.5636233E-04
   52.20000     -6.6339911E-04
   52.26000     -6.7023822E-04
   52.32000     -6.7690277E-04
   52.38000     -6.8341597E-04
   52.44000     -6.8980077E-04
   52.50000     -6.9607951E-04
   52.56000     -7.0227333E-04
   52.62000     -7.0840208E-04
   52.68000     -7.1448396E-04
   52.74000     -7.2053511E-04
   52.80000     -7.2656950E-04
   52.86000     -7.3259842E-04
   52.92000     -7.3863060E-04
   52.98000     -7.4467197E-04
   53.04000     -7.5072522E-04
   53.10000     -7.5678999E-04
   53.16000     -7.6286268E-04
   53.22000     -7.6893653E-04
   53.28000     -7.7500171E-04
   53.34000     -7.8104535E-04
   53.40000     -7.8705192E-04
   53.46000     -7.9300342E-04
   53.52000     -7.9887948E-04
   53.58000     -8.0465764E-04
   53.64000     -8.1031403E-04
   53.70000     -8.1582321E-04
   53.76000     -8.2115864E-04
   53.82000     -8.2629337E-04
   53.88000     -8.3120010E-04
   53.94000     -8.3585153E-04
   54.00000     -8.4022118E-04
   54.06000     -8.4428332E-04
   54.12000     -8.4801373E-04
   54.18000     -8.5138995E-04
   54.24000     -8.5439143E-04
   54.30000     -8.5700012E-04
   54.36000     -8.5920061E-04
   54.42000     -8.6098013E-04
   54.48000     -8.6232921E-04
   54.54000     -8.6324144E-04
   54.60000     -8.6371350E-04
   54.66000     -8.6374546E-04
   54.72000     -8.6334057E-04
   54.78000     -8.6250523E-04
   54.84000     -8.6124922E-04
   54.90000     -8.5958530E-04
   54.96000     -8.5752900E-04
   55.02000     -8.5509830E-04
   55.08000     -8.5231353E-04
   55.14000     -8.4919669E-04
   55.20000     -8.4577146E-04
   55.26000     -8.4206264E-04
   55.32000     -8.3809585E-04
   55.38000     -8.3389709E-04
   55.44000     -8.2949270E-04
   55.50000     -8.2490867E-04
   55.56000     -8.2017027E-04