 -0.750000000       0.00000000    
 -0.689999998       0.00000000    
 -0.629999995       0.00000000    
 -0.569999993       0.00000000    
 -0.509999990      -2.91404175E-19
 -0.449999988      -1.73395451E-18
 -0.389999986      -5.14191061E-18
 -0.330000013      -9.77277332E-18
 -0.270000011      -1.29011878E-17
 -0.209999993      -1.31335445E-17
 -0.150000006      -1.71220779E-17
  -9.00000036E-02  -4.35050812E-17
  -2.99999993E-02  -1.14206167E-16
   2.99999993E-02  -2.27713744E-16
   9.00000036E-02  -3.23081924E-16
  0.150000006      -2.60049412E-16
  0.209999993       1.53666692E-16
  0.270000011       1.07335009E-15
  0.330000013       2.48886168E-15
  0.389999986       4.11749831E-15
  0.449999988       5.39077772E-15
  0.509999990       5.57498409E-15
  0.569999993       3.99662925E-15
  0.629999995       2.78262658E-16
  0.689999998      -5.52376189E-15
  0.750000000      -1.29256914E-14
  0.810000002      -2.11024672E-14
  0.870000005      -2.89069577E-14
  0.930000007      -3.47054200E-14
  0.990000010      -3.60796293E-14
   1.04999995      -2.96798312E-14
   1.11000001      -1.16548201E-14
   1.16999996       2.10210030E-14
   1.23000002       6.84096876E-14
   1.28999996       1.25321357E-13
   1.35000002       1.79992739E-13
   1.40999997       2.14879343E-13
   1.47000003       2.10151029E-13
   1.52999997       1.49466892E-13
   1.59000003       2.65199290E-14
   1.64999998      -1.49818485E-13
   1.71000004      -3.53806313E-13
   1.76999998      -5.45720912E-13
   1.83000004      -6.79061191E-13
   1.88999999      -7.10443911E-13
   1.95000005      -6.09770752E-13
   2.00999999      -3.68198365E-13
   2.06999993      -2.08629361E-15
   2.13000011       4.47878957E-13
   2.19000006       9.22095408E-13
   2.25000000       1.35076618E-12
   2.30999994       1.66402471E-12
   2.36999989       1.80124199E-12
   2.43000007       1.71750429E-12
   2.49000001       1.38622284E-12
   2.54999995       7.98582717E-13
   2.60999990      -3.73662113E-14
   2.67000008      -1.09370271E-12
   2.73000002      -2.31189698E-12
   2.78999996      -3.58379710E-12
   2.84999990      -4.72959302E-12
   2.91000009      -5.48443582E-12
   2.97000003      -5.50919076E-12
   3.02999997      -4.43865777E-12
   3.08999991      -1.97093405E-12
   3.15000010       2.01401547E-12
   3.21000004       7.33494428E-12
   3.26999998       1.34280365E-11
   3.32999992       1.93413618E-11
   3.39000010       2.38278650E-11
   3.45000005       2.55347358E-11
   3.50999999       2.32601317E-11
   3.56999993       1.62283537E-11
   3.63000011       4.32806612E-12
   3.69000006      -1.17345959E-11
   3.75000000      -3.03986281E-11
   3.80999994      -4.93367500E-11
   3.86999989      -6.56607824E-11
   3.93000007      -7.62197180E-11
   3.99000001      -7.79530746E-11
   4.05000019      -6.82512519E-11
   4.11000013      -4.52671477E-11
   4.17000008      -8.12327809E-12
   4.23000002       4.30274635E-11
   4.28999996       1.07102653E-10
   4.34999990       1.82331761E-10
   4.40999985       2.66582145E-10
   4.46999979       3.57691154E-10
   4.53000021       4.53724724E-10
   4.59000015       5.53103285E-10
   4.65000010       6.54574617E-10
   4.71000004       7.57059637E-10
   4.76999998       8.59438853E-10
   4.82999992       9.60371449E-10
   4.88999987       1.05823239E-09
   4.94999981       1.15121979E-09
   5.01000023       1.23761568E-09
   5.07000017       1.31611944E-09
   5.13000011       1.38612755E-09
   5.19000006       1.44783951E-09
   5.25000000       1.50213697E-09
   5.30999994       1.55027657E-09
   5.36999989       1.59352820E-09
   5.42999983       1.63291236E-09
   5.48999977       1.66913527E-09
   5.55000019       1.70269898E-09
   5.61000013       1.73405368E-09
   5.67000008       1.76360471E-09
   5.73000002       1.79145321E-09
   5.78999996       1.81689119E-09
   5.84999990       1.83783289E-09
   5.90999985       1.85045357E-09
   5.96999979       1.84927451E-09
   6.03000021       1.82778470E-09
   6.09000015       1.77949666E-09
   6.15000010       1.69918057E-09
   6.21000004       1.58396052E-09
   6.26999998       1.43401591E-09
   6.32999992       1.25275179E-09
   6.38999987       1.04644893E-09
   6.44999981       8.23526469E-10
   6.51000023       5.93624649E-10
   6.57000017       3.66754044E-10
   6.63000011       1.52731675E-10
   6.69000006      -3.89660006E-11
   6.75000000      -1.98950717E-10
   6.80999994      -3.17472632E-10
   6.86999989      -3.84108356E-10
   6.92999983      -3.87924276E-10
   6.98999977      -3.18280041E-10
   7.05000019      -1.66143779E-10
   7.11000013       7.45115220E-11
   7.17000008       4.05789846E-10
   7.23000002       8.25876978E-10
   7.28999996       1.33005751E-09
   7.34999990       1.91240734E-09
   7.40999985       2.56751931E-09
   7.46999979       3.29159899E-09
   7.53000021       4.08254142E-09
   7.59000015       4.93902341E-09
   7.65000010       5.85904125E-09
   7.71000004       6.83847734E-09
   7.76999998       7.87016496E-09
   7.82999992       8.94363072E-09
   7.88999987       1.00453947E-08
   7.94999981       1.11595400E-08
   8.01000023       1.22683153E-08
   8.06999969       1.33526665E-08
   8.13000011       1.43928194E-08
   8.18999958       1.53690003E-08
   8.25000000       1.62623834E-08
   8.31000042       1.70561556E-08
   8.36999989       1.77364949E-08
   8.43000031       1.82932816E-08
   8.48999977       1.87204847E-08
   8.55000019       1.90162410E-08
   8.60999966       1.91827922E-08
   8.67000008       1.92263379E-08
   8.72999954       1.91566656E-08
   8.78999996       1.89864213E-08
   8.85000038       1.87297324E-08
   8.90999985       1.84003071E-08
   8.97000027       1.80093185E-08
   9.02999973       1.75637176E-08
   9.09000015       1.70656840E-08
   9.14999962       1.65135621E-08
   9.21000004       1.59041988E-08
   9.27000046       1.52359654E-08
   9.32999992       1.45114196E-08
   9.39000034       1.37386804E-08
   9.44999981       1.29309763E-08
   9.51000023       1.21045343E-08
   9.56999969       1.12755290E-08
   9.63000011       1.04570663E-08
   9.68999958       9.65704938E-09
   9.75000000       8.87730867E-09
   9.81000042       8.11400280E-09
   9.86999989       7.35888372E-09
   9.93000031       6.60106814E-09
   9.98999977       5.82899951E-09
   10.0500002       5.03239317E-09
   10.1099997       4.20394652E-09
   10.1700001       3.34048300E-09
   10.2299995       2.44311926E-09
   10.2900000       1.51621060E-09
   10.3500004       5.65195613E-10
   10.4099998      -4.06030237E-10
   10.4700003      -1.39726852E-09
   10.5299997      -2.41283660E-09
   10.5900002      -3.46070572E-09
   10.6499996      -4.55036231E-09
   10.7100000      -5.69035352E-09
   10.7700005      -6.88660062E-09
   10.8299999      -8.14207723E-09
   10.8900003      -9.45770573E-09
   10.9499998      -1.08336753E-08
   11.0100002      -1.22701946E-08
   11.0699997      -1.37671066E-08
   11.1300001      -1.53225042E-08
   11.1899996      -1.69311196E-08
   11.2500000      -1.85833802E-08
   11.3100004      -2.02657002E-08
   11.3699999      -2.19619221E-08
   11.4300003      -2.36552431E-08
   11.4899998      -2.53299497E-08
   11.5500002      -2.69725078E-08
   11.6099997      -2.85720709E-08
   11.6700001      -3.01208267E-08
   11.7299995      -3.16143982E-08
   11.7900000      -3.30521779E-08
   11.8500004      -3.44369973E-08
   11.9099998      -3.57735992E-08
   11.9700003      -3.70656785E-08
   12.0299997      -3.83120877E-08
   12.0900002      -3.95033375E-08
   12.1499996      -4.06196889E-08
   12.2100000      -4.16315764E-08
   12.2700005      -4.25023430E-08
   12.3299999      -4.31924398E-08
   12.3900003      -4.36639134E-08
   12.4499998      -4.38843237E-08
   12.5100002      -4.38297398E-08
   12.5699997      -4.34869847E-08
   12.6300001      -4.28555040E-08
   12.6899996      -4.19487698E-08
   12.7500000      -4.07948555E-08
   12.8100004      -3.94354416E-08
   12.8699999      -3.79227174E-08
   12.9300003      -3.63143684E-08
   12.9899998      -3.46674405E-08
   13.0500002      -3.30324426E-08
   13.1099997      -3.14489057E-08
   13.1700001      -2.99430809E-08
   13.2299995      -2.85277313E-08
   13.2900000      -2.72033507E-08
   13.3500004      -2.59601673E-08
   13.4099998      -2.47804941E-08
   13.4700003      -2.36414515E-08
   13.5299997      -2.25182806E-08
   13.5900002      -2.13882920E-08
   13.6499996      -2.02350048E-08
   13.7100000      -1.90515443E-08
   13.7700005      -1.78422486E-08
   13.8299999      -1.66217990E-08
   13.8900003      -1.54119633E-08
   13.9499998      -1.42368179E-08
   14.0100002      -1.31178179E-08
   14.0699997      -1.20700125E-08
   14.1300001      -1.11001563E-08
   14.1899996      -1.02067208E-08
   14.2500000      -9.38125844E-09
   14.3100004      -8.61034444E-09
   14.3699999      -7.87754306E-09
   14.4300003      -7.16518977E-09
   14.4899998      -6.45610765E-09
   14.5500002      -5.73543479E-09
   14.6099997      -4.99257524E-09
   14.6700001      -4.22301527E-09
   14.7299995      -3.42961393E-09
   14.7900000      -2.62298938E-09
   14.8500004      -1.82081528E-09
   14.9099998      -1.04607956E-09
   14.9700003      -3.24485272E-10
   15.0299997       3.18785720E-10
   15.0900002       8.62735217E-10
   15.1499996       1.29437860E-09
   15.2100000       1.61231273E-09
   15.2700005       1.82937410E-09
   15.3299999       1.97361882E-09
   15.3900003       2.08697215E-09
   15.4499998       2.22130003E-09
   15.5100002       2.43226150E-09
   15.5699997       2.77187140E-09
   15.6300001       3.28108896E-09
   15.6899996       3.98377287E-09
   15.7500000       4.88307128E-09
   15.8100004       5.96083405E-09
   15.8699999       7.18011206E-09
   15.9300003       8.49032400E-09
   15.9899998       9.83426851E-09
   16.0499992       1.11558327E-08
   16.1100006       1.24070905E-08
   16.1700001       1.35534775E-08
   16.2299995       1.45760435E-08
   16.2900009       1.54704054E-08
   16.3500004       1.62427867E-08
   16.4099998       1.69043037E-08
   16.4699993       1.74651369E-08
   16.5300007       1.79301800E-08
   16.5900002       1.82973281E-08
   16.6499996       1.85587243E-08
   16.7099991       1.87044371E-08
   16.7700005       1.87274125E-08
   16.8299999       1.86282119E-08
   16.8899994       1.84181417E-08
   16.9500008       1.81198097E-08
   17.0100002       1.77647212E-08
   17.0699997       1.73882775E-08
   17.1299992       1.70231758E-08
   17.1900005       1.66927450E-08
   17.2500000       1.64059646E-08
   17.3099995       1.61556102E-08
   17.3700008       1.59203566E-08
   17.4300003       1.56705457E-08
   17.4899998       1.53762922E-08
   17.5499992       1.50158019E-08
   17.6100006       1.45816452E-08
   17.6700001       1.40831808E-08
   17.7299995       1.35444385E-08
   17.7900009       1.29980311E-08
   17.8500004       1.24767778E-08
   17.9099998       1.20053283E-08
   17.9699993       1.15940217E-08
   18.0300007       1.12365743E-08
   18.0900002       1.09121441E-08
   18.1499996       1.05911697E-08
   18.2099991       1.02434088E-08
   18.2700005       9.84607773E-09
   18.3299999       9.39000255E-09
   18.3899994       8.88226381E-09
   18.4500008       8.34479685E-09
   18.5100002       7.80945708E-09
   18.5699997       7.31098071E-09
   18.6299992       6.87970569E-09
   18.6900005       6.53584120E-09
   18.7500000       6.28652463E-09
   18.8099995       6.12611961E-09
   18.8700008       6.03940498E-09
   18.9300003       6.00670269E-09
   18.9899998       6.00964123E-09
   19.0499992       6.03619066E-09
   19.1100006       6.08376460E-09
   19.1700001       6.15959284E-09
   19.2299995       6.27814956E-09
   19.2900009       6.45617915E-09
   19.3500004       6.70660105E-09
   19.4099998       7.03307190E-09
   19.4699993       7.42699680E-09
   19.5300007       7.86817633E-09
   19.5900002       8.32920932E-09
   19.6499996       8.78248763E-09
   19.7099991       9.20772525E-09
   19.7700005       9.59768887E-09
   19.8299999       9.96035965E-09
   19.8899994       1.03169633E-08
   19.9500008       1.06965947E-08
   20.0100002       1.11291927E-08
   20.0699997       1.16389316E-08
   20.1299992       1.22397026E-08
   20.1900005       1.29335120E-08
   20.2500000       1.37116585E-08
   20.3099995       1.45578207E-08
   20.3700008       1.54519419E-08
   20.4300003       1.63738001E-08
   20.4899998       1.73055454E-08
   20.5499992       1.82328215E-08
   20.6100006       1.91444300E-08
   20.6700001       2.00308303E-08
   20.7299995       2.08820268E-08
   20.7900009       2.16855671E-08
   20.8500004       2.24254837E-08
   20.9099998       2.30827055E-08
   20.9699993       2.36370283E-08
   21.0300007       2.40699620E-08
   21.0900002       2.43672247E-08
   21.1499996       2.45195064E-08
   21.2099991       2.45204532E-08
   21.2700005       2.43620111E-08
   21.3299999       2.40283402E-08
   21.3899994       2.34906228E-08
   21.4500008       2.27052421E-08
   21.5100002       2.16171312E-08
   21.5699997       2.01685690E-08
   21.6299992       1.83119493E-08
   21.6900005       1.60235096E-08
   21.7500000       1.33145122E-08
   21.8099995       1.02366036E-08
   21.8700008       6.87954138E-09
   21.9300003       3.36110406E-09
   21.9899998      -1.89199420E-10
   22.0499992      -3.64972896E-09
   22.1100006      -6.92603441E-09
   22.1700001      -9.96632554E-09
   22.2299995      -1.27701361E-08
   22.2900009      -1.53883857E-08
   22.3500004      -1.79145374E-08
   22.4099998      -2.04682262E-08
   22.4699993      -2.31742394E-08
   22.5300007      -2.61407092E-08
   22.5900002      -2.94405869E-08
   22.6499996      -3.30997167E-08
   22.7099991      -3.70934146E-08
   22.7700005      -4.13514769E-08
   22.8299999      -4.57700473E-08
   22.8899994      -5.02273565E-08
   22.9500008      -5.46002461E-08
   23.0100002      -5.87786246E-08
   23.0699997      -6.26759444E-08
   23.1299992      -6.62348896E-08
   23.1900005      -6.94284310E-08
   23.2500000      -7.22570590E-08
   23.3099995      -7.47433688E-08
   23.3700008      -7.69253035E-08
   23.4300003      -7.88489984E-08
   23.4899998      -8.05621525E-08
   23.5499992      -8.21083006E-08
   23.6100006      -8.35222451E-08
   23.6700001      -8.48268513E-08
   23.7299995      -8.60311928E-08
   23.7900009      -8.71301395E-08
   23.8500004      -8.81056152E-08
   23.9099998      -8.89294896E-08
   23.9699993      -8.95678909E-08
   24.0300007      -8.99864716E-08
   24.0900002      -9.01557797E-08
   24.1499996      -9.00558490E-08
   24.2099991      -8.96791619E-08
   24.2700005      -8.90314098E-08
   24.3299999      -8.81299940E-08
   24.3899994      -8.70007000E-08
   24.4500008      -8.56732996E-08
   24.5100002      -8.41771026E-08
   24.5699997      -8.25373974E-08
   24.6299992      -8.07735105E-08
   24.6900005      -7.88988856E-08
   24.7500000      -7.69229800E-08
   24.8099995      -7.48545474E-08
   24.8700008      -7.27053049E-08
   24.9300003      -7.04930372E-08
   24.9899998      -6.82429899E-08
   25.0499992      -6.59869457E-08
   25.1100006      -6.37594724E-08
   25.1700001      -6.15921252E-08
   25.2299995      -5.95064478E-08
   25.2900009      -5.75076342E-08
   25.3500004      -5.55806601E-08
   25.4099998      -5.36904281E-08
   25.4699993      -5.17866781E-08
   25.5300007      -4.98131918E-08
   25.5900002      -4.77196984E-08
   25.6499996      -4.54740103E-08
   25.7099991      -4.30717684E-08
   25.7700005      -4.05415399E-08
   25.8299999      -3.79440124E-08
   25.8899994      -3.53653142E-08
   25.9500008      -3.29055503E-08
   26.0100002      -3.06645269E-08
   26.0699997      -2.87271025E-08
   26.1299992      -2.71506746E-08
   26.1900005      -2.59569823E-08
   26.2500000      -2.51298129E-08
   26.3099995      -2.46192062E-08
   26.3700008      -2.43515430E-08
   26.4300003      -2.42436187E-08
   26.4899998      -2.42177762E-08
   26.5499992      -2.42148772E-08
   26.6100006      -2.42022846E-08
   26.6700001      -2.41754048E-08
   26.7299995      -2.41530618E-08
   26.7900009      -2.41685498E-08
   26.8500004      -2.42591920E-08
   26.9099998      -2.44572682E-08
   26.9699993      -2.47842653E-08
   27.0300007      -2.52491681E-08
   27.0900002      -2.58501078E-08
   27.1499996      -2.65779025E-08
   27.2099991      -2.74197838E-08
   27.2700005      -2.83619421E-08
   27.3299999      -2.93902396E-08
   27.3899994      -3.04891152E-08
   27.4500008      -3.16393560E-08
   27.5100002      -3.28157164E-08
   27.5699997      -3.39855326E-08
   27.6299992      -3.51093163E-08
   27.6900005      -3.61439376E-08
   27.7500000      -3.70483200E-08
   27.8099995      -3.77909046E-08
   27.8700008      -3.83572214E-08
   27.9300003      -3.87555907E-08
   27.9899998      -3.90189179E-08
   28.0499992      -3.92013888E-08
   28.1100006      -3.93699402E-08
   28.1700001      -3.95920310E-08
   28.2299995      -3.99222237E-08
   28.2900009      -4.03907734E-08
   28.3500004      -4.09969729E-08
   28.4099998      -4.17088941E-08
   28.4699993      -4.24695834E-08
   28.5300007      -4.32080931E-08
   28.5900002      -4.38526193E-08
   28.6499996      -4.43427695E-08
   28.7099991      -4.46382522E-08
   28.7700005      -4.47224799E-08
   28.8299999      -4.46009523E-08
   28.8899994      -4.42954935E-08
   28.9500008      -4.38363763E-08
   29.0100002      -4.32545733E-08
   29.0699997      -4.25761080E-08
   29.1299992      -4.18195931E-08
   29.1900005      -4.09969338E-08
   29.2500000      -4.01161770E-08
   29.3099995      -3.91847799E-08
   29.3700008      -3.82115743E-08
   29.4300003      -3.72062914E-08
   29.4899998      -3.61765906E-08
   29.5499992      -3.51236658E-08
   29.6100006      -3.40383295E-08
   29.6700001      -3.28995462E-08
   29.7299995      -3.16767412E-08
   29.7900009      -3.03359471E-08
   29.8500004      -2.88484063E-08
   29.9099998      -2.71994232E-08
   29.9699993      -2.53947796E-08
   30.0300007      -2.34628121E-08
   30.0900002      -2.14513474E-08
   30.1499996      -1.94201721E-08
   30.2099991      -1.74309331E-08
   30.2700005      -1.55369246E-08
   30.3299999      -1.37752183E-08
   30.3899994      -1.21628494E-08
   30.4500008      -1.06977147E-08
   30.5100002      -9.36365296E-09
   30.5699997      -8.13819145E-09
   30.6299992      -7.00083236E-09
   30.6900005      -5.93968519E-09
   30.7500000      -4.95471220E-09
   30.8099995      -4.05680023E-09
   30.8700008      -3.26305871E-09
   30.9300003      -2.58985322E-09
   30.9899998      -2.04580375E-09
   31.0499992      -1.62700053E-09
   31.1100006      -1.31603528E-09
   31.1700001      -1.08521270E-09
   31.2299995      -9.02960817E-10
   31.2900009      -7.41427586E-10
   31.3500004      -5.82895510E-10
   31.4099998      -4.23106161E-10
   31.4699993      -2.70661937E-10
   31.5300007      -1.42967249E-10
   31.5900002      -6.02082620E-11
   31.6499996      -3.93202311E-11
   31.7099991      -8.96400107E-11
   31.7700005      -2.11181989E-10
   31.8299999      -3.95536548E-10
   31.8899994      -6.28638475E-10
   31.9500008      -8.94305074E-10
   32.0099983      -1.17753185E-09
   32.0699997      -1.46690193E-09
   32.1300011      -1.75590609E-09
   32.1899986      -2.04328621E-09
   32.2500000      -2.33265873E-09
   32.3100014      -2.63165090E-09
   32.3699989      -2.95073344E-09
   32.4300003      -3.30189831E-09
   32.4900017      -3.69735709E-09
   32.5499992      -4.14846602E-09
   32.6100006      -4.66506878E-09
   32.6699982      -5.25530996E-09
   32.7299995      -5.92579230E-09
   32.7900009      -6.68173694E-09
   32.8499985      -7.52675344E-09
   32.9099998      -8.46193782E-09
   32.9700012      -9.48435641E-09
   33.0299988      -1.05854028E-08
   33.0900002      -1.17498757E-08
   33.1500015      -1.29567157E-08
   33.2099991      -1.41820031E-08
   33.2700005      -1.54040745E-08
   33.3300018      -1.66097287E-08
   33.3899994      -1.77996675E-08
   33.4500008      -1.89910754E-08
   33.5099983      -2.02157846E-08
   33.5699997      -2.15136389E-08
   33.6300011      -2.29223520E-08
   33.6899986      -2.44664697E-08
   33.7500000      -2.61487898E-08
   33.8100014      -2.79470296E-08
   33.8699989      -2.98171265E-08
   33.9300003      -3.17024558E-08
   33.9900017      -3.35463888E-08
   34.0499992      -3.53045913E-08
   34.1100006      -3.69535016E-08
   34.1699982      -3.84927290E-08
   34.2299995      -3.99410709E-08
   34.2900009      -4.13276240E-08
   34.3499985      -4.26810196E-08
   34.4099998      -4.40200054E-08
   34.4700012      -4.53480453E-08
   34.5299988      -4.66532271E-08
   34.5900002      -4.79130158E-08
   34.6500015      -4.91020167E-08
   34.7099991      -5.02000788E-08
   34.7700005      -5.11979934E-08
   34.8300018      -5.20990788E-08
   34.8899994      -5.29160928E-08
   34.9500008      -5.36646638E-08
   35.0099983      -5.43553149E-08
   35.0699997      -5.49867920E-08
   35.1300011      -5.55429018E-08
   35.1899986      -5.59940290E-08
   35.2500000      -5.63029516E-08
   35.3100014      -5.64334464E-08
   35.3699989      -5.63590312E-08
   35.4300003      -5.60694247E-08
   35.4900017      -5.55726771E-08
   35.5499992      -5.48922614E-08
   35.6100006      -5.40598890E-08
   35.6699982      -5.31060351E-08
   35.7299995      -5.20509502E-08
   35.7900009      -5.08988265E-08
   35.8499985      -4.96369701E-08
   35.9099998      -4.82402882E-08
   35.9700012      -4.66797339E-08
   36.0299988      -4.49321966E-08
   36.0900002      -4.29887450E-08
   36.1500015      -4.08588896E-08
   36.2099991      -3.85698229E-08
   36.2700005      -3.61613495E-08
   36.3300018      -3.36785462E-08
   36.3899994      -3.11647561E-08
   36.4500008      -2.86569666E-08
   36.5099983      -2.61845674E-08
   36.5699997      -2.37710260E-08
   36.6300011      -2.14369997E-08
   36.6899986      -1.92031422E-08
   36.7500000      -1.70912369E-08
   36.8100014      -1.51231223E-08
   36.8699989      -1.33178393E-08
   36.9300003      -1.16880496E-08
   36.9900017      -1.02369766E-08
   37.0499992      -8.95692231E-09
   37.1100006      -7.82994913E-09
   37.1699982      -6.83077728E-09
   37.2299995      -5.93148775E-09
   37.2900009      -5.10718889E-09
   37.3499985      -4.34164393E-09
   37.4099998      -3.63169117E-09
   37.4700012      -2.98949132E-09
   37.5299988      -2.44188936E-09
   37.5900002      -2.02675543E-09
   37.6500015      -1.78678639E-09
   37.7099991      -1.76186732E-09
   37.7700005      -1.98150651E-09
   37.8300018      -2.45895704E-09
   37.8899994      -3.18833804E-09
   37.9500008      -4.14540757E-09
   38.0099983      -5.29181410E-09
   38.0699997      -6.58179422E-09
   38.1300011      -7.96975463E-09
   38.1899986      -9.41696943E-09
   38.2500000      -1.08959846E-08
   38.3100014      -1.23919568E-08
   38.3699989      -1.39009737E-08
   38.4300003      -1.54261617E-08
   38.4900017      -1.69727805E-08
   38.5499992      -1.85436395E-08
   38.6100006      -2.01358876E-08
   38.6699982      -2.17398668E-08
   38.7299995      -2.33400819E-08
   38.7900009      -2.49179308E-08
   38.8499985      -2.64553286E-08
   38.9099998      -2.79381620E-08
   38.9700012      -2.93584215E-08
   39.0299988      -3.07142862E-08
   39.0900002      -3.20079891E-08
   39.1500015      -3.32420846E-08
   39.2099991      -3.44154039E-08
   39.2700005      -3.55201628E-08
   39.3300018      -3.65414330E-08
   39.3899994      -3.74593192E-08
   39.4500008      -3.82532370E-08
   39.5099983      -3.89069790E-08
   39.5699997      -3.94129493E-08
   39.6300011      -3.97744557E-08
   39.6899986      -4.00056344E-08
   39.7500000      -4.01293541E-08
   39.8100014      -4.01739442E-08
   39.8699989      -4.01695708E-08
   39.9300003      -4.01447942E-08
   39.9900017      -4.01236129E-08
   40.0499992      -4.01230871E-08
   40.1100006      -4.01517823E-08
   40.1699982      -4.02094287E-08
   40.2299995      -4.02881462E-08
   40.2900009      -4.03754328E-08
   40.3499985      -4.04583353E-08
   40.4099998      -4.05278548E-08
   40.4700012      -4.05822185E-08
   40.5299988      -4.06277429E-08
   40.5900002      -4.06768272E-08
   40.6500015      -4.07432985E-08
   40.7099991      -4.08363547E-08
   40.7700005      -4.09548129E-08
   40.8300018      -4.10834247E-08
   40.8899994      -4.11926315E-08
   40.9500008      -4.12422843E-08
   41.0099983      -4.11887697E-08
   41.0699997      -4.09940171E-08
   41.1300011      -4.06341059E-08
   41.1899986      -4.01049647E-08
   41.2500000      -3.94231385E-08
   41.3100014      -3.86208932E-08
   41.3699989      -3.77363669E-08
   41.4300003      -3.68013282E-08
   41.4900017      -3.58299097E-08
   41.5499992      -3.48118334E-08
   41.6100006      -3.37124746E-08
   41.6699982      -3.24801093E-08
   41.7299995      -3.10585726E-08
   41.7900009      -2.94017788E-08
   41.8499985      -2.74860597E-08
   41.9099998      -2.53168952E-08
   41.9700012      -2.29282673E-08
   42.0299988      -2.03751185E-08
   42.0900002      -1.77211916E-08
   42.1500015      -1.50257584E-08
   42.2099991      -1.23327268E-08
   42.2700005      -9.66477831E-09
   42.3300018      -7.02357728E-09
   42.3899994      -4.39542225E-09
   42.4500008      -1.76029546E-09
   42.5099983       8.98425001E-10
   42.5699997       3.58623597E-09
   42.6300011       6.29356611E-09
   42.6899986       8.99616115E-09
   42.7500000       1.16590160E-08
   42.8100014       1.42421896E-08
   42.8699989       1.67064975E-08
   42.9300003       1.90175573E-08
   42.9900017       2.11474926E-08
   43.0499992       2.30746107E-08
   43.1100006       2.47820822E-08
   43.1699982       2.62567355E-08
   43.2299995       2.74888023E-08
   43.2900009       2.84726926E-08
   43.3499985       2.92083087E-08
   43.4099998       2.97020755E-08
   43.4700012       2.99670582E-08
   43.5299988       3.00218659E-08
   43.5900002       2.98886675E-08
   43.6500015       2.95908347E-08
   43.7099991       2.91507281E-08
   43.7700005       2.85880510E-08
   43.8300018       2.79188050E-08
   43.8899994       2.71548402E-08
   43.9500008       2.63039546E-08
   44.0099983       2.53705554E-08
   44.0699997       2.43568383E-08
   44.1300011       2.32642900E-08
   44.1899986       2.20950831E-08
   44.2500000       2.08528128E-08
   44.3100014       1.95422061E-08
   44.3699989       1.81678601E-08
   44.4300003       1.67326153E-08
   44.4900017       1.52364787E-08
   44.5499992       1.36769014E-08
   44.6100006       1.20506538E-08
   44.6699982       1.03567022E-08
   44.7299995       8.59890648E-09
   44.7900009       6.78723300E-09
   44.8499985       4.93666974E-09
   44.9099998       3.06397951E-09
   44.9700012       1.18329213E-09
   45.0299988      -6.97931324E-10
   45.0900002      -2.58118216E-09
   45.1500015      -4.47665949E-09
   45.2099991      -6.40058406E-09
   45.2700005      -8.37083292E-09
   45.3300018      -1.04019788E-08
   45.3899994      -1.25008013E-08
   45.4500008      -1.46630912E-08
   45.5099983      -1.68723098E-08
   45.5699997      -1.91004332E-08
   45.6300011      -2.13111058E-08
   45.6899986      -2.34648336E-08
   45.7500000      -2.55255088E-08
   45.8100014      -2.74670171E-08
   45.8699989      -2.92783984E-08
   45.9300003      -3.09661488E-08
   45.9900017      -3.25529115E-08
   46.0499992      -3.40728263E-08
   46.1100006      -3.55647813E-08
   46.1699982      -3.70655080E-08
   46.2299995      -3.86045365E-08
   46.2900009      -4.02023339E-08
   46.3499985      -4.18721093E-08
   46.4099998      -4.36244356E-08
   46.4700012      -4.54732998E-08
   46.5299988      -4.74416844E-08
   46.5900002      -4.95651591E-08
   46.6500015      -5.18926484E-08
   46.7099991      -5.44843815E-08
   46.7700005      -5.74078953E-08
   46.8300018      -6.07335338E-08
   46.8899994      -6.45309370E-08
   46.9500008      -6.88679691E-08
   47.0099983      -7.38125721E-08
   47.0699997      -7.94376263E-08
   47.1300011      -8.58281055E-08
   47.1899986      -9.30892057E-08
   47.2500000      -1.01354303E-07
   47.3100014      -1.10791717E-07
   47.3699989      -1.21609645E-07
   47.4300003      -1.34059363E-07
   47.4900017      -1.48437124E-07
   47.5499992      -1.65085254E-07
   47.6100006      -1.84393542E-07
   47.6699982      -2.06801573E-07
   47.7299995      -2.32802677E-07
   47.7900009      -2.62950152E-07
   47.8499985      -2.97866336E-07
   47.9099998      -3.38254466E-07
   47.9700012      -3.84913022E-07
   48.0299988      -4.38752153E-07
   48.0900002      -5.00810813E-07
   48.1500015      -5.72273507E-07
   48.2099991      -6.54486655E-07
   48.2700005      -7.48972468E-07
   48.3300018      -8.57442387E-07
   48.3899994      -9.81809990E-07
   48.4500008      -1.12420378E-06
   48.5099983      -1.28698139E-06
   48.5699997      -1.47274420E-06
   48.6300011      -1.68435406E-06
   48.6899986      -1.92495031E-06
   48.7500000      -2.19796789E-06
   48.8100014      -2.50715721E-06
   48.8699989      -2.85660394E-06
   48.9300003      -3.25075234E-06
   48.9900017      -3.69442864E-06
   49.0499992      -4.19286516E-06
   49.1100006      -4.75172283E-06
   49.1699982      -5.37710730E-06
   49.2299995      -6.07558604E-06
   49.2900009      -6.85418991E-06
   49.3499985      -7.72041403E-06
   49.4099998      -8.68221468E-06
   49.4700012      -9.74799332E-06
   49.5299988      -1.09265939E-05
   49.5900002      -1.22272913E-05
   49.6500015      -1.36597837E-05
   49.7099991      -1.52341818E-05
   49.7700005      -1.69609957E-05
   49.8300018      -1.88511094E-05
   49.8899994      -2.09157533E-05
   49.9500008      -2.31664508E-05
   50.0099983      -2.56149760E-05
   50.0699997      -2.82732799E-05
   50.1300011      -3.11534131E-05
   50.1899986      -3.42674575E-05
   50.2500000      -3.76274184E-05
   50.3100014      -4.12451700E-05
   50.3699989      -4.51323285E-05
   50.4300003      -4.93002044E-05
   50.4900017      -5.37596643E-05
   50.5499992      -5.85210546E-05
   50.6100006      -6.35940887E-05