 -0.750000000       0.00000000    
 -0.689999998       0.00000000    
 -0.629999995       0.00000000    
 -0.569999993       0.00000000    
 -0.509999990       0.00000000    
 -0.449999988      -2.66941976E-20
 -0.389999986      -2.27511607E-19
 -0.330000013      -9.64753673E-19
 -0.270000011      -2.55936588E-18
 -0.209999993      -4.12729459E-18
 -0.150000006      -1.45910400E-18
  -9.00000036E-02   1.43846791E-17
  -2.99999993E-02   5.38667393E-17
   2.99999993E-02   1.17094046E-16
   9.00000036E-02   1.74294883E-16
  0.150000006       1.50464789E-16
  0.209999993      -6.33393503E-17
  0.270000011      -5.50817902E-16
  0.330000013      -1.26605263E-15
  0.389999986      -1.93129589E-15
  0.449999988      -2.02637174E-15
  0.509999990      -9.58880577E-16
  0.569999993       1.57126750E-15
  0.629999995       5.14384347E-15
  0.689999998       8.40291158E-15
  0.750000000       9.36226025E-15
  0.810000002       6.35902489E-15
  0.870000005      -6.11451962E-16
  0.930000007      -8.89717563E-15
  0.990000010      -1.34610789E-14
   1.04999995      -9.04569185E-15
   1.11000001       6.07448492E-15
   1.16999996       2.63271037E-14
   1.23000002       3.75955438E-14
   1.28999996       2.08864603E-14
   1.35000002      -3.84202354E-14
   1.40999997      -1.38132019E-13
   1.47000003      -2.49223927E-13
   1.52999997      -3.15394819E-13
   1.59000003      -2.67566188E-13
   1.64999998      -5.30617962E-14
   1.71000004       3.28820548E-13
   1.76999998       8.00214875E-13
   1.83000004       1.20441612E-12
   1.88999999       1.34310705E-12
   1.95000005       1.04803937E-12
   2.00999999       2.66147700E-13
   2.06999993      -8.76945164E-13
   2.13000011      -2.07183142E-12
   2.19000006      -2.90001009E-12
   2.25000000      -2.97915165E-12
   2.30999994      -2.13403210E-12
   2.36999989      -5.22973375E-13
   2.43000007       1.35010167E-12
   2.49000001       2.77497383E-12
   2.54999995       3.10350834E-12
   2.60999990       2.05970397E-12
   2.67000008      -3.84567188E-14
   2.73000002      -2.26962698E-12
   2.78999996      -3.37319474E-12
   2.84999990      -2.24126902E-12
   2.91000009       1.51965853E-12
   2.97000003       7.18565788E-12
   3.02999997       1.28862069E-11
   3.08999991       1.60555701E-11
   3.15000010       1.42933894E-11
   3.21000004       6.37759854E-12
   3.26999998      -6.94363230E-12
   3.32999992      -2.27401813E-11
   3.39000010      -3.64654973E-11
   3.45000005      -4.32275604E-11
   3.50999999      -3.94096145E-11
   3.56999993      -2.40980985E-11
   3.63000011       2.27227254E-13
   3.69000006       2.80782914E-11
   3.75000000       5.23951126E-11
   3.80999994       6.66189465E-11
   3.86999989       6.67166669E-11
   3.93000007       5.24370512E-11
   3.99000001       2.73182171E-11
   4.05000019      -2.59366205E-12
   4.11000013      -3.08661534E-11
   4.17000008      -5.28481495E-11
   4.23000002      -6.70306033E-11
   4.28999996      -7.50252152E-11
   4.34999990      -8.01154004E-11
   4.40999985      -8.49267809E-11
   4.46999979      -8.91888924E-11
   4.53000021      -8.86328927E-11
   4.59000015      -7.57271260E-11
   4.65000010      -4.22889744E-11
   4.71000004       1.67469111E-11
   4.76999998       9.96922406E-11
   4.82999992       1.96031871E-10
   4.88999987       2.86965812E-10
   4.94999981       3.48811813E-10
   5.01000023       3.58538033E-10
   5.07000017       2.99893249E-10
   5.13000011       1.68277059E-10
   5.19000006      -2.72090683E-11
   5.25000000      -2.65234723E-10
   5.30999994      -5.16805876E-10
   5.36999989      -7.51461948E-10
   5.42999983      -9.43088496E-10
   5.48999977      -1.07346398E-09
   5.55000019      -1.13245635E-09
   5.61000013      -1.11499565E-09
   5.67000008      -1.01614372E-09
   5.73000002      -8.26345437E-10
   5.78999996      -5.28973809E-10
   5.84999990      -1.01536085E-10
   5.90999985       4.79403850E-10
   5.96999979       1.23095600E-09
   6.03000021       2.15670815E-09
   6.09000015       3.24228533E-09
   6.15000010       4.45566961E-09
   6.21000004       5.75282932E-09
   6.26999998       7.08743464E-09
   6.32999992       8.42189962E-09
   6.38999987       9.73633796E-09
   6.44999981       1.10324319E-08
   6.51000023       1.23306805E-08
   6.57000017       1.36615901E-08
   6.63000011       1.50533506E-08
   6.69000006       1.65197651E-08
   6.75000000       1.80522033E-08
   6.80999994       1.96180920E-08
   6.86999989       2.11663966E-08
   6.92999983       2.26381847E-08
   6.98999977       2.39788154E-08
   7.05000019       2.51478145E-08
   7.11000013       2.61233968E-08
   7.17000008       2.69005813E-08
   7.23000002       2.74841803E-08
   7.28999996       2.78798158E-08
   7.34999990       2.80868111E-08
   7.40999985       2.80961832E-08
   7.46999979       2.78949184E-08
   7.53000021       2.74753091E-08
   7.59000015       2.68458802E-08
   7.65000010       2.60395083E-08
   7.71000004       2.51148169E-08
   7.76999998       2.41491662E-08
   7.82999992       2.32242812E-08
   7.88999987       2.24085124E-08
   7.94999981       2.17411511E-08
   8.01000023       2.12240590E-08
   8.06999969       2.08238244E-08
   8.13000011       2.04843129E-08
   8.18999958       2.01460999E-08
   8.25000000       1.97667891E-08
   8.31000042       1.93357650E-08
   8.36999989       1.88784401E-08
   8.43000031       1.84483628E-08
   8.48999977       1.81094393E-08
   8.55000019       1.79138162E-08
   8.60999966       1.78825754E-08
   8.67000008       1.79956405E-08
   8.72999954       1.81946191E-08
   8.78999996       1.83981044E-08
   8.85000038       1.85250268E-08
   8.90999985       1.85188131E-08
   8.97000027       1.83646947E-08
   9.02999973       1.80945108E-08
   9.09000015       1.77772819E-08
   9.14999962       1.74984240E-08
   9.21000004       1.73342727E-08
   9.27000046       1.73301036E-08
   9.32999992       1.74886914E-08
   9.39000034       1.77728303E-08
   9.44999981       1.81204562E-08
   9.51000023       1.84666966E-08
   9.56999969       1.87648954E-08
   9.63000011       1.89992040E-08
   9.68999958       1.91844904E-08
   9.75000000       1.93540171E-08
   9.81000042       1.95396463E-08
   9.86999989       1.97519920E-08
   9.93000031       1.99678052E-08
   9.98999977       2.01292831E-08
   10.0500002       2.01557597E-08
   10.1099997       1.99640500E-08
   10.1700001       1.94908960E-08
   10.2299995       1.87104678E-08
   10.2900000       1.76415647E-08
   10.3500004       1.63425682E-08
   10.4099998       1.48960364E-08
   10.4700003       1.33878340E-08
   10.5299997       1.18871650E-08
   10.5900002       1.04333227E-08
   10.6499996       9.03270081E-09
   10.7100000       7.66635466E-09
   10.7700005       6.30506714E-09
   10.8299999       4.92661911E-09
   10.8900003       3.52924423E-09
   10.9499998       2.13655627E-09
   11.0100002       7.92022781E-10
   11.0699997      -4.55388699E-10
   11.1300001      -1.56965607E-09
   11.1899996      -2.54385490E-09
   11.2500000      -3.40809603E-09
   11.3100004      -4.22582414E-09
   11.3699999      -5.07885067E-09
   11.4300003      -6.04533534E-09
   11.4899998      -7.17751858E-09
   11.5500002      -8.48642046E-09
   11.6099997      -9.93872984E-09
   11.6700001      -1.14673488E-08
   11.7299995      -1.29927002E-08
   11.7900000      -1.44483767E-08
   11.8500004      -1.58031863E-08
   11.9099998      -1.70726047E-08
   11.9700003      -1.83158129E-08
   12.0299997      -1.96189678E-08
   12.0900002      -2.10695354E-08
   12.1499996      -2.27293473E-08
   12.2100000      -2.46144207E-08
   12.2700005      -2.66875411E-08
   12.3299999      -2.88656317E-08
   12.3900003      -3.10394412E-08
   12.4499998      -3.30994148E-08
   12.5100002      -3.49598395E-08
   12.5699997      -3.65743738E-08
   12.6300001      -3.79390244E-08
   12.6899996      -3.90829840E-08
   12.7500000      -4.00516207E-08
   12.8100004      -4.08882883E-08
   12.8699999      -4.16215258E-08
   12.9300003      -4.22617141E-08
   12.9899998      -4.28075637E-08
   13.0500002      -4.32588223E-08
   13.1099997      -4.36292744E-08
   13.1700001      -4.39538539E-08
   13.2299995      -4.42859935E-08
   13.2900000      -4.46851445E-08
   13.3500004      -4.51981954E-08
   13.4099998      -4.58412970E-08
   13.4700003      -4.65888057E-08
   13.5299997      -4.73738062E-08
   13.5900002      -4.81009295E-08
   13.6499996      -4.86678680E-08
   13.7100000      -4.89889942E-08
   13.7700005      -4.90138916E-08
   13.8299999      -4.87353802E-08
   13.8900003      -4.81852283E-08
   13.9499998      -4.74197428E-08
   14.0100002      -4.65006060E-08
   14.0699997      -4.54772504E-08
   14.1300001      -4.43759198E-08
   14.1899996      -4.31979323E-08
   14.2500000      -4.19263202E-08
   14.3100004      -4.05374863E-08
   14.3699999      -3.90133650E-08
   14.4300003      -3.73500626E-08
   14.4899998      -3.55604719E-08
   14.5500002      -3.36707764E-08
   14.6099997      -3.17125277E-08
   14.6700001      -2.97133980E-08
   14.7299995      -2.76899073E-08
   14.7900000      -2.56447201E-08
   14.8500004      -2.35696689E-08
   14.9099998      -2.14537206E-08
   14.9700003      -1.92934557E-08
   15.0299997      -1.71024492E-08
   15.0900002      -1.49159671E-08
   15.1499996      -1.27885649E-08
   15.2100000      -1.07844240E-08
   15.2700005      -8.96273811E-09
   15.3299999      -7.36251904E-09
   15.3900003      -5.99170624E-09
   15.4499998      -4.82438045E-09
   15.5100002      -3.80725806E-09
   15.5699997      -2.87350654E-09
   15.6300001      -1.95943639E-09
   15.6899996      -1.01871889E-09
   15.7500000      -2.98622446E-11
   15.8100004       1.00473985E-09
   15.8699999       2.06678719E-09
   15.9300003       3.13333337E-09
   15.9899998       4.18681267E-09
   16.0499992       5.22032950E-09
   16.1100006       6.23694119E-09
   16.1700001       7.24412397E-09
   16.2299995       8.24636359E-09
   16.2900009       9.23918009E-09
   16.3500004       1.02069873E-08
   16.4099998       1.11254419E-08
   16.4699993       1.19671801E-08
   16.5300007       1.27086865E-08
   16.5900002       1.33358791E-08
   16.6499996       1.38466509E-08
   16.7099991       1.42498582E-08
   16.7700005       1.45614623E-08
   16.8299999       1.47994186E-08
   16.8899994       1.49791717E-08
   16.9500008       1.51112793E-08
   17.0100002       1.52018043E-08
   17.0699997       1.52551021E-08
   17.1299992       1.52776742E-08
   17.1900005       1.52813122E-08
   17.2500000       1.52839519E-08
   17.3099995       1.53075224E-08
   17.3700008       1.53733986E-08
   17.4300003       1.54970614E-08
   17.4899998       1.56842503E-08
   17.5499992       1.59303308E-08
   17.6100006       1.62233356E-08
   17.6700001       1.65495493E-08
   17.7299995       1.68991843E-08
   17.7900009       1.72695458E-08
   17.8500004       1.76640196E-08
   17.9099998       1.80872082E-08
   17.9699993       1.85383069E-08
   18.0300007       1.90059062E-08
   18.0900002       1.94669507E-08
   18.1499996       1.98907930E-08
   18.2099991       2.02469828E-08
   18.2700005       2.05135429E-08
   18.3299999       2.06821067E-08
   18.3899994       2.07575912E-08
   18.4500008       2.07525588E-08
   18.5100002       2.06790070E-08
   18.5699997       2.05417940E-08
   18.6299992       2.03374206E-08
   18.6900005       2.00596517E-08
   18.7500000       1.97102352E-08
   18.8099995       1.93103098E-08
   18.8700008       1.89071212E-08
   18.9300003       1.85720275E-08
   18.9899998       1.83889810E-08
   19.0499992       1.84364861E-08
   19.1100006       1.87689135E-08
   19.1700001       1.94035703E-08
   19.2299995       2.03181134E-08
   19.2900009       2.14589910E-08
   19.3500004       2.27575807E-08
   19.4099998       2.41478819E-08
   19.4699993       2.55792472E-08
   19.5300007       2.70198957E-08
   19.5900002       2.84506907E-08
   19.6499996       2.98525826E-08
   19.7099991       3.11935864E-08
   19.7700005       3.24211307E-08
   19.8299999       3.34635288E-08
   19.8899994       3.42406778E-08
   19.9500008       3.46806637E-08
   20.0100002       3.47367255E-08
   20.0699997       3.43990010E-08
   20.1299992       3.36971482E-08
   20.1900005       3.26929275E-08
   20.2500000       3.14650066E-08
   20.3099995       3.00904688E-08
   20.3700008       2.86284472E-08
   20.4300003       2.71105378E-08
   20.4899998       2.55406736E-08
   20.5499992       2.39044891E-08
   20.6100006       2.21853647E-08
   20.6700001       2.03822470E-08
   20.7299995       1.85235862E-08
   20.7900009       1.66723577E-08
   20.8500004       1.49195785E-08
   20.9099998       1.33669653E-08
   20.9699993       1.21030848E-08
   21.0300007       1.11797345E-08
   21.0900002       1.05958957E-08
   21.1499996       1.02946967E-08
   21.2099991       1.01748672E-08
   21.2700005       1.01134487E-08
   21.3299999       9.99267424E-09
   21.3899994       9.72241399E-09
   21.4500008       9.25128596E-09
   21.5100002       8.56372218E-09
   21.5699997       7.66564145E-09
   21.6299992       6.56571508E-09
   21.6900005       5.26073451E-09
   21.7500000       3.73169984E-09
   21.8099995       1.95257810E-09
   21.8700008      -9.18585139E-11
   21.9300003      -2.38684894E-09
   21.9899998      -4.87585217E-09
   22.0499992      -7.46230189E-09
   22.1100006      -1.00258877E-08
   22.1700001      -1.24486608E-08
   22.2299995      -1.46423043E-08
   22.2900009      -1.65672738E-08
   22.3500004      -1.82373459E-08
   22.4099998      -1.97083398E-08
   22.4699993      -2.10553122E-08
   22.5300007      -2.23463577E-08
   22.5900002      -2.36219311E-08
   22.6499996      -2.48862637E-08
   22.7099991      -2.61128505E-08
   22.7700005      -2.72610787E-08
   22.8299999      -2.82974124E-08
   22.8899994      -2.92132967E-08
   22.9500008      -3.00335614E-08
   23.0100002      -3.08125294E-08
   23.0699997      -3.16192548E-08
   23.1299992      -3.25170113E-08
   23.1900005      -3.35437988E-08
   23.2500000      -3.47002143E-08
   23.3099995      -3.59485774E-08
   23.3700008      -3.72235824E-08
   23.4300003      -3.84510166E-08
   23.4899998      -3.95686470E-08
   23.5499992      -4.05426412E-08
   23.6100006      -4.13744274E-08
   23.6700001      -4.20958024E-08
   23.7299995      -4.27540883E-08
   23.7900009      -4.33922729E-08
   23.8500004      -4.40307772E-08
   23.9099998      -4.46571597E-08
   23.9699993      -4.52273952E-08
   24.0300007      -4.56786147E-08
   24.0900002      -4.59492391E-08
   24.1499996      -4.59998510E-08
   24.2099991      -4.58276226E-08
   24.2700005      -4.54691467E-08
   24.3299999      -4.49902124E-08
   24.3899994      -4.44655512E-08
   24.4500008      -4.39550902E-08
   24.5100002      -4.34845653E-08
   24.5699997      -4.30373639E-08
   24.6299992      -4.25607567E-08
   24.6900005      -4.19851283E-08
   24.7500000      -4.12502530E-08
   24.8099995      -4.03302067E-08
   24.8700008      -3.92485333E-08
   24.9300003      -3.80781273E-08
   24.9899998      -3.69253819E-08
   25.0499992      -3.59030565E-08
   25.1100006      -3.51005056E-08
   25.1700001      -3.45608733E-08
   25.2299995      -3.42727908E-08
   25.2900009      -3.41792372E-08
   25.3500004      -3.42003723E-08
   25.4099998      -3.42621931E-08
   25.4699993      -3.43208519E-08
   25.5300007      -3.43741213E-08
   25.5900002      -3.44563773E-08
   25.6499996      -3.46197666E-08
   25.7099991      -3.49093341E-08
   25.7700005      -3.53421115E-08
   25.8299999      -3.58981787E-08
   25.8899994      -3.65266857E-08
   25.9500008      -3.71636233E-08
   26.0100002      -3.77534413E-08
   26.0699997      -3.82655401E-08
   26.1299992      -3.86991523E-08
   26.1900005      -3.90755339E-08
   26.2500000      -3.94219271E-08
   26.3099995      -3.97549051E-08
   26.3700008      -4.00707556E-08
   26.4300003      -4.03468441E-08
   26.4899998      -4.05529299E-08
   26.5499992      -4.06670111E-08
   26.6100006      -4.06885725E-08
   26.6700001      -4.06435561E-08
   26.7299995      -4.05792058E-08
   26.7900009      -4.05512139E-08
   26.8500004      -4.06086258E-08
   26.9099998      -4.07822220E-08
   26.9699993      -4.10802521E-08
   27.0300007      -4.14918873E-08
   27.0900002      -4.19957971E-08
   27.1499996      -4.25696314E-08
   27.2099991      -4.31964082E-08
   27.2700005      -4.38657608E-08
   27.3299999      -4.45702852E-08
   27.3899994      -4.52992346E-08
   27.4500008      -4.60325502E-08
   27.5100002      -4.67378136E-08
   27.5699997      -4.73716959E-08
   27.6299992      -4.78855462E-08
   27.6900005      -4.82336802E-08
   27.7500000      -4.83818674E-08
   27.8099995      -4.83133853E-08
   27.8700008      -4.80305609E-08
   27.9300003      -4.75509339E-08
   27.9899998      -4.68987764E-08
   28.0499992      -4.60943461E-08
   28.1100006      -4.51443540E-08
   28.1700001      -4.40370584E-08
   28.2299995      -4.27444427E-08
   28.2900009      -4.12314733E-08
   28.3500004      -3.94702369E-08
   28.4099998      -3.74544165E-08
   28.4699993      -3.52091689E-08
   28.5300007      -3.27923786E-08
   28.5900002      -3.02859249E-08
   28.6499996      -2.77788903E-08
   28.7099991      -2.53474468E-08
   28.7700005      -2.30376269E-08
   28.8299999      -2.08564543E-08
   28.8899994      -1.87743847E-08
   28.9500008      -1.67382179E-08
   29.0100002      -1.46902384E-08
   29.0699997      -1.25871447E-08
   29.1299992      -1.04125260E-08
   29.1900005      -8.17897394E-09
   29.2500000      -5.91969807E-09
   29.3099995      -3.67337583E-09
   29.3700008      -1.46838108E-09
   29.4300003       6.87281454E-10
   29.4899998       2.80635248E-09
   29.5499992       4.91288832E-09
   29.6100006       7.02691771E-09
   29.6700001       9.14962506E-09
   29.7299995       1.12555227E-08
   29.7900009       1.32955149E-08
   29.8500004       1.52104462E-08
   29.9099998       1.69504073E-08
   29.9699993       1.84923898E-08
   30.0300007       1.98490273E-08
   30.0900002       2.10642668E-08
   30.1499996       2.21966570E-08
   30.2099991       2.32959021E-08
   30.2700005       2.43812206E-08
   30.3299999       2.54297774E-08
   30.3899994       2.63800182E-08
   30.4500008       2.71491629E-08
   30.5100002       2.76588015E-08
   30.5699997       2.78594054E-08
   30.6299992       2.77447985E-08
   30.6900005       2.73514971E-08
   30.7500000       2.67433862E-08
   30.8099995       2.59877186E-08
   30.8700008       2.51315218E-08
   30.9300003       2.41870453E-08
   30.9899998       2.31313368E-08
   31.0499992       2.19195702E-08
   31.1100006       2.05066737E-08
   31.1700001       1.88689384E-08
   31.2299995       1.70176300E-08
   31.2900009       1.49998698E-08
   31.3500004       1.28868551E-08
   31.4099998       1.07541149E-08
   31.4699993       8.66118910E-09
   31.5300007       6.63803768E-09
   31.5900002       4.68285144E-09
   31.6499996       2.77162604E-09
   31.7099991       8.75574224E-10
   31.7700005      -1.02036124E-09
   31.8299999      -2.90500046E-09
   31.8899994      -4.73930895E-09
   31.9500008      -6.46652687E-09
   32.0099983      -8.03050426E-09
   32.0699997      -9.39552525E-09
   32.1300011      -1.05601092E-08
   32.1899986      -1.15592913E-08
   32.2500000      -1.24539836E-08
   32.3100014      -1.33107543E-08
   32.3699989      -1.41790002E-08
   32.4300003      -1.50735797E-08
   32.4900017      -1.59691531E-08
   32.5499992      -1.68082810E-08
   32.6100006      -1.75204349E-08
   32.6699982      -1.80452346E-08
   32.7299995      -1.83518729E-08
   32.7900009      -1.84483433E-08
   32.8499985      -1.83779232E-08
   32.9099998      -1.82050481E-08
   32.9700012      -1.79963280E-08
   33.0299988      -1.78037993E-08
   33.0900002      -1.76561805E-08
   33.1500015      -1.75605379E-08
   33.2099991      -1.75126367E-08
   33.2700005      -1.75110735E-08
   33.3300018      -1.75690182E-08
   33.3899994      -1.77185555E-08
   33.4500008      -1.80055935E-08
   33.5099983      -1.84770332E-08
   33.5699997      -1.91649843E-08
   33.6300011      -2.00740953E-08
   33.6899986      -2.11771916E-08
   33.7500000      -2.24215100E-08
   33.8100014      -2.37439739E-08
   33.8699989      -2.50905323E-08
   33.9300003      -2.64326676E-08
   33.9900017      -2.77747887E-08
   34.0499992      -2.91492253E-08
   34.1100006      -3.05998427E-08
   34.1699982      -3.21597149E-08
   34.2299995      -3.38309327E-08
   34.2900009      -3.55744874E-08
   34.3499985      -3.73149405E-08
   34.4099998      -3.89595485E-08
   34.4700012      -4.04260945E-08
   34.5299988      -4.16699990E-08
   34.5900002      -4.27011884E-08
   34.6500015      -4.35840057E-08
   34.7099991      -4.44194050E-08
   34.7700005      -4.53145361E-08
   34.8300018      -4.63493741E-08
   34.8899994      -4.75511790E-08
   34.9500008      -4.88850489E-08
   35.0099983      -5.02634876E-08
   35.0699997      -5.15718206E-08
   35.1300011      -5.27009725E-08
   35.1899986      -5.35772351E-08
   35.2500000      -5.41795266E-08
   35.3100014      -5.45392638E-08
   35.3699989      -5.47235004E-08
   35.4300003      -5.48076322E-08
   35.4900017      -5.48472237E-08
   35.5499992      -5.48585852E-08
   35.6100006      -5.48145955E-08
   35.6699982      -5.46569296E-08
   35.7299995      -5.43200684E-08
   35.7900009      -5.37582778E-08
   35.8499985      -5.29656319E-08
   35.9099998      -5.19816723E-08
   35.9700012      -5.08802458E-08
   36.0299988      -4.97453598E-08
   36.0900002      -4.86425300E-08
   36.1500015      -4.75959681E-08
   36.2099991      -4.65800234E-08
   36.2700005      -4.55282887E-08
   36.3300018      -4.43576447E-08
   36.3899994      -4.29990443E-08
   36.4500008      -4.14246415E-08
   36.5099983      -3.96618773E-08
   36.5699997      -3.77898495E-08
   36.6300011      -3.59191787E-08
   36.6899986      -3.41622552E-08
   36.7500000      -3.26038965E-08
   36.8100014      -3.12819850E-08
   36.8699989      -3.01841858E-08
   36.9300003      -2.92611233E-08
   36.9900017      -2.84509483E-08
   37.0499992      -2.77063883E-08
   37.1100006      -2.70149680E-08
   37.1699982      -2.64055675E-08
   37.2299995      -2.59394390E-08
   37.2900009      -2.56891717E-08
   37.3499985      -2.57131028E-08
   37.4099998      -2.60340762E-08
   37.4700012      -2.66297544E-08
   37.5299988      -2.74376131E-08
   37.5900002      -2.83727406E-08
   37.6500015      -2.93522593E-08
   37.7099991      -3.03180805E-08
   37.7700005      -3.12502664E-08
   37.8300018      -3.21666747E-08
   37.8899994      -3.31090604E-08
   37.9500008      -3.41206601E-08
   38.0099983      -3.52231169E-08
   38.0699997      -3.64011257E-08
   38.1300011      -3.76005787E-08
   38.1899986      -3.87412378E-08
   38.2500000      -3.97398274E-08
   38.3100014      -4.05351948E-08
   38.3699989      -4.11061727E-08
   38.4300003      -4.14751575E-08
   38.4900017      -4.16954293E-08
   38.5499992      -4.18266488E-08
   38.6100006      -4.19076187E-08
   38.6699982      -4.19368718E-08
   38.7299995      -4.18688870E-08
   38.7900009      -4.16275796E-08
   38.8499985      -4.11320364E-08
   38.9099998      -4.03243590E-08
   38.9700012      -3.91887340E-08
   39.0299988      -3.77544787E-08
   39.0900002      -3.60824508E-08
   39.1500015      -3.42409301E-08
   39.2099991      -3.22813172E-08
   39.2700005      -3.02234646E-08
   39.3300018      -2.80560624E-08
   39.3899994      -2.57509072E-08
   39.4500008      -2.32840982E-08
   39.5099983      -2.06548645E-08
   39.5699997      -1.78942727E-08
   39.6300011      -1.50610546E-08
   39.6899986      -1.22272485E-08
   39.7500000      -9.46029832E-09
   39.8100014      -6.80877976E-09
   39.8699989      -4.29633618E-09
   39.9300003      -1.92417127E-09
   39.9900017       3.21162374E-10
   40.0499992       2.45941512E-09
   40.1100006       4.51124471E-09
   40.1699982       6.49650955E-09
   40.2299995       8.43431902E-09
   40.2900009       1.03419202E-08
   40.3499985       1.22306636E-08
   40.4099998       1.40998448E-08
   40.4700012       1.59315814E-08
   40.5299988       1.76905139E-08
   40.5900002       1.93304466E-08
   40.6500015       2.08068247E-08
   40.7099991       2.20907843E-08
   40.7700005       2.31790871E-08
   40.8300018       2.40956517E-08
   40.8899994       2.48838425E-08
   40.9500008       2.55927830E-08
   41.0099983       2.62636313E-08
   41.0699997       2.69216205E-08
   41.1300011       2.75768564E-08
   41.1899986       2.82326287E-08
   41.2500000       2.88963271E-08
   41.3100014       2.95870528E-08
   41.3699989       3.03356984E-08
   41.4300003       3.11771373E-08
   41.4900017       3.21383240E-08
   41.5499992       3.32281971E-08
   41.6100006       3.44347306E-08
   41.6699982       3.57312011E-08
   41.7299995       3.70892295E-08
   41.7900009       3.84930239E-08
   41.8499985       3.99481408E-08
   41.9099998       4.14805470E-08
   41.9700012       4.31256737E-08
   42.0299988       4.49117650E-08
   42.0900002       4.68443133E-08
   42.1500015       4.88980412E-08
   42.2099991       5.10198923E-08
   42.2700005       5.31417754E-08
   42.3300018       5.51979475E-08
   42.3899994       5.71400030E-08
   42.4500008       5.89437654E-08
   42.5099983       6.06058990E-08
   42.5699997       6.21324787E-08
   42.6300011       6.35250714E-08
   42.6899986       6.47705747E-08
   42.7500000       6.58390817E-08
   42.8100014       6.66903119E-08
   42.8699989       6.72851783E-08
   42.9300003       6.75971350E-08
   42.9900017       6.76180321E-08
   43.0499992       6.73562113E-08
   43.1100006       6.68276599E-08
   43.1699982       6.60443931E-08
   43.2299995       6.50049543E-08
   43.2900009       6.36909405E-08
   43.3499985       6.20706544E-08
   43.4099998       6.01084835E-08
   43.4700012       5.77765142E-08
   43.5299988       5.50648771E-08
   43.5900002       5.19880885E-08
   43.6500015       4.85866281E-08
   43.7099991       4.49238868E-08
   43.7700005       4.10797441E-08
   43.8300018       3.71416284E-08
   43.8899994       3.31941230E-08
   43.9500008       2.93081452E-08
   44.0099983       2.55313353E-08
   44.0699997       2.18817728E-08
   44.1300011       1.83472046E-08
   44.1899986       1.48910066E-08
   44.2500000       1.14641727E-08
   44.3100014       8.02051225E-09
   44.3699989       4.53064031E-09
   44.4300003       9.90286075E-10
   44.4900017      -2.57980637E-09
   44.5499992      -6.14212059E-09
   44.6100006      -9.65532188E-09
   44.6699982      -1.30865150E-08
   44.7299995      -1.64175979E-08
   44.7900009      -1.96429379E-08
   44.8499985      -2.27593873E-08
   44.9099998      -2.57532342E-08
   44.9700012      -2.85905646E-08
   45.0299988      -3.12165795E-08
   45.0900002      -3.35660424E-08
   45.1500015      -3.55823211E-08
   45.2099991      -3.72384861E-08
   45.2700005      -3.85520593E-08
   45.3300018      -3.95866557E-08
   45.3899994      -4.04379641E-08
   45.4500008      -4.12070627E-08
   45.5099983      -4.19690345E-08
   45.5699997      -4.27468372E-08
   45.6300011      -4.34992096E-08
   45.6899986      -4.41267005E-08
   45.7500000      -4.44938522E-08
   45.8100014      -4.44598989E-08
   45.8699989      -4.39073879E-08
   45.9300003      -4.27586144E-08
   45.9900017      -4.09740650E-08
   46.0499992      -3.85331944E-08
   46.1100006      -3.54039784E-08
   46.1699982      -3.15114583E-08
   46.2299995      -2.67157141E-08
   46.2900009      -2.08057891E-08
   46.3499985      -1.35100642E-08
   46.4099998      -4.51709115E-09
   46.4700012       6.50347909E-09
   46.5299988       1.98906971E-08
   46.5900002       3.60002232E-08
   46.6500015       5.52315456E-08
   46.7099991       7.80688652E-08
   46.7700005       1.05125551E-07
   46.8300018       1.37180891E-07
   46.8899994       1.75201336E-07
   46.9500008       2.20344617E-07
   47.0099983       2.73951969E-07
   47.0699997       3.37538637E-07
   47.1300011       4.12794549E-07
   47.1899986       5.01604177E-07
   47.2500000       6.06089372E-07
   47.3100014       7.28671978E-07
   47.3699989       8.72147154E-07
   47.4300003       1.03975742E-06
   47.4900017       1.23525672E-06
   47.5499992       1.46296031E-06
   47.6100006       1.72778164E-06
   47.6699982       2.03526474E-06
   47.7299995       2.39162114E-06
   47.7900009       2.80378413E-06
   47.8499985       3.27948601E-06
   47.9099998       3.82735880E-06
   47.9700012       4.45705246E-06
   48.0299988       5.17936132E-06
   48.0900002       6.00634075E-06
   48.1500015       6.95141580E-06
   48.2099991       8.02947125E-06
   48.2700005       9.25692257E-06
   48.3300018       1.06518000E-05
   48.3899994       1.22338224E-05
   48.4500008       1.40245020E-05
   48.5099983       1.60472500E-05
   48.5699997       1.83275170E-05
   48.6300011       2.08929141E-05
   48.6899986       2.37733420E-05
   48.7500000       2.70010732E-05
   48.8100014       3.06108377E-05
   48.8699989       3.46398592E-05
   48.9300003       3.91278700E-05
   48.9900017       4.41171214E-05
   49.0499992       4.96523753E-05
   49.1100006       5.57808926E-05
   49.1699982       6.25524117E-05
   49.2299995       7.00191158E-05
   49.2900009       7.82355492E-05
   49.3499985       8.72585297E-05
   49.4099998       9.71469635E-05
   49.4700012       1.07961641E-04
   49.5299988       1.19764984E-04
   49.5900002       1.32620757E-04
   49.6500015       1.46593738E-04
   49.7099991       1.61749267E-04
   49.7700005       1.78152972E-04
   49.8300018       1.95870263E-04
   49.8899994       2.14965912E-04
   49.9500008       2.35503510E-04
   50.0099983       2.57544976E-04
   50.0699997       2.81149900E-04
   50.1300011       3.06374888E-04
   50.1899986       3.33272852E-04
   50.2500000       3.61892511E-04
   50.3100014       3.92277580E-04
   50.3699989       4.24466125E-04
   50.4300003       4.58489725E-04
   50.4900017       4.94373206E-04
   50.5499992       5.32133388E-04
   50.6100006       5.71779092E-04