  -2.400000      0.0000000E+00
  -2.340000      0.0000000E+00
  -2.280000      0.0000000E+00
  -2.220000      0.0000000E+00
  -2.160000     -2.8634343E-19
  -2.100000     -1.6991242E-18
  -2.040000     -5.0112442E-18
  -1.980000     -9.4127405E-18
  -1.920000     -1.2082286E-17
  -1.860000     -1.1544918E-17
  -1.800000     -1.4605174E-17
  -1.740000     -4.0829681E-17
  -1.680000     -1.1461650E-16
  -1.620000     -2.3880442E-16
  -1.560000     -3.5727762E-16
  -1.500000     -3.3072505E-16
  -1.440000      4.3157947E-17
  -1.380000      9.4727453E-16
  -1.320000      2.4165073E-15
  -1.260000      4.2164932E-15
  -1.200000      5.7997379E-15
  -1.140000      6.3862231E-15
  -1.080000      5.1592027E-15
  -1.020000      1.5082805E-15
 -0.9600000     -4.7678443E-15
 -0.9000000     -1.3346778E-14
 -0.8400000     -2.3326811E-14
 -0.7800000     -3.3148665E-14
 -0.7200000     -4.0449028E-14
 -0.6600000     -4.1938055E-14
 -0.6000000     -3.3563284E-14
 -0.5400000     -1.1291425E-14
 -0.4800000      2.7315313E-14
 -0.4200000      8.0949367E-14
 -0.3600000      1.4255443E-13
 -0.3000000      1.9852741E-13
 -0.2400000      2.3010231E-13
 -0.1800000      2.1728974E-13
 -0.1200000      1.4477646E-13
 -5.9999999E-02  8.2345977E-15
  0.0000000E+00 -1.8101583E-13
  5.9999999E-02 -3.9482778E-13
  0.1200000     -5.9145337E-13
  0.1800000     -7.2282008E-13
  0.2400000     -7.4433591E-13
  0.3000000     -6.2503323E-13
  0.3600000     -3.5582832E-13
  0.4200000      4.5838238E-14
  0.4800000      5.3595062E-13
  0.5400000      1.0485887E-12
  0.6000000      1.5046326E-12
  0.6600000      1.8230248E-12
  0.7200000      1.9324752E-12
  0.7800000      1.7812694E-12
  0.8400000      1.3434053E-12
  0.9000000      6.2075535E-13
  0.9600000     -3.5696137E-13
   1.020000     -1.5309419E-12
   1.080000     -2.8073305E-12
   1.140000     -4.0456787E-12
   1.200000     -5.0460061E-12
   1.260000     -5.5442734E-12
   1.320000     -5.2292654E-12
   1.380000     -3.7916619E-12
   1.440000     -1.0070714E-12
   1.500000      3.1592548E-12
   1.560000      8.4526084E-12
   1.620000      1.4268854E-11
   1.680000      1.9666378E-11
   1.740000      2.3467037E-11
   1.800000      2.4439865E-11
   1.860000      2.1537466E-11
   1.920000      1.4139140E-11
   1.980000      2.2518957E-12
   2.040000     -1.3369744E-11
   2.100000     -3.1206621E-11
   2.160000     -4.9063704E-11
   2.220000     -6.4253575E-11
   2.280000     -7.3854013E-11
   2.340000     -7.5012045E-11
   2.400000     -6.5259229E-11
   2.460000     -4.2795104E-11
   2.520000     -6.6913918E-12
   2.580000      4.3025021E-11
   2.640000      1.0543427E-10
   2.700000      1.7892431E-10
   2.760000      2.6148955E-10
   2.820000      3.5105735E-10
   2.880000      4.4576187E-10
   2.940000      5.4409521E-10
   3.000000      6.4489974E-10
   3.060000      7.4721385E-10
   3.120000      8.5003216E-10
   3.180000      9.5207753E-10
   3.240000      1.0516856E-09
   3.300000      1.1468694E-09
   3.360000      1.2355663E-09
   3.420000      1.3159949E-09
   3.480000      1.3869953E-09
   3.540000      1.4482254E-09
   3.600000      1.5001425E-09
   3.660000      1.5437912E-09
   3.720000      1.5805076E-09
   3.780000      1.6116746E-09
   3.840000      1.6386188E-09
   3.900000      1.6626336E-09
   3.960000      1.6850079E-09
   4.020000      1.7069074E-09
   4.080000      1.7290103E-09
   4.140000      1.7509448E-09
   4.200000      1.7707149E-09
   4.260000      1.7843805E-09
   4.320000      1.7862080E-09
   4.380000      1.7693553E-09
   4.440000      1.7269679E-09
   4.500000      1.6534103E-09
   4.560000      1.5453295E-09
   4.620000      1.4023104E-09
   4.680000      1.2270291E-09
   4.740000      1.0249553E-09
   4.800000      8.0374890E-10
   4.860000      5.7255212E-10
   4.920000      3.4135861E-10
   4.980000      1.2059609E-10
   5.040000     -7.9028041E-11
   5.100000     -2.4647967E-10
   5.160000     -3.7031972E-10
   5.220000     -4.3882653E-10
   5.280000     -4.4051324E-10
   5.340000     -3.6507913E-10
   5.400000     -2.0460807E-10
   5.460000      4.5376050E-11
   5.520000      3.8543552E-10
   5.580000      8.1261203E-10
   5.640000      1.3216538E-09
   5.700000      1.9066944E-09
   5.760000      2.5627893E-09
   5.820000      3.2867573E-09
   5.880000      4.0770538E-09
   5.940000      4.9327862E-09
   6.000000      5.8523000E-09
   6.060000      6.8318506E-09
   6.120000      7.8647444E-09
   6.180000      8.9410515E-09
   6.240000      1.0047764E-08
   6.300000      1.1169161E-08
   6.360000      1.2287246E-08
   6.420000      1.3382244E-08
   6.480000      1.4433322E-08
   6.540000      1.5419618E-08
   6.600000      1.6321529E-08
   6.660000      1.7122069E-08
   6.720000      1.7807922E-08
   6.780000      1.8369985E-08
   6.840000      1.8803354E-08
   6.900000      1.9106929E-08
   6.960000      1.9282973E-08
   7.020000      1.9336776E-08
   7.080000      1.9276470E-08
   7.140000      1.9112699E-08
   7.200000      1.8857834E-08
   7.260000      1.8524601E-08
   7.320000      1.8124247E-08
   7.380000      1.7664879E-08
   7.440000      1.7150587E-08
   7.500000      1.6581875E-08
   7.560000      1.5957443E-08
   7.620000      1.5276777E-08
   7.680000      1.4542638E-08
   7.740000      1.3762553E-08
   7.800000      1.2948708E-08
   7.860000      1.2116300E-08
   7.920000      1.1280891E-08
   7.980000      1.0455622E-08
   8.040000      9.6490318E-09
   8.100000      8.8639478E-09
   8.160000      8.0974862E-09
   8.220000      7.3419977E-09
   8.280000      6.5866601E-09
   8.340000      5.8194805E-09
   8.400000      5.0294724E-09
   8.460000      4.2086619E-09
   8.520000      3.3534711E-09
   8.580000      2.4649791E-09
   8.640000      1.5477983E-09
   8.700000      6.0773636E-10
   8.760000     -3.5104181E-10
   8.820000     -1.3283378E-09
   8.880000     -2.3288231E-09
   8.940000     -3.3611729E-09
   9.000000     -4.4358326E-09
   9.060000     -5.5624079E-09
   9.120000     -6.7477655E-09
   9.180000     -7.9954887E-09
   9.240000     -9.3066053E-09
   9.300000     -1.0680854E-08
   9.360000     -1.2117554E-08
   9.420000     -1.3615518E-08
   9.480000     -1.5172031E-08
   9.540000     -1.6781534E-08
   9.600000     -1.8434823E-08
   9.660000     -2.0119193E-08
   9.720000     -2.1819563E-08
   9.780000     -2.3519995E-08
   9.840000     -2.5205093E-08
   9.900000     -2.6860954E-08
   9.960000     -2.8475771E-08
   10.02000     -3.0040407E-08
   10.08000     -3.1549131E-08
   10.14000     -3.3000241E-08
   10.20000     -3.4395956E-08
   10.26000     -3.5740985E-08
   10.32000     -3.7039516E-08
   10.38000     -3.8291283E-08
   10.44000     -3.9487794E-08
   10.50000     -4.0610143E-08
   10.56000     -4.1629196E-08
   10.62000     -4.2508201E-08
   10.68000     -4.3207052E-08
   10.74000     -4.3687013E-08
   10.80000     -4.3914945E-08
   10.86000     -4.3866557E-08
   10.92000     -4.3528743E-08
   10.98000     -4.2901320E-08
   11.04000     -4.1998213E-08
   11.10000     -4.0847773E-08
   11.16000     -3.9491610E-08
   11.22000     -3.7981522E-08
   11.28000     -3.6374583E-08
   11.34000     -3.4727194E-08
   11.40000     -3.3089332E-08
   11.46000     -3.1500182E-08
   11.52000     -2.9985873E-08
   11.58000     -2.8559230E-08
   11.64000     -2.7221070E-08
   11.70000     -2.5962224E-08
   11.76000     -2.4765919E-08
   11.82000     -2.3610468E-08
   11.88000     -2.2472449E-08
   11.94000     -2.1330465E-08
   12.00000     -2.0169054E-08
   12.06000     -1.8981892E-08
   12.12000     -1.7773310E-08
   12.18000     -1.6557415E-08
   12.24000     -1.5354933E-08
   12.30000     -1.4188592E-08
   12.36000     -1.3078416E-08
   12.42000     -1.2038168E-08
   12.48000     -1.1073682E-08
   12.54000     -1.0183033E-08
   12.60000     -9.3579517E-09
   12.66000     -8.5856895E-09
   12.72000     -7.8507814E-09
   12.78000     -7.1365700E-09
   12.84000     -6.4266863E-09
   12.90000     -5.7067271E-09
   12.96000     -4.9661790E-09
   13.02000     -4.2003316E-09
   13.08000     -3.4117085E-09
   13.14000     -2.6105902E-09
   13.20000     -1.8143878E-09
   13.26000     -1.0459060E-09
   13.32000     -3.3070183E-10
   13.38000      3.0620131E-10
   13.44000      8.4399338E-10
   13.50000      1.2698721E-09
   13.56000      1.5825284E-09
   13.62000      1.7947062E-09
   13.68000      1.9341093E-09
   13.74000      2.0420550E-09
   13.80000      2.1696471E-09
   13.86000      2.3718236E-09
   13.92000      2.7001634E-09
   13.98000      3.1956804E-09
   14.04000      3.8828709E-09
   14.10000      4.7660222E-09
   14.16000      5.8283942E-09
   14.22000      7.0344033E-09
   14.28000      8.3345135E-09
   14.34000      9.6720854E-09
   14.40000      1.0991094E-08
   14.46000      1.2243347E-08
   14.52000      1.3393809E-08
   14.58000      1.4422964E-08
   14.64000      1.5325787E-08
   14.70000      1.6107753E-08
   14.76000      1.6779147E-08
   14.82000      1.7349304E-08
   14.88000      1.7822465E-08
   14.94000      1.8196245E-08
   15.00000      1.8463018E-08
   15.06000      1.8613569E-08
   15.12000      1.8641847E-08
   15.18000      1.8549413E-08
   15.24000      1.8348256E-08
   15.30000      1.8061186E-08
   15.36000      1.7719398E-08
   15.42000      1.7357582E-08
   15.48000      1.7007549E-08
   15.54000      1.6691791E-08
   15.60000      1.6418687E-08
   15.66000      1.6180749E-08
   15.72000      1.5956740E-08
   15.78000      1.5717355E-08
   15.84000      1.5433187E-08
   15.90000      1.5082875E-08
   15.96000      1.4659214E-08
   16.02000      1.4171487E-08
   16.08000      1.3643357E-08
   16.14000      1.3106861E-08
   16.20000      1.2594171E-08
   16.26000      1.2129335E-08
   16.32000      1.1722221E-08
   16.38000      1.1366239E-08
   16.44000      1.1040422E-08
   16.50000      1.0715292E-08
   16.56000      1.0360938E-08
   16.62000      9.9551851E-09
   16.68000      9.4897024E-09
   16.74000      8.9725001E-09
   16.80000      8.4262899E-09
   16.86000      7.8832931E-09
   16.92000      7.3780377E-09
   16.98000      6.9400983E-09
   17.04000      6.5885994E-09
   17.10000      6.3296453E-09
   17.16000      6.1569940E-09
   17.22000      6.0554886E-09
   17.28000      6.0061787E-09
   17.34000      5.9918404E-09
   17.40000      6.0016139E-09
   17.46000      6.0337091E-09
   17.52000      6.0955125E-09
   17.58000      6.2009797E-09
   17.64000      6.3658470E-09
   17.70000      6.6018666E-09
   17.76000      6.9117356E-09
   17.82000      7.2863999E-09
   17.88000      7.7058555E-09
   17.94000      8.1435259E-09
   18.00000      8.5731049E-09
   18.06000      8.9758352E-09
   18.12000      9.3459400E-09
   18.18000      9.6925268E-09
   18.24000      1.0037401E-08
   18.30000      1.0409593E-08
   18.36000      1.0838354E-08
   18.42000      1.1346713E-08
   18.48000      1.1947213E-08
   18.54000      1.2640632E-08
   18.60000      1.3417430E-08
   18.66000      1.4261020E-08
   18.72000      1.5151656E-08
   18.78000      1.6069885E-08
   18.84000      1.6998827E-08
   18.90000      1.7925021E-08
   18.96000      1.8837863E-08
   19.02000      1.9727985E-08
   19.08000      2.0585158E-08
   19.14000      2.1396421E-08
   19.20000      2.2145191E-08
   19.26000      2.2811872E-08
   19.32000      2.3375913E-08
   19.38000      2.3818689E-08
   19.44000      2.4125908E-08
   19.50000      2.4288228E-08
   19.56000      2.4299148E-08
   19.62000      2.4150292E-08
   19.68000      2.3825415E-08
   19.74000      2.3295366E-08
   19.80000      2.2516463E-08
   19.86000      2.1433964E-08
   19.92000      1.9990816E-08
   19.98000      1.8140231E-08
   20.04000      1.5859118E-08
   20.10000      1.3158972E-08
   20.16000      1.0091111E-08
   20.22000      6.7444939E-09
   20.28000      3.2359104E-09
   20.34000     -3.0594111E-10
   20.40000     -3.7597618E-09
   20.46000     -7.0308710E-09
   20.52000     -1.0066793E-08
   20.58000     -1.2866200E-08
   20.64000     -1.5479280E-08
   20.70000     -1.7999108E-08
   20.76000     -2.0545331E-08
   20.82000     -2.3243052E-08
   20.88000     -2.6200858E-08
   20.94000     -2.9492144E-08
   21.00000     -3.3143113E-08
   21.06000     -3.7129354E-08
   21.12000     -4.1380940E-08
   21.18000     -4.5794316E-08
   21.24000     -5.0248069E-08
   21.30000     -5.4619402E-08
   21.36000     -5.8798509E-08
   21.42000     -6.2698973E-08
   21.48000     -6.6263389E-08
   21.54000     -6.9464434E-08
   21.60000     -7.2302036E-08
   21.66000     -7.4798031E-08
   21.72000     -7.6989409E-08
   21.78000     -7.8921225E-08
   21.84000     -8.0640064E-08
   21.90000     -8.2188457E-08
   21.96000     -8.3600590E-08
   22.02000     -8.4899234E-08
   22.08000     -8.6093969E-08
   22.14000     -8.7180801E-08
   22.20000     -8.8143146E-08
   22.26000     -8.8954430E-08
   22.32000     -8.9582052E-08
   22.38000     -8.9992447E-08
   22.44000     -9.0156412E-08
   22.50000     -9.0053824E-08
   22.56000     -8.9676831E-08
   22.62000     -8.9030777E-08
   22.68000     -8.8132786E-08
   22.74000     -8.7008281E-08
   22.80000     -8.5686516E-08
   22.86000     -8.4195960E-08
   22.92000     -8.2560867E-08
   22.98000     -8.0799616E-08
   23.04000     -7.8925098E-08
   23.10000     -7.6946840E-08
   23.16000     -7.4874308E-08
   23.22000     -7.2720312E-08
   23.28000     -7.0503589E-08
   23.34000     -6.8249847E-08
   23.40000     -6.5990470E-08
   23.46000     -6.3759018E-08
   23.52000     -6.1585716E-08
   23.58000     -5.9491022E-08
   23.64000     -5.7479735E-08
   23.70000     -5.5537313E-08
   23.76000     -5.3629911E-08
   23.82000     -5.1708902E-08
   23.88000     -4.9719635E-08
   23.94000     -4.7612939E-08
   24.00000     -4.5357137E-08
   24.06000     -4.2947804E-08
   24.12000     -4.0413077E-08
   24.18000     -3.7813106E-08
   24.24000     -3.5233576E-08
   24.30000     -3.2774356E-08
   24.36000     -3.0535244E-08
   24.42000     -2.8601274E-08
   24.48000     -2.7030106E-08
   24.54000     -2.5843734E-08
   24.60000     -2.5026083E-08
   24.66000     -2.4527102E-08
   24.72000     -2.4272776E-08
   24.78000     -2.4179165E-08
   24.84000     -2.4167621E-08
   24.90000     -2.4177920E-08
   24.96000     -2.4176497E-08
   25.02000     -2.4158274E-08
   25.08000     -2.4142208E-08
   25.14000     -2.4162400E-08
   25.20000     -2.4257488E-08
   25.26000     -2.4461229E-08
   25.32000     -2.4796341E-08
   25.38000     -2.5272398E-08
   25.44000     -2.5887273E-08
   25.50000     -2.6630737E-08
   25.56000     -2.7488484E-08
   25.62000     -2.8445154E-08
   25.68000     -2.9485484E-08
   25.74000     -3.0593505E-08
   25.80000     -3.1750311E-08
   25.86000     -3.2931425E-08
   25.92000     -3.4105014E-08
   25.98000     -3.5232116E-08
   26.04000     -3.6269629E-08
   26.10000     -3.7176093E-08
   26.16000     -3.7919424E-08
   26.22000     -3.8484799E-08
   26.28000     -3.8880572E-08
   26.34000     -3.9140083E-08
   26.40000     -3.9318177E-08
   26.46000     -3.9482430E-08
   26.52000     -3.9700701E-08
   26.58000     -4.0027665E-08
   26.64000     -4.0493468E-08
   26.70000     -4.1097188E-08
   26.76000     -4.1806675E-08
   26.82000     -4.2564746E-08
   26.88000     -4.3300094E-08
   26.94000     -4.3940410E-08
   27.00000     -4.4424642E-08
   27.06000     -4.4711832E-08
   27.12000     -4.4784990E-08
   27.18000     -4.4649671E-08
   27.24000     -4.4328289E-08
   27.30000     -4.3852104E-08
   27.36000     -4.3253184E-08
   27.42000     -4.2558437E-08
   27.48000     -4.1786858E-08
   27.54000     -4.0950201E-08
   27.60000     -4.0055916E-08
   27.66000     -3.9110645E-08
   27.72000     -3.8122494E-08
   27.78000     -3.7100722E-08
   27.84000     -3.6052885E-08
   27.90000     -3.4980488E-08
   27.96000     -3.3874962E-08
   28.02000     -3.2716148E-08
   28.08000     -3.1474446E-08
   28.14000     -3.0116844E-08
   28.20000     -2.8615418E-08
   28.26000     -2.6956087E-08
   28.32000     -2.5144999E-08
   28.38000     -2.3210585E-08
   28.44000     -2.1200506E-08
   28.50000     -1.9174095E-08
   28.56000     -1.7192214E-08
   28.62000     -1.5307037E-08
   28.68000     -1.3554245E-08
   28.74000     -1.1949409E-08
   28.80000     -1.0489208E-08
   28.86000     -9.1568397E-09
   28.92000     -7.9299953E-09
   28.98000     -6.7891457E-09
   29.04000     -5.7238974E-09
   29.10000     -4.7357798E-09
   29.16000     -3.8368411E-09
   29.22000     -3.0446450E-09
   29.28000     -2.3752926E-09
   29.34000     -1.8366807E-09
   29.40000     -1.4241186E-09
   29.46000     -1.1197085E-09
   29.52000     -8.9570601E-10
   29.58000     -7.2084466E-10
   29.64000     -5.6767918E-10
   29.70000     -4.1872822E-10
   29.76000     -2.6963284E-10
   29.82000     -1.2855818E-10
   29.88000     -1.2269200E-11
   29.94000      5.9702757E-11
   30.00000      7.0941544E-11
   30.06000      1.2417688E-11
   30.12000     -1.1579677E-10
   30.18000     -3.0540492E-10
   30.24000     -5.4262755E-10
   30.30000     -8.1171148E-10
   30.36000     -1.0981671E-09
   30.42000     -1.3910751E-09
   30.48000     -1.6842714E-09
   30.54000     -1.9765705E-09
   30.60000     -2.2713387E-09
   30.66000     -2.5756910E-09
   30.72000     -2.8994827E-09
   30.78000     -3.2541834E-09
   30.84000     -3.6517334E-09
   30.90000     -4.1035313E-09
   30.96000     -4.6197282E-09
   31.02000     -5.2089186E-09
   31.08000     -5.8781664E-09
   31.14000     -6.6330719E-09
   31.20000     -7.4775128E-09
   31.26000     -8.4127523E-09
   31.32000     -9.4359454E-09
   31.38000     -1.0538502E-08
   31.44000     -1.1705153E-08
   31.50000     -1.2914681E-08
   31.56000     -1.4142922E-08
   31.62000     -1.5367950E-08
   31.68000     -1.6576333E-08
   31.74000     -1.7768643E-08
   31.80000     -1.8962062E-08
   31.86000     -2.0188534E-08
   31.92000     -2.1488097E-08
   31.98000     -2.2898703E-08
   32.04000     -2.4445189E-08
   32.10000     -2.6130669E-08
   32.16000     -2.7933208E-08
   32.22000     -2.9809033E-08
   32.28000     -3.1701681E-08
   32.34000     -3.3554425E-08
   32.40000     -3.5322561E-08
   32.46000     -3.6981938E-08
   32.52000     -3.8531521E-08
   32.58000     -3.9989640E-08
   32.64000     -4.1385270E-08
   32.70000     -4.2747313E-08
   32.76000     -4.4095046E-08
   32.82000     -4.5432461E-08
   32.88000     -4.6747889E-08
   32.94000     -4.8018546E-08
   33.00000     -4.9218283E-08
   33.06000     -5.0325873E-08
   33.12000     -5.1331028E-08
   33.18000     -5.2236274E-08
   33.24000     -5.3054102E-08
   33.30000     -5.3800388E-08
   33.36000     -5.4486300E-08
   33.42000     -5.5111364E-08
   33.48000     -5.5660067E-08
   33.54000     -5.6103190E-08
   33.60000     -5.6403611E-08
   33.66000     -5.6525007E-08
   33.72000     -5.6440800E-08
   33.78000     -5.6140799E-08
   33.84000     -5.5633357E-08
   33.90000     -5.4942472E-08
   33.96000     -5.4100383E-08
   34.02000     -5.3137864E-08
   34.08000     -5.2075045E-08
   34.14000     -5.0915567E-08
   34.20000     -4.9645909E-08
   34.26000     -4.8240171E-08
   34.32000     -4.6668834E-08
   34.38000     -4.4908870E-08
   34.44000     -4.2951925E-08
   34.50000     -4.0808356E-08
   34.56000     -3.8506140E-08
   34.62000     -3.6085495E-08
   34.68000     -3.3591490E-08
   34.74000     -3.1067149E-08
   34.80000     -2.8549147E-08
   34.86000     -2.6066829E-08
   34.92000     -2.3643992E-08
   34.98000     -2.1301927E-08
   35.04000     -1.9061988E-08
   35.10000     -1.6946457E-08
   35.16000     -1.4977324E-08
   35.22000     -1.3173448E-08
   35.28000     -1.1547109E-08
   35.34000     -1.0101092E-08
   35.40000     -8.8272767E-09
   35.46000     -7.7072881E-09
   35.52000     -6.7153354E-09
   35.58000     -5.8228751E-09
   35.64000     -5.0043782E-09
   35.70000     -4.2431241E-09
   35.76000     -3.5358076E-09
   35.82000     -2.8948399E-09
   35.88000     -2.3476006E-09
   35.94000     -1.9325188E-09
   36.00000     -1.6925769E-09
   36.06000     -1.6674809E-09
   36.12000     -1.8861019E-09
   36.18000     -2.3608060E-09
   36.24000     -3.0848788E-09
   36.30000     -4.0335966E-09
   36.36000     -5.1686331E-09
   36.42000     -6.4447647E-09
   36.48000     -7.8173077E-09
   36.54000     -9.2486152E-09
   36.60000     -1.0712270E-08
   36.66000     -1.2194245E-08
   36.72000     -1.3691110E-08
   36.78000     -1.5206075E-08
   36.84000     -1.6744110E-08
   36.90000     -1.8307446E-08
   36.96000     -1.9892566E-08
   37.02000     -2.1489234E-08
   37.08000     -2.3081652E-08
   37.14000     -2.4651234E-08
   37.20000     -2.6180174E-08
   37.26000     -2.7654721E-08
   37.32000     -2.9067159E-08
   37.38000     -3.0415823E-08
   37.44000     -3.1702999E-08
   37.50000     -3.2931322E-08
   37.56000     -3.4099845E-08
   37.62000     -3.5201165E-08
   37.68000     -3.6220797E-08
   37.74000     -3.7139213E-08
   37.80000     -3.7936001E-08
   37.86000     -3.8594969E-08
   37.92000     -3.9108510E-08
   37.98000     -3.9480099E-08
   38.04000     -3.9724277E-08
   38.10000     -3.9864407E-08
   38.16000     -3.9929084E-08
   38.22000     -3.9948102E-08
   38.28000     -3.9948862E-08
   38.34000     -3.9953523E-08
   38.40000     -3.9977149E-08
   38.46000     -4.0026787E-08
   38.52000     -4.0101682E-08
   38.58000     -4.0194717E-08
   38.64000     -4.0295085E-08
   38.70000     -4.0391917E-08
   38.76000     -4.0478028E-08
   38.82000     -4.0552720E-08
   38.88000     -4.0622641E-08
   38.94000     -4.0700012E-08
   39.00000     -4.0798323E-08
   39.06000     -4.0926484E-08
   39.12000     -4.1083034E-08
   39.18000     -4.1252225E-08
   39.24000     -4.1403570E-08
   39.30000     -4.1495557E-08
   39.36000     -4.1483080E-08
   39.42000     -4.1326956E-08
   39.48000     -4.1002945E-08
   39.54000     -4.0507551E-08
   39.60000     -3.9858538E-08
   39.66000     -3.9089439E-08
   39.72000     -3.8239190E-08
   39.78000     -3.7339536E-08
   39.84000     -3.6403904E-08
   39.90000     -3.5421056E-08
   39.96000     -3.4355644E-08
   40.02000     -3.3155757E-08
   40.08000     -3.1765502E-08
   40.14000     -3.0139169E-08
   40.20000     -2.8253055E-08
   40.26000     -2.6111852E-08
   40.32000     -2.3748031E-08
   40.38000     -2.1214607E-08
   40.44000     -1.8573537E-08
   40.50000     -1.5882915E-08
   40.56000     -1.3186324E-08
   40.62000     -1.0506916E-08
   40.68000     -7.8473281E-09
   40.74000     -5.1949631E-09
   40.80000     -2.5307501E-09
   40.86000      1.6126241E-10
   40.92000      2.8861351E-09
   40.98000      5.6339569E-09
   41.04000      8.3800833E-09
   41.10000      1.1089002E-08
   41.16000      1.3720153E-08
   41.22000      1.6233731E-08
   41.28000      1.8594836E-08
   41.34000      2.0775262E-08
   41.40000      2.2753172E-08
   41.46000      2.4511667E-08
   41.52000      2.6037425E-08
   41.58000      2.7320283E-08
   41.64000      2.8353961E-08
   41.70000      2.9137460E-08
   41.76000      2.9676322E-08
   41.82000      2.9982999E-08
   41.88000      3.0076016E-08
   41.94000      2.9978001E-08
   42.00000      2.9713139E-08
   42.06000      2.9304685E-08
   42.12000      2.8772938E-08
   42.18000      2.8133995E-08
   42.24000      2.7399294E-08
   42.30000      2.6575908E-08
   42.36000      2.5667486E-08
   42.42000      2.4675700E-08
   42.48000      2.3601864E-08
   42.54000      2.2448297E-08
   42.60000      2.1218929E-08
   42.66000      1.9918881E-08
   42.72000      1.8553131E-08
   42.78000      1.7124920E-08
   42.84000      1.5634749E-08
   42.90000      1.4080702E-08
   42.96000      1.2460256E-08
   43.02000      1.0773026E-08
   43.08000      9.0232728E-09
   43.14000      7.2209914E-09
   43.20000      5.3808216E-09
   43.26000      3.5189318E-09
   43.32000      1.6488214E-09
   43.38000     -2.2253822E-10
   43.44000     -2.0969213E-09
   43.50000     -3.9846864E-09
   43.56000     -5.9022676E-09
   43.62000     -7.8679676E-09
   43.68000     -9.8970423E-09
   43.74000     -1.1997080E-08
   43.80000     -1.4164560E-08
   43.86000     -1.6383254E-08
   43.92000     -1.8624938E-08
   43.98000     -2.0852587E-08
   44.04000     -2.3025800E-08
   44.10000     -2.5107610E-08
   44.16000     -2.7071314E-08
   44.22000     -2.8905674E-08
   44.28000     -3.0617120E-08
   44.34000     -3.2228208E-08
   44.40000     -3.3772796E-08
   44.46000     -3.5289258E-08
   44.52000     -3.6813692E-08
   44.58000     -3.8375092E-08
   44.64000     -3.9993687E-08
   44.70000     -4.1682743E-08
   44.76000     -4.3453049E-08
   44.82000     -4.5318675E-08
   44.88000     -4.7302319E-08
   44.94000     -4.9438849E-08
   45.00000     -5.1776286E-08
   45.06000     -5.4374084E-08
   45.12000     -5.7299534E-08
   45.18000     -6.0623385E-08
   45.24000     -6.4416227E-08
   45.30000     -6.8747042E-08
   45.36000     -7.3684717E-08
   45.42000     -7.9302744E-08
   45.48000     -8.5686395E-08
   45.54000     -9.2941121E-08
   45.60000     -1.0120075E-07
   45.66000     -1.1063415E-07
   45.72000     -1.2144999E-07
   45.78000     -1.3389958E-07
   45.84000     -1.4827837E-07
   45.90000     -1.6492740E-07
   45.96000     -1.8423492E-07
   46.02000     -2.0663930E-07
   46.08000     -2.3263340E-07
   46.14000     -2.6277101E-07
   46.20000     -2.9767554E-07
   46.26000     -3.3805154E-07
   46.32000     -3.8469875E-07
   46.38000     -4.3852819E-07
   46.44000     -5.0057935E-07
   46.50000     -5.7203710E-07
   46.56000     -6.5424808E-07
   46.62000     -7.4873452E-07
   46.68000     -8.5720808E-07
   46.74000     -9.8158193E-07
   46.80000     -1.1239839E-06
   46.86000     -1.2867708E-06
   46.92000     -1.4725431E-06
   46.98000     -1.6841619E-06
   47.04000     -1.9247661E-06
   47.10000     -2.1977919E-06
   47.16000     -2.5069899E-06
   47.22000     -2.8564475E-06
   47.28000     -3.2506109E-06
   47.34000     -3.6943065E-06
   47.40000     -4.1927665E-06
   47.46000     -4.7516496E-06
   47.52000     -5.3770618E-06
   47.58000     -6.0755669E-06
   47.64000     -6.8541949E-06
   47.70000     -7.7204395E-06
   47.76000     -8.6822556E-06
   47.82000     -9.7480452E-06
   47.88000     -1.0926653E-05
   47.94000     -1.2227357E-05
   48.00000     -1.3659856E-05
   48.06000     -1.5234263E-05
   48.12000     -1.6961088E-05
   48.18000     -1.8851213E-05
   48.24000     -2.0915868E-05
   48.30000     -2.3166578E-05
   48.36000     -2.5615116E-05
   48.42000     -2.8273431E-05
   48.48000     -3.1153573E-05
   48.54000     -3.4267618E-05
   48.60000     -3.7627586E-05
   48.66000     -4.1245348E-05
   48.72000     -4.5132532E-05
   48.78000     -4.9300434E-05
   48.84000     -5.3759919E-05
   48.90000     -5.8521335E-05
   48.96000     -6.3594387E-05
   49.02000     -6.8988054E-05
   49.08000     -7.4710450E-05
   49.14000     -8.0768703E-05
   49.20000     -8.7168846E-05
   49.26000     -9.3915645E-05
   49.32000     -1.0101253E-04
   49.38000     -1.0846144E-04
   49.44000     -1.1626277E-04
   49.50000     -1.2441527E-04
   49.56000     -1.3291599E-04
   49.62000     -1.4176016E-04
   49.68000     -1.5094131E-04
   49.74000     -1.6045106E-04
   49.80000     -1.7027922E-04
   49.86000     -1.8041364E-04
   49.92000     -1.9084034E-04
   49.98000     -2.0154343E-04
   50.04000     -2.1250530E-04
   50.10000     -2.2370652E-04
   50.16000     -2.3512603E-04
   50.22000     -2.4674120E-04
   50.28000     -2.5852802E-04
   50.34000     -2.7046117E-04
   50.40000     -2.8251437E-04
   50.46000     -2.9466042E-04
   50.52000     -3.0687149E-04
   50.58000     -3.1911919E-04
   50.64000     -3.3137502E-04
   50.70000     -3.4361047E-04
   50.76000     -3.5579724E-04
   50.82000     -3.6790757E-04
   50.88000     -3.7991456E-04
   50.94000     -3.9179216E-04
   51.00000     -4.0351565E-04
   51.06000     -4.1506180E-04
   51.12000     -4.2640910E-04
   51.18000     -4.3753788E-04
   51.24000     -4.4843063E-04
   51.30000     -4.5907206E-04
   51.36000     -4.6944927E-04
   51.42000     -4.7955191E-04
   51.48000     -4.8937212E-04
   51.54000     -4.9890456E-04
   51.60000     -5.0814671E-04
   51.66000     -5.1709858E-04
   51.72000     -5.2576291E-04
   51.78000     -5.3414493E-04
   51.84000     -5.4225238E-04
   51.90000     -5.5009540E-04
   51.96000     -5.5768597E-04
   52.02000     -5.6503812E-04
   52.08000     -5.7216740E-04
   52.14000     -5.7909067E-04
   52.20000     -5.8582594E-04
   52.26000     -5.9239200E-04
   52.32000     -5.9880811E-04
   52.38000     -6.0509384E-04
   52.44000     -6.1126839E-04
   52.50000     -6.1735063E-04
   52.56000     -6.2335853E-04
   52.62000     -6.2930916E-04
   52.68000     -6.3521811E-04
   52.74000     -6.4109947E-04
   52.80000     -6.4696552E-04
   52.86000     -6.5282627E-04
   52.92000     -6.5868942E-04
   52.98000     -6.6456018E-04
   53.04000     -6.7044114E-04
   53.10000     -6.7633193E-04
   53.16000     -6.8222976E-04
   53.22000     -6.8812899E-04
   53.28000     -6.9402147E-04
   53.34000     -6.9989648E-04
   53.40000     -7.0574082E-04
   53.46000     -7.1153912E-04
   53.52000     -7.1727391E-04
   53.58000     -7.2292582E-04
   53.64000     -7.2847382E-04
   53.70000     -7.3389575E-04
   53.76000     -7.3916849E-04
   53.82000     -7.4426836E-04
   53.88000     -7.4917130E-04
   53.94000     -7.5385364E-04
   54.00000     -7.5829215E-04
   54.06000     -7.6246436E-04
   54.12000     -7.6634932E-04
   54.18000     -7.6992740E-04
   54.24000     -7.7318109E-04
   54.30000     -7.7609526E-04
   54.36000     -7.7865698E-04
   54.42000     -7.8085618E-04
   54.48000     -7.8268553E-04
   54.54000     -7.8414084E-04
   54.60000     -7.8522082E-04
   54.66000     -7.8592758E-04
   54.72000     -7.8626646E-04
   54.78000     -7.8624615E-04
   54.84000     -7.8587845E-04
   54.90000     -7.8517839E-04
   54.96000     -7.8416371E-04
   55.02000     -7.8285480E-04
   55.08000     -7.8127452E-04
   55.14000     -7.7944761E-04
   55.20000     -7.7740091E-04
   55.26000     -7.7516242E-04
   55.32000     -7.7276147E-04
   55.38000     -7.7022810E-04
   55.44000     -7.6759263E-04
   55.50000     -7.6488539E-04
   55.56000     -7.6213601E-04