 -0.750000000       0.00000000    
 -0.689999998       0.00000000    
 -0.629999995       0.00000000    
 -0.569999993       0.00000000    
 -0.509999990      -1.31640128E-18
 -0.449999988      -9.32332970E-18
 -0.389999986      -3.41476270E-17
 -0.330000013      -8.40647179E-17
 -0.270000011      -1.52150199E-16
 -0.209999993      -2.10553319E-16
 -0.150000006      -2.36274414E-16
  -9.00000036E-02  -2.75662690E-16
  -2.99999993E-02  -5.00185396E-16
   2.99999993E-02  -1.13813848E-15
   9.00000036E-02  -2.15544707E-15
  0.150000006      -2.68394904E-15
  0.209999993      -4.74944291E-16
  0.270000011       8.02763617E-15
  0.330000013       2.63002934E-14
  0.389999986       5.47391112E-14
  0.449999988       8.67246135E-14
  0.509999990       1.05707177E-13
  0.569999993       8.61388936E-14
  0.629999995       6.81038259E-16
  0.689999998      -1.66081924E-13
  0.750000000      -4.00869469E-13
  0.810000002      -6.49084627E-13
  0.870000005      -8.15260674E-13
  0.930000007      -7.83195015E-13
  0.990000010      -4.55554594E-13
   1.04999995       1.96919737E-13
   1.11000001       1.09504766E-12
   1.16999996       2.04084210E-12
   1.23000002       2.75179315E-12
   1.28999996       2.93895225E-12
   1.35000002       2.40823268E-12
   1.40999997       1.14874007E-12
   1.47000003      -6.31061176E-13
   1.52999997      -2.54421202E-12
   1.59000003      -4.13909185E-12
   1.64999998      -5.04898423E-12
   1.71000004      -5.11758864E-12
   1.76999998      -4.44191992E-12
   1.83000004      -3.30353171E-12
   1.88999999      -2.00847000E-12
   1.95000005      -7.05981443E-13
   2.00999999       7.18564260E-13
   2.06999993       2.59787331E-12
   2.13000011       5.26604845E-12
   2.19000006       8.73840410E-12
   2.25000000       1.24299165E-11
   2.30999994       1.50800449E-11
   2.36999989       1.50037188E-11
   2.43000007       1.06706805E-11
   2.49000001       1.46433007E-12
   2.54999995      -1.16536676E-11
   2.60999990      -2.58851864E-11
   2.67000008      -3.69717035E-11
   2.73000002      -4.02345379E-11
   2.78999996      -3.20556810E-11
   2.84999990      -1.13585530E-11
   2.91000009       1.94393356E-11
   2.97000003       5.44308557E-11
   3.02999997       8.53333862E-11
   3.08999991       1.03491118E-10
   3.15000010       1.02203544E-10
   3.21000004       7.86450280E-11
   3.26999998       3.47224333E-11
   3.32999992      -2.34469857E-11
   3.39000010      -8.72674849E-11
   3.45000005      -1.47966084E-10
   3.50999999      -1.98552827E-10
   3.56999993      -2.34584963E-10
   3.63000011      -2.53270710E-10
   3.69000006      -2.51062893E-10
   3.75000000      -2.20516272E-10
   3.80999994      -1.47585957E-10
   3.86999989      -1.05571558E-11
   3.93000007       2.18619442E-10
   3.99000001       5.70539338E-10
   4.05000019       1.07285647E-09
   4.11000013       1.74445303E-09
   4.17000008       2.59081201E-09
   4.23000002       3.60183749E-09
   4.28999996       4.75267870E-09
   4.34999990       6.00725603E-09
   4.40999985       7.32345740E-09
   4.46999979       8.65862670E-09
   4.53000021       9.97403227E-09
   4.59000015       1.12375593E-08
   4.65000010       1.24245325E-08
   4.71000004       1.35172487E-08
   4.76999998       1.45041170E-08
   4.82999992       1.53792374E-08
   4.88999987       1.61428151E-08
   4.94999981       1.68021685E-08
   5.01000023       1.73726047E-08
   5.07000017       1.78771344E-08
   5.13000011       1.83442186E-08
   5.19000006       1.88033678E-08
   5.25000000       1.92790761E-08
   5.30999994       1.97843981E-08
   5.36999989       2.03157775E-08
   5.42999983       2.08506616E-08
   5.48999977       2.13488320E-08
   5.55000019       2.17573781E-08
   5.61000013       2.20183978E-08
   5.67000008       2.20776695E-08
   5.73000002       2.18925162E-08
   5.78999996       2.14373266E-08
   5.84999990       2.07061355E-08
   5.90999985       1.97125232E-08
   5.96999979       1.84877766E-08
   6.03000021       1.70784418E-08
   6.09000015       1.55439945E-08
   6.15000010       1.39546108E-08
   6.21000004       1.23882611E-08
   6.26999998       1.09260068E-08
   6.32999992       9.64476232E-09
   6.38999987       8.60769145E-09
   6.44999981       7.85376209E-09
   6.51000023       7.38901251E-09
   6.57000017       7.18242843E-09
   6.63000011       7.16866744E-09
   6.69000006       7.25823091E-09
   6.75000000       7.35359773E-09
   6.80999994       7.36795602E-09
   6.86999989       7.24214155E-09
   6.92999983       6.95566538E-09
   6.98999977       6.52919852E-09
   7.05000019       6.01815309E-09
   7.11000013       5.49937829E-09
   7.17000008       5.05464426E-09
   7.23000002       4.75512785E-09
   7.28999996       4.65037031E-09
   7.34999990       4.76352113E-09
   7.40999985       5.09267295E-09
   7.46999979       5.61648639E-09
   7.53000021       6.30147801E-09
   7.59000015       7.10859016E-09
   7.65000010       7.99764166E-09
   7.71000004       8.92955043E-09
   7.76999998       9.86727589E-09
   7.82999992       1.07767963E-08
   7.88999987       1.16290266E-08
   7.94999981       1.24026149E-08
   8.01000023       1.30865372E-08
   8.06999969       1.36808058E-08
   8.13000011       1.41938177E-08
   8.18999958       1.46360160E-08
   8.25000000       1.50110413E-08
   8.31000042       1.53071298E-08
   8.36999989       1.54921977E-08
   8.43000031       1.55155320E-08
   8.48999977       1.53172124E-08
   8.55000019       1.48437636E-08
   8.60999966       1.40659049E-08
   8.67000008       1.29927322E-08
   8.72999954       1.16768515E-08
   8.78999996       1.02072146E-08
   8.85000038       8.69009931E-09
   8.90999985       7.22277704E-09
   8.97000027       5.86736615E-09
   9.02999973       4.63317518E-09
   9.09000015       3.47377327E-09
   9.14999962       2.30068009E-09
   9.21000004       1.01024333E-09
   9.27000046      -4.84253748E-10
   9.32999992      -2.22524710E-09
   9.39000034      -4.19702362E-09
   9.44999981      -6.32977537E-09
   9.51000023      -8.52016857E-09
   9.56999969      -1.06615783E-08
   9.63000011      -1.26740680E-08
   9.68999958      -1.45244838E-08
   9.75000000      -1.62306062E-08
   9.81000042      -1.78488211E-08
   9.86999989      -1.94502707E-08
   9.93000031      -2.10941025E-08
   9.98999977      -2.28069847E-08
   10.0500002      -2.45755825E-08
   10.1099997      -2.63540709E-08
   10.1700001      -2.80837327E-08
   10.2299995      -2.97177838E-08
   10.2900000      -3.12430437E-08
   10.3500004      -3.26912328E-08
   10.4099998      -3.41359652E-08
   10.4700003      -3.56758534E-08
   10.5299997      -3.74083697E-08
   10.5900002      -3.94017725E-08
   10.6499996      -4.16731893E-08
   10.7100000      -4.41793304E-08
   10.7700005      -4.68228976E-08
   10.8299999      -4.94735914E-08
   10.8900003      -5.19983026E-08
   10.9499998      -5.42923964E-08
   11.0100002      -5.63034810E-08
   11.0699997      -5.80406727E-08
   11.1300001      -5.95666663E-08
   11.1899996      -6.09747204E-08
   11.2500000      -6.23574934E-08
   11.3100004      -6.37771080E-08
   11.3699999      -6.52459704E-08
   11.4300003      -6.67243256E-08
   11.4899998      -6.81352788E-08
   11.5500002      -6.93922289E-08
   11.6099997      -7.04291807E-08
   11.6700001      -7.12231198E-08
   11.7299995      -7.18003790E-08
   11.7900000      -7.22238980E-08
   11.8500004      -7.25652427E-08
   11.9099998      -7.28708187E-08
   11.9700003      -7.31340251E-08
   12.0299997      -7.32837506E-08
   12.0900002      -7.31944709E-08
   12.1499996      -7.27160909E-08
   12.2100000      -7.17151210E-08
   12.2700005      -7.01149574E-08
   12.3299999      -6.79229046E-08
   12.3900003      -6.52355396E-08
   12.4499998      -6.22203018E-08
   12.5100002      -5.90781575E-08
   12.5699997      -5.59974325E-08
   12.6300001      -5.31111404E-08
   12.6899996      -5.04689694E-08
   12.7500000      -4.80308202E-08
   12.8100004      -4.56830094E-08
   12.8699999      -4.32722196E-08
   12.9300003      -4.06479757E-08
   12.9899998      -3.77023923E-08
   13.0500002      -3.43971500E-08
   13.1099997      -3.07711083E-08
   13.1700001      -2.69276796E-08
   13.2299995      -2.30062511E-08
   13.2900000      -1.91464622E-08
   13.3500004      -1.54555639E-08
   13.4099998      -1.19878214E-08
   13.4700003      -8.74082140E-09
   13.5299997      -5.66827740E-09
   13.5900002      -2.70400680E-09
   13.6499996       2.11267490E-10
   13.7100000       3.10873838E-09
   13.7700005       5.98193450E-09
   13.8299999       8.79053452E-09
   13.8900003       1.14750760E-08
   13.9499998       1.39769947E-08
   14.0100002       1.62574345E-08
   14.0699997       1.83093913E-08
   14.1300001       2.01602575E-08
   14.1899996       2.18648673E-08
   14.2500000       2.34916531E-08
   14.3100004       2.51061216E-08
   14.3699999       2.67560196E-08
   14.4300003       2.84618906E-08
   14.4899998       3.02150838E-08
   14.5500002       3.19832623E-08
   14.6099997       3.37215980E-08
   14.6700001       3.53862504E-08
   14.7299995       3.69461937E-08
   14.7900000       3.83899810E-08
   14.8500004       3.97256343E-08
   14.9099998       4.09741112E-08
   14.9700003       4.21591224E-08
   15.0299997       4.32971810E-08
   15.0900002       4.43918431E-08
   15.1499996       4.54342839E-08
   15.2100000       4.64098804E-08
   15.2700005       4.73080632E-08
   15.3299999       4.81311737E-08
   15.3900003       4.88983147E-08
   15.4499998       4.96422281E-08
   15.5100002       5.03997128E-08
   15.5699997       5.11989597E-08
   15.6300001       5.20482892E-08
   15.6899996       5.29305488E-08
   15.7500000       5.38053335E-08
   15.8100004       5.46185248E-08
   15.8699999       5.53159616E-08
   15.9300003       5.58568694E-08
   15.9899998       5.62229090E-08
   16.0499992       5.64204363E-08
   16.1100006       5.64758587E-08
   16.1700001       5.64262876E-08
   16.2299995       5.63086466E-08
   16.2900009       5.61504372E-08
   16.3500004       5.59642288E-08
   16.4099998       5.57465505E-08
   16.4699993       5.54804629E-08
   16.5300007       5.51406032E-08
   16.5900002       5.46994308E-08
   16.6499996       5.41335687E-08
   16.7099991       5.34295914E-08
   16.7700005       5.25883621E-08
   16.8299999       5.16269161E-08
   16.8899994       5.05768512E-08
   16.9500008       4.94787642E-08
   17.0100002       4.83732627E-08
   17.0699997       4.72906834E-08
   17.1299992       4.62427359E-08
   17.1900005       4.52191742E-08
   17.2500000       4.41915944E-08
   17.3099995       4.31236806E-08
   17.3700008       4.19848796E-08
   17.4300003       4.07626288E-08
   17.4899998       3.94682935E-08
   17.5499992       3.81343312E-08
   17.6100006       3.68032431E-08
   17.6700001       3.55125316E-08
   17.7299995       3.42816158E-08
   17.7900009       3.31061258E-08
   17.8500004       3.19623368E-08
   17.9099998       3.08202992E-08
   17.9699993       2.96607716E-08
   18.0300007       2.84890493E-08
   18.0900002       2.73399081E-08
   18.1499996       2.62708308E-08
   18.2099991       2.53452317E-08
   18.2700005       2.46110776E-08
   18.3299999       2.40822633E-08
   18.3899994       2.37294113E-08
   18.4500008       2.34837430E-08
   18.5100002       2.32534649E-08
   18.5699997       2.29480577E-08
   18.6299992       2.25033983E-08
   18.6900005       2.19003287E-08
   18.7500000       2.11712177E-08
   18.8099995       2.03925925E-08
   18.8700008       1.96658014E-08
   18.9300003       1.90909972E-08
   18.9899998       1.87414440E-08
   19.0499992       1.86449203E-08
   19.1100006       1.87770102E-08
   19.1700001       1.90677962E-08
   19.2299995       1.94199199E-08
   19.2900009       1.97330277E-08
   19.3500004       1.99280912E-08
   19.4099998       1.99652703E-08
   19.4699993       1.98508552E-08
   19.5300007       1.96318855E-08
   19.5900002       1.93802840E-08
   19.6499996       1.91711624E-08
   19.7099991       1.90613569E-08
   19.7700005       1.90740277E-08
   19.8299999       1.91933314E-08
   19.8899994       1.93703293E-08
   19.9500008       1.95380565E-08
   20.0100002       1.96311039E-08
   20.0699997       1.96038314E-08
   20.1299992       1.94417016E-08
   20.1900005       1.91623251E-08
   20.2500000       1.88059346E-08
   20.3099995       1.84182927E-08
   20.3700008       1.80315300E-08
   20.4300003       1.76492314E-08
   20.4899998       1.72408789E-08
   20.5499992       1.67478849E-08
   20.6100006       1.60996780E-08
   20.6700001       1.52348836E-08
   20.7299995       1.41207730E-08
   20.7900009       1.27644242E-08
   20.8500004       1.12114789E-08
   20.9099998       9.53231893E-09
   20.9699993       7.79945708E-09
   21.0300007       6.06281869E-09
   21.0900002       4.33038272E-09
   21.1499996       2.56003641E-09
   21.2099991       6.65206334E-10
   21.2700005      -1.46722512E-09
   21.3299999      -3.95161859E-09
   21.3899994      -6.87762780E-09
   21.4500008      -1.02901643E-08
   21.5100002      -1.41798537E-08
   21.5699997      -1.84855633E-08
   21.6299992      -2.31074537E-08
   21.6900005      -2.79266708E-08
   21.7500000      -3.28266339E-08
   21.8099995      -3.77110680E-08
   21.8700008      -4.25151683E-08
   21.9300003      -4.72081219E-08
   21.9899998      -5.17873104E-08
   22.0499992      -5.62663800E-08
   22.1100006      -6.06605326E-08
   22.1700001      -6.49732073E-08
   22.2299995      -6.91877275E-08
   22.2900009      -7.32663850E-08
   22.3500004      -7.71572317E-08
   22.4099998      -8.08068847E-08
   22.4699993      -8.41752339E-08
   22.5300007      -8.72476491E-08
   22.5900002      -9.00402952E-08
   22.6499996      -9.25966219E-08
   22.7099991      -9.49753627E-08
   22.7700005      -9.72338015E-08
   22.8299999      -9.94112028E-08
   22.8899994      -1.01517692E-07
   22.9500008      -1.03532166E-07
   23.0100002      -1.05409406E-07
   23.0699997      -1.07094152E-07
   23.1299992      -1.08537009E-07
   23.1900005      -1.09707194E-07
   23.2500000      -1.10597945E-07
   23.3099995      -1.11223628E-07
   23.3700008      -1.11609936E-07
   23.4300003      -1.11781425E-07
   23.4899998      -1.11750879E-07
   23.5499992      -1.11514431E-07
   23.6100006      -1.11054220E-07
   23.6700001      -1.10347692E-07
   23.7299995      -1.09380359E-07
   23.7900009      -1.08157693E-07
   23.8500004      -1.06711703E-07
   23.9099998      -1.05099510E-07
   23.9699993      -1.03393248E-07
   24.0300007      -1.01663673E-07
   24.0900002      -9.99617740E-08
   24.1499996      -9.83039357E-08
   24.2099991      -9.66654099E-08
   24.2700005      -9.49850048E-08
   24.3299999      -9.31802902E-08
   24.3899994      -9.11695111E-08
   24.4500008      -8.88942324E-08
   24.5100002      -8.63360299E-08
   24.5699997      -8.35224085E-08
   24.6299992      -8.05204579E-08
   24.6900005      -7.74203812E-08
   24.7500000      -7.43140021E-08
   24.8099995      -7.12748260E-08
   24.8700008      -6.83448960E-08
   24.9300003      -6.55315588E-08
   24.9899998      -6.28139389E-08
   25.0499992      -6.01559975E-08
   25.1100006      -5.75217136E-08
   25.1700001      -5.48877601E-08
   25.2299995      -5.22504138E-08
   25.2900009      -4.96253527E-08
   25.3500004      -4.70412509E-08
   25.4099998      -4.45296493E-08
   25.4699993      -4.21145074E-08
   25.5300007      -3.98047391E-08
   25.5900002      -3.75921410E-08
   25.6499996      -3.54555389E-08
   25.7099991      -3.33700960E-08
   25.7700005      -3.13191606E-08
   25.8299999      -2.93050828E-08
   25.8899994      -2.73556164E-08
   25.9500008      -2.55235140E-08
   26.0100002      -2.38790747E-08
   26.0699997      -2.24972965E-08
   26.1299992      -2.14429789E-08
   26.1900005      -2.07578026E-08
   26.2500000      -2.04528110E-08
   26.3099995      -2.05082618E-08
   26.3700008      -2.08807229E-08
   26.4300003      -2.15153211E-08
   26.4899998      -2.23597159E-08
   26.5499992      -2.33759181E-08
   26.6100006      -2.45468250E-08
   26.6700001      -2.58757709E-08
   26.7299995      -2.73794498E-08
   26.7900009      -2.90763875E-08
   26.8500004      -3.09744941E-08
   26.9099998      -3.30614682E-08
   26.9699993      -3.53011345E-08
   27.0300007      -3.76370117E-08
   27.0900002      -4.00023161E-08
   27.1499996      -4.23335997E-08
   27.2099991      -4.45839490E-08
   27.2700005      -4.67316710E-08
   27.3299999      -4.87814660E-08
   27.3899994      -5.07573610E-08
   27.4500008      -5.26890815E-08
   27.5100002      -5.45956418E-08
   27.5699997      -5.64711407E-08
   27.6299992      -5.82771342E-08
   27.6900005      -5.99443766E-08
   27.7500000      -6.13838225E-08
   27.8099995      -6.25040926E-08
   27.8700008      -6.32304307E-08
   27.9300003      -6.35198631E-08
   27.9899998      -6.33681765E-08
   28.0499992      -6.28071035E-08
   28.1100006      -6.18929406E-08
   28.1700001      -6.06904109E-08
   28.2299995      -5.92568838E-08
   28.2900009      -5.76313077E-08
   28.3500004      -5.58305828E-08
   28.4099998      -5.38534621E-08
   28.4699993      -5.16896463E-08
   28.5300007      -4.93305627E-08
   28.5900002      -4.67781156E-08
   28.6499996      -4.40488321E-08
   28.7099991      -4.11723811E-08
   28.7700005      -3.81851741E-08
   28.8299999      -3.51209053E-08
   28.8899994      -3.20006350E-08
   28.9500008      -2.88250437E-08
   29.0100002      -2.55712536E-08
   29.0699997      -2.21956835E-08
   29.1299992      -1.86433073E-08
   29.1900005      -1.48620547E-08
   29.2500000      -1.08194387E-08
   29.3099995      -6.51720233E-09
   29.3700008      -1.99956274E-09
   29.4300003       2.64818456E-09
   29.4899998       7.31141681E-09
   29.5499992       1.18658257E-08
   29.6100006       1.61997686E-08
   29.6700001       2.02330614E-08
   29.7299995       2.39269280E-08
   29.7900009       2.72828427E-08
   29.8500004       3.03316483E-08
   29.9099998       3.31173950E-08
   29.9699993       3.56815697E-08
   30.0300007       3.80522494E-08
   30.0900002       4.02401668E-08
   30.1499996       4.22406927E-08
   30.2099991       4.40389023E-08
   30.2700005       4.56147156E-08
   30.3299999       4.69464538E-08
   30.3899994       4.80131597E-08
   30.4500008       4.87970269E-08
   30.5100002       4.92873369E-08
   30.5699997       4.94857346E-08
   30.6299992       4.94108932E-08
   30.6900005       4.90998353E-08
   30.7500000       4.86035603E-08
   30.8099995       4.79770108E-08
   30.8700008       4.72659423E-08
   30.9300003       4.64953054E-08
   30.9899998       4.56637856E-08
   31.0499992       4.47472281E-08
   31.1100006       4.37102479E-08
   31.1700001       4.25222133E-08
   31.2299995       4.11716812E-08
   31.2900009       3.96740099E-08
   31.3500004       3.80690857E-08
   31.4099998       3.64099328E-08
   31.4699993       3.47459483E-08
   31.5300007       3.31065131E-08
   31.5900002       3.14902486E-08
   31.6499996       2.98632621E-08
   31.7099991       2.81667258E-08
   31.7700005       2.63314472E-08
   31.8299999       2.42953941E-08
   31.8899994       2.20198029E-08
   31.9500008       1.95002841E-08
   32.0099983       1.67708283E-08
   32.0699997       1.39000429E-08
   32.1300011       1.09804201E-08
   32.1899986       8.11231082E-09
   32.2500000       5.38532507E-09
   32.3100014       2.86058399E-09
   32.3699989       5.57712487E-10
   32.4300003      -1.54980540E-09
   32.4900017      -3.52862028E-09
   32.5499992      -5.46902656E-09
   32.6100006      -7.46123252E-09
   32.6699982      -9.57037027E-09
   32.7299995      -1.18174714E-08
   32.7900009      -1.41726382E-08
   32.8499985      -1.65632663E-08
   32.9099998      -1.88955322E-08
   32.9700012      -2.10827906E-08
   33.0299988      -2.30719479E-08
   33.0900002      -2.48593111E-08
   33.1500015      -2.64907598E-08
   33.2099991      -2.80464025E-08
   33.2700005      -2.96150606E-08
   33.3300018      -3.12672590E-08
   33.3899994      -3.30355228E-08
   33.4500008      -3.49080445E-08
   33.5099983      -3.68368696E-08
   33.5699997      -3.87569941E-08
   33.6300011      -4.06094749E-08
   33.6899986      -4.23609343E-08
   33.7500000      -4.40138592E-08
   33.8100014      -4.56054678E-08
   33.8699989      -4.71967638E-08
   33.9300003      -4.88560197E-08
   33.9900017      -5.06418161E-08
   34.0499992      -5.25900568E-08
   34.1100006      -5.47072680E-08
   34.1699982      -5.69705954E-08
   34.2299995      -5.93330647E-08
   34.2900009      -6.17320097E-08
   34.3499985      -6.40985789E-08
   34.4099998      -6.63667663E-08
   34.4700012      -6.84808867E-08
   34.5299988      -7.04008727E-08
   34.5900002      -7.21047613E-08
   34.6500015      -7.35881045E-08
   34.7099991      -7.48600044E-08
   34.7700005      -7.59365619E-08
   34.8300018      -7.68328334E-08
   34.8899994      -7.75555833E-08
   34.9500008      -7.80989282E-08
   35.0099983      -7.84445149E-08
   35.0699997      -7.85665861E-08
   35.1300011      -7.84405003E-08
   35.1899986      -7.80519755E-08
   35.2500000      -7.74036124E-08
   35.3100014      -7.65161730E-08
   35.3699989      -7.54235003E-08
   35.4300003      -7.41624575E-08
   35.4900017      -7.27609688E-08
   35.5499992      -7.12284134E-08
   35.6100006      -6.95516391E-08
   35.6699982      -6.76984300E-08
   35.7299995      -6.56277166E-08
   35.7900009      -6.33036876E-08
   35.8499985      -6.07096098E-08
   35.9099998      -5.78576262E-08
   35.9700012      -5.47916770E-08
   36.0299988      -5.15829797E-08
   36.0900002      -4.83190128E-08
   36.1500015      -4.50887008E-08
   36.2099991      -4.19669561E-08
   36.2700005      -3.90018862E-08
   36.3300018      -3.62073962E-08
   36.3899994      -3.35629906E-08
   36.4500008      -3.10213046E-08
   36.5099983      -2.85223010E-08
   36.5699997      -2.60113548E-08
   36.6300011      -2.34570159E-08
   36.6899986      -2.08636148E-08
   36.7500000      -1.82745854E-08
   36.8100014      -1.57644742E-08
   36.8699989      -1.34208591E-08
   36.9300003      -1.13206093E-08
   36.9900017      -9.50729184E-09
   37.0499992      -7.97671262E-09
   37.1100006      -6.67560229E-09
   37.1699982      -5.51450219E-09
   37.2299995      -4.39145431E-09
   37.2900009      -3.21947891E-09
   37.3499985      -1.94944882E-09
   37.4099998      -5.81323767E-10
   37.4700012       8.39607550E-10
   37.5299988       2.24003061E-09
   37.5900002       3.54371021E-09
   37.6500015       4.69627270E-09
   37.7099991       5.68182346E-09
   37.7700005       6.52637233E-09
   37.8300018       7.28738536E-09
   37.8899994       8.03320965E-09
   37.9500008       8.81925111E-09
   38.0099983       9.66856906E-09
   38.0699997       1.05628786E-08
   38.1300011       1.14464438E-08
   38.1899986       1.22410633E-08
   38.2500000       1.28668516E-08
   38.3100014       1.32618423E-08
   38.3699989       1.33940761E-08
   38.4300003       1.32626798E-08
   38.4900017       1.28882993E-08
   38.5499992       1.22969928E-08
   38.6100006       1.15037864E-08
   38.6699982       1.05020108E-08
   38.7299995       9.26216703E-09
   38.7900009       7.74041364E-09
   38.8499985       5.89322058E-09
   38.9099998       3.69258979E-09
   38.9700012       1.13639087E-09
   39.0299988      -1.74941073E-09
   39.0900002      -4.91647123E-09
   39.1500015      -8.30448776E-09
   39.2099991      -1.18515917E-08
   39.2700005      -1.55006230E-08
   39.3300018      -1.91996179E-08
   39.3899994      -2.28978365E-08
   39.4500008      -2.65408708E-08
   39.5099983      -3.00688257E-08
   39.5699997      -3.34198802E-08
   39.6300011      -3.65389461E-08
   39.6899986      -3.93882189E-08
   39.7500000      -4.19552713E-08
   39.8100014      -4.42548362E-08
   39.8699989      -4.63228780E-08
   39.9300003      -4.82046651E-08
   39.9900017      -4.99408372E-08
   40.0499992      -5.15564160E-08
   40.1100006      -5.30563860E-08
   40.1699982      -5.44289023E-08
   40.2299995      -5.56544393E-08
   40.2900009      -5.67170453E-08
   40.3499985      -5.76135797E-08
   40.4099998      -5.83579656E-08
   40.4700012      -5.89795022E-08
   40.5299988      -5.95164771E-08
   40.5900002      -6.00074230E-08
   40.6500015      -6.04825985E-08
   40.7099991      -6.09575110E-08
   40.7700005      -6.14294819E-08
   40.8300018      -6.18772589E-08
   40.8899994      -6.22635739E-08
   40.9500008      -6.25405860E-08
   41.0099983      -6.26576835E-08
   41.0699997      -6.25707344E-08
   41.1300011      -6.22508267E-08
   41.1899986      -6.16898959E-08
   41.2500000      -6.09006676E-08
   41.3100014      -5.99099650E-08
   41.3699989      -5.87465543E-08
   41.4300003      -5.74274424E-08
   41.4900017      -5.59478153E-08
   41.5499992      -5.42790772E-08
   41.6100006      -5.23768122E-08
   41.6699982      -5.01964941E-08
   41.7299995      -4.77113531E-08
   41.7900009      -4.49255175E-08
   41.8499985      -4.18770121E-08
   41.9099998      -3.86291674E-08
   41.9700012      -3.52536382E-08
   42.0299988      -3.18117550E-08
   42.0900002      -2.83415726E-08
   42.1500015      -2.48555896E-08
   42.2099991      -2.13496687E-08
   42.2700005      -1.78191097E-08
   42.3300018      -1.42751224E-08
   42.3899994      -1.07550866E-08
   42.4500008      -7.32278371E-09
   42.5099983      -4.05882306E-09
   42.5699997      -1.04506404E-09
   42.6300011       1.65153291E-09
   42.6899986       3.99082367E-09
   42.7500000       5.96465100E-09
   42.8100014       7.59541496E-09
   42.8699989       8.93003449E-09
   42.9300003       1.00317070E-08
   42.9900017       1.09711706E-08
   43.0499992       1.18180488E-08
   43.1100006       1.26322375E-08
   43.1699982       1.34555789E-08
   43.2299995       1.43049625E-08
   43.2900009       1.51688511E-08
   43.3499985       1.60092259E-08
   43.4099998       1.67698033E-08
   43.4700012       1.73893682E-08
   43.5299988       1.78169817E-08
   43.5900002       1.80247461E-08
   43.6500015       1.80142603E-08
   43.7099991       1.78146884E-08
   43.7700005       1.74732016E-08
   43.8300018       1.70407830E-08
   43.8899994       1.65577987E-08
   43.9500008       1.60433498E-08
   44.0099983       1.54910147E-08
   44.0699997       1.48713948E-08
   44.1300011       1.41400927E-08
   44.1899986       1.32485578E-08
   44.2500000       1.21550388E-08
   44.3100014       1.08332330E-08
   44.3699989       9.27699784E-09
   44.4300003       7.50024931E-09
   44.4900017       5.53208324E-09
   44.5499992       3.40806694E-09
   44.6100006       1.15963061E-09
   44.6699982      -1.19568988E-09
   44.7299995      -3.66018815E-09
   44.7900009      -6.25583052E-09
   44.8499985      -9.01735397E-09
   44.9099998      -1.19801795E-08
   44.9700012      -1.51666644E-08
   45.0299988      -1.85751290E-08
   45.0900002      -2.21755041E-08
   45.1500015      -2.59132911E-08
   45.2099991      -2.97208000E-08
   45.2700005      -3.35320784E-08
   45.3300018      -3.72968287E-08
   45.3899994      -4.09890681E-08
   45.4500008      -4.46083668E-08
   45.5099983      -4.81741047E-08
   45.5699997      -5.17152756E-08
   45.6300011      -5.52595836E-08
   45.6899986      -5.88250053E-08
   45.7500000      -6.24157153E-08
   45.8100014      -6.60223449E-08
   45.8699989      -6.96253579E-08
   45.9300003      -7.31997076E-08
   45.9900017      -7.67190969E-08
   46.0499992      -8.01590829E-08
   46.1100006      -8.34988683E-08
   46.1699982      -8.67221601E-08
   46.2299995      -8.98175330E-08
   46.2900009      -9.27787909E-08
   46.3499985      -9.56057420E-08
   46.4099998      -9.83057404E-08
   46.4700012      -1.00896507E-07
   46.5299988      -1.03410208E-07
   46.5900002      -1.05898295E-07
   46.6500015      -1.08435756E-07
   46.7099991      -1.11122766E-07
   46.7700005      -1.14081807E-07
   46.8300018      -1.17449609E-07
   46.8899994      -1.21364792E-07
   46.9500008      -1.25954287E-07
   47.0099983      -1.31322977E-07
   47.0699997      -1.37550799E-07
   47.1300011      -1.44699811E-07
   47.1899986      -1.52830765E-07
   47.2500000      -1.62026197E-07
   47.3100014      -1.72414445E-07
   47.3699989      -1.84189361E-07
   47.4300003      -1.97622214E-07
   47.4900017      -2.13064695E-07
   47.5499992      -2.30945460E-07
   47.6100006      -2.51764220E-07
   47.6699982      -2.76088059E-07
   47.7299995      -3.04552884E-07
   47.7900009      -3.37871228E-07
   47.8499985      -3.76845236E-07
   47.9099998      -4.22382186E-07
   47.9700012      -4.75510376E-07
   48.0299988      -5.37393305E-07
   48.0900002      -6.09341953E-07
   48.1500015      -6.92826632E-07
   48.2099991      -7.89489150E-07
   48.2700005      -9.01157932E-07
   48.3300018      -1.02986576E-06
   48.3899994      -1.17787101E-06
   48.4500008      -1.34768095E-06
   48.5099983      -1.54207589E-06
   48.5699997      -1.76413414E-06
   48.6300011      -2.01725334E-06
   48.6899986      -2.30517253E-06
   48.7500000      -2.63199126E-06
   48.8100014      -3.00218517E-06
   48.8699989      -3.42062594E-06
   48.9300003      -3.89259640E-06
   48.9900017      -4.42381179E-06
   49.0499992      -5.02044259E-06
   49.1100006      -5.68913674E-06
   49.1699982      -6.43704789E-06
   49.2299995      -7.27185306E-06
   49.2900009      -8.20176956E-06
   49.3499985      -9.23557036E-06
   49.4099998      -1.03825751E-05
   49.4700012      -1.16526489E-05
   49.5299988      -1.30561821E-05
   49.5900002      -1.46040684E-05
   49.6500015      -1.63076911E-05
   49.7099991      -1.81788801E-05
   49.7700005      -2.02298997E-05
   49.8300018      -2.24734140E-05
   49.8899994      -2.49224468E-05
   49.9500008      -2.75903385E-05
   50.0099983      -3.04906789E-05
   50.0699997      -3.36372432E-05
   50.1300011      -3.70438829E-05
   50.1899986      -4.07244479E-05
   50.2500000      -4.46926788E-05
   50.3100014      -4.89620870E-05
   50.3699989      -5.35458603E-05
   50.4300003      -5.84567351E-05
   50.4900017      -6.37069097E-05
   50.5499992      -6.93079055E-05
   50.6100006      -7.52704291E-05