  -2.400000      0.0000000E+00
  -2.340000      0.0000000E+00
  -2.280000      0.0000000E+00
  -2.220000      0.0000000E+00
  -2.160000      0.0000000E+00
  -2.100000     -2.7003272E-20
  -2.040000     -2.3050825E-19
  -1.980000     -9.7844899E-19
  -1.920000     -2.5958971E-18
  -1.860000     -4.1767397E-18
  -1.800000     -1.4197660E-18
  -1.740000      1.4792109E-17
  -1.680000      5.5076369E-17
  -1.620000      1.1936298E-16
  -1.560000      1.7695826E-16
  -1.500000      1.5105680E-16
  -1.440000     -6.9258436E-17
  -1.380000     -5.6798890E-16
  -1.320000     -1.2954286E-15
  -1.260000     -1.9646864E-15
  -1.200000     -2.0432501E-15
  -1.140000     -9.3002746E-16
  -1.080000      1.6703050E-15
  -1.020000      5.3118791E-15
 -0.9600000      8.5945562E-15
 -0.9000000      9.4862549E-15
 -0.8400000      6.3053158E-15
 -0.7800000     -9.1675456E-16
 -0.7200000     -9.4288785E-15
 -0.6600000     -1.4059591E-14
 -0.6000000     -9.4446588E-15
 -0.5400000      6.1452655E-15
 -0.4800000      2.6992268E-14
 -0.4200000      3.8707566E-14
 -0.3600000      2.2005465E-14
 -0.3000000     -3.7887343E-14
 -0.2400000     -1.3865405E-13
 -0.1800000     -2.5083790E-13
 -0.1200000     -3.1753197E-13
 -5.9999999E-02 -2.6915346E-13
  0.0000000E+00 -5.2933206E-14
  5.9999999E-02  3.3132866E-13
  0.1200000      8.0474814E-13
  0.1800000      1.2094616E-12
  0.2400000      1.3464031E-12
  0.3000000      1.0474679E-12
  0.3600000      2.6076832E-13
  0.4200000     -8.8620810E-13
  0.4800000     -2.0822690E-12
  0.5400000     -2.9080763E-12
  0.6000000     -2.9819441E-12
  0.6600000     -2.1306114E-12
  0.7200000     -5.1479231E-13
  0.7800000      1.3600413E-12
  0.8400000      2.7839404E-12
  0.9000000      3.1108855E-12
  0.9600000      2.0676431E-12
   1.020000     -2.6403972E-14
   1.080000     -2.2516919E-12
   1.140000     -3.3529488E-12
   1.200000     -2.2293196E-12
   1.260000      1.5078151E-12
   1.320000      7.1361012E-12
   1.380000      1.2795581E-11
   1.440000      1.5938735E-11
   1.500000      1.4185248E-11
   1.560000      6.3260759E-12
   1.620000     -6.8931462E-12
   1.680000     -2.2564502E-11
   1.740000     -3.6180160E-11
   1.800000     -4.2892610E-11
   1.860000     -3.9120231E-11
   1.920000     -2.3960800E-11
   1.980000      1.2628775E-13
   2.040000      2.7703131E-11
   2.100000      5.1778051E-11
   2.160000      6.5861115E-11
   2.220000      6.5970798E-11
   2.280000      5.1877842E-11
   2.340000      2.7108614E-11
   2.400000     -2.3323440E-12
   2.460000     -3.0075602E-11
   2.520000     -5.1545136E-11
   2.580000     -6.5312013E-11
   2.640000     -7.3068294E-11
   2.700000     -7.8173870E-11
   2.760000     -8.3319504E-11
   2.820000     -8.8275942E-11
   2.880000     -8.8773301E-11
   2.940000     -7.7216553E-11
   3.000000     -4.5282018E-11
   3.060000      1.2316634E-11
   3.120000      9.4174384E-11
   3.180000      1.9008096E-10
   3.240000      2.8150332E-10
   3.300000      3.4492031E-10
   3.360000      3.5729650E-10
   3.420000      3.0218053E-10
   3.480000      1.7458490E-10
   3.540000     -1.6907387E-11
   3.600000     -2.5152155E-10
   3.660000     -5.0074478E-10
   3.720000     -7.3442114E-10
   3.780000     -9.2649988E-10
   3.840000     -1.0585727E-09
   3.900000     -1.1201206E-09
   3.960000     -1.1055818E-09
   4.020000     -1.0095312E-09
   4.080000     -8.2202473E-10
   4.140000     -5.2619054E-10
   4.200000     -9.9424920E-11
   4.260000      4.8174342E-10
   4.320000      1.2344583E-09
   4.380000      2.1623927E-09
   4.440000      3.2513028E-09
   4.500000      4.4692787E-09
   4.560000      5.7722569E-09
   4.620000      7.1136119E-09
   4.680000      8.4551370E-09
   4.740000      9.7760324E-09
   4.800000      1.1076914E-08
   4.860000      1.2377277E-08
   4.920000      1.3706924E-08
   4.980000      1.5093805E-08
   5.040000      1.6552013E-08
   5.100000      1.8073644E-08
   5.160000      1.9627128E-08
   5.220000      2.1162471E-08
   5.280000      2.2621638E-08
   5.340000      2.3950649E-08
   5.400000      2.5109449E-08
   5.460000      2.6076499E-08
   5.520000      2.6847003E-08
   5.580000      2.7425960E-08
   5.640000      2.7819180E-08
   5.700000      2.8026111E-08
   5.760000      2.8037734E-08
   5.820000      2.7840757E-08
   5.880000      2.7426935E-08
   5.940000      2.6804079E-08
   6.000000      2.6004301E-08
   6.060000      2.5085594E-08
   6.120000      2.4124931E-08
   6.180000      2.3203969E-08
   6.240000      2.2391246E-08
   6.300000      2.1726379E-08
   6.360000      2.1211545E-08
   6.420000      2.0813491E-08
   6.480000      2.0476032E-08
   6.540000      2.0139487E-08
   6.600000      1.9761099E-08
   6.660000      1.9329919E-08
   6.720000      1.8871150E-08
   6.780000      1.8438325E-08
   6.840000      1.8095507E-08
   6.900000      1.7895106E-08
   6.960000      1.7858484E-08
   7.020000      1.7965851E-08
   7.080000      1.8159081E-08
   7.140000      1.8357113E-08
   7.200000      1.8479332E-08
   7.260000      1.8469727E-08
   7.320000      1.8314099E-08
   7.380000      1.8044645E-08
   7.440000      1.7730304E-08
   7.500000      1.7455866E-08
   7.560000      1.7296532E-08
   7.620000      1.7296221E-08
   7.680000      1.7456529E-08
   7.740000      1.7739660E-08
   7.800000      1.8083785E-08
   7.860000      1.8425043E-08
   7.920000      1.8718238E-08
   7.980000      1.8948958E-08
   8.040000      1.9133054E-08
   8.100000      1.9304080E-08
   8.160000      1.9493566E-08
   8.220000      1.9711454E-08
   8.280000      1.9933877E-08
   8.340000      2.0102725E-08
   8.400000      2.0137383E-08
   8.460000      1.9954895E-08
   8.520000      1.9492131E-08
   8.580000      1.8723002E-08
   8.640000      1.7665574E-08
   8.700000      1.6377143E-08
   8.760000      1.4939094E-08
   8.820000      1.3436357E-08
   8.880000      1.1937712E-08
   8.940000      1.0482640E-08
   9.000000      9.0782732E-09
   9.060000      7.7067464E-09
   9.120000      6.3399650E-09
   9.180000      4.9565738E-09
   9.240000      3.5551697E-09
   9.300000      2.1591118E-09
   9.360000      8.1105478E-10
   9.420000     -4.4117821E-10
   9.480000     -1.5626888E-09
   9.540000     -2.5472866E-09
   9.600000     -3.4251637E-09
   9.660000     -4.2591370E-09
   9.720000     -5.1298565E-09
   9.780000     -6.1141336E-09
   9.840000     -7.2630497E-09
   9.900000     -8.5869249E-09
   9.960000     -1.0052275E-08
   10.02000     -1.1592223E-08
   10.08000     -1.3127537E-08
   10.14000     -1.4592020E-08
   10.20000     -1.5954374E-08
   10.26000     -1.7229620E-08
   10.32000     -1.8476250E-08
   10.38000     -1.9779661E-08
   10.44000     -2.1226725E-08
   10.50000     -2.2879044E-08
   10.56000     -2.4752941E-08
   10.62000     -2.6812117E-08
   10.68000     -2.8974984E-08
   10.74000     -3.1134164E-08
   10.80000     -3.3181983E-08
   10.86000     -3.5034251E-08
   10.92000     -3.6645378E-08
   10.98000     -3.8011191E-08
   11.04000     -3.9159818E-08
   11.10000     -4.0135017E-08
   11.16000     -4.0978392E-08
   11.22000     -4.1717016E-08
   11.28000     -4.2360330E-08
   11.34000     -4.2906642E-08
   11.40000     -4.3355637E-08
   11.46000     -4.3721140E-08
   11.52000     -4.4038028E-08
   11.58000     -4.4359552E-08
   11.64000     -4.4744937E-08
   11.70000     -4.5241023E-08
   11.76000     -4.5864279E-08
   11.82000     -4.6589793E-08
   11.88000     -4.7351786E-08
   11.94000     -4.8056275E-08
   12.00000     -4.8602327E-08
   12.06000     -4.8905488E-08
   12.12000     -4.8916135E-08
   12.18000     -4.8627452E-08
   12.24000     -4.8071140E-08
   12.30000     -4.7303164E-08
   12.36000     -4.6384702E-08
   12.42000     -4.5364622E-08
   12.48000     -4.4268617E-08
   12.54000     -4.3097447E-08
   12.60000     -4.1833534E-08
   12.66000     -4.0452587E-08
   12.72000     -3.8935831E-08
   12.78000     -3.7278731E-08
   12.84000     -3.5493809E-08
   12.90000     -3.3607179E-08
   12.96000     -3.1650682E-08
   13.02000     -2.9652465E-08
   13.08000     -2.7629566E-08
   13.14000     -2.5585047E-08
   13.20000     -2.3510918E-08
   13.26000     -2.1396158E-08
   13.32000     -1.9237259E-08
   13.38000     -1.7047677E-08
   13.44000     -1.4862485E-08
   13.50000     -1.2735900E-08
   13.56000     -1.0731542E-08
   13.62000     -8.9078567E-09
   13.68000     -7.3031079E-09
   13.74000     -5.9247776E-09
   13.80000     -4.7470388E-09
   13.86000     -3.7173442E-09
   13.92000     -2.7700899E-09
   13.98000     -1.8429585E-09
   14.04000     -8.9072877E-10
   14.10000      1.0753587E-10
   14.16000      1.1494848E-09
   14.22000      2.2172608E-09
   14.28000      3.2884260E-09
   14.34000      4.3456958E-09
   14.40000      5.3821019E-09
   14.46000      6.4003625E-09
   14.52000      7.4075848E-09
   14.58000      8.4081133E-09
   14.64000      9.3977119E-09
   14.70000      1.0361412E-08
   14.76000      1.1275708E-08
   14.82000      1.2114058E-08
   14.88000      1.2853530E-08
   14.94000      1.3480252E-08
   15.00000      1.3991929E-08
   15.06000      1.4396913E-08
   15.12000      1.4710519E-08
   15.18000      1.4950110E-08
   15.24000      1.5130794E-08
   15.30000      1.5263161E-08
   15.36000      1.5353688E-08
   15.42000      1.5407393E-08
   15.48000      1.5431436E-08
   15.54000      1.5437996E-08
   15.60000      1.5444881E-08
   15.66000      1.5473340E-08
   15.72000      1.5543595E-08
   15.78000      1.5669839E-08
   15.84000      1.5856729E-08
   15.90000      1.6099081E-08
   15.96000      1.6385091E-08
   16.02000      1.6701845E-08
   16.08000      1.7040767E-08
   16.14000      1.7400408E-08
   16.20000      1.7785084E-08
   16.26000      1.8199771E-08
   16.32000      1.8643426E-08
   16.38000      1.9103958E-08
   16.44000      1.9557440E-08
   16.50000      1.9972520E-08
   16.56000      2.0318410E-08
   16.62000      2.0573255E-08
   16.68000      2.0729154E-08
   16.74000      2.0791612E-08
   16.80000      2.0773673E-08
   16.86000      2.0687574E-08
   16.92000      2.0538199E-08
   16.98000      2.0322013E-08
   17.04000      2.0032878E-08
   17.10000      1.9672905E-08
   17.16000      1.9263815E-08
   17.22000      1.8853479E-08
   17.28000      1.8513640E-08
   17.34000      1.8328173E-08
   17.40000      1.8374969E-08
   17.46000      1.8707370E-08
   17.52000      1.9341538E-08
   17.58000      2.0254173E-08
   17.64000      2.1391211E-08
   17.70000      2.2684041E-08
   17.76000      2.4067106E-08
   17.82000      2.5490463E-08
   17.88000      2.6923074E-08
   17.94000      2.8346420E-08
   18.00000      2.9741896E-08
   18.06000      3.1077782E-08
   18.12000      3.2301674E-08
   18.18000      3.3342030E-08
   18.24000      3.4118873E-08
   18.30000      3.4560362E-08
   18.36000      3.4619742E-08
   18.42000      3.4286959E-08
   18.48000      3.3591210E-08
   18.54000      3.2593547E-08
   18.60000      3.1371780E-08
   18.66000      3.0002205E-08
   18.72000      2.8543464E-08
   18.78000      2.7027133E-08
   18.84000      2.5457629E-08
   18.90000      2.3821411E-08
   18.96000      2.2102695E-08
   19.02000      2.0300975E-08
   19.08000      1.8444766E-08
   19.14000      1.6596655E-08
   19.20000      1.4847063E-08
   19.26000      1.3297253E-08
   19.32000      1.2035711E-08
   19.38000      1.1114553E-08
   19.44000      1.0533279E-08
   19.50000      1.0235413E-08
   19.56000      1.0119686E-08
   19.62000      1.0062693E-08
   19.68000      9.9459356E-09
   19.74000      9.6785877E-09
   19.80000      9.2088710E-09
   19.86000      8.5212255E-09
   19.92000      7.6218827E-09
   19.98000      6.5199113E-09
   20.04000      5.2124074E-09
   20.10000      3.6805592E-09
   20.16000      1.8985247E-09
   20.22000     -1.4856569E-10
   20.28000     -2.4453684E-09
   20.34000     -4.9346758E-09
   20.40000     -7.5194686E-09
   20.46000     -1.0079497E-08
   20.52000     -1.2497487E-08
   20.58000     -1.4686241E-08
   20.64000     -1.6607336E-08
   20.70000     -1.8275211E-08
   20.76000     -1.9745576E-08
   20.82000     -2.1092660E-08
   20.88000     -2.2383370E-08
   20.94000     -2.3657153E-08
   21.00000     -2.4917817E-08
   21.06000     -2.6139148E-08
   21.12000     -2.7281315E-08
   21.18000     -2.8311613E-08
   21.24000     -2.9221956E-08
   21.30000     -3.0037089E-08
   21.36000     -3.0810781E-08
   21.42000     -3.1611453E-08
   21.48000     -3.2502086E-08
   21.54000     -3.3520987E-08
   21.60000     -3.4669672E-08
   21.66000     -3.5911768E-08
   21.72000     -3.7183245E-08
   21.78000     -3.8410796E-08
   21.84000     -3.9532495E-08
   21.90000     -4.0514227E-08
   21.96000     -4.1356632E-08
   22.02000     -4.2090459E-08
   22.08000     -4.2761865E-08
   22.14000     -4.3412701E-08
   22.20000     -4.4062400E-08
   22.26000     -4.4697781E-08
   22.32000     -4.5274437E-08
   22.38000     -4.5729593E-08
   22.44000     -4.6002249E-08
   22.50000     -4.6053962E-08
   22.56000     -4.5883066E-08
   22.62000     -4.5527173E-08
   22.68000     -4.5052680E-08
   22.74000     -4.4534389E-08
   22.80000     -4.4031758E-08
   22.86000     -4.3569781E-08
   22.92000     -4.3131092E-08
   22.98000     -4.2662489E-08
   23.04000     -4.2094229E-08
   23.10000     -4.1366214E-08
   23.16000     -4.0452697E-08
   23.22000     -3.9377145E-08
   23.28000     -3.8212079E-08
   23.34000     -3.7063288E-08
   23.40000     -3.6043009E-08
   23.46000     -3.5240497E-08
   23.52000     -3.4699468E-08
   23.58000     -3.4409759E-08
   23.64000     -3.4315882E-08
   23.70000     -3.4339362E-08
   23.76000     -3.4406913E-08
   23.82000     -3.4474514E-08
   23.88000     -3.4538967E-08
   23.94000     -3.4633302E-08
   24.00000     -3.4808405E-08
   24.06000     -3.5108549E-08
   24.12000     -3.5550535E-08
   24.18000     -3.6114532E-08
   24.24000     -3.6749654E-08
   24.30000     -3.7391398E-08
   24.36000     -3.7983202E-08
   24.42000     -3.8493184E-08
   24.48000     -3.8919563E-08
   24.54000     -3.9283393E-08
   24.60000     -3.9612736E-08
   24.66000     -3.9925936E-08
   24.72000     -4.0221529E-08
   24.78000     -4.0479001E-08
   24.84000     -4.0669587E-08
   24.90000     -4.0771894E-08
   24.96000     -4.0785217E-08
   25.02000     -4.0734776E-08
   25.08000     -4.0666880E-08
   25.14000     -4.0636269E-08
   25.20000     -4.0691077E-08
   25.26000     -4.0861213E-08
   25.32000     -4.1154124E-08
   25.38000     -4.1558426E-08
   25.44000     -4.2052751E-08
   25.50000     -4.2615390E-08
   25.56000     -4.3230727E-08
   25.62000     -4.3890161E-08
   25.68000     -4.4587956E-08
   25.74000     -4.5314380E-08
   25.80000     -4.6049383E-08
   25.86000     -4.6759666E-08
   25.92000     -4.7400459E-08
   25.98000     -4.7921713E-08
   26.04000     -4.8276835E-08
   26.10000     -4.8431314E-08
   26.16000     -4.8368580E-08
   26.22000     -4.8091117E-08
   26.28000     -4.7616304E-08
   26.34000     -4.6967852E-08
   26.40000     -4.6165358E-08
   26.46000     -4.5215199E-08
   26.52000     -4.4105981E-08
   26.58000     -4.2810786E-08
   26.64000     -4.1296126E-08
   26.70000     -3.9535493E-08
   26.76000     -3.7523279E-08
   26.82000     -3.5284341E-08
   26.88000     -3.2875310E-08
   26.94000     -3.0376267E-08
   27.00000     -2.7874542E-08
   27.06000     -2.5445077E-08
   27.12000     -2.3133520E-08
   27.18000     -2.0947338E-08
   27.24000     -1.8858024E-08
   27.30000     -1.6813662E-08
   27.36000     -1.4757682E-08
   27.42000     -1.2647509E-08
   27.48000     -1.0466893E-08
   27.54000     -8.2280138E-09
   27.60000     -5.9632499E-09
   27.66000     -3.7102885E-09
   27.72000     -1.4966741E-09
   27.78000      6.6998540E-10
   27.84000      2.8022327E-09
   27.90000      4.9233466E-09
   27.96000      7.0521877E-09
   28.02000      9.1886863E-09
   28.08000      1.1306338E-08
   28.14000      1.3355507E-08
   28.20000      1.5277054E-08
   28.26000      1.7021549E-08
   28.32000      1.8566681E-08
   28.38000      1.9925713E-08
   28.44000      2.1142903E-08
   28.50000      2.2276650E-08
   28.56000      2.3376122E-08
   28.62000      2.4459817E-08
   28.68000      2.5504342E-08
   28.74000      2.6447999E-08
   28.80000      2.7208420E-08
   28.86000      2.7708078E-08
   28.92000      2.7898496E-08
   28.98000      2.7774423E-08
   29.04000      2.7372888E-08
   29.10000      2.6757876E-08
   29.16000      2.5996520E-08
   29.22000      2.5135815E-08
   29.28000      2.4188310E-08
   29.34000      2.3131733E-08
   29.40000      2.1922052E-08
   29.46000      2.0514692E-08
   29.52000      1.8885752E-08
   29.58000      1.7045469E-08
   29.64000      1.5039296E-08
   29.70000      1.2936618E-08
   29.76000      1.0811592E-08
   29.82000      8.7232488E-09
   29.88000      6.7020181E-09
   29.94000      4.7472675E-09
   30.00000      2.8363527E-09
   30.06000      9.4147534E-10
   30.12000     -9.5219199E-10
   30.18000     -2.8340759E-09
   30.24000     -4.6663442E-09
   30.30000     -6.3935865E-09
   30.36000     -7.9606552E-09
   30.42000     -9.3321191E-09
   30.48000     -1.0505946E-08
   30.54000     -1.1515944E-08
   30.60000     -1.2421519E-08
   30.66000     -1.3287933E-08
   30.72000     -1.4163887E-08
   30.78000     -1.5064318E-08
   30.84000     -1.5964600E-08
   30.90000     -1.6808247E-08
   30.96000     -1.7525398E-08
   31.02000     -1.8055667E-08
   31.08000     -1.8367478E-08
   31.14000     -1.8467581E-08
   31.20000     -1.8398081E-08
   31.26000     -1.8222893E-08
   31.32000     -1.8009061E-08
   31.38000     -1.7809919E-08
   31.44000     -1.7655859E-08
   31.50000     -1.7555287E-08
   31.56000     -1.7504460E-08
   31.62000     -1.7501470E-08
   31.68000     -1.7558353E-08
   31.74000     -1.7706094E-08
   31.80000     -1.7990240E-08
   31.86000     -1.8458403E-08
   31.92000     -1.9144293E-08
   31.98000     -2.0054417E-08
   32.04000     -2.1162885E-08
   32.10000     -2.2417003E-08
   32.16000     -2.3752396E-08
   32.22000     -2.5112685E-08
   32.28000     -2.6466763E-08
   32.34000     -2.7817009E-08
   32.40000     -2.9194856E-08
   32.46000     -3.0644522E-08
   32.52000     -3.2200361E-08
   32.58000     -3.3866101E-08
   32.64000     -3.5604071E-08
   32.70000     -3.7339490E-08
   32.76000     -3.8979536E-08
   32.82000     -4.0441403E-08
   32.88000     -4.1679890E-08
   32.94000     -4.2704706E-08
   33.00000     -4.3580670E-08
   33.06000     -4.4409884E-08
   33.12000     -4.5300993E-08
   33.18000     -4.6335362E-08
   33.24000     -4.7541032E-08
   33.30000     -4.8882988E-08
   33.36000     -5.0272785E-08
   33.42000     -5.1594274E-08
   33.48000     -5.2736969E-08
   33.54000     -5.3626259E-08
   33.60000     -5.4240974E-08
   33.66000     -5.4613160E-08
   33.72000     -5.4810886E-08
   33.78000     -5.4910480E-08
   33.84000     -5.4967941E-08
   33.90000     -5.4999330E-08
   33.96000     -5.4976692E-08
   34.02000     -5.4840559E-08
   34.08000     -5.4524282E-08
   34.14000     -5.3981296E-08
   34.20000     -5.3205255E-08
   34.26000     -5.2235649E-08
   34.32000     -5.1146497E-08
   34.38000     -5.0021978E-08
   34.44000     -4.8927568E-08
   34.50000     -4.7887120E-08
   34.56000     -4.6874312E-08
   34.62000     -4.5821999E-08
   34.68000     -4.4646541E-08
   34.74000     -4.3278952E-08
   34.80000     -4.1692196E-08
   34.86000     -3.9915193E-08
   34.92000     -3.8028819E-08
   34.98000     -3.6145213E-08
   35.04000     -3.4377575E-08
   35.10000     -3.2810661E-08
   35.16000     -3.1481637E-08
   35.22000     -3.0377308E-08
   35.28000     -2.9447861E-08
   35.34000     -2.8631710E-08
   35.40000     -2.7882438E-08
   35.46000     -2.7188467E-08
   35.52000     -2.6578986E-08
   35.58000     -2.6114526E-08
   35.64000     -2.5865953E-08
   35.70000     -2.5889388E-08
   35.76000     -2.6205708E-08
   35.82000     -2.6791527E-08
   35.88000     -2.7584512E-08
   35.94000     -2.8501001E-08
   36.00000     -2.9459935E-08
   36.06000     -3.0405005E-08
   36.12000     -3.1317626E-08
   36.18000     -3.2216469E-08
   36.24000     -3.3143738E-08
   36.30000     -3.4142971E-08
   36.36000     -3.5236152E-08
   36.42000     -3.6408370E-08
   36.48000     -3.7605808E-08
   36.54000     -3.8748322E-08
   36.60000     -3.9752369E-08
   36.66000     -4.0556198E-08
   36.72000     -4.1137771E-08
   36.78000     -4.1518355E-08
   36.84000     -4.1749853E-08
   36.90000     -4.1890313E-08
   36.96000     -4.1976797E-08
   37.02000     -4.2006281E-08
   37.08000     -4.1932182E-08
   37.14000     -4.1678224E-08
   37.20000     -4.1164245E-08
   37.26000     -4.0333788E-08
   37.32000     -3.9172665E-08
   37.38000     -3.7711398E-08
   37.44000     -3.6011212E-08
   37.50000     -3.4139930E-08
   37.56000     -3.2148062E-08
   37.62000     -3.0054768E-08
   37.68000     -2.7848774E-08
   37.74000     -2.5502858E-08
   37.80000     -2.2994806E-08
   37.86000     -2.0325663E-08
   37.92000     -1.7527839E-08
   37.98000     -1.4660505E-08
   38.04000     -1.1795212E-08
   38.10000     -8.9983194E-09
   38.16000     -6.3172521E-09
   38.22000     -3.7749488E-09
   38.28000     -1.3726987E-09
   38.34000      9.0200641E-10
   38.40000      3.0673024E-09
   38.46000      5.1419282E-09
   38.52000      7.1439996E-09
   38.58000      9.0915435E-09
   38.64000      1.1001747E-08
   38.70000      1.2887037E-08
   38.76000      1.4748691E-08
   38.82000      1.6571159E-08
   38.88000      1.8321012E-08
   38.94000      1.9952973E-08
   39.00000      2.1422144E-08
   39.06000      2.2698332E-08
   39.12000      2.3776701E-08
   39.18000      2.4680103E-08
   39.24000      2.5451897E-08
   39.30000      2.6142207E-08
   39.36000      2.6793629E-08
   39.42000      2.7432451E-08
   39.48000      2.8068870E-08
   39.54000      2.8705214E-08
   39.60000      2.9347431E-08
   39.66000      3.0013521E-08
   39.72000      3.0734309E-08
   39.78000      3.1545831E-08
   39.84000      3.2476905E-08
   39.90000      3.3538196E-08
   39.96000      3.4718454E-08
   40.02000      3.5990386E-08
   40.08000      3.7324025E-08
   40.14000      3.8701714E-08
   40.20000      4.0127755E-08
   40.26000      4.1627942E-08
   40.32000      4.3238646E-08
   40.38000      4.4989640E-08
   40.44000      4.6887916E-08
   40.50000      4.8909211E-08
   40.56000      5.1000885E-08
   40.62000      5.3094951E-08
   40.68000      5.5125827E-08
   40.74000      5.7045593E-08
   40.80000      5.8830846E-08
   40.86000      6.0478989E-08
   40.92000      6.1996424E-08
   40.98000      6.3384370E-08
   41.04000      6.4628772E-08
   41.10000      6.5698515E-08
   41.16000      6.6552296E-08
   41.22000      6.7150587E-08
   41.28000      6.7467077E-08
   41.34000      6.7494376E-08
   41.40000      6.7241629E-08
   41.46000      6.6725264E-08
   41.52000      6.5957067E-08
   41.58000      6.4934682E-08
   41.64000      6.3638304E-08
   41.70000      6.2034800E-08
   41.76000      6.0087416E-08
   41.82000      5.7767739E-08
   41.88000      5.5065993E-08
   41.94000      5.1997223E-08
   42.00000      4.8602487E-08
   42.06000      4.4945555E-08
   42.12000      4.1106251E-08
   42.18000      3.7171635E-08
   42.24000      3.3225870E-08
   42.30000      2.9339674E-08
   42.36000      2.5560876E-08
   42.42000      2.1908061E-08
   42.48000      1.8369491E-08
   42.54000      1.4908665E-08
   42.60000      1.1476044E-08
   42.66000      8.0242764E-09
   42.72000      4.5225739E-09
   42.78000      9.6563890E-10
   42.84000     -2.6258575E-09
   42.90000     -6.2132663E-09
   42.96000     -9.7531494E-09
   43.02000     -1.3210241E-08
   43.08000     -1.6564671E-08
   43.14000     -1.9810345E-08
   43.20000     -2.2945111E-08
   43.26000     -2.5957227E-08
   43.32000     -2.8814810E-08
   43.38000     -3.1464129E-08
   43.44000     -3.3839449E-08
   43.50000     -3.5882127E-08
   43.56000     -3.7562391E-08
   43.62000     -3.8895131E-08
   43.68000     -3.9942481E-08
   43.74000     -4.0800195E-08
   43.80000     -4.1570786E-08
   43.86000     -4.2331475E-08
   43.92000     -4.3107221E-08
   43.98000     -4.3857963E-08
   44.04000     -4.4484345E-08
   44.10000     -4.4850012E-08
   44.16000     -4.4812708E-08
   44.22000     -4.4253458E-08
   44.28000     -4.3093493E-08
   44.34000     -4.1293074E-08
   44.40000     -3.8832354E-08
   44.46000     -3.5680745E-08
   44.52000     -3.1765062E-08
   44.58000     -2.6946907E-08
   44.64000     -2.1016112E-08
   44.70000     -1.3700844E-08
   44.76000     -4.6885242E-09
   44.82000      6.3528076E-09
   44.88000      1.9763640E-08
   44.94000      3.5900268E-08
   45.00000      5.5161632E-08
   45.06000      7.8030297E-08
   45.12000      1.0511734E-07
   45.18000      1.3719990E-07
   45.24000      1.7524330E-07
   45.30000      2.2040550E-07
   45.36000      2.7402913E-07
   45.42000      3.3763132E-07
   45.48000      4.1290355E-07
   45.54000      5.0173048E-07
   45.60000      6.0623285E-07
   45.66000      7.2883040E-07
   45.72000      8.7231643E-07
   45.78000      1.0399322E-06
   45.84000      1.2354317E-06
   45.90000      1.4631314E-06
   45.96000      1.7279468E-06
   46.02000      2.0354230E-06
   46.08000      2.3917728E-06
   46.14000      2.8039294E-06
   46.20000      3.2796249E-06
   46.26000      3.8274898E-06
   46.32000      4.4571739E-06
   46.38000      5.1794691E-06
   46.44000      6.0064326E-06
   46.50000      6.9514890E-06
   46.56000      8.0295249E-06
   46.62000      9.2569589E-06
   46.68000      1.0651823E-05
   46.74000      1.2233837E-05
   46.80000      1.4024511E-05
   46.86000      1.6047261E-05
   46.92000      1.8327533E-05
   46.98000      2.0892940E-05
   47.04000      2.3773373E-05
   47.10000      2.7001111E-05
   47.16000      3.0610885E-05
   47.22000      3.4639914E-05
   47.28000      3.9127939E-05
   47.34000      4.4117209E-05
   47.40000      4.9652484E-05
   47.46000      5.5781027E-05
   47.52000      6.2552572E-05
   47.58000      7.0019290E-05
   47.64000      7.8235738E-05
   47.70000      8.7258726E-05
   47.76000      9.7147160E-05
   47.82000      1.0796184E-04
   47.88000      1.1976519E-04
   47.94000      1.3262097E-04
   48.00000      1.4659394E-04
   48.06000      1.6174947E-04
   48.12000      1.7815318E-04
   48.18000      1.9587050E-04
   48.24000      2.1496617E-04
   48.30000      2.3550383E-04
   48.36000      2.5754533E-04
   48.42000      2.8115022E-04
   48.48000      3.0637518E-04
   48.54000      3.3327317E-04
   48.60000      3.6189286E-04
   48.66000      3.9227799E-04
   48.72000      4.2446656E-04
   48.78000      4.5849025E-04
   48.84000      4.9437367E-04
   48.90000      5.3213391E-04
   48.96000      5.7177962E-04
   49.02000      6.1331067E-04
   49.08000      6.5671757E-04
   49.14000      7.0198090E-04
   49.20000      7.4907078E-04
   49.26000      7.9794665E-04
   49.32000      8.4855664E-04
   49.38000      9.0083812E-04
   49.44000      9.5471699E-04
   49.50000      1.0101079E-03
   49.56000      1.0669144E-03
   49.62000      1.1250296E-03
   49.68000      1.1843361E-03
   49.74000      1.2447071E-03
   49.80000      1.3060060E-03
   49.86000      1.3680878E-03
   49.92000      1.4308004E-03
   49.98000      1.4939846E-03
   50.04000      1.5574760E-03
   50.10000      1.6211059E-03
   50.16000      1.6847032E-03
   50.22000      1.7480950E-03
   50.28000      1.8111084E-03
   50.34000      1.8735721E-03
   50.40000      1.9353174E-03
   50.46000      1.9961805E-03
   50.52000      2.0560035E-03
   50.58000      2.1146359E-03
   50.64000      2.1719367E-03
   50.70000      2.2277751E-03
   50.76000      2.2820318E-03
   50.82000      2.3346012E-03
   50.88000      2.3853916E-03
   50.94000      2.4343256E-03
   51.00000      2.4813430E-03
   51.06000      2.5263976E-03
   51.12000      2.5694617E-03
   51.18000      2.6105244E-03
   51.24000      2.6495915E-03
   51.30000      2.6866856E-03
   51.36000      2.7218466E-03
   51.42000      2.7551297E-03
   51.48000      2.7866047E-03
   51.54000      2.8163558E-03
   51.60000      2.8444794E-03
   51.66000      2.8710843E-03
   51.72000      2.8962886E-03
   51.78000      2.9202194E-03
   51.84000      2.9430098E-03
   51.90000      2.9647979E-03
   51.96000      2.9857249E-03
   52.02000      3.0059319E-03
   52.08000      3.0255592E-03
   52.14000      3.0447447E-03
   52.20000      3.0636201E-03
   52.26000      3.0823110E-03
   52.32000      3.1009337E-03
   52.38000      3.1195953E-03
   52.44000      3.1383904E-03
   52.50000      3.1574008E-03
   52.56000      3.1766945E-03
   52.62000      3.1963249E-03
   52.68000      3.2163288E-03
   52.74000      3.2367278E-03
   52.80000      3.2575270E-03
   52.86000      3.2787148E-03
   52.92000      3.3002642E-03
   52.98000      3.3221333E-03
   53.04000      3.3442650E-03
   53.10000      3.3665891E-03
   53.16000      3.3890228E-03
   53.22000      3.4114721E-03
   53.28000      3.4338345E-03
   53.34000      3.4559988E-03
   53.40000      3.4778481E-03
   53.46000      3.4992618E-03
   53.52000      3.5201160E-03
   53.58000      3.5402882E-03
   53.64000      3.5596574E-03
   53.70000      3.5781064E-03
   53.76000      3.5955235E-03
   53.82000      3.6118042E-03
   53.88000      3.6268530E-03
   53.94000      3.6405846E-03
   54.00000      3.6529265E-03
   54.06000      3.6638186E-03
   54.12000      3.6732145E-03
   54.18000      3.6810827E-03
   54.24000      3.6874071E-03
   54.30000      3.6921860E-03
   54.36000      3.6954337E-03
   54.42000      3.6971781E-03
   54.48000      3.6974624E-03
   54.54000      3.6963432E-03
   54.60000      3.6938894E-03
   54.66000      3.6901815E-03
   54.72000      3.6853107E-03
   54.78000      3.6793759E-03
   54.84000      3.6724831E-03
   54.90000      3.6647441E-03
   54.96000      3.6562725E-03
   55.02000      3.6471849E-03
   55.08000      3.6375965E-03
   55.14000      3.6276204E-03
   55.20000      3.6173654E-03
   55.26000      3.6069348E-03
   55.32000      3.5964241E-03
   55.38000      3.5859200E-03
   55.44000      3.5754982E-03
   55.50000      3.5652232E-03
   55.56000      3.5551465E-03