  -2.400000      0.0000000E+00
  -2.340000      0.0000000E+00
  -2.280000      0.0000000E+00
  -2.220000      0.0000000E+00
  -2.160000      0.0000000E+00
  -2.100000      2.0317777E-22
  -2.040000      1.1394266E-21
  -1.980000      1.4498930E-21
  -1.920000     -1.0459207E-20
  -1.860000     -7.0583412E-20
  -1.800000     -2.4528922E-19
  -1.740000     -5.9716728E-19
  -1.680000     -1.0764295E-18
  -1.620000     -1.3427178E-18
  -1.560000     -6.1228312E-19
  -1.500000      2.2692037E-18
  -1.440000      8.2957191E-18
  -1.380000      1.7225183E-17
  -1.320000      2.6238789E-17
  -1.260000      2.9097378E-17
  -1.200000      1.6877775E-17
  -1.140000     -1.8828143E-17
  -1.080000     -8.0329011E-17
  -1.020000     -1.5754160E-16
 -0.9600000     -2.2428765E-16
 -0.9000000     -2.4110811E-16
 -0.8400000     -1.6715109E-16
 -0.7800000      2.0062091E-17
 -0.7200000      3.0348955E-16
 -0.6600000      6.1509087E-16
 -0.6000000      8.4565827E-16
 -0.5400000      8.8148008E-16
 -0.4800000      6.6033100E-16
 -0.4200000      2.2334986E-16
 -0.3600000     -2.7103744E-16
 -0.3000000     -5.9989451E-16
 -0.2400000     -5.9739481E-16
 -0.1800000     -3.0376071E-16
 -0.1200000     -5.7691368E-17
 -5.9999999E-02 -4.3585039E-16
  0.0000000E+00 -1.9857330E-15
  5.9999999E-02 -4.8003915E-15
  0.1200000     -8.1133042E-15
  0.1800000     -1.0182158E-14
  0.2400000     -8.7035973E-15
  0.3000000     -1.8120006E-15
  0.3600000      1.0604198E-14
  0.4200000      2.5858327E-14
  0.4800000      3.8419991E-14
  0.5400000      4.1378589E-14
  0.6000000      2.9320317E-14
  0.6600000      1.7006003E-15
  0.7200000     -3.4874972E-14
  0.7800000     -6.7127625E-14
  0.8400000     -7.9212204E-14
  0.9000000     -5.9747068E-14
  0.9600000     -9.2452918E-15
   1.020000      5.5744448E-14
   1.080000      1.0514946E-13
   1.140000      1.0571368E-13
   1.200000      3.6792116E-14
   1.260000     -9.4327276E-14
   1.320000     -2.4525718E-13
   1.380000     -3.4570887E-13
   1.440000     -3.2032992E-13
   1.500000     -1.2148819E-13
   1.560000      2.3989130E-13
   1.620000      6.7962476E-13
   1.680000      1.0522841E-12
   1.740000      1.1913573E-12
   1.800000      9.6730935E-13
   1.860000      3.4387030E-13
   1.920000     -5.8976890E-13
   1.980000     -1.6268647E-12
   2.040000     -2.4933816E-12
   2.100000     -2.9266333E-12
   2.160000     -2.7561892E-12
   2.220000     -1.9582704E-12
   2.280000     -6.6343084E-13
   2.340000      8.8571224E-13
   2.400000      2.4110505E-12
   2.460000      3.6809071E-12
   2.520000      4.5661530E-12
   2.580000      5.0494613E-12
   2.640000      5.1853868E-12
   2.700000      5.0292370E-12
   2.760000      4.5665780E-12
   2.820000      3.6769654E-12
   2.880000      2.1538799E-12
   2.940000     -2.1840578E-13
   3.000000     -3.5535138E-12
   3.060000     -7.7561915E-12
   3.120000     -1.2461990E-11
   3.180000     -1.7052533E-11
   3.240000     -2.0750643E-11
   3.300000     -2.2770322E-11
   3.360000     -2.2473287E-11
   3.420000     -1.9474897E-11
   3.480000     -1.3651592E-11
   3.540000     -5.0291312E-12
   3.600000      6.4314608E-12
   3.660000      2.1094512E-11
   3.720000      3.9873063E-11
   3.780000      6.4324018E-11
   3.840000      9.6543079E-11
   3.900000      1.3883523E-10
   3.960000      1.9320044E-10
   4.020000      2.6073999E-10
   4.080000      3.4113304E-10
   4.140000      4.3233425E-10
   4.200000      5.3059612E-10
   4.260000      6.3083083E-10
   4.320000      7.2722600E-10
   4.380000      8.1395324E-10
   4.440000      8.8579100E-10
   4.500000      9.3853147E-10
   4.560000      9.6914132E-10
   4.620000      9.7574926E-10
   4.680000      9.5760166E-10
   4.740000      9.1511021E-10
   4.800000      8.5004309E-10
   4.860000      7.6578238E-10
   4.920000      6.6748002E-10
   4.980000      5.6191529E-10
   5.040000      4.5692644E-10
   5.100000      3.6043352E-10
   5.160000      2.7922920E-10
   5.220000      2.1783021E-10
   5.280000      1.7769669E-10
   5.340000      1.5703877E-10
   5.400000      1.5126692E-10
   5.460000      1.5396719E-10
   5.520000      1.5815889E-10
   5.580000      1.5754789E-10
   5.640000      1.4753501E-10
   5.700000      1.2583395E-10
   5.760000      9.2662225E-11
   5.820000      5.0550959E-11
   5.880000      3.8646378E-12
   5.940000     -4.1864304E-11
   6.000000     -8.0683321E-11
   6.060000     -1.0695172E-10
   6.120000     -1.1596520E-10
   6.180000     -1.0439876E-10
   6.240000     -7.0526945E-11
   6.300000     -1.4230525E-11
   6.360000      6.3153170E-11
   6.420000      1.5904926E-10
   6.480000      2.6986027E-10
   6.540000      3.9114570E-10
   6.600000      5.1779975E-10
   6.660000      6.4430439E-10
   6.720000      7.6513329E-10
   6.780000      8.7533009E-10
   6.840000      9.7119457E-10
   6.900000      1.0509258E-09
   6.960000      1.1150314E-09
   7.020000      1.1663530E-09
   7.080000      1.2096580E-09
   7.140000      1.2509018E-09
   7.200000      1.2963797E-09
   7.260000      1.3520373E-09
   7.320000      1.4231488E-09
   7.380000      1.5144277E-09
   7.440000      1.6304579E-09
   7.500000      1.7762066E-09
   7.560000      1.9573518E-09
   7.620000      2.1802549E-09
   7.680000      2.4515816E-09
   7.740000      2.7777434E-09
   7.800000      3.1644090E-09
   7.860000      3.6162910E-09
   7.920000      4.1372510E-09
   7.980000      4.7305870E-09
   8.040000      5.3992490E-09
   8.100000      6.1457364E-09
   8.160000      6.9715753E-09
   8.220000      7.8764488E-09
   8.280000      8.8572190E-09
   8.340000      9.9071080E-09
   8.400000      1.1015246E-08
   8.460000      1.2166661E-08
   8.520000      1.3342665E-08
   8.580000      1.4521530E-08
   8.640000      1.5679369E-08
   8.700000      1.6791134E-08
   8.760000      1.7831685E-08
   8.820000      1.8776813E-08
   8.880000      1.9604117E-08
   8.940000      2.0293612E-08
   9.000000      2.0828102E-08
   9.060000      2.1193403E-08
   9.120000      2.1378657E-08
   9.180000      2.1376829E-08
   9.240000      2.1185345E-08
   9.300000      2.0806601E-08
   9.360000      2.0247928E-08
   9.420000      1.9520758E-08
   9.480000      1.8639014E-08
   9.540000      1.7617191E-08
   9.600000      1.6468809E-08
   9.660000      1.5205863E-08
   9.720000      1.3839543E-08
   9.780000      1.2381837E-08
   9.840000      1.0847296E-08
   9.900000      9.2540553E-09
   9.960000      7.6234850E-09
   10.02000      5.9784542E-09
   10.08000      4.3407029E-09
   10.14000      2.7281333E-09
   10.20000      1.1528111E-09
   10.26000     -3.7988110E-10
   10.32000     -1.8708965E-09
   10.38000     -3.3262568E-09
   10.44000     -4.7552629E-09
   10.50000     -6.1685426E-09
   10.56000     -7.5762152E-09
   10.62000     -8.9863876E-09
   10.68000     -1.0404178E-08
   10.74000     -1.1831435E-08
   10.80000     -1.3267186E-08
   10.86000     -1.4708636E-08
   10.92000     -1.6152336E-08
   10.98000     -1.7595063E-08
   11.04000     -1.9033969E-08
   11.10000     -2.0465968E-08
   11.16000     -2.1886489E-08
   11.22000     -2.3288107E-08
   11.28000     -2.4659524E-08
   11.34000     -2.5985306E-08
   11.40000     -2.7246495E-08
   11.46000     -2.8421983E-08
   11.52000     -2.9490360E-08
   11.58000     -3.0431877E-08
   11.64000     -3.1230169E-08
   11.70000     -3.1873412E-08
   11.76000     -3.2354720E-08
   11.82000     -3.2671728E-08
   11.88000     -3.2825522E-08
   11.94000     -3.2819280E-08
   12.00000     -3.2657137E-08
   12.06000     -3.2343696E-08
   12.12000     -3.1884419E-08
   12.18000     -3.1286735E-08
   12.24000     -3.0561356E-08
   12.30000     -2.9723070E-08
   12.36000     -2.8790536E-08
   12.42000     -2.7784797E-08
   12.48000     -2.6726806E-08
   12.54000     -2.5634675E-08
   12.60000     -2.4521405E-08
   12.66000     -2.3393826E-08
   12.72000     -2.2252982E-08
   12.78000     -2.1095833E-08
   12.84000     -1.9917742E-08
   12.90000     -1.8715060E-08
   12.96000     -1.7487237E-08
   13.02000     -1.6238088E-08
   13.08000     -1.4976074E-08
   13.14000     -1.3713715E-08
   13.20000     -1.2466371E-08
   13.26000     -1.1250662E-08
   13.32000     -1.0082883E-08
   13.38000     -8.9776879E-09
   13.44000     -7.9472811E-09
   13.50000     -7.0011992E-09
   13.56000     -6.1465326E-09
   13.62000     -5.3882054E-09
   13.68000     -4.7288395E-09
   13.74000     -4.1677883E-09
   13.80000     -3.6992573E-09
   13.86000     -3.3098773E-09
   13.92000     -2.9765186E-09
   13.98000     -2.6653220E-09
   14.04000     -2.3327549E-09
   14.10000     -1.9290136E-09
   14.16000     -1.4034355E-09
   14.22000     -7.1098871E-10
   14.28000      1.8140245E-10
   14.34000      1.2898901E-09
   14.40000      2.6109290E-09
   14.46000      4.1210177E-09
   14.52000      5.7787855E-09
   14.58000      7.5289126E-09
   14.64000      9.3072083E-09
   14.70000      1.1046185E-08
   14.76000      1.2680498E-08
   14.82000      1.4151789E-08
   14.88000      1.5412553E-08
   14.94000      1.6428791E-08
   15.00000      1.7181405E-08
   15.06000      1.7666324E-08
   15.12000      1.7893550E-08
   15.18000      1.7885199E-08
   15.24000      1.7672775E-08
   15.30000      1.7293734E-08
   15.36000      1.6787666E-08
   15.42000      1.6192377E-08
   15.48000      1.5540403E-08
   15.54000      1.4856520E-08
   15.60000      1.4156690E-08
   15.66000      1.3448622E-08
   15.72000      1.2733749E-08
   15.78000      1.2010020E-08
   15.84000      1.1274700E-08
   15.90000      1.0526487E-08
   15.96000      9.7664632E-09
   16.02000      8.9979633E-09
   16.08000      8.2257383E-09
   16.14000      7.4550730E-09
   16.20000      6.6913906E-09
   16.26000      5.9405800E-09
   16.32000      5.2099129E-09
   16.38000      4.5090767E-09
   16.44000      3.8507544E-09
   16.50000      3.2503011E-09
   16.56000      2.7243319E-09
   16.62000      2.2883562E-09
   16.68000      1.9538513E-09
   16.74000      1.7252931E-09
   16.80000      1.5976959E-09
   16.86000      1.5551420E-09
   16.92000      1.5706577E-09
   16.98000      1.6076035E-09
   17.04000      1.6225022E-09
   17.10000      1.5689533E-09
   17.16000      1.4020408E-09
   17.22000      1.0825363E-09
   17.28000      5.8028371E-10
   17.34000     -1.2356244E-10
   17.40000     -1.0354024E-09
   17.46000     -2.1487976E-09
   17.52000     -3.4443450E-09
   17.58000     -4.8894839E-09
   17.64000     -6.4382175E-09
   17.70000     -8.0311047E-09
   17.76000     -9.5960866E-09
   17.82000     -1.1050738E-08
   17.88000     -1.2306319E-08
   17.94000     -1.3273648E-08
   18.00000     -1.3870538E-08
   18.06000     -1.4030139E-08
   18.12000     -1.3709339E-08
   18.18000     -1.2896141E-08
   18.24000     -1.1614680E-08
   18.30000     -9.9266204E-09
   18.36000     -7.9278850E-09
   18.42000     -5.7403509E-09
   18.48000     -3.4991658E-09
   18.54000     -1.3374194E-09
   18.60000      6.2927341E-10
   18.66000      2.3154665E-09
   18.72000      3.6735921E-09
   18.78000      4.6955551E-09
   18.84000      5.4084905E-09
   18.90000      5.8661684E-09
   18.96000      6.1381860E-09
   19.02000      6.2990786E-09
   19.08000      6.4189449E-09
   19.14000      6.5564323E-09
   19.20000      6.7542745E-09
   19.26000      7.0371735E-09
   19.32000      7.4116957E-09
   19.38000      7.8678353E-09
   19.44000      8.3819351E-09
   19.50000      8.9205399E-09
   19.56000      9.4446913E-09
   19.62000      9.9141184E-09
   19.68000      1.0290838E-08
   19.74000      1.0541944E-08
   19.80000      1.0641511E-08
   19.86000      1.0571748E-08
   19.92000      1.0323491E-08
   19.98000      9.8960813E-09
   20.04000      9.2965156E-09
   20.10000      8.5378478E-09
   20.16000      7.6369284E-09
   20.22000      6.6118524E-09
   20.28000      5.4796652E-09
   20.34000      4.2548476E-09
   20.40000      2.9488667E-09
   20.46000      1.5706492E-09
   20.52000      1.2744725E-10
   20.58000     -1.3746142E-09
   20.64000     -2.9308633E-09
   20.70000     -4.5393898E-09
   20.76000     -6.2028986E-09
   20.82000     -7.9302378E-09
   20.88000     -9.7366497E-09
   20.94000     -1.1642095E-08
   21.00000     -1.3667628E-08
   21.06000     -1.5830446E-08
   21.12000     -1.8138776E-08
   21.18000     -2.0587834E-08
   21.24000     -2.3157860E-08
   21.30000     -2.5814645E-08
   21.36000     -2.8512353E-08
   21.42000     -3.1197995E-08
   21.48000     -3.3816651E-08
   21.54000     -3.6316578E-08
   21.60000     -3.8653589E-08
   21.66000     -4.0794198E-08
   21.72000     -4.2717353E-08
   21.78000     -4.4414559E-08
   21.84000     -4.5888587E-08
   21.90000     -4.7150859E-08
   21.96000     -4.8218137E-08
   22.02000     -4.9109008E-08
   22.08000     -4.9840871E-08
   22.14000     -5.0427651E-08
   22.20000     -5.0878491E-08
   22.26000     -5.1196974E-08
   22.32000     -5.1380805E-08
   22.38000     -5.1421765E-08
   22.44000     -5.1306156E-08
   22.50000     -5.1016301E-08
   22.56000     -5.0533391E-08
   22.62000     -4.9841617E-08
   22.68000     -4.8932861E-08
   22.74000     -4.7810694E-08
   22.80000     -4.6492364E-08
   22.86000     -4.5008012E-08
   22.92000     -4.3397186E-08
   22.98000     -4.1703732E-08
   23.04000     -3.9970583E-08
   23.10000     -3.8235761E-08
   23.16000     -3.6530405E-08
   23.22000     -3.4878589E-08
   23.28000     -3.3298232E-08
   23.34000     -3.1802195E-08
   23.40000     -3.0398912E-08
   23.46000     -2.9092535E-08
   23.52000     -2.7882939E-08
   23.58000     -2.6765930E-08
   23.64000     -2.5733916E-08
   23.70000     -2.4777020E-08
   23.76000     -2.3884438E-08
   23.82000     -2.3045901E-08
   23.88000     -2.2253252E-08
   23.94000     -2.1502101E-08
   24.00000     -2.0793456E-08
   24.06000     -2.0134793E-08
   24.12000     -1.9540037E-08
   24.18000     -1.9027864E-08
   24.24000     -1.8618387E-08
   24.30000     -1.8328924E-08
   24.36000     -1.8170102E-08
   24.42000     -1.8143645E-08
   24.48000     -1.8242632E-08
   24.54000     -1.8454189E-08
   24.60000     -1.8763643E-08
   24.66000     -1.9158737E-08
   24.72000     -1.9632576E-08
   24.78000     -2.0184650E-08
   24.84000     -2.0820032E-08
   24.90000     -2.1547537E-08
   24.96000     -2.2377824E-08
   25.02000     -2.3322190E-08
   25.08000     -2.4392378E-08
   25.14000     -2.5601080E-08
   25.20000     -2.6962555E-08
   25.26000     -2.8492469E-08
   25.32000     -3.0206355E-08
   25.38000     -3.2116343E-08
   25.44000     -3.4226371E-08
   25.50000     -3.6526774E-08
   25.56000     -3.8989647E-08
   25.62000     -4.1566583E-08
   25.68000     -4.4190301E-08
   25.74000     -4.6780681E-08
   25.80000     -4.9254716E-08
   25.86000     -5.1538549E-08
   25.92000     -5.3578944E-08
   25.98000     -5.5351400E-08
   26.04000     -5.6862799E-08
   26.10000     -5.8147815E-08
   26.16000     -5.9259850E-08
   26.22000     -6.0258543E-08
   26.28000     -6.1196737E-08
   26.34000     -6.2109734E-08
   26.40000     -6.3009203E-08
   26.46000     -6.3882815E-08
   26.52000     -6.4699805E-08
   26.58000     -6.5420807E-08
   26.64000     -6.6009768E-08
   26.70000     -6.6444734E-08
   26.76000     -6.6724517E-08
   26.82000     -6.6869433E-08
   26.88000     -6.6915511E-08
   26.94000     -6.6903944E-08
   27.00000     -6.6868914E-08
   27.06000     -6.6827738E-08
   27.12000     -6.6776472E-08
   27.18000     -6.6692650E-08
   27.24000     -6.6543883E-08
   27.30000     -6.6299592E-08
   27.36000     -6.5941620E-08
   27.42000     -6.5470111E-08
   27.48000     -6.4902778E-08
   27.54000     -6.4267773E-08
   27.60000     -6.3592765E-08
   27.66000     -6.2893690E-08
   27.72000     -6.2166755E-08
   27.78000     -6.1386203E-08
   27.84000     -6.0508519E-08
   27.90000     -5.9482094E-08
   27.96000     -5.8259857E-08
   28.02000     -5.6811675E-08
   28.08000     -5.5133338E-08
   28.14000     -5.3249526E-08
   28.20000     -5.1209636E-08
   28.26000     -4.9077027E-08
   28.32000     -4.6914128E-08
   28.38000     -4.4767244E-08
   28.44000     -4.2655358E-08
   28.50000     -4.0566395E-08
   28.56000     -3.8462417E-08
   28.62000     -3.6292580E-08
   28.68000     -3.4010114E-08
   28.74000     -3.1588272E-08
   28.80000     -2.9030293E-08
   28.86000     -2.6370296E-08
   28.92000     -2.3664866E-08
   28.98000     -2.0978014E-08
   29.04000     -1.8364265E-08
   29.10000     -1.5855113E-08
   29.16000     -1.3452913E-08
   29.22000     -1.1133902E-08
   29.28000     -8.8591392E-09
   29.34000     -6.5897567E-09
   29.40000     -4.3016950E-09
   29.46000     -1.9953568E-09
   29.52000      3.0267952E-10
   29.58000      2.5462046E-09
   29.64000      4.6819348E-09
   29.70000      6.6640147E-09
   29.76000      8.4659275E-09
   29.82000      1.0086275E-08
   29.88000      1.1546950E-08
   29.94000      1.2884724E-08
   30.00000      1.4139252E-08
   30.06000      1.5341419E-08
   30.12000      1.6505542E-08
   30.18000      1.7627439E-08
   30.24000      1.8688310E-08
   30.30000      1.9662561E-08
   30.36000      2.0526553E-08
   30.42000      2.1265183E-08
   30.48000      2.1874149E-08
   30.54000      2.2357204E-08
   30.60000      2.2719513E-08
   30.66000      2.2959513E-08
   30.72000      2.3062329E-08
   30.78000      2.2997414E-08
   30.84000      2.2721833E-08
   30.90000      2.2188775E-08
   30.96000      2.1359053E-08
   31.02000      2.0212164E-08
   31.08000      1.8753333E-08
   31.14000      1.7014040E-08
   31.20000      1.5045551E-08
   31.26000      1.2907087E-08
   31.32000      1.0652088E-08
   31.38000      8.3165368E-09
   31.44000      5.9126521E-09
   31.50000      3.4295202E-09
   31.56000      8.4003665E-10
   31.62000     -1.8882558E-09
   31.68000     -4.7818589E-09
   31.74000     -7.8527700E-09
   31.80000     -1.1094817E-08
   31.86000     -1.4485320E-08
   31.92000     -1.7990914E-08
   31.98000     -2.1575213E-08
   32.04000     -2.5205704E-08
   32.10000     -2.8857738E-08
   32.16000     -3.2514528E-08
   32.22000     -3.6163492E-08
   32.28000     -3.9790429E-08
   32.34000     -4.3373660E-08
   32.40000     -4.6880540E-08
   32.46000     -5.0267879E-08
   32.52000     -5.3486808E-08
   32.58000     -5.6491270E-08
   32.64000     -5.9247956E-08
   32.70000     -6.1744778E-08
   32.76000     -6.3995067E-08
   32.82000     -6.6035462E-08
   32.88000     -6.7917142E-08
   32.94000     -6.9691943E-08
   33.00000     -7.1396947E-08
   33.06000     -7.3041711E-08
   33.12000     -7.4602234E-08
   33.18000     -7.6023944E-08
   33.24000     -7.7233466E-08
   33.30000     -7.8156106E-08
   33.36000     -7.8734125E-08
   33.42000     -7.8940388E-08
   33.48000     -7.8783309E-08
   33.54000     -7.8301859E-08
   33.60000     -7.7552386E-08
   33.66000     -7.6591689E-08
   33.72000     -7.5461692E-08
   33.78000     -7.4180399E-08
   33.84000     -7.2741415E-08
   33.90000     -7.1121690E-08
   33.96000     -6.9294359E-08
   34.02000     -6.7242269E-08
   34.08000     -6.4967956E-08
   34.14000     -6.2497250E-08
   34.20000     -5.9875653E-08
   34.26000     -5.7159234E-08
   34.32000     -5.4402907E-08
   34.38000     -5.1649877E-08
   34.44000     -4.8925390E-08
   34.50000     -4.6236398E-08
   34.56000     -4.3577177E-08
   34.62000     -4.0938957E-08
   34.68000     -3.8320543E-08
   34.74000     -3.5736694E-08
   34.80000     -3.3221678E-08
   34.86000     -3.0826978E-08
   34.92000     -2.8613893E-08
   34.98000     -2.6643226E-08
   35.04000     -2.4965090E-08
   35.10000     -2.3611541E-08
   35.16000     -2.2593818E-08
   35.22000     -2.1904361E-08
   35.28000     -2.1522524E-08
   35.34000     -2.1421956E-08
   35.40000     -2.1577444E-08
   35.46000     -2.1969505E-08
   35.52000     -2.2585809E-08
   35.58000     -2.3419407E-08
   35.64000     -2.4464461E-08
   35.70000     -2.5710596E-08
   35.76000     -2.7137220E-08
   35.82000     -2.8709138E-08
   35.88000     -3.0374562E-08
   35.94000     -3.2066310E-08
   36.00000     -3.3706240E-08
   36.06000     -3.5212441E-08
   36.12000     -3.6507757E-08
   36.18000     -3.7528007E-08
   36.24000     -3.8227984E-08
   36.30000     -3.8584002E-08
   36.36000     -3.8592411E-08
   36.42000     -3.8264591E-08
   36.48000     -3.7619770E-08
   36.54000     -3.6677410E-08
   36.60000     -3.5450960E-08
   36.66000     -3.3944278E-08
   36.72000     -3.2151419E-08
   36.78000     -3.0059677E-08
   36.84000     -2.7655142E-08
   36.90000     -2.4929626E-08
   36.96000     -2.1887475E-08
   37.02000     -1.8550876E-08
   37.08000     -1.4962527E-08
   37.14000     -1.1184940E-08
   37.20000     -7.2964177E-09
   37.26000     -3.3842620E-09
   37.32000      4.6359147E-10
   37.38000      4.1670773E-09
   37.44000      7.6612006E-09
   37.50000      1.0900791E-08
   37.56000      1.3862159E-08
   37.62000      1.6541517E-08
   37.68000      1.8950614E-08
   37.74000      2.1110452E-08
   37.80000      2.3044274E-08
   37.86000      2.4771230E-08
   37.92000      2.6302040E-08
   37.98000      2.7637538E-08
   38.04000      2.8770458E-08
   38.10000      2.9689804E-08
   38.16000      3.0386595E-08
   38.22000      3.0859074E-08
   38.28000      3.1115778E-08
   38.34000      3.1175311E-08
   38.40000      3.1062822E-08
   38.46000      3.0804156E-08
   38.52000      3.0419518E-08
   38.58000      2.9918592E-08
   38.64000      2.9298720E-08
   38.70000      2.8546598E-08
   38.76000      2.7642990E-08
   38.82000      2.6568880E-08
   38.88000      2.5311104E-08
   38.94000      2.3865793E-08
   39.00000      2.2238686E-08
   39.06000      2.0442590E-08
   39.12000      1.8493154E-08
   39.18000      1.6404790E-08
   39.24000      1.4188236E-08
   39.30000      1.1850619E-08
   39.36000      9.3976569E-09
   39.42000      6.8368120E-09
   39.48000      4.1798121E-09
   39.54000      1.4433370E-09
   39.60000     -1.3523640E-09
   39.66000     -4.1861408E-09
   39.72000     -7.0384303E-09
   39.78000     -9.8921600E-09
   39.84000     -1.2731411E-08
   39.90000     -1.5538287E-08
   39.96000     -1.8289425E-08
   40.02000     -2.0953912E-08
   40.08000     -2.3493971E-08
   40.14000     -2.5868818E-08
   40.20000     -2.8040866E-08
   40.26000     -2.9982527E-08
   40.32000     -3.1681580E-08
   40.38000     -3.3143330E-08
   40.44000     -3.4388840E-08
   40.50000     -3.5449403E-08
   40.56000     -3.6358731E-08
   40.62000     -3.7144822E-08
   40.68000     -3.7823707E-08
   40.74000     -3.8396880E-08
   40.80000     -3.8853056E-08
   40.86000     -3.9173916E-08
   40.92000     -3.9342115E-08
   40.98000     -3.9349175E-08
   41.04000     -3.9200799E-08
   41.10000     -3.8917992E-08
   41.16000     -3.8533546E-08
   41.22000     -3.8085034E-08
   41.28000     -3.7606522E-08
   41.34000     -3.7121470E-08
   41.40000     -3.6639019E-08
   41.46000     -3.6154471E-08
   41.52000     -3.5653567E-08
   41.58000     -3.5118930E-08
   41.64000     -3.4536480E-08
   41.70000     -3.3899855E-08
   41.76000     -3.3211560E-08
   41.82000     -3.2480887E-08
   41.88000     -3.1719665E-08
   41.94000     -3.0937567E-08
   42.00000     -3.0138882E-08
   42.06000     -2.9322040E-08
   42.12000     -2.8482098E-08
   42.18000     -2.7615387E-08
   42.24000     -2.6724484E-08
   42.30000     -2.5821647E-08
   42.36000     -2.4929108E-08
   42.42000     -2.4075755E-08
   42.48000     -2.3290923E-08
   42.54000     -2.2596989E-08
   42.60000     -2.2003031E-08
   42.66000     -2.1501526E-08
   42.72000     -2.1069331E-08
   42.78000     -2.0673005E-08
   42.84000     -2.0277319E-08
   42.90000     -1.9854921E-08
   42.96000     -1.9394703E-08
   43.02000     -1.8906626E-08
   43.08000     -1.8421682E-08
   43.14000     -1.7986839E-08
   43.20000     -1.7656276E-08
   43.26000     -1.7481323E-08
   43.32000     -1.7501886E-08
   43.38000     -1.7741774E-08
   43.44000     -1.8209027E-08
   43.50000     -1.8900721E-08
   43.56000     -1.9810075E-08
   43.62000     -2.0932953E-08
   43.68000     -2.2270944E-08
   43.74000     -2.3829633E-08
   43.80000     -2.5612460E-08
   43.86000     -2.7612526E-08
   43.92000     -2.9805786E-08
   43.98000     -3.2148922E-08
   44.04000     -3.4583792E-08
   44.10000     -3.7048178E-08
   44.16000     -3.9490111E-08
   44.22000     -4.1881606E-08
   44.28000     -4.4227320E-08
   44.34000     -4.6565024E-08
   44.40000     -4.8957229E-08
   44.46000     -5.1476164E-08
   44.52000     -5.4186554E-08
   44.58000     -5.7131604E-08
   44.64000     -6.0326613E-08
   44.70000     -6.3762414E-08
   44.76000     -6.7417815E-08
   44.82000     -7.1277348E-08
   44.88000     -7.5349483E-08
   44.94000     -7.9680476E-08
   45.00000     -8.4360821E-08
   45.06000     -8.9523859E-08
   45.12000     -9.5338414E-08
   45.18000     -1.0199882E-07
   45.24000     -1.0971620E-07
   45.30000     -1.1871365E-07
   45.36000     -1.2922703E-07
   45.42000     -1.4151108E-07
   45.48000     -1.5584985E-07
   45.54000     -1.7256950E-07
   45.60000     -1.9205137E-07
   45.66000     -2.1474385E-07
   45.72000     -2.4117179E-07
   45.78000     -2.7194324E-07
   45.84000     -3.0775394E-07
   45.90000     -3.4939120E-07
   45.96000     -3.9773909E-07
   46.02000     -4.5378667E-07
   46.08000     -5.1864129E-07
   46.14000     -5.9354602E-07
   46.20000     -6.7990118E-07
   46.26000     -7.7928604E-07
   46.32000     -8.9347969E-07
   46.38000     -1.0244790E-06
   46.44000     -1.1745137E-06
   46.50000     -1.3460595E-06
   46.56000     -1.5418534E-06
   46.62000     -1.7649083E-06
   46.68000     -2.0185344E-06
   46.74000     -2.3063590E-06
   46.80000     -2.6323480E-06
   46.86000     -3.0008273E-06
   46.92000     -3.4164977E-06
   46.98000     -3.8844501E-06
   47.04000     -4.4101780E-06
   47.10000     -4.9995924E-06
   47.16000     -5.6590370E-06
   47.22000     -6.3953062E-06
   47.28000     -7.2156590E-06
   47.34000     -8.1278367E-06
   47.40000     -9.1400734E-06
   47.46000     -1.0261097E-05
   47.52000     -1.1500128E-05
   47.58000     -1.2866867E-05
   47.64000     -1.4371469E-05
   47.70000     -1.6024509E-05
   47.76000     -1.7836950E-05
   47.82000     -1.9820085E-05
   47.88000     -2.1985505E-05
   47.94000     -2.4345034E-05
   48.00000     -2.6910688E-05
   48.06000     -2.9694604E-05
   48.12000     -3.2708991E-05
   48.18000     -3.5966041E-05
   48.24000     -3.9477891E-05
   48.30000     -4.3256499E-05
   48.36000     -4.7313584E-05
   48.42000     -5.1660489E-05
   48.48000     -5.6308079E-05
   48.54000     -6.1266612E-05
   48.60000     -6.6545595E-05
   48.66000     -7.2153700E-05
   48.72000     -7.8098557E-05
   48.78000     -8.4386673E-05
   48.84000     -9.1023321E-05
   48.90000     -9.8012373E-05
   48.96000     -1.0535625E-04
   49.02000     -1.1305580E-04
   49.08000     -1.2111018E-04
   49.14000     -1.2951680E-04
   49.20000     -1.3827128E-04
   49.26000     -1.4736730E-04
   49.32000     -1.5679664E-04
   49.38000     -1.6654906E-04
   49.44000     -1.7661230E-04
   49.50000     -1.8697213E-04
   49.56000     -1.9761221E-04
   49.62000     -2.0851429E-04
   49.68000     -2.1965821E-04
   49.74000     -2.3102199E-04
   49.80000     -2.4258194E-04
   49.86000     -2.5431285E-04
   49.92000     -2.6618806E-04
   49.98000     -2.7817971E-04
   50.04000     -2.9025882E-04
   50.10000     -3.0239564E-04
   50.16000     -3.1455973E-04
   50.22000     -3.2672033E-04
   50.28000     -3.3884650E-04
   50.34000     -3.5090736E-04
   50.40000     -3.6287250E-04
   50.46000     -3.7471202E-04
   50.52000     -3.8639701E-04
   50.58000     -3.9789974E-04
   50.64000     -4.0919392E-04
   50.70000     -4.2025498E-04
   50.76000     -4.3106030E-04
   50.82000     -4.4158948E-04
   50.88000     -4.5182431E-04
   50.94000     -4.6174918E-04
   51.00000     -4.7135106E-04
   51.06000     -4.8061975E-04
   51.12000     -4.8954802E-04
   51.18000     -4.9813144E-04
   51.24000     -5.0636852E-04
   51.30000     -5.1426067E-04
   51.36000     -5.2181218E-04
   51.42000     -5.2902999E-04
   51.48000     -5.3592364E-04
   51.54000     -5.4250524E-04
   51.60000     -5.4878899E-04
   51.66000     -5.5479142E-04
   51.72000     -5.6053064E-04
   51.78000     -5.6602631E-04
   51.84000     -5.7129940E-04
   51.90000     -5.7637168E-04
   51.96000     -5.8126549E-04
   52.02000     -5.8600359E-04
   52.08000     -5.9060869E-04
   52.14000     -5.9510313E-04
   52.20000     -5.9950841E-04
   52.26000     -6.0384476E-04
   52.32000     -6.0813111E-04
   52.38000     -6.1238458E-04
   52.44000     -6.1662047E-04
   52.50000     -6.2085205E-04
   52.56000     -6.2509044E-04
   52.62000     -6.2934414E-04
   52.68000     -6.3361909E-04
   52.74000     -6.3791854E-04
   52.80000     -6.4224284E-04
   52.86000     -6.4658973E-04
   52.92000     -6.5095449E-04
   52.98000     -6.5532950E-04
   53.04000     -6.5970485E-04
   53.10000     -6.6406856E-04
   53.16000     -6.6840608E-04
   53.22000     -6.7270140E-04
   53.28000     -6.7693699E-04
   53.34000     -6.8109395E-04
   53.40000     -6.8515254E-04
   53.46000     -6.8909262E-04
   53.52000     -6.9289369E-04
   53.58000     -6.9653546E-04
   53.64000     -6.9999770E-04
   53.70000     -7.0326135E-04
   53.76000     -7.0630806E-04
   53.82000     -7.0912123E-04
   53.88000     -7.1168580E-04
   53.94000     -7.1398873E-04
   54.00000     -7.1601925E-04
   54.06000     -7.1776897E-04
   54.12000     -7.1923208E-04
   54.18000     -7.2040566E-04
   54.24000     -7.2128960E-04
   54.30000     -7.2188681E-04
   54.36000     -7.2220282E-04
   54.42000     -7.2224590E-04
   54.48000     -7.2202692E-04
   54.54000     -7.2155881E-04
   54.60000     -7.2085689E-04
   54.66000     -7.1993849E-04
   54.72000     -7.1882264E-04
   54.78000     -7.1753020E-04
   54.84000     -7.1608316E-04
   54.90000     -7.1450439E-04
   54.96000     -7.1281713E-04
   55.02000     -7.1104441E-04
   55.08000     -7.0920918E-04
   55.14000     -7.0733356E-04
   55.20000     -7.0543843E-04
   55.26000     -7.0354406E-04
   55.32000     -7.0166885E-04
   55.38000     -6.9982937E-04
   55.44000     -6.9804030E-04
   55.50000     -6.9631328E-04
   55.56000     -6.9465756E-04