 -0.750000000       0.00000000    
 -0.689999998       0.00000000    
 -0.629999995       0.00000000    
 -0.569999993       0.00000000    
 -0.509999990       0.00000000    
 -0.449999988      -5.77954406E-21
 -0.389999986      -5.09837456E-20
 -0.330000013      -2.32132884E-19
 -0.270000011      -7.09937583E-19
 -0.209999993      -1.57559336E-18
 -0.150000006      -2.46703144E-18
  -9.00000036E-02  -1.90724916E-18
  -2.99999993E-02   3.45861192E-18
   2.99999993E-02   1.92801424E-17
   9.00000036E-02   5.28587966E-17
  0.150000006       1.10475907E-16
  0.209999993       1.91452369E-16
  0.270000011       2.77646733E-16
  0.330000013       3.18154919E-16
  0.389999986       2.12714272E-16
  0.449999988      -1.95098078E-16
  0.509999990      -1.09386142E-15
  0.569999993      -2.62273143E-15
  0.629999995      -4.71517704E-15
  0.689999998      -6.88684458E-15
  0.750000000      -8.04882047E-15
  0.810000002      -6.49558693E-15
  0.870000005      -2.45986282E-16
  0.930000007       1.21489410E-14
  0.990000010       3.04074833E-14
   1.04999995       5.12918362E-14
   1.11000001       6.79930626E-14
   1.16999996       7.08492442E-14
   1.23000002       4.98522258E-14
   1.28999996      -1.27143436E-15
   1.35000002      -8.05315965E-14
   1.40999997      -1.74600772E-13
   1.47000003      -2.59253881E-13
   1.52999997      -3.04550764E-13
   1.59000003      -2.84193133E-13
   1.64999998      -1.86267085E-13
   1.71000004      -2.09355120E-14
   1.76999998       1.79356150E-13
   1.83000004       3.69340788E-13
   1.88999999       5.08089773E-13
   1.95000005       5.77353324E-13
   2.00999999       5.91838590E-13
   2.06999993       5.93343137E-13
   2.13000011       6.26445347E-13
   2.19000006       7.02478603E-13
   2.25000000       7.67262772E-13
   2.30999994       6.92009004E-13
   2.36999989       3.02361191E-13
   2.43000007      -5.52867702E-13
   2.49000001      -1.91042646E-12
   2.54999995      -3.61272991E-12
   2.60999990      -5.27956238E-12
   2.67000008      -6.36159701E-12
   2.73000002      -6.27968250E-12
   2.78999996      -4.61886432E-12
   2.84999990      -1.31559238E-12
   2.91000009       3.23513070E-12
   2.97000003       8.20977748E-12
   3.02999997       1.25377894E-11
   3.08999991       1.51923214E-11
   3.15000010       1.54989181E-11
   3.21000004       1.33508031E-11
   3.26999998       9.24115211E-12
   3.32999992       4.08344625E-12
   3.39000010      -1.12895218E-12
   3.45000005      -5.70350494E-12
   3.50999999      -9.51967064E-12
   3.56999993      -1.30676719E-11
   3.63000011      -1.72101760E-11
   3.69000006      -2.27255437E-11
   3.75000000      -2.97816910E-11
   3.80999994      -3.75315300E-11
   3.86999989      -4.39963239E-11
   3.93000007      -4.63191083E-11
   3.99000001      -4.13564495E-11
   4.05000019      -2.64747720E-11
   4.11000013      -3.61146551E-13
   4.17000008       3.63360765E-11
   4.23000002       8.06659670E-11
   4.28999996       1.27386268E-10
   4.34999990       1.69318073E-10
   4.40999985       1.98007846E-10
   4.46999979       2.04665965E-10
   4.53000021       1.81366561E-10
   4.59000015       1.22480789E-10
   4.65000010       2.62582022E-11
   4.71000004      -1.03637127E-10
   4.76999998      -2.56945937E-10
   4.82999992      -4.16372187E-10
   4.88999987      -5.58233071E-10
   4.94999981      -6.54391930E-10
   5.01000023      -6.75382972E-10
   5.07000017      -5.94306493E-10
   5.13000011      -3.90791954E-10
   5.19000006      -5.41986005E-11
   5.25000000       4.14677015E-10
   5.30999994       1.00379727E-09
   5.36999989       1.69192083E-09
   5.42999983       2.45192755E-09
   5.48999977       3.25453287E-09
   5.55000019       4.07140632E-09
   5.61000013       4.87693175E-09
   5.67000008       5.64833291E-09
   5.73000002       6.36444986E-09
   5.78999996       7.00397784E-09
   5.84999990       7.54419460E-09
   5.90999985       7.96108246E-09
   5.96999979       8.23131341E-09
   6.03000021       8.33585201E-09
   6.09000015       8.26432167E-09
   6.15000010       8.01880251E-09
   6.21000004       7.61572494E-09
   6.26999998       7.08490200E-09
   6.32999992       6.46552101E-09
   6.38999987       5.79979886E-09
   6.44999981       5.12576825E-09
   6.51000023       4.47103288E-09
   6.57000017       3.84916543E-09
   6.63000011       3.25973692E-09
   6.69000006       2.69195422E-09
   6.75000000       2.13083085E-09
   6.80999994       1.56409974E-09
   6.86999989       9.87878446E-10
   6.92999983       4.09548867E-10
   6.98999977      -1.52788282E-10
   7.05000019      -6.73842426E-10
   7.11000013      -1.12633625E-09
   7.17000008      -1.48618906E-09
   7.23000002      -1.73621195E-09
   7.28999996      -1.86755966E-09
   7.34999990      -1.87910421E-09
   7.40999985      -1.77566217E-09
   7.46999979      -1.56632030E-09
   7.53000021      -1.26387623E-09
   7.59000015      -8.85687301E-10
   7.65000010      -4.55364052E-10
   7.71000004      -4.04431523E-12
   7.76999998       4.30208424E-10
   7.82999992       8.05908840E-10
   7.88999987       1.08462139E-09
   7.94999981       1.23928412E-09
   8.01000023       1.26226962E-09
   8.06999969       1.17064192E-09
   8.13000011       1.00643516E-09
   8.18999958       8.30915059E-10
   8.25000000       7.13398285E-10
   8.31000042       7.16860737E-10
   8.36999989       8.83733975E-10
   8.43000031       1.22559840E-09
   8.48999977       1.71975456E-09
   8.55000019       2.31402630E-09
   8.60999966       2.93901059E-09
   8.67000008       3.52491680E-09
   8.72999954       4.01869382E-09
   8.78999996       4.39681891E-09
   8.85000038       4.67003636E-09
   8.90999985       4.87839458E-09
   8.97000027       5.07754949E-09
   9.02999973       5.31989564E-09
   9.09000015       5.63577540E-09
   9.14999962       6.02035088E-09
   9.21000004       6.43044284E-09
   9.27000046       6.79297818E-09
   9.32999992       7.02340008E-09
   9.39000034       7.04931713E-09
   9.44999981       6.83279433E-09
   9.51000023       6.38465147E-09
   9.56999969       5.76600456E-09
   9.63000011       5.07570030E-09
   9.68999958       4.42625003E-09
   9.75000000       3.91430088E-09
   9.81000042       3.59349683E-09
   9.86999989       3.45724982E-09
   9.93000031       3.43642115E-09
   9.98999977       3.41295037E-09
   10.0500002       3.24607830E-09
   10.1099997       2.80434143E-09
   10.1700001       1.99493244E-09
   10.2299995       7.82829246E-10
   10.2900000      -8.04934341E-10
   10.3500004      -2.69023137E-09
   10.4099998      -4.76613549E-09
   10.4700003      -6.92362834E-09
   10.5299997      -9.07490794E-09
   10.5900002      -1.11669758E-08
   10.6499996      -1.31824640E-08
   10.7100000      -1.51287658E-08
   10.7700005      -1.70200831E-08
   10.8299999      -1.88590157E-08
   10.8900003      -2.06241157E-08
   10.9499998      -2.22677308E-08
   11.0100002      -2.37249456E-08
   11.0699997      -2.49308538E-08
   11.1300001      -2.58406558E-08
   11.1899996      -2.64460649E-08
   11.2500000      -2.67825069E-08
   11.3100004      -2.69243507E-08
   11.3699999      -2.69689338E-08
   11.4300003      -2.70136535E-08
   11.4899998      -2.71326552E-08
   11.5500002      -2.73599383E-08
   11.6099997      -2.76840435E-08
   11.6700001      -2.80560926E-08
   11.7299995      -2.84089872E-08
   11.7900000      -2.86820736E-08
   11.8500004      -2.88438287E-08
   11.9099998      -2.89054203E-08
   11.9700003      -2.89206614E-08
   12.0299997      -2.89717956E-08
   12.0900002      -2.91449496E-08
   12.1499996      -2.95023401E-08
   12.2100000      -3.00597272E-08
   12.2700005      -3.07763912E-08
   12.3299999      -3.15616511E-08
   12.3900003      -3.22970841E-08
   12.4499998      -3.28688472E-08
   12.5100002      -3.32009051E-08
   12.5699997      -3.32790684E-08
   12.6300001      -3.31576366E-08
   12.6899996      -3.29451986E-08
   12.7500000      -3.27722738E-08
   12.8100004      -3.27492629E-08
   12.8699999      -3.29269021E-08
   12.9300003      -3.32714123E-08
   12.9899998      -3.36629320E-08
   13.0500002      -3.39192141E-08
   13.1099997      -3.38390329E-08
   13.1700001      -3.32537340E-08
   13.2299995      -3.20724887E-08
   13.2900000      -3.03084242E-08
   13.3500004      -2.80780483E-08
   13.4099998      -2.55740105E-08
   13.4700003      -2.30186323E-08
   13.5299997      -2.06109227E-08
   13.5900002      -1.84812823E-08
   13.6499996      -1.66656058E-08
   13.7100000      -1.51049040E-08
   13.7700005      -1.36694140E-08
   13.8299999      -1.21997017E-08
   13.8900003      -1.05529541E-08
   13.9499998      -8.64174510E-09
   14.0100002      -6.45508758E-09
   14.0699997      -4.05681444E-09
   14.1300001      -1.56269919E-09
   14.1899996       8.96307917E-10
   14.2500000       3.21365401E-09
   14.3100004       5.33785949E-09
   14.3699999       7.28537231E-09
   14.4300003       9.13201514E-09
   14.4899998       1.09858806E-08
   14.5500002       1.29501458E-08
   14.6099997       1.50873678E-08
   14.6700001       1.73964239E-08
   14.7299995       1.98093328E-08
   14.7900000       2.22091163E-08
   14.8500004       2.44631959E-08
   14.9099998       2.64621161E-08
   14.9700003       2.81517014E-08
   15.0299997       2.95489464E-08
   15.0900002       3.07370840E-08
   15.1499996       3.18417221E-08
   15.2100000       3.29956471E-08
   15.2700005       3.43029889E-08
   15.3299999       3.58131338E-08
   15.3900003       3.75113451E-08
   15.4499998       3.93276380E-08
   15.5100002       4.11599750E-08
   15.5699997       4.29038955E-08
   15.6300001       4.44794708E-08
   15.6899996       4.58480400E-08
   15.7500000       4.70149608E-08
   15.8100004       4.80192277E-08
   15.8699999       4.89145897E-08
   15.9300003       4.97490831E-08
   15.9899998       5.05495237E-08
   16.0499992       5.13153324E-08
   16.1100006       5.20226138E-08
   16.1700001       5.26360573E-08
   16.2299995       5.31238378E-08
   16.2900009       5.34703481E-08
   16.3500004       5.36824913E-08
   16.4099998       5.37878329E-08
   16.4699993       5.38255485E-08
   16.5300007       5.38332507E-08
   16.5900002       5.38339293E-08
   16.6499996       5.38270974E-08
   16.7099991       5.37866960E-08
   16.7700005       5.36665539E-08
   16.8299999       5.34118314E-08
   16.8899994       5.29733413E-08
   16.9500008       5.23208570E-08
   17.0100002       5.14517673E-08
   17.0699997       5.03926785E-08
   17.1299992       4.91936802E-08
   17.1900005       4.79168420E-08
   17.2500000       4.66222261E-08
   17.3099995       4.53552857E-08
   17.3700008       4.41388970E-08
   17.4300003       4.29719726E-08
   17.4899998       4.18344221E-08
   17.5499992       4.06966052E-08
   17.6100006       3.95301818E-08
   17.6700001       3.83170971E-08
   17.7299995       3.70543489E-08
   17.7900009       3.57533843E-08
   17.8500004       3.44347875E-08
   17.9099998       3.31200596E-08
   17.9699993       3.18230597E-08
   18.0300007       3.05439549E-08
   18.0900002       2.92676248E-08
   18.1499996       2.79675216E-08
   18.2099991       2.66144724E-08
   18.2700005       2.51883154E-08
   18.3299999       2.36891839E-08
   18.3899994       2.21447678E-08
   18.4500008       2.06105213E-08
   18.5100002       1.91614262E-08
   18.5699997       1.78764576E-08
   18.6299992       1.68192571E-08
   18.6900005       1.60203903E-08
   18.7500000       1.54666626E-08
   18.8099995       1.51013904E-08
   18.8700008       1.48364405E-08
   18.9300003       1.45732324E-08
   18.9899998       1.42268934E-08
   19.0499992       1.37466092E-08
   19.1100006       1.31261944E-08
   19.1700001       1.24019470E-08
   19.2299995       1.16388339E-08
   19.2900009       1.09096856E-08
   19.3500004       1.02741504E-08
   19.4099998       9.76400294E-09
   19.4699993       9.37906997E-09
   19.5300007       9.09440256E-09
   19.5900002       8.87555451E-09
   19.6499996       8.69619576E-09
   19.7099991       8.55155058E-09
   19.7700005       8.46260750E-09
   19.8299999       8.46913828E-09
   19.8899994       8.61331273E-09
   19.9500008       8.91896690E-09
   20.0100002       9.37328526E-09
   20.0699997       9.91726257E-09
   20.1299992       1.04489031E-08
   20.1900005       1.08393996E-08
   20.2500000       1.09585985E-08
   20.3099995       1.07031157E-08
   20.3700008       1.00194066E-08
   20.4300003       8.91530583E-09
   20.4899998       7.45673034E-09
   20.5499992       5.75041570E-09
   20.6100006       3.91767241E-09
   20.6700001       2.06673967E-09
   20.7299995       2.71720202E-10
   20.7900009      -1.43603995E-09
   20.8500004      -3.06226533E-09
   20.9099998      -4.63262584E-09
   20.9699993      -6.17091800E-09
   21.0300007      -7.68098474E-09
   21.0900002      -9.13958331E-09
   21.1499996      -1.05035616E-08
   21.2099991      -1.17294450E-08
   21.2700005      -1.27987621E-08
   21.3299999      -1.37398040E-08
   21.3899994      -1.46371884E-08
   21.4500008      -1.56243765E-08
   21.5100002      -1.68599072E-08
   21.5699997      -1.84936599E-08
   21.6299992      -2.06328181E-08
   21.6900005      -2.33175275E-08
   21.7500000      -2.65131170E-08
   21.8099995      -3.01207805E-08
   21.8700008      -3.40030439E-08
   21.9300003      -3.80164771E-08
   21.9899998      -4.20424904E-08
   22.0499992      -4.60083101E-08
   22.1100006      -4.98936359E-08
   22.1700001      -5.37225162E-08
   22.2299995      -5.75439962E-08
   22.2900009      -6.14076683E-08
   22.3500004      -6.53410481E-08
   22.4099998      -6.93348738E-08
   22.4699993      -7.33398906E-08
   22.5300007      -7.72756579E-08
   22.5900002      -8.10487251E-08
   22.6499996      -8.45750705E-08
   22.7099991      -8.78003945E-08
   22.7700005      -9.07125894E-08
   22.8299999      -9.33426278E-08
   22.8899994      -9.57533288E-08
   22.9500008      -9.80190222E-08
   23.0100002      -1.00201554E-07
   23.0699997      -1.02329636E-07
   23.1299992      -1.04387432E-07
   23.1900005      -1.06315788E-07
   23.2500000      -1.08025802E-07
   23.3099995      -1.09421059E-07
   23.3700008      -1.10421759E-07
   23.4300003      -1.10984232E-07
   23.4899998      -1.11110197E-07
   23.5499992      -1.10843708E-07
   23.6100006      -1.10257268E-07
   23.6700001      -1.09431681E-07
   23.7299995      -1.08435636E-07
   23.7900009      -1.07310690E-07
   23.8500004      -1.06065151E-07
   23.9099998      -1.04677625E-07
   23.9699993      -1.03108228E-07
   24.0300007      -1.01313816E-07
   24.0900002      -9.92628131E-08
   24.1499996      -9.69460956E-08
   24.2099991      -9.43813845E-08
   24.2700005      -9.16104383E-08
   24.3299999      -8.86900295E-08
   24.3899994      -8.56790834E-08
   24.4500008      -8.26254762E-08
   24.5100002      -7.95561519E-08
   24.5699997      -7.64739667E-08
   24.6299992      -7.33624574E-08
   24.6900005      -7.01979275E-08
   24.7500000      -6.69651214E-08
   24.8099995      -6.36716280E-08
   24.8700008      -6.03556600E-08
   24.9300003      -5.70840051E-08
   24.9899998      -5.39398748E-08
   25.0499992      -5.10040934E-08
   25.1100006      -4.83354441E-08
   25.1700001      -4.59564440E-08
   25.2299995      -4.38491448E-08
   25.2900009      -4.19621244E-08
   25.3500004      -4.02262863E-08
   25.4099998      -3.85742958E-08
   25.4699993      -3.69576938E-08
   25.5300007      -3.53570044E-08
   25.5900002      -3.37825554E-08
   25.6499996      -3.22668434E-08
   25.7099991      -3.08516306E-08
   25.7700005      -2.95741494E-08
   25.8299999      -2.84565189E-08
   25.8899994      -2.75011960E-08
   25.9500008      -2.66931721E-08
   26.0100002      -2.60076209E-08
   26.0699997      -2.54201051E-08
   26.1299992      -2.49157424E-08
   26.1900005      -2.44941845E-08
   26.2500000      -2.41686458E-08
   26.3099995      -2.39593341E-08
   26.3700008      -2.38836009E-08
   26.4300003      -2.39464377E-08
   26.4899998      -2.41349269E-08
   26.5499992      -2.44188705E-08
   26.6100006      -2.47576466E-08
   26.6700001      -2.51110084E-08
   26.7299995      -2.54502179E-08
   26.7900009      -2.57657806E-08
   26.8500004      -2.60694364E-08
   26.9099998      -2.63900564E-08
   26.9699993      -2.67650648E-08
   27.0300007      -2.72301204E-08
   27.0900002      -2.78098469E-08
   27.1499996      -2.85116322E-08
   27.2099991      -2.93233278E-08
   27.2700005      -3.02147498E-08
   27.3299999      -3.11423491E-08
   27.3899994      -3.20561924E-08
   27.4500008      -3.29082290E-08
   27.5100002      -3.36605872E-08
   27.5699997      -3.42922668E-08
   27.6299992      -3.48023370E-08
   27.6900005      -3.52082772E-08
   27.7500000      -3.55390419E-08
   27.8099995      -3.58240655E-08
   27.8700008      -3.60810120E-08
   27.9300003      -3.63058668E-08
   27.9899998      -3.64685526E-08
   28.0499992      -3.65157860E-08
   28.1100006      -3.63804737E-08
   28.1700001      -3.59948586E-08
   28.2299995      -3.53033052E-08
   28.2900009      -3.42710429E-08
   28.3500004      -3.28865504E-08
   28.4099998      -3.11578496E-08
   28.4699993      -2.91049105E-08
   28.5300007      -2.67515006E-08
   28.5900002      -2.41194957E-08
   28.6499996      -2.12271232E-08
   28.7099991      -1.80907573E-08
   28.7700005      -1.47283394E-08
   28.8299999      -1.11622533E-08
   28.8899994      -7.42011697E-09
   28.9500008      -3.53348084E-09
   29.0100002       4.64373123E-10
   29.0699997       4.53987870E-09
   29.1299992       8.65881145E-09
   29.1900005       1.27842954E-08
   29.2500000       1.68746084E-08
   29.3099995       2.08826005E-08
   29.3700008       2.47579326E-08
   29.4300003       2.84519501E-08
   29.4899998       3.19236051E-08
   29.5499992       3.51442004E-08
   29.6100006       3.80991594E-08
   29.6700001       4.07863574E-08
   29.7299995       4.32120721E-08
   29.7900009       4.53863862E-08
   29.8500004       4.73196557E-08
   29.9099998       4.90206595E-08
   29.9699993       5.04955544E-08
   30.0300007       5.17464009E-08
   30.0900002       5.27683035E-08
   30.1499996       5.35457119E-08
   30.2099991       5.40499130E-08
   30.2700005       5.42401821E-08
   30.3299999       5.40704228E-08
   30.3899994       5.35007523E-08
   30.4500008       5.25111048E-08
   30.5100002       5.11123339E-08
   30.5699997       4.93502483E-08
   30.6299992       4.73002899E-08
   30.6900005       4.50537243E-08
   30.7500000       4.26991846E-08
   30.8099995       4.03053306E-08
   30.8700008       3.79098104E-08
   30.9300003       3.55175800E-08
   30.9899998       3.31085985E-08
   31.0499992       3.06520143E-08
   31.1100006       2.81226011E-08
   31.1700001       2.55148471E-08
   31.2299995       2.28514416E-08
   31.2900009       2.01843804E-08
   31.3500004       1.75887038E-08
   31.4099998       1.51501922E-08
   31.4699993       1.29494611E-08
   31.5300007       1.10456275E-08
   31.5900002       9.46312984E-09
   31.6499996       8.18510504E-09
   31.7099991       7.15555259E-09
   31.7700005       6.29057428E-09
   31.8299999       5.49650014E-09
   31.8899994       4.69051509E-09
   31.9500008       3.81837539E-09
   32.0099983       2.86438273E-09
   32.0699997       1.85095383E-09
   32.1300011       8.28160984E-10
   32.1899986      -1.43583631E-10
   32.2500000      -1.01280118E-09
   32.3100014      -1.75316384E-09
   32.3699989      -2.37291653E-09
   32.4300003      -2.91580604E-09
   32.4900017      -3.45383588E-09
   32.5499992      -4.07372758E-09
   32.6100006      -4.85985208E-09
   32.6699982      -5.87682258E-09
   32.7299995      -7.15502280E-09
   32.7900009      -8.68223893E-09
   32.8499985      -1.04038369E-08
   32.9099998      -1.22325465E-08
   32.9700012      -1.40667167E-08
   33.0299988      -1.58134075E-08
   33.0900002      -1.74106756E-08
   33.1500015      -1.88428491E-08
   33.2099991      -2.01440109E-08
   33.2700005      -2.13880718E-08
   33.3300018      -2.26679280E-08
   33.3899994      -2.40695925E-08
   33.4500008      -2.56488928E-08
   33.5099983      -2.74173519E-08
   33.5699997      -2.93408853E-08
   33.6300011      -3.13509254E-08
   33.6899986      -3.33638042E-08
   33.7500000      -3.53024845E-08
   33.8100014      -3.71146243E-08
   33.8699989      -3.87831207E-08
   33.9300003      -4.03276346E-08
   33.9900017      -4.17984189E-08
   34.0499992      -4.32649081E-08
   34.1100006      -4.48022028E-08
   34.1699982      -4.64781316E-08
   34.2299995      -4.83428479E-08
   34.2900009      -5.04224325E-08
   34.3499985      -5.27172155E-08
   34.4099998      -5.52048967E-08
   34.4700012      -5.78476609E-08
   34.5299988      -6.06013160E-08
   34.5900002      -6.34237267E-08
   34.6500015      -6.62798172E-08
   34.7099991      -6.91414215E-08
   34.7700005      -7.19822566E-08
   34.8300018      -7.47703837E-08
   34.8899994      -7.74616353E-08
   34.9500008      -7.99975339E-08
   35.0099983      -8.23091568E-08
   35.0699997      -8.43257126E-08
   35.1300011      -8.59844960E-08
   35.1899986      -8.72376447E-08
   35.2500000      -8.80529356E-08
   35.3100014      -8.84080222E-08
   35.3699989      -8.82811335E-08
   35.4300003      -8.76429809E-08
   35.4900017      -8.64542642E-08
   35.5499992      -8.46711643E-08
   35.6100006      -8.22574293E-08
   35.6699982      -7.91990189E-08
   35.7299995      -7.55162048E-08
   35.7900009      -7.12688575E-08
   35.8499985      -6.65535467E-08
   35.9099998      -6.14938713E-08
   35.9700012      -5.62271438E-08
   36.0299988      -5.08911633E-08
   36.0900002      -4.56133158E-08
   36.1500015      -4.05031102E-08
   36.2099991      -3.56478864E-08
   36.2700005      -3.11114263E-08
   36.3300018      -2.69354725E-08
   36.3899994      -2.31443522E-08
   36.4500008      -1.97524930E-08
   36.5099983      -1.67733312E-08
   36.5699997      -1.42269094E-08
   36.6300011      -1.21429835E-08
   36.6899986      -1.05575495E-08
   36.7500000      -9.50308365E-09
   36.8100014      -8.99554653E-09
   36.8699989      -9.02296904E-09
   36.9300003      -9.54020862E-09
   36.9900017      -1.04721742E-08
   37.0499992      -1.17243539E-08
   37.1100006      -1.31965008E-08
   37.1699982      -1.47942893E-08
   37.2299995      -1.64350826E-08
   37.2900009      -1.80471673E-08
   37.3499985      -1.95651886E-08
   37.4099998      -2.09264197E-08
   37.4700012      -2.20719922E-08
   37.5299988      -2.29543105E-08
   37.5900002      -2.35481696E-08
   37.6500015      -2.38603661E-08
   37.7099991      -2.39321594E-08
   37.7700005      -2.38313618E-08
   37.8300018      -2.36350157E-08
   37.8899994      -2.34076545E-08
   37.9500008      -2.31825741E-08
   38.0099983      -2.29527295E-08
   38.0699997      -2.26747670E-08
   38.1300011      -2.22849756E-08
   38.1899986      -2.17219025E-08
   38.2500000      -2.09482334E-08
   38.3100014      -1.99651549E-08
   38.3699989      -1.88150562E-08
   38.4300003      -1.75723045E-08
   38.4900017      -1.63252238E-08
   38.5499992      -1.51546686E-08
   38.6100006      -1.41150824E-08
   38.6699982      -1.32229712E-08
   38.7299995      -1.24557324E-08
   38.7900009      -1.17612711E-08
   38.8499985      -1.10761675E-08
   38.9099998      -1.03478932E-08
   38.9700012      -9.55508561E-09
   39.0299988      -8.71975914E-09
   39.0900002      -7.90696308E-09
   39.1500015      -7.21069338E-09
   39.2099991      -6.72916523E-09
   39.2700005      -6.53642163E-09
   39.3300018      -6.65934241E-09
   39.3899994      -7.06814252E-09
   39.4500008      -7.68451525E-09
   39.5099983      -8.40573122E-09
   39.5699997      -9.13728737E-09
   39.6300011      -9.82336790E-09
   39.6899986      -1.04648077E-08
   39.7500000      -1.11183898E-08
   39.8100014      -1.18778480E-08
   39.8699989      -1.28431772E-08
   39.9300003      -1.40886618E-08
   39.9900017      -1.56399658E-08
   40.0499992      -1.74668351E-08
   40.1100006      -1.94922762E-08
   40.1699982      -2.16136247E-08
   40.2299995      -2.37277398E-08
   40.2900009      -2.57524615E-08
   40.3499985      -2.76391301E-08
   40.4099998      -2.93746449E-08
   40.4700012      -3.09748636E-08
   40.5299988      -3.24730820E-08
   40.5900002      -3.39074013E-08
   40.6500015      -3.53098599E-08
   40.7099991      -3.66991344E-08
   40.7700005      -3.80774630E-08
   40.8300018      -3.94319706E-08
   40.8899994      -4.07399554E-08
   40.9500008      -4.19768789E-08
   41.0099983      -4.31248566E-08
   41.0699997      -4.41788437E-08
   41.1300011      -4.51481519E-08
   41.1899986      -4.60521861E-08
   41.2500000      -4.69118433E-08
   41.3100014      -4.77398103E-08
   41.3699989      -4.85338916E-08
   41.4300003      -4.92765722E-08
   41.4900017      -4.99412884E-08
   41.5499992      -5.05030826E-08
   41.6100006      -5.09492040E-08
   41.6699982      -5.12851130E-08
   41.7299995      -5.15333767E-08
   41.7900009      -5.17259089E-08
   41.8499985      -5.18928935E-08
   41.9099998      -5.20528758E-08
   41.9700012      -5.22078452E-08
   42.0299988      -5.23446708E-08
   42.0900002      -5.24416670E-08
   42.1500015      -5.24771657E-08
   42.2099991      -5.24367891E-08
   42.2700005      -5.23172083E-08
   42.3300018      -5.21262820E-08
   42.3899994      -5.18808143E-08
   42.4500008      -5.16037879E-08
   42.5099983      -5.13224450E-08
   42.5699997      -5.10671221E-08
   42.6300011      -5.08700211E-08
   42.6899986      -5.07626154E-08
   42.7500000      -5.07710460E-08
   42.8100014      -5.09101383E-08
   42.8699989      -5.11775298E-08
   42.9300003      -5.15499075E-08
   42.9900017      -5.19829833E-08
   43.0499992      -5.24156931E-08
   43.1100006      -5.27779243E-08
   43.1699982      -5.30001891E-08
   43.2299995      -5.30232995E-08
   43.2900009      -5.28063389E-08
   43.3499985      -5.23317283E-08
   43.4099998      -5.16068148E-08
   43.4700012      -5.06619493E-08
   43.5299988      -4.95454486E-08
   43.5900002      -4.83161884E-08
   43.6500015      -4.70350088E-08
   43.7099991      -4.57564333E-08
   43.7700005      -4.45223272E-08
   43.8300018      -4.33587921E-08
   43.8899994      -4.22770121E-08
   43.9500008      -4.12777794E-08
   44.0099983      -4.03584757E-08
   44.0699997      -3.95206747E-08
   44.1300011      -3.87763421E-08
   44.1899986      -3.81509047E-08
   44.2500000      -3.76821134E-08
   44.3100014      -3.74145657E-08
   44.3699989      -3.73906808E-08
   44.4300003      -3.76398184E-08
   44.4900017      -3.81680998E-08
   44.5499992      -3.89517609E-08
   44.6100006      -3.99367224E-08
   44.6699982      -4.10459329E-08
   44.7299995      -4.21940847E-08
   44.7900009      -4.33069509E-08
   44.8499985      -4.43403962E-08
   44.9099998      -4.52933691E-08
   44.9700012      -4.62099656E-08
   45.0299988      -4.71685730E-08
   45.0900002      -4.82600093E-08
   45.1500015      -4.95604731E-08
   45.2099991      -5.11072713E-08
   45.2700005      -5.28850741E-08
   45.3300018      -5.48272929E-08
   45.3899994      -5.68325724E-08
   45.4500008      -5.87914464E-08
   45.5099983      -6.06150650E-08
   45.5699997      -6.22574206E-08
   45.6300011      -6.37250537E-08
   45.6899986      -6.50723706E-08
   45.7500000      -6.63854820E-08
   45.8100014      -6.77604177E-08
   45.8699989      -6.92825992E-08
   45.9300003      -7.10128489E-08
   45.9900017      -7.29823668E-08
   46.0499992      -7.51960840E-08
   46.1100006      -7.76417366E-08
   46.1699982      -8.03011346E-08
   46.2299995      -8.31609483E-08
   46.2900009      -8.62209859E-08
   46.3499985      -8.94990677E-08
   46.4099998      -9.30325754E-08
   46.4700012      -9.68767537E-08
   46.5299988      -1.01101023E-07
   46.5900002      -1.05785126E-07
   46.6500015      -1.11017521E-07
   46.7099991      -1.16898583E-07
   46.7700005      -1.23549754E-07
   46.8300018      -1.31127635E-07
   46.8899994      -1.39839841E-07
   46.9500008      -1.49957614E-07
   47.0099983      -1.61821347E-07
   47.0699997      -1.75837542E-07
   47.1300011      -1.92469358E-07
   47.1899986      -2.12226794E-07
   47.2500000      -2.35663180E-07
   47.3100014      -2.63382645E-07
   47.3699989      -2.96059341E-07
   47.4300003      -3.34464090E-07
   47.4900017      -3.79491325E-07
   47.5499992      -4.32178553E-07
   47.6100006      -4.93715163E-07
   47.6699982      -5.65442349E-07
   47.7299995      -6.48849493E-07
   47.7900009      -7.45576358E-07
   47.8499985      -8.57428176E-07
   47.9099998      -9.86403961E-07
   47.9700012      -1.13473743E-06
   48.0299988      -1.30494186E-06
   48.0900002      -1.49984942E-06
   48.1500015      -1.72264038E-06
   48.2099991      -1.97685904E-06
   48.2700005      -2.26641941E-06
   48.3300018      -2.59560557E-06
   48.3899994      -2.96907433E-06
   48.4500008      -3.39187022E-06
   48.5099983      -3.86944612E-06
   48.5699997      -4.40770282E-06
   48.6300011      -5.01302839E-06
   48.6899986      -5.69235226E-06
   48.7500000      -6.45318414E-06
   48.8100014      -7.30364764E-06
   48.8699989      -8.25249481E-06
   48.9300003      -9.30910301E-06
   48.9900017      -1.04834544E-05
   49.0499992      -1.17860991E-05
   49.1100006      -1.32281311E-05
   49.1699982      -1.48211520E-05
   49.2299995      -1.65772508E-05
   49.2900009      -1.85090103E-05
   49.3499985      -2.06294953E-05
   49.4099998      -2.29522593E-05
   49.4700012      -2.54913248E-05
   49.5299988      -2.82611309E-05
   49.5900002      -3.12764641E-05
   49.6500015      -3.45523440E-05
   49.7099991      -3.81039426E-05
   49.7700005      -4.19464086E-05
   49.8300018      -4.60948031E-05
   49.8899994      -5.05639655E-05
   49.9500008      -5.53684222E-05
   50.0099983      -6.05223067E-05
   50.0699997      -6.60392252E-05
   50.1300011      -7.19321688E-05
   50.1899986      -7.82133429E-05
   50.2500000      -8.48940108E-05
   50.3100014      -9.19842787E-05
   50.3699989      -9.94929942E-05
   50.4300003      -1.07427484E-04
   50.4900017      -1.15793446E-04
   50.5499992      -1.24594808E-04
   50.6100006      -1.33833601E-04