 -0.750000000       0.00000000    
 -0.689999998       0.00000000    
 -0.629999995       0.00000000    
 -0.569999993       0.00000000    
 -0.509999990       0.00000000    
 -0.449999988       0.00000000    
 -0.389999986       0.00000000    
 -0.330000013       0.00000000    
 -0.270000011      -7.56233125E-26
 -0.209999993      -4.61528151E-25
 -0.150000006       1.34223142E-25
  -9.00000036E-02   1.30385250E-23
  -2.99999993E-02   7.70011042E-23
   2.99999993E-02   2.62179979E-22
   9.00000036E-02   5.94938548E-22
  0.150000006       8.31597931E-22
  0.209999993       1.41050665E-22
  0.270000011      -2.94685840E-21
  0.330000013      -9.71922114E-21
  0.389999986      -1.92216369E-20
  0.449999988      -2.56720835E-20
  0.509999990      -1.75762196E-20
  0.569999993       1.85699366E-20
  0.629999995       8.88386743E-20
  0.689999998       1.79866779E-19
  0.750000000       2.52116017E-19
  0.810000002       2.47204968E-19
  0.870000005       1.12574512E-19
  0.930000007      -1.64009934E-19
  0.990000010      -5.27795670E-19
   1.04999995      -8.58616733E-19
   1.11000001      -1.01294615E-18
   1.16999996      -9.01129112E-19
   1.23000002      -5.71464292E-19
   1.28999996      -2.48572711E-19
   1.35000002      -2.57493363E-19
   1.40999997      -7.80299893E-19
   1.47000003      -1.47271402E-18
   1.52999997      -1.12805712E-18
   1.59000003       2.24397081E-18
   1.64999998       1.05153276E-17
   1.71000004       2.36046146E-17
   1.76999998       3.73072585E-17
   1.83000004       4.22514328E-17
   1.88999999       2.58312706E-17
   1.95000005      -2.18304693E-17
   2.00999999      -9.90777747E-17
   2.06999993      -1.85181969E-16
   2.13000011      -2.39978357E-16
   2.19000006      -2.15262677E-16
   2.25000000      -7.72863500E-17
   2.30999994       1.67791734E-16
   2.36999989       4.59256658E-16
   2.43000007       6.90873900E-16
   2.49000001       7.47053784E-16
   2.54999995       5.54576029E-16
   2.60999990       1.25596920E-16
   2.67000008      -4.33713771E-16
   2.73000002      -9.60210949E-16
   2.78999996      -1.30255488E-15
   2.84999990      -1.38530915E-15
   2.91000009      -1.22807760E-15
   2.97000003      -9.02065207E-16
   3.02999997      -4.47619484E-16
   3.08999991       1.87356396E-16
   3.15000010       1.12425921E-15
   3.21000004       2.42439634E-15
   3.26999998       3.90697039E-15
   3.32999992       5.03495569E-15
   3.39000010       4.99812712E-15
   3.45000005       3.04488122E-15
   3.50999999      -1.03002796E-15
   3.56999993      -6.47595313E-15
   3.63000011      -1.15354419E-14
   3.69000006      -1.39228584E-14
   3.75000000      -1.17556687E-14
   3.80999994      -4.58334186E-15
   3.86999989       5.99417858E-15
   3.93000007       1.65345880E-14
   3.99000001       2.28650632E-14
   4.05000019       2.17307675E-14
   4.11000013       1.22923530E-14
   4.17000008      -3.22010735E-15
   4.23000002      -2.00432796E-14
   4.28999996      -3.24201894E-14
   4.34999990      -3.55186766E-14
   4.40999985      -2.69957938E-14
   4.46999979      -7.73326173E-15
   4.53000021       1.83005127E-14
   4.59000015       4.47998877E-14
   4.65000010       6.42232239E-14
   4.71000004       6.92182382E-14
   4.76999998       5.45027585E-14
   4.82999992       1.91223075E-14
   4.88999987      -3.15763684E-14
   4.94999981      -8.54823075E-14
   5.01000023      -1.25954436E-13
   5.07000017      -1.36952041E-13
   5.13000011      -1.09601340E-13
   5.19000006      -4.73232768E-14
   5.25000000       3.34493616E-14
   5.30999994       1.08233579E-13
   5.36999989       1.53519138E-13
   5.42999983       1.55763111E-13
   5.48999977       1.15886264E-13
   5.55000019       4.71419338E-14
   5.61000013      -3.18237326E-14
   5.67000008      -1.03767831E-13
   5.73000002      -1.54586074E-13
   5.78999996      -1.68860816E-13
   5.84999990      -1.23687369E-13
   5.90999985       1.10690943E-14
   5.96999979       2.59476360E-13
   6.03000021       6.13917933E-13
   6.09000015       1.00780766E-12
   6.15000010       1.30410689E-12
   6.21000004       1.31557677E-12
   6.26999998       8.61368539E-13
   6.32999992      -1.52704441E-13
   6.38999987      -1.65829188E-12
   6.44999981      -3.38653368E-12
   6.51000023      -4.89287170E-12
   6.57000017      -5.64894919E-12
   6.63000011      -5.18133409E-12
   6.69000006      -3.21806861E-12
   6.75000000       2.01106140E-13
   6.80999994       4.68462248E-12
   6.86999989       9.53090818E-12
   6.92999983       1.38387166E-11
   6.98999977       1.66526012E-11
   7.05000019       1.71020819E-11
   7.11000013       1.44990955E-11
   7.17000008       8.37625629E-12
   7.23000002      -1.52761777E-12
   7.28999996      -1.53063551E-11
   7.34999990      -3.29103585E-11
   7.40999985      -5.41221547E-11
   7.46999979      -7.84733251E-11
   7.53000021      -1.05126935E-10
   7.59000015      -1.32780870E-10
   7.65000010      -1.59660687E-10
   7.71000004      -1.83654439E-10
   7.76999998      -2.02597661E-10
   7.82999992      -2.14657875E-10
   7.88999987      -2.18720583E-10
   7.94999981      -2.14664828E-10
   8.01000023      -2.03446496E-10
   8.06999969      -1.86974325E-10
   8.13000011      -1.67836245E-10
   8.18999958      -1.48982576E-10
   8.25000000      -1.33469763E-10
   8.31000042      -1.24318042E-10
   8.36999989      -1.24458249E-10
   8.43000031      -1.36679765E-10
   8.48999977      -1.63475330E-10
   8.55000019      -2.06722903E-10
   8.60999966      -2.67233125E-10
   8.67000008      -3.44283740E-10
   8.72999954      -4.35316949E-10
   8.78999996      -5.35961053E-10
   8.85000038      -6.40456965E-10
   8.90999985      -7.42446049E-10
   8.97000027      -8.35959524E-10
   9.02999973      -9.16375364E-10
   9.09000015      -9.81106640E-10
   9.14999962      -1.02985431E-09
   9.21000004      -1.06437104E-09
   9.27000046      -1.08781339E-09
   9.32999992      -1.10385934E-09
   9.39000034      -1.11582255E-09
   9.44999981      -1.12598020E-09
   9.51000023      -1.13526744E-09
   9.56999969      -1.14337739E-09
   9.63000011      -1.14920451E-09
   9.68999958      -1.15146359E-09
   9.75000000      -1.14929188E-09
   9.81000042      -1.14264953E-09
   9.86999989      -1.13241627E-09
   9.93000031      -1.12018539E-09
   9.98999977      -1.10785892E-09
   10.0500002      -1.09720988E-09
   10.1099997      -1.08957077E-09
   10.1700001      -1.08574316E-09
   10.2299995      -1.08611542E-09
   10.2900000      -1.09088427E-09
   10.3500004      -1.10023712E-09
   10.4099998      -1.11439091E-09
   10.4700003      -1.13347698E-09
   10.5299997      -1.15736676E-09
   10.5900002      -1.18558241E-09
   10.6499996      -1.21740262E-09
   10.7100000      -1.25216770E-09
   10.7700005      -1.28965949E-09
   10.8299999      -1.33036504E-09
   10.8900003      -1.37546274E-09
   10.9499998      -1.42649093E-09
   11.0100002      -1.48482093E-09
   11.0699997      -1.55115853E-09
   11.1300001      -1.62529779E-09
   11.1899996      -1.70623915E-09
   11.2500000      -1.79261461E-09
   11.3100004      -1.88322380E-09
   11.3699999      -1.97743999E-09
   11.4300003      -2.07530459E-09
   11.4899998      -2.17727214E-09
   11.5500002      -2.28371255E-09
   11.6099997      -2.39436804E-09
   11.6700001      -2.50798138E-09
   11.7299995      -2.62224065E-09
   11.7900000      -2.73407563E-09
   11.8500004      -2.84021917E-09
   11.9099998      -2.93785418E-09
   11.9700003      -3.02513659E-09
   12.0299997      -3.10141135E-09
   12.0900002      -3.16703064E-09
   12.1499996      -3.22280980E-09
   12.2100000      -3.26926308E-09
   12.2700005      -3.30583005E-09
   12.3299999      -3.33027028E-09
   12.3900003      -3.33834338E-09
   12.4499998      -3.32379235E-09
   12.5100002      -3.27860539E-09
   12.5699997      -3.19355453E-09
   12.6300001      -3.05908721E-09
   12.6899996      -2.86671176E-09
   12.7500000      -2.61100697E-09
   12.8100004      -2.29225861E-09
   12.8699999      -1.91947480E-09
   12.9300003      -1.51328117E-09
   12.9899998      -1.10798859E-09
   13.0500002      -7.52112539E-10
   13.1099997      -5.06791664E-10
   13.1700001      -4.41914588E-10
   13.2299995      -6.30197727E-10
   13.2900000      -1.13987098E-09
   13.3500004      -2.02690642E-09
   13.4099998      -3.32781402E-09
   13.4700003      -5.05393327E-09
   13.5299997      -7.18791426E-09
   13.5900002      -9.68279590E-09
   13.6499996      -1.24638113E-08
   13.7100000      -1.54328248E-08
   13.7700005      -1.84750792E-08
   13.8299999      -2.14677964E-08
   13.8900003      -2.42899159E-08
   13.9499998      -2.68320850E-08
   14.0100002      -2.90058590E-08
   14.0699997      -3.07510319E-08
   14.1300001      -3.20401448E-08
   14.1899996      -3.28795196E-08
   14.2500000      -3.33066623E-08
   14.3100004      -3.33842252E-08
   14.3699999      -3.31913341E-08
   14.4300003      -3.28132188E-08
   14.4899998      -3.23304725E-08
   14.5500002      -3.18092042E-08
   14.6099997      -3.12931512E-08
   14.6700001      -3.07988515E-08
   14.7299995      -3.03143501E-08
   14.7900000      -2.98018765E-08
   14.8500004      -2.92042781E-08
   14.9099998      -2.84547692E-08
   14.9700003      -2.74888698E-08
   15.0299997      -2.62569610E-08
   15.0900002      -2.47354990E-08
   15.1499996      -2.29347084E-08
   15.2100000      -2.09010569E-08
   15.2700005      -1.87136049E-08
   15.3299999      -1.64746208E-08
   15.3900003      -1.42961785E-08
   15.4499998      -1.22852750E-08
   15.5100002      -1.05303499E-08
   15.5699997      -9.09149112E-09
   15.6300001      -7.99566013E-09
   15.6899996      -7.23704074E-09
   15.7500000      -6.78163481E-09
   15.8100004      -6.57464305E-09
   15.8699999      -6.54898358E-09
   15.9300003      -6.63353905E-09
   15.9899998      -6.76011735E-09
   16.0499992      -6.86869805E-09
   16.1100006      -6.91104951E-09
   16.1700001      -6.85323975E-09
   16.2299995      -6.67761224E-09
   16.2900009      -6.38447917E-09
   16.3500004      -5.99318772E-09
   16.4099998      -5.54157564E-09
   16.4699993      -5.08266274E-09
   16.5300007      -4.67789718E-09
   16.5900002      -4.38739312E-09
   16.6499996      -4.25892521E-09
   16.7099991      -4.31837277E-09
   16.7700005      -4.56433602E-09
   16.8299999      -4.96866503E-09
   16.8899994      -5.48296564E-09
   16.9500008      -6.04943207E-09
   17.0100002      -6.61319577E-09
   17.0699997      -7.13316917E-09
   17.1299992      -7.58900764E-09
   17.1900005      -7.98301691E-09
   17.2500000      -8.33717184E-09
   17.3099995      -8.68645245E-09
   17.3700008      -9.07040665E-09
   17.4300003      -9.52497636E-09
   17.4899998      -1.00763637E-08
   17.5499992      -1.07380416E-08
   17.6100006      -1.15111511E-08
   17.6700001      -1.23876038E-08
   17.7299995      -1.33545370E-08
   17.7900009      -1.43985162E-08
   17.8500004      -1.55080873E-08
   17.9099998      -1.66739618E-08
   17.9699993      -1.78868973E-08
   18.0300007      -1.91342320E-08
   18.0900002      -2.03965023E-08
   18.1499996      -2.16458069E-08
   18.2099991      -2.28472388E-08
   18.2700005      -2.39639224E-08
   18.3299999      -2.49649563E-08
   18.3899994      -2.58343178E-08
   18.4500008      -2.65779079E-08
   18.5100002      -2.72258447E-08
   18.5699997      -2.78281291E-08
   18.6299992      -2.84438020E-08
   18.6900005      -2.91258750E-08
   18.7500000      -2.99061078E-08
   18.8099995      -3.07840828E-08
   18.8700008      -3.17240669E-08
   18.9300003      -3.26608323E-08
   18.9899998      -3.35129542E-08
   19.0499992      -3.41998962E-08
   19.1100006      -3.46581572E-08
   19.1700001      -3.48521993E-08
   19.2299995      -3.47776421E-08
   19.2900009      -3.44566971E-08
   19.3500004      -3.39282202E-08
   19.4099998      -3.32363186E-08
   19.4699993      -3.24217631E-08
   19.5300007      -3.15188444E-08
   19.5900002      -3.05581587E-08
   19.6499996      -2.95729237E-08
   19.7099991      -2.86048412E-08
   19.7700005      -2.77054983E-08
   19.8299999      -2.69311222E-08
   19.8899994      -2.63313975E-08
   19.9500008      -2.59358881E-08
   20.0100002      -2.57429473E-08
   20.0699997      -2.57154777E-08
   20.1299992      -2.57856119E-08
   20.1900005      -2.58674948E-08
   20.2500000      -2.58747654E-08
   20.3099995      -2.57381441E-08
   20.3700008      -2.54187960E-08
   20.4300003      -2.49144545E-08
   20.4899998      -2.42572682E-08
   20.5499992      -2.35041782E-08
   20.6100006      -2.27223254E-08
   20.6700001      -2.19730119E-08
   20.7299995      -2.12980424E-08
   20.7900009      -2.07117061E-08
   20.8500004      -2.02000781E-08
   20.9099998      -1.97274250E-08
   20.9699993      -1.92474019E-08
   21.0300007      -1.87157543E-08
   21.0900002      -1.81012219E-08
   21.1499996      -1.73924253E-08
   21.2099991      -1.66001204E-08
   21.2700005      -1.57553419E-08
   21.3299999      -1.49045523E-08
   21.3899994      -1.41027874E-08
   21.4500008      -1.34055407E-08
   21.5100002      -1.28600934E-08
   21.5699997      -1.24974591E-08
   21.6299992      -1.23265362E-08
   21.6900005      -1.23321477E-08
   21.7500000      -1.24778889E-08
   21.8099995      -1.27133495E-08
   21.8700008      -1.29836941E-08
   21.9300003      -1.32387283E-08
   21.9899998      -1.34386502E-08
   22.0499992      -1.35549918E-08
   22.1100006      -1.35671216E-08
   22.1700001      -1.34564733E-08
   22.2299995      -1.32016869E-08
   22.2900009      -1.27775959E-08
   22.3500004      -1.21596404E-08
   22.4099998      -1.13330900E-08
   22.4699993      -1.03042179E-08
   22.5300007      -9.10921916E-09
   22.5900002      -7.81661313E-09
   22.6499996      -6.52055476E-09
   22.7099991      -5.32538769E-09
   22.7700005      -4.32493108E-09
   22.8299999      -3.58227337E-09
   22.8899994      -3.11629367E-09
   22.9500008      -2.89941338E-09
   23.0100002      -2.86777890E-09
   23.0699997      -2.94128233E-09
   23.1299992      -3.04782466E-09
   23.1900005      -3.14496895E-09
   23.2500000      -3.23289084E-09
   23.3099995      -3.35498140E-09
   23.3700008      -3.58582897E-09
   23.4300003      -4.00970324E-09
   23.4899998      -4.69528816E-09
   23.5499992      -5.67360914E-09
   23.6100006      -6.92553748E-09
   23.6700001      -8.38288283E-09
   23.7299995      -9.94341764E-09
   23.7900009      -1.14960841E-08
   23.8500004      -1.29493953E-08
   23.9099998      -1.42548124E-08
   23.9699993      -1.54181592E-08
   24.0300007      -1.64957310E-08
   24.0900002      -1.75764239E-08
   24.1499996      -1.87555909E-08
   24.2099991      -2.01085815E-08
   24.2700005      -2.16719318E-08
   24.3299999      -2.34372450E-08
   24.3899994      -2.53588119E-08
   24.4500008      -2.73714829E-08
   24.5100002      -2.94123108E-08
   24.5699997      -3.14384963E-08
   24.6299992      -3.34355974E-08
   24.6900005      -3.54135103E-08
   24.7500000      -3.73917999E-08
   24.8099995      -3.93799056E-08
   24.8700008      -4.13596162E-08
   24.9300003      -4.32767244E-08
   24.9899998      -4.50458657E-08
   25.0499992      -4.65681040E-08
   25.1100006      -4.77563447E-08
   25.1700001      -4.85607359E-08
   25.2299995      -4.89856831E-08
   25.2900009      -4.90923142E-08
   25.3500004      -4.89845142E-08
   25.4099998      -4.87816934E-08
   25.4699993      -4.85855089E-08
   25.5300007      -4.84499658E-08
   25.5900002      -4.83636882E-08
   25.6499996      -4.82498450E-08
   25.7099991      -4.79841979E-08
   25.7700005      -4.74265676E-08
   25.8299999      -4.64568402E-08
   25.8899994      -4.50055317E-08
   25.9500008      -4.30702833E-08
   26.0100002      -4.07142018E-08
   26.0699997      -3.80471974E-08
   26.1299992      -3.51965284E-08
   26.1900005      -3.22756470E-08
   26.2500000      -2.93603115E-08
   26.3099995      -2.64782773E-08
   26.3700008      -2.36143638E-08
   26.4300003      -2.07280841E-08
   26.4899998      -1.77774950E-08
   26.5499992      -1.47415200E-08
   26.6100006      -1.16339347E-08
   26.6700001      -8.50501536E-09
   26.7299995      -5.43069678E-09
   26.7900009      -2.49288701E-09
   26.8500004       2.42770443E-10
   26.9099998       2.74446954E-09
   26.9699993       5.02124209E-09
   27.0300007       7.11651760E-09
   27.0900002       9.08949005E-09
   27.1499996       1.09894636E-08
   27.2099991       1.28309070E-08
   27.2700005       1.45772479E-08
   27.3299999       1.61391895E-08
   27.3899994       1.73891621E-08
   27.4500008       1.81886008E-08
   27.5100002       1.84206677E-08
   27.5699997       1.80191719E-08
   27.6299992       1.69853998E-08
   27.6900005       1.53881974E-08
   27.7500000       1.33476759E-08
   27.8099995       1.10076659E-08
   27.8700008       8.50516013E-09
   27.9300003       5.94522609E-09
   27.9899998       3.38757733E-09
   28.0499992       8.46903547E-10
   28.1100006      -1.69533487E-09
   28.1700001      -4.27310098E-09
   28.2299995      -6.91850399E-09
   28.2900009      -9.65038094E-09
   28.3500004      -1.24712081E-08
   28.4099998      -1.53714748E-08
   28.4699993      -1.83380404E-08
   28.5300007      -2.13619433E-08
   28.5900002      -2.44420093E-08
   28.6499996      -2.75826970E-08
   28.7099991      -3.07873833E-08
   28.7700005      -3.40501565E-08
   28.8299999      -3.73499454E-08
   28.8899994      -4.06497982E-08
   28.9500008      -4.39020411E-08
   29.0100002      -4.70576751E-08
   29.0699997      -5.00767001E-08
   29.1299992      -5.29355972E-08
   29.1900005      -5.56294317E-08
   29.2500000      -5.81680517E-08
   29.3099995      -6.05682473E-08
   29.3700008      -6.28451815E-08
   29.4300003      -6.50064962E-08
   29.4899998      -6.70511540E-08
   29.5499992      -6.89727528E-08
   29.6100006      -7.07649974E-08
   29.6700001      -7.24257987E-08
   29.7299995      -7.39573593E-08
   29.7900009      -7.53614486E-08
   29.8500004      -7.66318280E-08
   29.9099998      -7.77477211E-08
   29.9699993      -7.86723291E-08
   30.0300007      -7.93587418E-08
   30.0900002      -7.97624580E-08
   30.1499996      -7.98567257E-08
   30.2099991      -7.96451047E-08
   30.2700005      -7.91660000E-08
   30.3299999      -7.84866074E-08
   30.3899994      -7.76869271E-08
   30.4500008      -7.68386599E-08
   30.5100002      -7.59852554E-08
   30.5699997      -7.51299041E-08
   30.6299992      -7.42355013E-08
   30.6900005      -7.32372385E-08
   30.7500000      -7.20640827E-08
   30.8099995      -7.06624732E-08
   30.8700008      -6.90147886E-08
   30.9300003      -6.71462104E-08
   30.9899998      -6.51179235E-08
   31.0499992      -6.30087840E-08
   31.1100006      -6.08918143E-08
   31.1700001      -5.88136473E-08
   31.2299995      -5.67839926E-08
   31.2900009      -5.47788730E-08
   31.3500004      -5.27563842E-08
   31.4099998      -5.06794464E-08
   31.4699993      -4.85375189E-08
   31.5300007      -4.63596521E-08
   31.5900002      -4.42138735E-08
   31.6499996      -4.21926813E-08
   31.7099991      -4.03888549E-08
   31.7700005      -3.88692634E-08
   31.8299999      -3.76552372E-08
   31.8899994      -3.67162052E-08
   31.9500008      -3.59792480E-08
   32.0099983      -3.53520733E-08
   32.0699997      -3.47524391E-08
   32.1300011      -3.41347395E-08
   32.1899986      -3.35051631E-08
   32.2500000      -3.29204219E-08
   32.3100014      -3.24702931E-08
   32.3699989      -3.22494955E-08
   32.4300003      -3.23279217E-08
   32.4900017      -3.27287921E-08
   32.5499992      -3.34218626E-08
   32.6100006      -3.43339046E-08
   32.6699982      -3.53731053E-08
   32.7299995      -3.64592303E-08
   32.7900009      -3.75493556E-08
   32.8499985      -3.86501675E-08
   32.9099998      -3.98123881E-08
   32.9700012      -4.11090184E-08
   33.0299988      -4.26050946E-08
   33.0900002      -4.43297949E-08
   33.1500015      -4.62611318E-08
   33.2099991      -4.83288716E-08
   33.2700005      -5.04346716E-08
   33.3300018      -5.24820329E-08
   33.3899994      -5.44051950E-08
   33.4500008      -5.61865754E-08
   33.5099983      -5.78567807E-08
   33.5699997      -5.94774114E-08
   33.6300011      -6.11130773E-08
   33.6899986      -6.28025631E-08
   33.7500000      -6.45392646E-08
   33.8100014      -6.62675177E-08
   33.8699989      -6.78961385E-08
   33.9300003      -6.93242370E-08
   33.9900017      -7.04704064E-08
   34.0499992      -7.12951191E-08
   34.1100006      -7.18087776E-08
   34.1699982      -7.20631448E-08
   34.2299995      -7.21300850E-08
   34.2900009      -7.20759559E-08
   34.3499985      -7.19413720E-08
   34.4099998      -7.17333464E-08
   34.4700012      -7.14317139E-08
   34.5299988      -7.10059851E-08
   34.5900002      -7.04350995E-08
   34.6500015      -6.97220486E-08
   34.7099991      -6.88977053E-08
   34.7700005      -6.80126959E-08
   34.8300018      -6.71204461E-08
   34.8899994      -6.62575630E-08
   34.9500008      -6.54283312E-08
   35.0099983      -6.45988720E-08
   35.0699997      -6.37034887E-08
   35.1300011      -6.26616909E-08
   35.1899986      -6.14010673E-08
   35.2500000      -5.98787722E-08
   35.3100014      -5.80943151E-08
   35.3699989      -5.60890676E-08
   35.4300003      -5.39325136E-08
   35.4900017      -5.16999599E-08
   35.5499992      -4.94498913E-08
   35.6100006      -4.72093227E-08
   35.6699982      -4.49722037E-08
   35.7299995      -4.27109939E-08
   35.7900009      -4.03963121E-08
   35.8499985      -3.80166760E-08
   35.9099998      -3.55907801E-08
   35.9700012      -3.31675594E-08
   36.0299988      -3.08141210E-08
   36.0900002      -2.85955810E-08
   36.1500015      -2.65537832E-08
   36.2099991      -2.46920795E-08
   36.2700005      -2.29716566E-08
   36.3300018      -2.13214442E-08
   36.3899994      -1.96593106E-08
   36.4500008      -1.79184898E-08
   36.5099983      -1.60709508E-08
   36.5699997      -1.41397276E-08
   36.6300011      -1.21955619E-08
   36.6899986      -1.03381605E-08
   36.7500000      -8.66785665E-09
   36.8100014      -7.25690485E-09
   36.8699989      -6.12991036E-09
   36.9300003      -5.25979749E-09
   36.9900017      -4.58026772E-09
   37.0499992      -4.01011802E-09
   37.1100006      -3.48096929E-09
   37.1699982      -2.95918956E-09
   37.2299995      -2.45514586E-09
   37.2900009      -2.01742556E-09
   37.3499985      -1.71474224E-09
   37.4099998      -1.61220004E-09
   37.4700012      -1.75021897E-09
   37.5299988      -2.13320872E-09
   37.5900002      -2.73143663E-09
   37.6500015      -3.49470786E-09
   37.7099991      -4.37217640E-09
   37.7700005      -5.33045830E-09
   37.8300018      -6.36305941E-09
   37.8899994      -7.48768336E-09
   37.9500008      -8.73284289E-09
   38.0099983      -1.01194058E-08
   38.0699997      -1.16445600E-08
   38.1300011      -1.32746587E-08
   38.1899986      -1.49498511E-08
   38.2500000      -1.65990190E-08
   38.3100014      -1.81598807E-08
   38.3699989      -1.95974081E-08
   38.4300003      -2.09144773E-08
   38.4900017      -2.21511929E-08
   38.5499992      -2.33729853E-08
   38.6100006      -2.46509018E-08
   38.6699982      -2.60399862E-08
   38.7299995      -2.75621854E-08
   38.7900009      -2.91990538E-08
   38.8499985      -3.08965866E-08
   38.9099998      -3.25807790E-08
   38.9700012      -3.41790276E-08
   39.0299988      -3.56406176E-08
   39.0900002      -3.69497535E-08
   39.1500015      -3.81272613E-08
   39.2099991      -3.92209429E-08
   39.2700005      -4.02883735E-08
   39.3300018      -4.13781649E-08
   39.3899994      -4.25157829E-08
   39.4500008      -4.36979732E-08
   39.5099983      -4.48965594E-08
   39.5699997      -4.60694558E-08
   39.6300011      -4.71746446E-08
   39.6899986      -4.81826383E-08
   39.7500000      -4.90837309E-08
   39.8100014      -4.98883601E-08
   39.8699989      -5.06208551E-08
   39.9300003      -5.13087670E-08
   39.9900017      -5.19712273E-08
   40.0499992      -5.26100337E-08
   40.1100006      -5.32064703E-08
   40.1699982      -5.37252127E-08
   40.2299995      -5.41243494E-08
   40.2900009      -5.43684244E-08
   40.3499985      -5.44403136E-08
   40.4099998      -5.43477725E-08
   40.4700012      -5.41222711E-08
   40.5299988      -5.38101688E-08
   40.5900002      -5.34588089E-08
   40.6500015      -5.31019211E-08
   40.7099991      -5.27488631E-08
   40.7700005      -5.23812815E-08
   40.8300018      -5.19584731E-08
   40.8899994      -5.14302663E-08
   40.9500008      -5.07537798E-08
   41.0099983      -4.99092216E-08
   41.0699997      -4.89097332E-08
   41.1300011      -4.78018407E-08
   41.1899986      -4.66558738E-08
   41.2500000      -4.55486528E-08
   41.3100014      -4.45435369E-08
   41.3699989      -4.36739320E-08
   41.4300003      -4.29354792E-08
   41.4900017      -4.22894146E-08
   41.5499992      -4.16759427E-08
   41.6100006      -4.10333314E-08
   41.6699982      -4.03165146E-08
   41.7299995      -3.95094268E-08
   41.7900009      -3.86275936E-08
   41.8499985      -3.77107092E-08
   41.9099998      -3.68083946E-08
   41.9700012      -3.59642947E-08
   42.0299988      -3.52039677E-08
   42.0900002      -3.45304763E-08
   42.1500015      -3.39285720E-08
   42.2099991      -3.33752865E-08
   42.2700005      -3.28525118E-08
   42.3300018      -3.23566631E-08
   42.3899994      -3.19019868E-08
   42.4500008      -3.15167519E-08
   42.5099983      -3.12345776E-08
   42.5699997      -3.10847206E-08
   42.6300011      -3.10852464E-08
   42.6899986      -3.12413562E-08
   42.7500000      -3.15485842E-08
   42.8100014      -3.19986988E-08
   42.8699989      -3.25852838E-08
   42.9300003      -3.33064953E-08
   42.9900017      -3.41641666E-08
   43.0499992      -3.51598466E-08
   43.1100006      -3.62894603E-08
   43.1699982      -3.75385909E-08
   43.2299995      -3.88801382E-08
   43.2900009      -4.02753315E-08
   43.3499985      -4.16785433E-08
   43.4099998      -4.30451799E-08
   43.4700012      -4.43410855E-08
   43.5299988      -4.55508804E-08
   43.5900002      -4.66825298E-08
   43.6500015      -4.77660684E-08
   43.7099991      -4.88460543E-08
   43.7700005      -4.99696355E-08
   43.8300018      -5.11735507E-08
   43.8899994      -5.24741033E-08
   43.9500008      -5.38628875E-08
   44.0099983      -5.53092931E-08
   44.0699997      -5.67682612E-08
   44.1300011      -5.81905937E-08
   44.1899986      -5.95326455E-08
   44.2500000      -6.07629786E-08
   44.3100014      -6.18651157E-08
   44.3699989      -6.28363779E-08
   44.4300003      -6.36841264E-08
   44.4900017      -6.44208100E-08
   44.5499992      -6.50593108E-08
   44.6100006      -6.56097825E-08
   44.6699982      -6.60786910E-08
   44.7299995      -6.64697950E-08
   44.7900009      -6.67862921E-08
   44.8499985      -6.70327580E-08
   44.9099998      -6.72155167E-08
   44.9700012      -6.73409559E-08
   45.0299988      -6.74123939E-08
   45.0900002      -6.74269955E-08
   45.1500015      -6.73747280E-08
   45.2099991      -6.72407907E-08
   45.2700005      -6.70116549E-08
   45.3300018      -6.66832634E-08
   45.3899994      -6.62685977E-08
   45.4500008      -6.58014727E-08
   45.5099983      -6.53340280E-08
   45.5699997      -6.49273844E-08
   45.6300011      -6.46369003E-08
   45.6899986      -6.44962341E-08
   45.7500000      -6.45049383E-08
   45.8100014      -6.46243947E-08
   45.8699989      -6.47843308E-08
   45.9300003      -6.48989555E-08
   45.9900017      -6.48882548E-08
   46.0499992      -6.46978648E-08
   46.1100006      -6.43109033E-08
   46.1699982      -6.37478692E-08
   46.2299995      -6.30543084E-08
   46.2900009      -6.22807548E-08
   46.3499985      -6.14616127E-08
   46.4099998      -6.06004278E-08
   46.4700012      -5.96665188E-08
   46.5299988      -5.86039768E-08
   46.5900002      -5.73502348E-08
   46.6500015      -5.58578215E-08
   46.7099991      -5.41122560E-08
   46.7700005      -5.21402264E-08
   46.8300018      -5.00053048E-08
   46.8899994      -4.77925397E-08
   46.9500008      -4.55867557E-08
   47.0099983      -4.34517453E-08
   47.0699997      -4.14172483E-08
   47.1300011      -3.94783051E-08
   47.1899986      -3.76075064E-08
   47.2500000      -3.57761145E-08
   47.3100014      -3.39767858E-08
   47.3699989      -3.22396829E-08
   47.4300003      -3.06355865E-08
   47.4900017      -2.92640152E-08
   47.5499992      -2.82293868E-08
   47.6100006      -2.76125842E-08
   47.6699982      -2.74472391E-08
   47.7299995      -2.77087278E-08
   47.7900009      -2.83200361E-08
   47.8499985      -2.91731013E-08
   47.9099998      -3.01591569E-08
   47.9700012      -3.11984891E-08
   48.0299988      -3.22600258E-08
   48.0900002      -3.33643193E-08
   48.1500015      -3.45688420E-08
   48.2099991      -3.59403600E-08
   48.2700005      -3.75234173E-08
   48.3300018      -3.93153954E-08
   48.3899994      -4.12565697E-08
   48.4500008      -4.32386713E-08
   48.5099983      -4.51295854E-08
   48.5699997      -4.68065231E-08
   48.6300011      -4.81872782E-08
   48.6899986      -4.92498451E-08
   48.7500000      -5.00342345E-08
   48.8100014      -5.06262516E-08
   48.8699989      -5.11284846E-08
   48.9300003      -5.16281737E-08
   48.9900017      -5.21723393E-08
   49.0499992      -5.27581996E-08
   49.1100006      -5.33417257E-08
   49.1699982      -5.38609619E-08
   49.2299995      -5.42662093E-08
   49.2900009      -5.45469518E-08
   49.3499985      -5.47471934E-08
   49.4099998      -5.49651276E-08
   49.4700012      -5.53383330E-08
   49.5299988      -5.60203013E-08
   49.5900002      -5.71562673E-08
   49.6500015      -5.88661742E-08
   49.7099991      -6.12398949E-08
   49.7700005      -6.43461391E-08
   49.8300018      -6.82522341E-08
   49.8899994      -7.30488239E-08
   49.9500008      -7.88720556E-08
   50.0099983      -8.59168736E-08
   50.0699997      -9.44382563E-08
   50.1300011      -1.04741872E-07
   50.1899986      -1.17169989E-07
   50.2500000      -1.32090392E-07
   50.3100014      -1.49895612E-07
   50.3699989      -1.71015856E-07
   50.4300003      -1.95944367E-07
   50.4900017      -2.25269957E-07
   50.5499992      -2.59709111E-07
   50.6100006      -3.00131347E-07