 -0.750000000       0.00000000    
 -0.689999998       0.00000000    
 -0.629999995       0.00000000    
 -0.569999993       0.00000000    
 -0.509999990       0.00000000    
 -0.449999988       0.00000000    
 -0.389999986       0.00000000    
 -0.330000013       0.00000000    
 -0.270000011      -5.49847144E-25
 -0.209999993      -5.45600815E-24
 -0.150000006      -2.45358713E-23
  -9.00000036E-02  -5.72078521E-23
  -2.99999993E-02  -1.97064649E-23
   2.99999993E-02   3.76616181E-22
   9.00000036E-02   1.60483500E-21
  0.150000006       3.72223884E-21
  0.209999993       4.84916418E-21
  0.270000011      -5.84760400E-22
  0.330000013      -2.11452826E-20
  0.389999986      -6.11491071E-20
  0.449999988      -1.05113737E-19
  0.509999990      -1.00877480E-19
  0.569999993       3.87664333E-20
  0.629999995       3.89538660E-19
  0.689999998       9.13524000E-19
  0.750000000       1.33775061E-18
  0.810000002       1.11377739E-18
  0.870000005      -4.07629022E-19
  0.930000007      -3.51240244E-18
  0.990000010      -7.48258318E-18
   1.04999995      -1.01543244E-17
   1.11000001      -8.22338876E-18
   1.16999996       1.28771321E-18
   1.23000002       1.85648016E-17
   1.28999996       3.86004031E-17
   1.35000002       5.06667680E-17
   1.40999997       4.14012632E-17
   1.47000003       1.83667369E-18
   1.52999997      -6.38730936E-17
   1.59000003      -1.32920738E-16
   1.64999998      -1.67236319E-16
   1.71000004      -1.28878101E-16
   1.76999998      -4.13442241E-18
   1.83000004       1.74768030E-16
   1.88999999       3.26139634E-16
   1.95000005       3.45841329E-16
   2.00999999       1.63477359E-16
   2.06999993      -1.93879290E-16
   2.13000011      -5.68729261E-16
   2.19000006      -7.09124654E-16
   2.25000000      -3.86115390E-16
   2.30999994       4.41979807E-16
   2.36999989       1.50150534E-15
   2.43000007       2.21292122E-15
   2.49000001       1.90060450E-15
   2.54999995       1.68328515E-16
   2.60999990      -2.71557598E-15
   2.67000008      -5.65774556E-15
   2.73000002      -7.00487057E-15
   2.78999996      -5.26203421E-15
   2.84999990      -2.78768965E-17
   2.91000009       7.31884493E-15
   2.97000003       1.36860932E-14
   3.02999997       1.53453147E-14
   3.08999991       9.77967131E-15
   3.15000010      -2.47101703E-15
   3.21000004      -1.70184183E-14
   3.26999998      -2.66997863E-14
   3.32999992      -2.45505181E-14
   3.39000010      -7.65898541E-15
   3.45000005       1.99162281E-14
   3.50999999       4.70215975E-14
   3.56999993       5.89640370E-14
   3.63000011       4.39267017E-14
   3.69000006      -2.80897089E-16
   3.75000000      -6.24555949E-14
   3.80999994      -1.19780772E-13
   3.86999989      -1.45491109E-13
   3.93000007      -1.19923643E-13
   3.99000001      -4.03655143E-14
   4.05000019       7.50381609E-14
   4.11000013       1.91873332E-13
   4.17000008       2.71358402E-13
   4.23000002       2.84765213E-13
   4.28999996       2.23948003E-13
   4.34999990       1.03023147E-13
   4.40999985      -4.96161102E-14
   4.46999979      -2.04765580E-13
   4.53000021      -3.43864856E-13
   4.59000015      -4.61344992E-13
   4.65000010      -5.55254844E-13
   4.71000004      -6.10408642E-13
   4.76999998      -5.84286092E-13
   4.82999992      -4.07653485E-13
   4.88999987      -7.46389339E-15
   4.94999981       6.50162270E-13
   5.01000023       1.51065976E-12
   5.07000017       2.39756088E-12
   5.13000011       3.01747082E-12
   5.19000006       3.01677129E-12
   5.25000000       2.08604813E-12
   5.30999994       8.84054047E-14
   5.36999989      -2.82728116E-12
   5.42999983      -6.17104718E-12
   5.48999977      -9.14710495E-12
   5.55000019      -1.07897042E-11
   5.61000013      -1.01809533E-11
   5.67000008      -6.70600468E-12
   5.73000002      -2.85766121E-13
   5.78999996       8.47256727E-12
   5.84999990       1.82519330E-11
   5.90999985       2.71486774E-11
   5.96999979       3.29351997E-11
   6.03000021       3.34308206E-11
   6.09000015       2.69335526E-11
   6.15000010       1.26556734E-11
   6.21000004      -8.89975246E-12
   6.26999998      -3.56891079E-11
   6.32999992      -6.40756059E-11
   6.38999987      -8.90399837E-11
   6.44999981      -1.04701144E-10
   6.51000023      -1.05152206E-10
   6.57000017      -8.55537655E-11
   6.63000011      -4.33495913E-11
   6.69000006       2.06006618E-11
   6.75000000       1.01218173E-10
   6.80999994       1.88966925E-10
   6.86999989       2.70345413E-10
   6.92999983       3.29146543E-10
   6.98999977       3.48369361E-10
   7.05000019       3.12519260E-10
   7.11000013       2.09931239E-10
   7.17000008       3.47248376E-11
   7.23000002      -2.11945003E-10
   7.28999996      -5.21549692E-10
   7.34999990      -8.78805584E-10
   7.40999985      -1.26313193E-09
   7.46999979      -1.65070613E-09
   7.53000021      -2.01681161E-09
   7.59000015      -2.33817743E-09
   7.65000010      -2.59505328E-09
   7.71000004      -2.77284329E-09
   7.76999998      -2.86319435E-09
   7.82999992      -2.86449309E-09
   7.88999987      -2.78178103E-09
   7.94999981      -2.62612332E-09
   8.01000023      -2.41352116E-09
   8.06999969      -2.16348295E-09
   8.13000011      -1.89742932E-09
   8.18999958      -1.63711111E-09
   8.25000000      -1.40321577E-09
   8.31000042      -1.21427790E-09
   8.36999989      -1.08591347E-09
   8.43000031      -1.03029829E-09
   8.48999977      -1.05573894E-09
   8.55000019      -1.16617271E-09
   8.60999966      -1.36051526E-09
   8.67000008      -1.63191305E-09
   8.72999954      -1.96714378E-09
   8.78999996      -2.34652897E-09
   8.85000038      -2.74474865E-09
   8.90999985      -3.13281534E-09
   8.97000027      -3.48118334E-09
   9.02999973      -3.76362452E-09
   9.09000015      -3.96119315E-09
   9.14999962      -4.06543466E-09
   9.21000004      -4.08007983E-09
   9.27000046      -4.02075528E-09
   9.32999992      -3.91270083E-09
   9.39000034      -3.78694054E-09
   9.44999981      -3.67569930E-09
   9.51000023      -3.60795815E-09
   9.56999969      -3.60590269E-09
   9.63000011      -3.68272524E-09
   9.68999958      -3.84188459E-09
   9.75000000      -4.07763823E-09
   9.81000042      -4.37652536E-09
   9.86999989      -4.71946038E-09
   9.93000031      -5.08417752E-09
   9.98999977      -5.44781464E-09
   10.0500002      -5.78943871E-09
   10.1099997      -6.09223871E-09
   10.1700001      -6.34505826E-09
   10.2299995      -6.54293064E-09
   10.2900000      -6.68642075E-09
   10.3500004      -6.77983403E-09
   10.4099998      -6.82867274E-09
   10.4700003      -6.83696788E-09
   10.5299997      -6.80520396E-09
   10.5900002      -6.72941391E-09
   10.6499996      -6.60167032E-09
   10.7100000      -6.41177911E-09
   10.7700005      -6.14959461E-09
   10.8299999      -5.80720672E-09
   10.8900003      -5.38030687E-09
   10.9499998      -4.86836171E-09
   11.0100002      -4.27365077E-09
   11.0699997      -3.59963681E-09
   11.1300001      -2.84937274E-09
   11.1899996      -2.02461781E-09
   11.2500000      -1.12605480E-09
   11.3100004      -1.54539631E-10
   11.3699999       8.87129370E-10
   11.4300003       1.99272243E-09
   11.4899998       3.15215165E-09
   11.5500002       4.35256275E-09
   11.6099997       5.58086111E-09
   11.6700001       6.82699586E-09
   11.7299995       8.08693201E-09
   11.7900000       9.36418143E-09
   11.8500004       1.06690949E-08
   11.9099998       1.20157839E-08
   11.9700003       1.34172993E-08
   12.0299997       1.48803316E-08
   12.0900002       1.64009819E-08
   12.1499996       1.79629502E-08
   12.2100000       1.95388772E-08
   12.2700005       2.10946816E-08
   12.3299999       2.25958967E-08
   12.3900003       2.40143851E-08
   12.4499998       2.53336943E-08
   12.5100002       2.65517137E-08
   12.5699997       2.76799579E-08
   12.6300001       2.87398070E-08
   12.6899996       2.97567340E-08
   12.7500000       3.07540340E-08
   12.8100004       3.17475646E-08
   12.8699999       3.27426761E-08
   12.9300003       3.37337873E-08
   12.9899998       3.47065132E-08
   13.0500002       3.56415697E-08
   13.1099997       3.65193955E-08
   13.1700001       3.73244404E-08
   13.2299995       3.80482277E-08
   13.2900000       3.86906684E-08
   13.3500004       3.92595645E-08
   13.4099998       3.97685405E-08
   13.4700003       4.02340277E-08
   13.5299997       4.06718783E-08
   13.5900002       4.10942427E-08
   13.6499996       4.15071746E-08
   13.7100000       4.19091535E-08
   13.7700005       4.22906652E-08
   13.8299999       4.26348272E-08
   13.8900003       4.29190621E-08
   13.9499998       4.31178222E-08
   14.0100002       4.32061746E-08
   14.0699997       4.31640075E-08
   14.1300001       4.29801581E-08
   14.1899996       4.26556781E-08
   14.2500000       4.22051691E-08
   14.3100004       4.16555999E-08
   14.3699999       4.10422878E-08
   14.4300003       4.04026466E-08
   14.4899998       3.97688140E-08
   14.5500002       3.91609483E-08
   14.6099997       3.85827903E-08
   14.6700001       3.80208185E-08
   14.7299995       3.74474602E-08
   14.7900000       3.68279061E-08
   14.8500004       3.61291228E-08
   14.9099998       3.53290268E-08
   14.9700003       3.44236817E-08
   15.0299997       3.34305348E-08
   15.0900002       3.23865379E-08
   15.1499996       3.13411519E-08
   15.2100000       3.03454541E-08
   15.2700005       2.94396507E-08
   15.3299999       2.86420647E-08
   15.3900003       2.79425603E-08
   15.4499998       2.73025531E-08
   15.5100002       2.66622635E-08
   15.5699997       2.59539554E-08
   15.6300001       2.51181138E-08
   15.6899996       2.41183891E-08
   15.7500000       2.29510491E-08
   15.8100004       2.16459028E-08
   15.8699999       2.02578612E-08
   15.9300003       1.88511304E-08
   15.9899998       1.74803318E-08
   16.0499992       1.61742477E-08
   16.1100006       1.49273269E-08
   16.1700001       1.37019773E-08
   16.2299995       1.24413377E-08
   16.2900009       1.10888578E-08
   16.3500004       9.60867030E-09
   16.4099998       8.00030264E-09
   16.4699993       6.30292529E-09
   16.5300007       4.58753924E-09
   16.5900002       2.93927571E-09
   16.6499996       1.43498413E-09
   16.7099991       1.22737306E-10
   16.7700005      -9.90804216E-10
   16.8299999      -1.94164573E-09
   16.8899994      -2.79821388E-09
   16.9500008      -3.64282071E-09
   17.0100002      -4.55025573E-09
   17.0699997      -5.56947244E-09
   17.1299992      -6.71310163E-09
   17.1900005      -7.95702437E-09
   17.2500000      -9.24933374E-09
   17.3099995      -1.05255209E-08
   17.3700008      -1.17254153E-08
   17.4300003      -1.28074520E-08
   17.4899998      -1.37570879E-08
   17.5499992      -1.45880508E-08
   17.6100006      -1.53370490E-08
   17.6700001      -1.60540452E-08
   17.7299995      -1.67909047E-08
   17.7900009      -1.75912334E-08
   17.8500004      -1.84835294E-08
   17.9099998      -1.94787582E-08
   17.9699993      -2.05722106E-08
   18.0300007      -2.17485407E-08
   18.0900002      -2.29881287E-08
   18.1499996      -2.42728753E-08
   18.2099991      -2.55898875E-08
   18.2700005      -2.69323674E-08
   18.3299999      -2.82979382E-08
   18.3899994      -2.96853138E-08
   18.4500008      -3.10906394E-08
   18.5100002      -3.25046550E-08
   18.5699997      -3.39115438E-08
   18.6299992      -3.52897054E-08
   18.6900005      -3.66142459E-08
   18.7500000      -3.78605201E-08
   18.8099995      -3.90079542E-08
   18.8700008      -4.00431368E-08
   18.9300003      -4.09615382E-08
   18.9899998      -4.17673434E-08
   19.0499992      -4.24715196E-08
   19.1100006      -4.30885940E-08
   19.1700001      -4.36328875E-08
   19.2299995      -4.41150476E-08
   19.2900009      -4.45393979E-08
   19.3500004      -4.49024142E-08
   19.4099998      -4.51923619E-08
   19.4699993      -4.53900952E-08
   19.5300007      -4.54712037E-08
   19.5900002      -4.54096529E-08
   19.6499996      -4.51828654E-08
   19.7099991      -4.47777246E-08
   19.7700005      -4.41962378E-08
   19.8299999      -4.34591527E-08
   19.8899994      -4.26058548E-08
   19.9500008      -4.16895922E-08
   20.0100002      -4.07684411E-08
   20.0699997      -3.98938766E-08
   20.1299992      -3.90998416E-08
   20.1900005      -3.83954415E-08
   20.2500000      -3.77634954E-08
   20.3099995      -3.71657229E-08
   20.3700008      -3.65533417E-08
   20.4300003      -3.58803760E-08
   20.4899998      -3.51161944E-08
   20.5499992      -3.42540254E-08
   20.6100006      -3.33132206E-08
   20.6700001      -3.23347322E-08
   20.7299995      -3.13709272E-08
   20.7900009      -3.04724104E-08
   20.8500004      -2.96753093E-08
   20.9099998      -2.89923303E-08
   20.9699993      -2.84101489E-08
   21.0300007      -2.78937211E-08
   21.0900002      -2.73964105E-08
   21.1499996      -2.68728755E-08
   21.2099991      -2.62908664E-08
   21.2700005      -2.56383412E-08
   21.3299999      -2.49238070E-08
   21.3899994      -2.41700118E-08
   21.4500008      -2.34033166E-08
   21.5100002      -2.26424195E-08
   21.5699997      -2.18903509E-08
   21.6299992      -2.11324025E-08
   21.6900005      -2.03406412E-08
   21.7500000      -1.94834637E-08
   21.8099995      -1.85369604E-08
   21.8700008      -1.74943153E-08
   21.9300003      -1.63700982E-08
   21.9899998      -1.51978892E-08
   22.0499992      -1.40218654E-08
   22.1100006      -1.28848177E-08
   22.1700001      -1.18163426E-08
   22.2299995      -1.08248788E-08
   22.2900009      -9.89614524E-09
   22.3500004      -8.99851127E-09
   22.4099998      -8.09359157E-09
   22.4699993      -7.14874027E-09
   22.5300007      -6.14750206E-09
   22.5900002      -5.09483256E-09
   22.6499996      -4.01560873E-09
   22.7099991      -2.94710256E-09
   22.7700005      -1.92795846E-09
   22.8299999      -9.87236737E-10
   22.8899994      -1.36976444E-10
   22.9500008       6.29415520E-10
   23.0100002       1.33252187E-09
   23.0699997       1.99762007E-09
   23.1299992       2.64395128E-09
   23.1900005       3.27640093E-09
   23.2500000       3.88282384E-09
   23.3099995       4.43842474E-09
   23.3700008       4.91613461E-09
   23.4300003       5.29959854E-09
   23.4899998       5.59411228E-09
   23.5499992       5.83119952E-09
   23.6100006       6.06446360E-09
   23.6700001       6.35726005E-09
   23.7299995       6.76561029E-09
   23.7900009       7.32153316E-09
   23.8500004       8.02203726E-09
   23.9099998       8.82737172E-09
   23.9699993       9.66934355E-09
   24.0300007       1.04674616E-08
   24.0900002       1.11483640E-08
   24.1499996       1.16630057E-08
   24.2099991       1.19967076E-08
   24.2700005       1.21692860E-08
   24.3299999       1.22253718E-08
   24.3899994       1.22179529E-08
   24.4500008       1.21901875E-08
   24.5100002       1.21609771E-08
   24.5699997       1.21185639E-08
   24.6299992       1.20237917E-08
   24.6900005       1.18216663E-08
   24.7500000       1.14573853E-08
   24.8099995       1.08918989E-08
   24.8700008       1.01125863E-08
   24.9300003       9.13645160E-09
   24.9899998       8.00558642E-09
   25.0499992       6.77688705E-09
   25.1100006       5.50928370E-09
   25.1700001       4.25212709E-09
   25.2299995       3.03764791E-09
   25.2900009       1.87905025E-09
   25.3500004       7.74164399E-10
   25.4099998      -2.86951241E-10
   25.4699993      -1.31304589E-09
   25.5300007      -2.30411712E-09
   25.5900002      -3.24737792E-09
   25.6499996      -4.11761558E-09
   25.7099991      -4.88141572E-09
   25.7700005      -5.50368018E-09
   25.8299999      -5.95453953E-09
   25.8899994      -6.21509777E-09
   25.9500008      -6.28121155E-09
   26.0100002      -6.16525186E-09
   26.0699997      -5.89621507E-09
   26.1299992      -5.51853763E-09
   26.1900005      -5.08972642E-09
   26.2500000      -4.67663774E-09
   26.3099995      -4.35019620E-09
   26.3700008      -4.17859258E-09
   26.4300003      -4.21943724E-09
   26.4899998      -4.51188997E-09
   26.5499992      -5.07021758E-09
   26.6100006      -5.88034954E-09
   26.6700001      -6.90072754E-09
   26.7299995      -8.06792499E-09
   26.7900009      -9.30631572E-09
   26.8500004      -1.05397842E-08
   26.9099998      -1.17026868E-08
   26.9699993      -1.27472939E-08
   27.0300007      -1.36460487E-08
   27.0900002      -1.43887151E-08
   27.1499996      -1.49763206E-08
   27.2099991      -1.54147735E-08
   27.2700005      -1.57108833E-08
   27.3299999      -1.58722600E-08
   27.3899994      -1.59106897E-08
   27.4500008      -1.58471636E-08
   27.5100002      -1.57159814E-08
   27.5699997      -1.55657105E-08
   27.6299992      -1.54559228E-08
   27.6900005      -1.54499116E-08
   27.7500000      -1.56048046E-08
   27.8099995      -1.59612732E-08
   27.8700008      -1.65353349E-08
   27.9300003      -1.73145480E-08
   27.9899998      -1.82601543E-08
   28.0499992      -1.93153920E-08
   28.1100006      -2.04185806E-08
   28.1700001      -2.15179039E-08
   28.2299995      -2.25839454E-08
   28.2900009      -2.36162396E-08
   28.3500004      -2.46417020E-08
   28.4099998      -2.57052619E-08
   28.4699993      -2.68555098E-08
   28.5300007      -2.81297936E-08
   28.5900002      -2.95433331E-08
   28.6499996      -3.10855306E-08
   28.7099991      -3.27242127E-08
   28.7700005      -3.44160291E-08
   28.8299999      -3.61193848E-08
   28.8899994      -3.78057763E-08
   28.9500008      -3.94661015E-08
   29.0100002      -4.11102583E-08
   29.0699997      -4.27604654E-08
   29.1299992      -4.44405011E-08
   29.1900005      -4.61640859E-08
   29.2500000      -4.79257274E-08
   29.3099995      -4.96964390E-08
   29.3700008      -5.14255447E-08
   29.4300003      -5.30481152E-08
   29.4899998      -5.44963967E-08
   29.5499992      -5.57126008E-08
   29.6100006      -5.66600704E-08
   29.6700001      -5.73301158E-08
   29.7299995      -5.77425965E-08
   29.7900009      -5.79399284E-08
   29.8500004      -5.79758250E-08
   29.9099998      -5.79018185E-08
   29.9699993      -5.77554076E-08
   30.0300007      -5.75533043E-08
   30.0900002      -5.72916008E-08
   30.1499996      -5.69524303E-08
   30.2099991      -5.65142955E-08
   30.2700005      -5.59622144E-08
   30.3299999      -5.52942012E-08
   30.3899994      -5.45221681E-08
   30.4500008      -5.36676303E-08
   30.5100002      -5.27543840E-08
   30.5699997      -5.18010914E-08
   30.6299992      -5.08163360E-08
   30.6900005      -4.97975137E-08
   30.7500000      -4.87336109E-08
   30.8099995      -4.76106443E-08
   30.8700008      -4.64180552E-08
   30.9300003      -4.51539144E-08
   30.9899998      -4.38272316E-08
   31.0499992      -4.24561648E-08
   31.1100006      -4.10622434E-08
   31.1700001      -3.96621118E-08
   31.2299995      -3.82595537E-08
   31.2900009      -3.68411079E-08
   31.3500004      -3.53776208E-08
   31.4099998      -3.38323005E-08
   31.4699993      -3.21731939E-08
   31.5300007      -3.03862642E-08
   31.5900002      -2.84845729E-08
   31.6499996      -2.65105840E-08
   31.7099991      -2.45308076E-08
   31.7700005      -2.26247376E-08
   31.8299999      -2.08716209E-08
   31.8899994      -1.93387937E-08
   31.9500008      -1.80741431E-08
   32.0099983      -1.71035150E-08
   32.0699997      -1.64322369E-08
   32.1300011      -1.60491247E-08
   32.1899986      -1.59312723E-08
   32.2500000      -1.60484586E-08
   32.3100014      -1.63666378E-08
   32.3699989      -1.68505565E-08
   32.4300003      -1.74657426E-08
   32.4900017      -1.81802058E-08
   32.5499992      -1.89661193E-08
   32.6100006      -1.98015719E-08
   32.6699982      -2.06723527E-08
   32.7299995      -2.15733742E-08
   32.7900009      -2.25093686E-08
   32.8499985      -2.34942714E-08
   32.9099998      -2.45490046E-08
   32.9700012      -2.56976236E-08
   33.0299988      -2.69622085E-08
   33.0900002      -2.83573485E-08
   33.1500015      -2.98852854E-08
   33.2099991      -3.15329416E-08
   33.2700005      -3.32717178E-08
   33.3300018      -3.50605411E-08
   33.3899994      -3.68517235E-08
   33.4500008      -3.85985430E-08
   33.5099983      -4.02629183E-08
   33.5699997      -4.18214974E-08
   33.6300011      -4.32689617E-08
   33.6899986      -4.46181581E-08
   33.7500000      -4.58973304E-08
   33.8100014      -4.71451713E-08
   33.8699989      -4.84045444E-08
   33.9300003      -4.97154673E-08
   33.9900017      -5.11080103E-08
   34.0499992      -5.25959720E-08
   34.1100006      -5.41724212E-08
   34.1699982      -5.58085276E-08
   34.2299995      -5.74565604E-08
   34.2900009      -5.90569904E-08
   34.3499985      -6.05483734E-08
   34.4099998      -6.18774223E-08
   34.4700012      -6.30066737E-08
   34.5299988      -6.39176605E-08
   34.5900002      -6.46092175E-08
   34.6500015      -6.50919318E-08
   34.7099991      -6.53813217E-08
   34.7700005      -6.54920385E-08
   34.8300018      -6.54350671E-08
   34.8899994      -6.52182450E-08
   34.9500008      -6.48495018E-08
   35.0099983      -6.43409521E-08
   35.0699997      -6.37121715E-08
   35.1300011      -6.29911128E-08
   35.1899986      -6.22121590E-08
   35.2500000      -6.14116686E-08
   35.3100014      -6.06219857E-08
   35.3699989      -5.98655774E-08
   35.4300003      -5.91505831E-08
   35.4900017      -5.84692401E-08
   35.5499992      -5.77995110E-08
   35.6100006      -5.71098511E-08
   35.6699982      -5.63660087E-08
   35.7299995      -5.55382229E-08
   35.7900009      -5.46069430E-08
   35.8499985      -5.35655467E-08
   35.9099998      -5.24193275E-08
   35.9700012      -5.11814093E-08
   36.0299988      -4.98670154E-08
   36.0900002      -4.84882747E-08
   36.1500015      -4.70513548E-08
   36.2099991      -4.55565647E-08
   36.2700005      -4.40009629E-08
   36.3300018      -4.23819699E-08
   36.3899994      -4.07003569E-08
   36.4500008      -3.89616446E-08
   36.5099983      -3.71758908E-08
   36.5699997      -3.53566527E-08
   36.6300011      -3.35201058E-08
   36.6899986      -3.16848308E-08
   36.7500000      -2.98719520E-08
   36.8100014      -2.81049459E-08
   36.8699989      -2.64082640E-08
   36.9300003      -2.48046081E-08
   36.9900017      -2.33112374E-08
   37.0499992      -2.19363443E-08
   37.1100006      -2.06765076E-08
   37.1699982      -1.95160972E-08
   37.2299995      -1.84290183E-08
   37.2900009      -1.73828578E-08
   37.3499985      -1.63448828E-08
   37.4099998      -1.52890784E-08
   37.4700012      -1.42026844E-08
   37.5299988      -1.30905313E-08
   37.5900002      -1.19755770E-08
   37.6500015      -1.08948504E-08
   37.7099991      -9.89137039E-09
   37.7700005      -9.00390695E-09
   37.8300018      -8.25736990E-09
   37.8899994      -7.65653052E-09
   37.9500008      -7.18489446E-09
   38.0099983      -6.80904400E-09
   38.0699997      -6.48729470E-09
   38.1300011      -6.18038731E-09
   38.1899986      -5.86144866E-09
   38.2500000      -5.52259038E-09
   38.3100014      -5.17626519E-09
   38.3699989      -4.85075269E-09
   38.4300003      -4.58078375E-09
   38.4900017      -4.39597203E-09
   38.5499992      -4.31081792E-09
   38.6100006      -4.31999680E-09
   38.6699982      -4.40116921E-09
   38.7299995      -4.52490756E-09
   38.7900009      -4.66848338E-09
   38.8499985      -4.82834395E-09
   38.9099998      -5.02612396E-09
   38.9700012      -5.30514077E-09
   39.0299988      -5.71780534E-09
   39.0900002      -6.30793329E-09
   39.1500015      -7.09408043E-09
   39.2099991      -8.05998557E-09
   39.2700005      -9.15590448E-09
   39.3300018      -1.03109787E-08
   39.3899994      -1.14530794E-08
   39.4500008      -1.25300241E-08
   39.5099983      -1.35255078E-08
   39.5699997      -1.44646410E-08
   39.6300011      -1.54070943E-08
   39.6899986      -1.64296434E-08
   39.7500000      -1.76032113E-08
   39.8100014      -1.89713258E-08
   39.8699989      -2.05367066E-08
   39.9300003      -2.22603589E-08
   39.9900017      -2.40736977E-08
   40.0499992      -2.59000625E-08
   40.1100006      -2.76787357E-08
   40.1699982      -2.93835161E-08
   40.2299995      -3.10292911E-08
   40.2900009      -3.26639089E-08
   40.3499985      -3.43474511E-08
   40.4099998      -3.61255168E-08
   40.4700012      -3.80055063E-08
   40.5299988      -3.99444531E-08
   40.5900002      -4.18534079E-08
   40.6500015      -4.36180834E-08
   40.7099991      -4.51298128E-08
   40.7700005      -4.63170586E-08
   40.8300018      -4.71670702E-08
   40.8899994      -4.77301079E-08
   40.9500008      -4.81043898E-08
   41.0099983      -4.84061431E-08
   41.0699997      -4.87343748E-08
   41.1300011      -4.91416827E-08
   41.1899986      -4.96204358E-08
   41.2500000      -5.01085395E-08
   41.3100014      -5.05123730E-08
   41.3699989      -5.07390681E-08
   41.4300003      -5.07273228E-08
   41.4900017      -5.04669089E-08
   41.5499992      -5.00007786E-08
   41.6100006      -4.94095715E-08
   41.6699982      -4.87837113E-08
   41.7299995      -4.81922058E-08
   41.7900009      -4.76582365E-08
   41.8499985      -4.71495198E-08
   41.9099998      -4.65870258E-08
   41.9700012      -4.58700349E-08
   42.0299988      -4.49102018E-08
   42.0900002      -4.36641443E-08
   42.1500015      -4.21538182E-08
   42.2099991      -4.04672100E-08
   42.2700005      -3.87378520E-08
   42.3300018      -3.71084816E-08
   42.3899994      -3.56898546E-08
   42.4500008      -3.45279574E-08
   42.5099983      -3.35907657E-08
   42.5699997      -3.27795107E-08
   42.6300011      -3.19615658E-08
   42.6899986      -3.10146362E-08
   42.7500000      -2.98680760E-08
   42.8100014      -2.85281185E-08
   42.8699989      -2.70790146E-08
   42.9300003      -2.56600288E-08
   42.9900017      -2.44258747E-08
   43.0499992      -2.35031976E-08
   43.1100006      -2.29565149E-08
   43.1699982      -2.27736354E-08
   43.2299995      -2.28742412E-08
   43.2900009      -2.31381616E-08
   43.3499985      -2.34440183E-08
   43.4099998      -2.37060203E-08
   43.4700012      -2.38975097E-08
   43.5299988      -2.40542466E-08
   43.5900002      -2.42568525E-08
   43.6500015      -2.45986715E-08
   43.7099991      -2.51501220E-08
   43.7700005      -2.59318202E-08
   43.8300018      -2.69059388E-08
   43.8899994      -2.79888344E-08
   43.9500008      -2.90806010E-08
   44.0099983      -3.01010097E-08
   44.0699997      -3.10188746E-08
   44.1300011      -3.18640474E-08
   44.1899986      -3.27171783E-08
   44.2500000      -3.36802017E-08
   44.3100014      -3.48372247E-08
   44.3699989      -3.62190100E-08
   44.4300003      -3.77834866E-08
   44.4900017      -3.94194863E-08
   44.5499992      -4.09736387E-08
   44.6100006      -4.22926938E-08
   44.6699982      -4.32682903E-08
   44.7299995      -4.38699743E-08
   44.7900009      -4.41555486E-08
   44.8499985      -4.42548753E-08
   44.9099998      -4.43314789E-08
   44.9700012      -4.45336745E-08
   45.0299988      -4.49502693E-08
   45.0900002      -4.55846632E-08
   45.1500015      -4.63551864E-08
   45.2099991      -4.71211585E-08
   45.2700005      -4.77261075E-08
   45.3300018      -4.80442459E-08
   45.3899994      -4.80157176E-08
   45.4500008      -4.76601052E-08
   45.5099983      -4.70646206E-08
   45.5699997      -4.63517118E-08
   45.6300011      -4.56369733E-08
   45.6899986      -4.49912854E-08
   45.7500000      -4.44192914E-08
   45.8100014      -4.38610428E-08
   45.8699989      -4.32157563E-08
   45.9300003      -4.23795683E-08
   45.9900017      -4.12843129E-08
   46.0499992      -3.99244051E-08
   46.1100006      -3.83628240E-08
   46.1699982      -3.67144928E-08
   46.2299995      -3.51128939E-08
   46.2900009      -3.36711565E-08
   46.3499985      -3.24503233E-08
   46.4099998      -3.14445998E-08
   46.4700012      -3.05874579E-08
   46.5299988      -2.97754834E-08
   46.5900002      -2.89015656E-08
   46.6500015      -2.78864949E-08
   46.7099991      -2.66994924E-08
   46.7700005      -2.53622865E-08
   46.8300018      -2.39369236E-08
   46.8899994      -2.25024834E-08
   46.9500008      -2.11289297E-08
   47.0099983      -1.98565751E-08
   47.0699997      -1.86872366E-08
   47.1300011      -1.75890627E-08
   47.1899986      -1.65125407E-08
   47.2500000      -1.54117217E-08
   47.3100014      -1.42632661E-08
   47.3699989      -1.30768880E-08
   47.4300003      -1.18937447E-08
   47.4900017      -1.07733920E-08
   47.5499992      -9.77376757E-09
   47.6100006      -8.93106833E-09
   47.6699982      -8.24658564E-09
   47.7299995      -7.68528441E-09
   47.7900009      -7.18703985E-09
   47.8499985      -6.68704603E-09
   47.9099998      -6.13854700E-09
   47.9700012      -5.53003554E-09
   48.0299988      -4.89069052E-09
   48.0900002      -4.28180469E-09
   48.1500015      -3.77677001E-09
   48.2099991      -3.43621509E-09
   48.2700005      -3.28665228E-09
   48.3300018      -3.30987815E-09
   48.3899994      -3.44678974E-09
   48.4500008      -3.61452601E-09
   48.5099983      -3.73152931E-09
   48.5699997      -3.74262710E-09
   48.6300011      -3.63627417E-09
   48.6899986      -3.44852702E-09
   48.7500000      -3.25240279E-09
   48.8100014      -3.13573811E-09
   48.8699989      -3.17429638E-09
   48.9300003      -3.40853079E-09
   48.9900017      -3.83154974E-09
   49.0499992      -4.39249925E-09
   49.1100006      -5.01467046E-09
   49.1699982      -5.62270097E-09
   49.2299995      -6.17002138E-09
   49.2900009      -6.65744393E-09
   49.3499985      -7.13683157E-09
   49.4099998      -7.69903341E-09
   49.4700012      -8.45084891E-09
   49.5299988      -9.48962153E-09
   49.5900002      -1.08846949E-08
   49.6500015      -1.26723467E-08
   49.7099991      -1.48658863E-08
   49.7700005      -1.74772818E-08
   49.8300018      -2.05427764E-08
   49.8899994      -2.41437430E-08
   49.9500008      -2.84158563E-08
   50.0099983      -3.35438841E-08
   50.0699997      -3.97446094E-08
   50.1300011      -4.72448853E-08
   50.1899986      -5.62638682E-08
   50.2500000      -6.70074058E-08
   50.3100014      -7.96787347E-08
   50.3699989      -9.45039389E-08
   50.4300003      -1.11765956E-07
   50.4900017      -1.31838135E-07
   50.5499992      -1.55208923E-07
   50.6100006      -1.82492570E-07