  -2.400000      0.0000000E+00
  -2.340000      0.0000000E+00
  -2.280000      0.0000000E+00
  -2.220000      0.0000000E+00
  -2.160000      0.0000000E+00
  -2.100000      0.0000000E+00
  -2.040000      0.0000000E+00
  -1.980000      0.0000000E+00
  -1.920000     -5.5138626E-25
  -1.860000     -5.4688741E-24
  -1.800000     -2.4574619E-23
  -1.740000     -5.7188787E-23
  -1.680000     -1.9096573E-23
  -1.620000      3.7927463E-22
  -1.560000      1.6114914E-21
  -1.500000      3.7321206E-21
  -1.440000      4.8526882E-21
  -1.380000     -6.0823251E-22
  -1.320000     -2.1210921E-20
  -1.260000     -6.1222002E-20
  -1.200000     -1.0506494E-19
  -1.140000     -1.0053109E-19
  -1.080000      3.9385093E-20
  -1.020000      3.8978027E-19
 -0.9600000      9.1188029E-19
 -0.9000000      1.3325088E-18
 -0.8400000      1.1051175E-18
 -0.7800000     -4.1466223E-19
 -0.7200000     -3.5065696E-18
 -0.6600000     -7.4506044E-18
 -0.6000000     -1.0092728E-17
 -0.5400000     -8.1541943E-18
 -0.4800000      1.3098699E-18
 -0.4200000      1.8470486E-17
 -0.3600000      3.8355452E-17
 -0.3000000      5.0336422E-17
 -0.2400000      4.1179695E-17
 -0.1800000      1.9834960E-18
 -0.1200000     -6.3208623E-17
 -5.9999999E-02 -1.3191764E-16
  0.0000000E+00 -1.6649517E-16
  5.9999999E-02 -1.2920555E-16
  0.1200000     -5.9722432E-18
  0.1800000      1.7203067E-16
  0.2400000      3.2444718E-16
  0.3000000      3.4778757E-16
  0.3600000      1.7051495E-16
  0.4200000     -1.8364832E-16
  0.4800000     -5.6166432E-16
  0.5400000     -7.1437668E-16
  0.6000000     -4.1053980E-16
  0.6600000      4.0079254E-16
  0.7200000      1.4602009E-15
  0.7800000      2.2005730E-15
  0.8400000      1.9472817E-15
  0.9000000      2.8608154E-16
  0.9600000     -2.5512554E-15
   1.020000     -5.5142099E-15
   1.080000     -6.9764285E-15
   1.140000     -5.4306514E-15
   1.200000     -4.1218029E-16
   1.260000      6.8032416E-15
   1.320000      1.3229254E-14
   1.380000      1.5193101E-14
   1.440000      1.0137462E-14
   1.500000     -1.5497440E-15
   1.560000     -1.5710447E-14
   1.620000     -2.5411214E-14
   1.680000     -2.3814594E-14
   1.740000     -7.9511398E-15
   1.800000      1.8386542E-14
   1.860000      4.4459628E-14
   1.920000      5.6005507E-14
   1.980000      4.1490306E-14
   2.040000     -1.2708317E-15
   2.100000     -6.1384396E-14
   2.160000     -1.1657926E-13
   2.220000     -1.4069925E-13
   2.280000     -1.1455818E-13
   2.340000     -3.5651427E-14
   2.400000      7.7956203E-14
   2.460000      1.9212756E-13
   2.520000      2.6842198E-13
   2.580000      2.7844247E-13
   2.640000      2.1441902E-13
   2.700000      9.1046779E-14
   2.760000     -6.2361960E-14
   2.820000     -2.1540820E-13
   2.880000     -3.4845266E-13
   2.940000     -4.5564247E-13
   3.000000     -5.3625371E-13
   3.060000     -5.7819260E-13
   3.120000     -5.4351754E-13
   3.180000     -3.6781548E-13
   3.240000      1.8743499E-14
   3.300000      6.5023437E-13
   3.360000      1.4766679E-12
   3.420000      2.3300324E-12
   3.480000      2.9271856E-12
   3.540000      2.9234328E-12
   3.600000      2.0138526E-12
   3.660000      5.9716250E-14
   3.720000     -2.7981614E-12
   3.780000     -6.0820138E-12
   3.840000     -9.0091138E-12
   3.900000     -1.0624482E-11
   3.960000     -1.0016823E-11
   4.020000     -6.5734935E-12
   4.080000     -2.1413919E-13
   4.140000      8.4579670E-12
   4.200000      1.8132771E-11
   4.260000      2.6918625E-11
   4.320000      3.2607115E-11
   4.380000      3.3044199E-11
   4.440000      2.6558044E-11
   4.500000      1.2385685E-11
   4.560000     -8.9626275E-12
   4.620000     -3.5464780E-11
   4.680000     -6.3538640E-11
   4.740000     -8.8245918E-11
   4.800000     -1.0379378E-10
   4.860000     -1.0434329E-10
   4.920000     -8.5075058E-11
   4.980000     -4.3387578E-11
   5.040000      1.9968950E-11
   5.100000      1.0006642E-10
   5.160000      1.8752090E-10
   5.220000      2.6893818E-10
   5.280000      3.2813596E-10
   5.340000      3.4803935E-10
   5.400000      3.1299291E-10
   5.460000      2.1112273E-10
   5.520000      3.6347036E-11
   5.580000     -2.1031529E-10
   5.640000     -5.2036309E-10
   5.700000     -8.7841506E-10
   5.760000     -1.2636830E-09
   5.820000     -1.6520733E-09
   5.880000     -2.0186017E-09
   5.940000     -2.3398057E-09
   6.000000     -2.5958804E-09
   6.060000     -2.7723470E-09
   6.120000     -2.8611331E-09
   6.180000     -2.8610254E-09
   6.240000     -2.7774998E-09
   6.300000     -2.6219953E-09
   6.360000     -2.4107361E-09
   6.420000     -2.1632529E-09
   6.480000     -1.9007824E-09
   6.540000     -1.6447339E-09
   6.600000     -1.4153739E-09
   6.660000     -1.2308153E-09
   6.720000     -1.1063023E-09
   6.780000     -1.0536916E-09
   6.840000     -1.0809852E-09
   6.900000     -1.1917802E-09
   6.960000     -1.3845910E-09
   7.020000     -1.6521395E-09
   7.080000     -1.9808604E-09
   7.140000     -2.3509612E-09
   7.200000     -2.7373812E-09
   7.260000     -3.1118366E-09
   7.320000     -3.4458962E-09
   7.380000     -3.7147032E-09
   7.440000     -3.9007029E-09
   7.500000     -3.9965973E-09
   7.560000     -4.0068353E-09
   7.620000     -3.9472239E-09
   7.680000     -3.8426560E-09
   7.740000     -3.7233965E-09
   7.800000     -3.6206624E-09
   7.860000     -3.5623442E-09
   7.920000     -3.5696042E-09
   7.980000     -3.6547918E-09
   8.040000     -3.8207886E-09
   8.100000     -4.0616097E-09
   8.160000     -4.3639301E-09
   8.220000     -4.7091837E-09
   8.280000     -5.0759552E-09
   8.340000     -5.4424296E-09
   8.400000     -5.7887126E-09
   8.460000     -6.0987935E-09
   8.520000     -6.3618586E-09
   8.580000     -6.5727042E-09
   8.640000     -6.7310797E-09
   8.700000     -6.8400321E-09
   8.760000     -6.9036066E-09
   8.820000     -6.9244646E-09
   8.880000     -6.9020696E-09
   8.940000     -6.8319395E-09
   9.000000     -6.7061721E-09
   9.060000     -6.5150427E-09
   9.120000     -6.2491270E-09
   9.180000     -5.9012657E-09
   9.240000     -5.4677471E-09
   9.300000     -4.9483861E-09
   9.360000     -4.3455870E-09
   9.420000     -3.6628309E-09
   9.480000     -2.9032423E-09
   9.540000     -2.0688300E-09
   9.600000     -1.1607302E-09
   9.660000     -1.8036327E-10
   9.720000      8.6898272E-10
   9.780000      1.9808637E-09
   9.840000      3.1453820E-09
   9.900000      4.3502668E-09
   9.960000      5.5832294E-09
   10.02000      6.8349677E-09
   10.08000      8.1018428E-09
   10.14000      9.3872030E-09
   10.20000      1.0700633E-08
   10.26000      1.2055023E-08
   10.32000      1.3462024E-08
   10.38000      1.4927094E-08
   10.44000      1.6445565E-08
   10.50000      1.8001014E-08
   10.56000      1.9566659E-08
   10.62000      2.1109610E-08
   10.68000      2.2597018E-08
   10.74000      2.4002532E-08
   10.80000      2.5311390E-08
   10.86000      2.6522745E-08
   10.92000      2.7648698E-08
   10.98000      2.8710351E-08
   11.04000      2.9732016E-08
   11.10000      3.0735102E-08
   11.16000      3.1733244E-08
   11.22000      3.2729698E-08
   11.28000      3.3717413E-08
   11.34000      3.4681481E-08
   11.40000      3.5603112E-08
   11.46000      3.6464080E-08
   11.52000      3.7250629E-08
   11.58000      3.7956116E-08
   11.64000      3.8581920E-08
   11.70000      3.9136715E-08
   11.76000      3.9634354E-08
   11.82000      4.0090942E-08
   11.88000      4.0521662E-08
   11.94000      4.0937930E-08
   12.00000      4.1345256E-08
   12.06000      4.1741977E-08
   12.12000      4.2118888E-08
   12.18000      4.2459849E-08
   12.24000      4.2743206E-08
   12.30000      4.2944222E-08
   12.36000      4.3038366E-08
   12.42000      4.3005318E-08
   12.48000      4.2833133E-08
   12.54000      4.2521652E-08
   12.60000      4.2084235E-08
   12.66000      4.1546841E-08
   12.72000      4.0944272E-08
   12.78000      4.0313910E-08
   12.84000      3.9688246E-08
   12.90000      3.9087929E-08
   12.96000      3.8517133E-08
   13.02000      3.7962575E-08
   13.08000      3.7396774E-08
   13.14000      3.6784929E-08
   13.20000      3.6094022E-08
   13.26000      3.5302111E-08
   13.32000      3.4405467E-08
   13.38000      3.3421745E-08
   13.44000      3.2388026E-08
   13.50000      3.1353771E-08
   13.56000      3.0369872E-08
   13.62000      2.9476164E-08
   13.68000      2.8690406E-08
   13.74000      2.8001670E-08
   13.80000      2.7370373E-08
   13.86000      2.6735627E-08
   13.92000      2.6028708E-08
   13.98000      2.5189518E-08
   14.04000      2.4181794E-08
   14.10000      2.3002677E-08
   14.16000      2.1683460E-08
   14.22000      2.0280790E-08
   14.28000      1.8860352E-08
   14.34000      1.7477619E-08
   14.40000      1.6161509E-08
   14.46000      1.4906080E-08
   14.52000      1.3673258E-08
   14.58000      1.2406066E-08
   14.64000      1.1048431E-08
   14.70000      9.5654826E-09
   14.76000      7.9578868E-09
   14.82000      6.2655809E-09
   14.88000      4.5595527E-09
   14.94000      2.9239826E-09
   15.00000      1.4340412E-09
   15.06000      1.3586682E-10
   15.12000     -9.6550945E-10
   15.18000     -1.9069857E-09
   15.24000     -2.7570093E-09
   15.30000     -3.5972303E-09
   15.36000     -4.5015058E-09
   15.42000     -5.5180207E-09
   15.48000     -6.6590755E-09
   15.54000     -7.9006943E-09
   15.60000     -9.1914218E-09
   15.66000     -1.0467291E-08
   15.72000     -1.1668638E-08
   15.78000     -1.2754372E-08
   15.84000     -1.3710445E-08
   15.90000     -1.4551118E-08
   15.96000     -1.5313518E-08
   16.02000     -1.6047689E-08
   16.08000     -1.6805034E-08
   16.14000     -1.7628162E-08
   16.20000     -1.8544297E-08
   16.26000     -1.9563231E-08
   16.32000     -2.0679524E-08
   16.38000     -2.1877613E-08
   16.44000     -2.3137989E-08
   16.50000     -2.4442665E-08
   16.56000     -2.5778585E-08
   16.62000     -2.7138498E-08
   16.68000     -2.8519441E-08
   16.74000     -2.9919693E-08
   16.80000     -3.1335261E-08
   16.86000     -3.2757061E-08
   16.92000     -3.4169606E-08
   16.98000     -3.5551626E-08
   17.04000     -3.6878475E-08
   17.10000     -3.8125744E-08
   17.16000     -3.9273097E-08
   17.22000     -4.0307416E-08
   17.28000     -4.1224407E-08
   17.34000     -4.2028379E-08
   17.40000     -4.2730274E-08
   17.46000     -4.3344574E-08
   17.52000     -4.3885677E-08
   17.58000     -4.4364480E-08
   17.64000     -4.4785619E-08
   17.70000     -4.5145661E-08
   17.76000     -4.5432408E-08
   17.82000     -4.5625576E-08
   17.88000     -4.5699046E-08
   17.94000     -4.5624926E-08
   18.00000     -4.5379181E-08
   18.06000     -4.4948145E-08
   18.12000     -4.4334485E-08
   18.18000     -4.3560785E-08
   18.24000     -4.2669051E-08
   18.30000     -4.1715321E-08
   18.36000     -4.0759925E-08
   18.42000     -3.9855475E-08
   18.48000     -3.9035680E-08
   18.54000     -3.8308286E-08
   18.60000     -3.7654274E-08
   18.66000     -3.7033857E-08
   18.72000     -3.6397751E-08
   18.78000     -3.5700648E-08
   18.84000     -3.4913445E-08
   18.90000     -3.4031050E-08
   18.96000     -3.3074002E-08
   19.02000     -3.2083587E-08
   19.08000     -3.1111789E-08
   19.14000     -3.0208547E-08
   19.20000     -2.9409387E-08
   19.26000     -2.8726678E-08
   19.32000     -2.8146864E-08
   19.38000     -2.7634579E-08
   19.44000     -2.7142645E-08
   19.50000     -2.6625088E-08
   19.56000     -2.6049166E-08
   19.62000     -2.5402668E-08
   19.68000     -2.4694218E-08
   19.74000     -2.3946752E-08
   19.80000     -2.3186654E-08
   19.86000     -2.2432491E-08
   19.92000     -2.1687260E-08
   19.98000     -2.0936659E-08
   20.04000     -2.0153751E-08
   20.10000     -1.9308230E-08
   20.16000     -1.8377152E-08
   20.22000     -1.7353653E-08
   20.28000     -1.6250914E-08
   20.34000     -1.5100129E-08
   20.40000     -1.3942961E-08
   20.46000     -1.2820649E-08
   20.52000     -1.1762901E-08
   20.58000     -1.0779962E-08
   20.64000     -9.8603437E-09
   20.70000     -8.9750634E-09
   20.76000     -8.0872002E-09
   20.82000     -7.1638397E-09
   20.88000     -6.1866534E-09
   20.94000     -5.1577902E-09
   21.00000     -4.0992907E-09
   21.06000     -3.0463467E-09
   21.12000     -2.0367144E-09
   21.18000     -1.0997805E-09
   21.24000     -2.4882854E-10
   21.30000      5.2102356E-10
   21.36000      1.2286123E-09
   21.42000      1.8977431E-09
   21.48000      2.5466051E-09
   21.54000      3.1794656E-09
   21.60000      3.7839305E-09
   21.66000      4.3352411E-09
   21.72000      4.8065867E-09
   21.78000      5.1820397E-09
   21.84000      5.4674505E-09
   21.90000      5.6949725E-09
   21.96000      5.9188601E-09
   22.02000      6.2031109E-09
   22.08000      6.6043913E-09
   22.14000      7.1554074E-09
   22.20000      7.8539166E-09
   22.26000      8.6609129E-09
   22.32000      9.5087298E-09
   22.38000      1.0316874E-08
   22.44000      1.1011154E-08
   22.50000      1.1540711E-08
   22.56000      1.1888260E-08
   22.62000      1.2070750E-08
   22.68000      1.2130462E-08
   22.74000      1.2119330E-08
   22.80000      1.2081224E-08
   22.86000      1.2037471E-08
   22.92000      1.1979822E-08
   22.98000      1.1872721E-08
   23.04000      1.1663851E-08
   23.10000      1.1299509E-08
   23.16000      1.0740126E-08
   23.22000      9.9714770E-09
   23.28000      9.0087005E-09
   23.34000      7.8925311E-09
   23.40000      6.6793757E-09
   23.46000      5.4284190E-09
   23.52000      4.1895301E-09
   23.58000      2.9951628E-09
   23.64000      1.8580887E-09
   23.70000      7.7496642E-10
   23.76000     -2.6589547E-10
   23.82000     -1.2753034E-09
   23.88000     -2.2553406E-09
   23.94000     -3.1950531E-09
   24.00000     -4.0704831E-09
   24.06000     -4.8485300E-09
   24.12000     -5.4931846E-09
   24.18000     -5.9724079E-09
   24.24000     -6.2642385E-09
   24.30000     -6.3612720E-09
   24.36000     -6.2732384E-09
   24.42000     -6.0276935E-09
   24.48000     -5.6689324E-09
   24.54000     -5.2552149E-09
   24.60000     -4.8543476E-09
   24.66000     -4.5377653E-09
   24.72000     -4.3734025E-09
   24.78000     -4.4179349E-09
   24.84000     -4.7092774E-09
   24.90000     -5.2605835E-09
   24.96000     -6.0571668E-09
   25.02000     -7.0575488E-09
   25.08000     -8.1991294E-09
   25.14000     -9.4077652E-09
   25.20000     -1.0609281E-08
   25.26000     -1.1740087E-08
   25.32000     -1.2754198E-08
   25.38000     -1.3625105E-08
   25.44000     -1.4342723E-08
   25.50000     -1.4907405E-08
   25.56000     -1.5323897E-08
   25.62000     -1.5597804E-08
   25.68000     -1.5735868E-08
   25.74000     -1.5749549E-08
   25.80000     -1.5660047E-08
   25.86000     -1.5502298E-08
   25.92000     -1.5325829E-08
   25.98000     -1.5191420E-08
   26.04000     -1.5163733E-08
   26.10000     -1.5301302E-08
   26.16000     -1.5646025E-08
   26.22000     -1.6214715E-08
   26.28000     -1.6995056E-08
   26.34000     -1.7947611E-08
   26.40000     -1.9014131E-08
   26.46000     -2.0130779E-08
   26.52000     -2.1243231E-08
   26.58000     -2.2319655E-08
   26.64000     -2.3357837E-08
   26.70000     -2.4384159E-08
   26.76000     -2.5444512E-08
   26.82000     -2.6589825E-08
   26.88000     -2.7860541E-08
   26.94000     -2.9274794E-08
   27.00000     -3.0823799E-08
   27.06000     -3.2475540E-08
   27.12000     -3.4185216E-08
   27.18000     -3.5908748E-08
   27.24000     -3.7614939E-08
   27.30000     -3.9292484E-08
   27.36000     -4.0949910E-08
   27.42000     -4.2608868E-08
   27.48000     -4.4293131E-08
   27.54000     -4.6016730E-08
   27.60000     -4.7774673E-08
   27.66000     -4.9538674E-08
   27.72000     -5.1258965E-08
   27.78000     -5.2871709E-08
   27.84000     -5.4310306E-08
   27.90000     -5.5518079E-08
   27.96000     -5.6459356E-08
   28.02000     -5.7126304E-08
   28.08000     -5.7539541E-08
   28.14000     -5.7742117E-08
   28.20000     -5.7788153E-08
   28.26000     -5.7729245E-08
   28.32000     -5.7602527E-08
   28.38000     -5.7423936E-08
   28.44000     -5.7188508E-08
   28.50000     -5.6877216E-08
   28.56000     -5.6467442E-08
   28.62000     -5.5943300E-08
   28.68000     -5.5302188E-08
   28.74000     -5.4555773E-08
   28.80000     -5.3725770E-08
   28.86000     -5.2836594E-08
   28.92000     -5.1907843E-08
   28.98000     -5.0949136E-08
   29.04000     -4.9958704E-08
   29.10000     -4.8925827E-08
   29.16000     -4.7836132E-08
   29.22000     -4.6677911E-08
   29.28000     -4.5447525E-08
   29.34000     -4.4151996E-08
   29.40000     -4.2807649E-08
   29.46000     -4.1434721E-08
   29.52000     -4.0049425E-08
   29.58000     -3.8656076E-08
   29.64000     -3.7242557E-08
   29.70000     -3.5781458E-08
   29.76000     -3.4237559E-08
   29.82000     -3.2579791E-08
   29.88000     -3.0793998E-08
   29.94000     -2.8892208E-08
   30.00000     -2.6915304E-08
   30.06000     -2.4928241E-08
   30.12000     -2.3009429E-08
   30.18000     -2.1237707E-08
   30.24000     -1.9680506E-08
   30.30000     -1.8385995E-08
   30.36000     -1.7380158E-08
   30.42000     -1.6668229E-08
   30.48000     -1.6238864E-08
   30.54000     -1.6069247E-08
   30.60000     -1.6129794E-08
   30.66000     -1.6387739E-08
   30.72000     -1.6809611E-08
   30.78000     -1.7362979E-08
   30.84000     -1.8017904E-08
   30.90000     -1.8748493E-08
   30.96000     -1.9534616E-08
   31.02000     -2.0363609E-08
   31.08000     -2.1231537E-08
   31.14000     -2.2143585E-08
   31.20000     -2.3113213E-08
   31.26000     -2.4159924E-08
   31.32000     -2.5305740E-08
   31.38000     -2.6570756E-08
   31.44000     -2.7968357E-08
   31.50000     -2.9500859E-08
   31.56000     -3.1156514E-08
   31.62000     -3.2908776E-08
   31.68000     -3.4718351E-08
   31.74000     -3.6538076E-08
   31.80000     -3.8319861E-08
   31.86000     -4.0022325E-08
   31.92000     -4.1617593E-08
   31.98000     -4.3095778E-08
   32.04000     -4.4466400E-08
   32.10000     -4.5756515E-08
   32.16000     -4.7006058E-08
   32.22000     -4.8261015E-08
   32.28000     -4.9565401E-08
   32.34000     -5.0953002E-08
   32.40000     -5.2440132E-08
   32.46000     -5.4020884E-08
   32.52000     -5.5666099E-08
   32.58000     -5.7326851E-08
   32.64000     -5.8942117E-08
   32.70000     -6.0449032E-08
   32.76000     -6.1793287E-08
   32.82000     -6.2936870E-08
   32.88000     -6.3861265E-08
   32.94000     -6.4565555E-08
   33.00000     -6.5060604E-08
   33.06000     -6.5361760E-08
   33.12000     -6.5482766E-08
   33.18000     -6.5432900E-08
   33.24000     -6.5218060E-08
   33.30000     -6.4844649E-08
   33.36000     -6.4324468E-08
   33.42000     -6.3678172E-08
   33.48000     -6.2935953E-08
   33.54000     -6.2134767E-08
   33.60000     -6.1313038E-08
   33.66000     -6.0504220E-08
   33.72000     -5.9730901E-08
   33.78000     -5.9000836E-08
   33.84000     -5.8305829E-08
   33.90000     -5.7623819E-08
   33.96000     -5.6923628E-08
   34.02000     -5.6171672E-08
   34.08000     -5.5338944E-08
   34.14000     -5.4406549E-08
   34.20000     -5.3368257E-08
   34.26000     -5.2229328E-08
   34.32000     -5.1002193E-08
   34.38000     -4.9700667E-08
   34.44000     -4.8334968E-08
   34.50000     -4.6909289E-08
   34.56000     -4.5422464E-08
   34.62000     -4.3871022E-08
   34.68000     -4.2252875E-08
   34.74000     -4.0570065E-08
   34.80000     -3.8829690E-08
   34.86000     -3.7043261E-08
   34.92000     -3.5225419E-08
   34.98000     -3.3392979E-08
   35.04000     -3.1564706E-08
   35.10000     -2.9761482E-08
   35.16000     -2.8006097E-08
   35.22000     -2.6322024E-08
   35.28000     -2.4730916E-08
   35.34000     -2.3249250E-08
   35.40000     -2.1884876E-08
   35.46000     -2.0634474E-08
   35.52000     -1.9482734E-08
   35.58000     -1.8403878E-08
   35.64000     -1.7365686E-08
   35.70000     -1.6335628E-08
   35.76000     -1.5288034E-08
   35.82000     -1.4210676E-08
   35.88000     -1.3108938E-08
   35.94000     -1.2006030E-08
   36.00000     -1.0938758E-08
   36.06000     -9.9495665E-09
   36.12000     -9.0767225E-09
   36.18000     -8.3451690E-09
   36.24000     -7.7603959E-09
   36.30000     -7.3069986E-09
   36.36000     -6.9523312E-09
   36.42000     -6.6545192E-09
   36.48000     -6.3729413E-09
   36.54000     -6.0785954E-09
   36.60000     -5.7615437E-09
   36.66000     -5.4331220E-09
   36.72000     -5.1218629E-09
   36.78000     -4.8639337E-09
   36.84000     -4.6908761E-09
   36.90000     -4.6187800E-09
   36.96000     -4.6429816E-09
   37.02000     -4.7407638E-09
   37.08000     -4.8816258E-09
   37.14000     -5.0416462E-09
   37.20000     -5.2164735E-09
   37.26000     -5.4275682E-09
   37.32000     -5.7185701E-09
   37.38000     -6.1423493E-09
   37.44000     -6.7429284E-09
   37.50000     -7.5386213E-09
   37.56000     -8.5125533E-09
   37.62000     -9.6142818E-09
   37.68000     -1.0772487E-08
   37.74000     -1.1914945E-08
   37.80000     -1.2989611E-08
   37.86000     -1.3980237E-08
   37.92000     -1.4911631E-08
   37.98000     -1.5842760E-08
   38.04000     -1.6849576E-08
   38.10000     -1.8002519E-08
   38.16000     -1.9345372E-08
   38.22000     -2.0881995E-08
   38.28000     -2.2575176E-08
   38.34000     -2.4358277E-08
   38.40000     -2.6156220E-08
   38.46000     -2.7909135E-08
   38.52000     -2.9590765E-08
   38.58000     -3.1215130E-08
   38.64000     -3.2828588E-08
   38.70000     -3.4489453E-08
   38.76000     -3.6241651E-08
   38.82000     -3.8091503E-08
   38.88000     -3.9995921E-08
   38.94000     -4.1867011E-08
   39.00000     -4.3592561E-08
   39.06000     -4.5066464E-08
   39.12000     -4.6219522E-08
   39.18000     -4.7040398E-08
   39.24000     -4.7579515E-08
   39.30000     -4.7934073E-08
   39.36000     -4.8218549E-08
   39.42000     -4.8530076E-08
   39.48000     -4.8919741E-08
   39.54000     -4.9379057E-08
   39.60000     -4.9845763E-08
   39.66000     -5.0226728E-08
   39.72000     -5.0430121E-08
   39.78000     -5.0396132E-08
   39.84000     -5.0116270E-08
   39.90000     -4.9635190E-08
   39.96000     -4.9034700E-08
   40.02000     -4.8405443E-08
   40.08000     -4.7815448E-08
   40.14000     -4.7285816E-08
   40.20000     -4.6781579E-08
   40.26000     -4.6221167E-08
   40.32000     -4.5502180E-08
   40.38000     -4.4535970E-08
   40.44000     -4.3280302E-08
   40.50000     -4.1759414E-08
   40.56000     -4.0064105E-08
   40.62000     -3.8330569E-08
   40.68000     -3.6703451E-08
   40.74000     -3.5294288E-08
   40.80000     -3.4148616E-08
   40.86000     -3.3232844E-08
   40.92000     -3.2445936E-08
   40.98000     -3.1652778E-08
   41.04000     -3.0728877E-08
   41.10000     -2.9602138E-08
   41.16000     -2.8278311E-08
   41.22000     -2.6842123E-08
   41.28000     -2.5434042E-08
   41.34000     -2.4210363E-08
   41.40000     -2.3299345E-08
   41.46000     -2.2766871E-08
   41.52000     -2.2601704E-08
   41.58000     -2.2723976E-08
   41.64000     -2.3013472E-08
   41.70000     -2.3348335E-08
   41.76000     -2.3641947E-08
   41.82000     -2.3866663E-08
   41.88000     -2.4057238E-08
   41.94000     -2.4293378E-08
   42.00000     -2.4667637E-08
   42.06000     -2.5249664E-08
   42.12000     -2.6059286E-08
   42.18000     -2.7057808E-08
   42.24000     -2.8160741E-08
   42.30000     -2.9267541E-08
   42.36000     -3.0297777E-08
   42.42000     -3.1220658E-08
   42.48000     -3.2067096E-08
   42.54000     -3.2919335E-08
   42.60000     -3.3881243E-08
   42.66000     -3.5038855E-08
   42.72000     -3.6424527E-08
   42.78000     -3.7997008E-08
   42.84000     -3.9644874E-08
   42.90000     -4.1213308E-08
   42.96000     -4.2546638E-08
   43.02000     -4.3533646E-08
   43.08000     -4.4141458E-08
   43.14000     -4.4426734E-08
   43.20000     -4.4519957E-08
   43.26000     -4.4587011E-08
   43.32000     -4.4779629E-08
   43.38000     -4.5190028E-08
   43.44000     -4.5823917E-08
   43.50000     -4.6600157E-08
   43.56000     -4.7376769E-08
   43.62000     -4.7994721E-08
   43.68000     -4.8325315E-08
   43.74000     -4.8306330E-08
   43.80000     -4.7956036E-08
   43.86000     -4.7361514E-08
   43.92000     -4.6645933E-08
   43.98000     -4.5926061E-08
   44.04000     -4.5274025E-08
   44.10000     -4.4695664E-08
   44.16000     -4.4132136E-08
   44.22000     -4.3483695E-08
   44.28000     -4.2647240E-08
   44.34000     -4.1554877E-08
   44.40000     -4.0200547E-08
   44.46000     -3.8646018E-08
   44.52000     -3.7004625E-08
   44.58000     -3.5408480E-08
   44.64000     -3.3970100E-08
   44.70000     -3.2750922E-08
   44.76000     -3.1746247E-08
   44.82000     -3.0890678E-08
   44.88000     -3.0081331E-08
   44.94000     -2.9210637E-08
   45.00000     -2.8198203E-08
   45.06000     -2.7011934E-08
   45.12000     -2.5672804E-08
   45.18000     -2.4243000E-08
   45.24000     -2.2802487E-08
   45.30000     -2.1422377E-08
   45.36000     -2.0143830E-08
   45.42000     -1.8968910E-08
   45.48000     -1.7865455E-08
   45.54000     -1.6783336E-08
   45.60000     -1.5675962E-08
   45.66000     -1.4519522E-08
   45.72000     -1.3323513E-08
   45.78000     -1.2129212E-08
   45.84000     -1.0996695E-08
   45.90000     -9.9847908E-09
   45.96000     -9.1307131E-09
   46.02000     -8.4363974E-09
   46.08000     -7.8665483E-09
   46.14000     -7.3596058E-09
   46.20000     -6.8483650E-09
   46.26000     -6.2834382E-09
   46.32000     -5.6513541E-09
   46.38000     -4.9806914E-09
   46.44000     -4.3336916E-09
   46.50000     -3.7858996E-09
   46.56000     -3.4006662E-09
   46.62000     -3.2071632E-09
   46.68000     -3.1893284E-09
   46.74000     -3.2894230E-09
   46.80000     -3.4250487E-09
   46.86000     -3.5142151E-09
   46.92000     -3.5006180E-09
   46.98000     -3.3713226E-09
   47.04000     -3.1613139E-09
   47.10000     -2.9432967E-09
   47.16000     -2.8055909E-09
   47.22000     -2.8247793E-09
   47.28000     -3.0417804E-09
   47.34000     -3.4493255E-09
   47.40000     -3.9954098E-09
   47.46000     -4.6020419E-09
   47.52000     -5.1932911E-09
   47.58000     -5.7232494E-09
   47.64000     -6.1944840E-09
   47.70000     -6.6609824E-09
   47.76000     -7.2151867E-09
   47.82000     -7.9643581E-09
   47.88000     -9.0051069E-09
   47.94000     -1.0405242E-08
   48.00000     -1.2199227E-08
   48.06000     -1.4398689E-08
   48.12000     -1.7014260E-08
   48.18000     -2.0081320E-08
   48.24000     -2.3680995E-08
   48.30000     -2.7949472E-08
   48.36000     -3.3072745E-08
   48.42000     -3.9269224E-08
   48.48000     -4.6767205E-08
   48.54000     -5.5786568E-08
   48.60000     -6.6532969E-08
   48.66000     -7.9208739E-08
   48.72000     -9.4038974E-08
   48.78000     -1.1130604E-07
   48.84000     -1.3138325E-07
   48.90000     -1.5475922E-07
   48.96000     -1.8204820E-07
   49.02000     -2.1398606E-07
   49.08000     -2.5141642E-07
   49.14000     -2.9527399E-07
   49.20000     -3.4657262E-07
   49.26000     -4.0640469E-07
   49.32000     -4.7595566E-07
   49.38000     -5.5653334E-07
   49.44000     -6.4960898E-07
   49.50000     -7.5686188E-07
   49.56000     -8.8021983E-07
   49.62000     -1.0218872E-06
   49.68000     -1.1843598E-06
   49.74000     -1.3704284E-06
   49.80000     -1.5831789E-06
   49.86000     -1.8259989E-06
   49.92000     -2.1025962E-06
   49.98000     -2.4170317E-06
   50.04000     -2.7737619E-06
   50.10000     -3.1776858E-06
   50.16000     -3.6341855E-06
   50.22000     -4.1491603E-06
   50.28000     -4.7290450E-06
   50.34000     -5.3808185E-06
   50.40000     -6.1120045E-06
   50.46000     -6.9306702E-06
   50.52000     -7.8454341E-06
   50.58000     -8.8654770E-06
   50.64000     -1.0000573E-05
   50.70000     -1.1261114E-05
   50.76000     -1.2658141E-05
   50.82000     -1.4203352E-05
   50.88000     -1.5909103E-05
   50.94000     -1.7788378E-05
   51.00000     -1.9854753E-05
   51.06000     -2.2122338E-05
   51.12000     -2.4605723E-05
   51.18000     -2.7319917E-05
   51.24000     -3.0280302E-05
   51.30000     -3.3502572E-05
   51.36000     -3.7002686E-05
   51.42000     -4.0796796E-05
   51.48000     -4.4901175E-05
   51.54000     -4.9332120E-05
   51.60000     -5.4105833E-05
   51.66000     -5.9238275E-05
   51.72000     -6.4745029E-05
   51.78000     -7.0641123E-05
   51.84000     -7.6940938E-05
   51.90000     -8.3658044E-05
   51.96000     -9.0805079E-05
   52.02000     -9.8393626E-05
   52.08000     -1.0643404E-04
   52.14000     -1.1493533E-04
   52.20000     -1.2390489E-04
   52.26000     -1.3334848E-04
   52.32000     -1.4326998E-04
   52.38000     -1.5367125E-04
   52.44000     -1.6455208E-04
   52.50000     -1.7591009E-04
   52.56000     -1.8774049E-04
   52.62000     -2.0003619E-04
   52.68000     -2.1278765E-04
   52.74000     -2.2598288E-04
   52.80000     -2.3960733E-04
   52.86000     -2.5364393E-04
   52.92000     -2.6807305E-04
   52.98000     -2.8287267E-04
   53.04000     -2.9801831E-04
   53.10000     -3.1348318E-04
   53.16000     -3.2923836E-04
   53.22000     -3.4525289E-04
   53.28000     -3.6149408E-04
   53.34000     -3.7792753E-04
   53.40000     -3.9451744E-04
   53.46000     -4.1122685E-04
   53.52000     -4.2801781E-04
   53.58000     -4.4485170E-04
   53.64000     -4.6168940E-04
   53.70000     -4.7849183E-04
   53.76000     -4.9521995E-04
   53.82000     -5.1183533E-04
   53.88000     -5.2830047E-04
   53.94000     -5.4457883E-04
   54.00000     -5.6063553E-04
   54.06000     -5.7643728E-04
   54.12000     -5.9195276E-04
   54.18000     -6.0715305E-04
   54.24000     -6.2201143E-04
   54.30000     -6.3650403E-04
   54.36000     -6.5060955E-04
   54.42000     -6.6430971E-04
   54.48000     -6.7758944E-04
   54.54000     -6.9043675E-04
   54.60000     -7.0284284E-04
   54.66000     -7.1480213E-04
   54.72000     -7.2631205E-04
   54.78000     -7.3737337E-04
   54.84000     -7.4798969E-04
   54.90000     -7.5816747E-04
   54.96000     -7.6791580E-04
   55.02000     -7.7724620E-04
   55.08000     -7.8617240E-04
   55.14000     -7.9471013E-04
   55.20000     -8.0287654E-04
   55.26000     -8.1069040E-04
   55.32000     -8.1817142E-04
   55.38000     -8.2534022E-04
   55.44000     -8.3221786E-04
   55.50000     -8.3882560E-04
   55.56000     -8.4518443E-04