 -0.750000000       0.00000000    
 -0.689999998       0.00000000    
 -0.629999995       0.00000000    
 -0.569999993       0.00000000    
 -0.509999990       0.00000000    
 -0.449999988       0.00000000    
 -0.389999986       0.00000000    
 -0.330000013       0.00000000    
 -0.270000011       3.79040072E-25
 -0.209999993       5.47323253E-24
 -0.150000006       3.80739141E-23
  -9.00000036E-02   1.67083024E-22
  -2.99999993E-02   5.01323756E-22
   2.99999993E-02   9.99398465E-22
   9.00000036E-02   9.14003881E-22
  0.150000006      -1.95900805E-21
  0.209999993      -1.11011144E-20
  0.270000011      -2.80243040E-20
  0.330000013      -4.45468199E-20
  0.389999986      -3.37735356E-20
  0.449999988       4.90255150E-20
  0.509999990       2.39265637E-19
  0.569999993       5.02282111E-19
  0.629999995       6.62943178E-19
  0.689999998       3.94005978E-19
  0.750000000      -6.46555800E-19
  0.810000002      -2.48959961E-18
  0.870000005      -4.44883459E-18
  0.930000007      -4.93988209E-18
  0.990000010      -1.93013559E-18
   1.04999995       5.75435596E-18
   1.11000001       1.65873850E-17
   1.16999996       2.50423355E-17
   1.23000002       2.23925253E-17
   1.28999996       7.63186095E-19
   1.35000002      -4.00783168E-17
   1.40999997      -8.62555025E-17
   1.47000003      -1.08792587E-16
   1.52999997      -7.29604932E-17
   1.59000003       4.13120865E-17
   1.64999998       2.14753094E-16
   1.71000004       3.74249517E-16
   1.76999998       4.05402621E-16
   1.83000004       2.01098777E-16
   1.88999999      -2.63942110E-16
   1.95000005      -8.66277906E-16
   2.00999999      -1.32289341E-15
   2.06999993      -1.27566338E-15
   2.13000011      -4.70378413E-16
   2.19000006       1.03154118E-15
   2.25000000       2.72384556E-15
   2.30999994       3.73114075E-15
   2.36999989       3.14546511E-15
   2.43000007       5.46478129E-16
   2.49000001      -3.52029498E-15
   2.54999995      -7.41136973E-15
   2.60999990      -8.83394971E-15
   2.67000008      -5.87044400E-15
   2.73000002       1.76368427E-15
   2.78999996       1.18482977E-14
   2.84999990       1.98246926E-14
   2.91000009       2.03255059E-14
   2.97000003       9.76332442E-15
   3.02999997      -1.10219468E-14
   3.08999991      -3.54541598E-14
   3.15000010      -5.24299503E-14
   3.21000004      -5.03061033E-14
   3.26999998      -2.25686237E-14
   3.32999992       2.71329048E-14
   3.39000010       8.33105151E-14
   3.45000005       1.22197676E-13
   3.50999999       1.20382911E-13
   3.56999993       6.58285546E-14
   3.63000011      -3.33127962E-14
   3.69000006      -1.46841483E-13
   3.75000000      -2.30293459E-13
   3.80999994      -2.41166814E-13
   3.86999989      -1.58153154E-13
   3.93000007       4.73828748E-15
   3.99000001       1.96752947E-13
   4.05000019       3.45059783E-13
   4.11000013       3.82226965E-13
   4.17000008       2.76619683E-13
   4.23000002       5.24401011E-14
   4.28999996      -2.11801239E-13
   4.34999990      -4.09866070E-13
   4.40999985      -4.51931813E-13
   4.46999979      -3.09020469E-13
   4.53000021      -3.66673888E-14
   4.59000015       2.37876261E-13
   4.65000010       3.66655518E-13
   4.71000004       2.53990947E-13
   4.76999998      -7.93173307E-14
   4.82999992      -4.74664578E-13
   4.88999987      -6.79268870E-13
   4.94999981      -4.51292893E-13
   5.01000023       3.07386007E-13
   5.07000017       1.44687105E-12
   5.13000011       2.55131007E-12
   5.19000006       3.04067297E-12
   5.25000000       2.37966938E-12
   5.30999994       3.29864770E-13
   5.36999989      -2.85363725E-12
   5.42999983      -6.37824515E-12
   5.48999977      -9.07564909E-12
   5.55000019      -9.74617696E-12
   5.61000013      -7.58256739E-12
   5.67000008      -2.52077114E-12
   5.73000002       4.62620914E-12
   5.78999996       1.23246864E-11
   5.84999990       1.87300106E-11
   5.90999985       2.22076836E-11
   5.96999979       2.17719835E-11
   6.03000021       1.72785761E-11
   6.09000015       9.31457515E-12
   6.15000010      -1.13067509E-12
   6.21000004      -1.30225327E-11
   6.26999998      -2.54552039E-11
   6.32999992      -3.75237792E-11
   6.38999987      -4.79452415E-11
   6.44999981      -5.46540521E-11
   6.51000023      -5.46874386E-11
   6.57000017      -4.46186837E-11
   6.63000011      -2.15931474E-11
   6.69000006       1.52590232E-11
   6.75000000       6.35001704E-11
   6.80999994       1.16703869E-10
   6.86999989       1.64833147E-10
   6.92999983       1.95771663E-10
   6.98999977       1.97697442E-10
   7.05000019       1.61665167E-10
   7.11000013       8.36567898E-11
   7.17000008      -3.44727198E-11
   7.23000002      -1.85340840E-10
   7.28999996      -3.57407409E-10
   7.34999990      -5.36767741E-10
   7.40999985      -7.08694103E-10
   7.46999979      -8.58474070E-10
   7.53000021      -9.71517311E-10
   7.59000015      -1.03313891E-09
   7.65000010      -1.02866959E-09
   7.71000004      -9.44461398E-10
   7.76999998      -7.69961317E-10
   7.82999992      -5.00465003E-10
   7.88999987      -1.39681433E-10
   7.94999981       2.98933212E-10
   8.01000023       7.92855059E-10
   8.06999969       1.31334632E-09
   8.13000011       1.82987658E-09
   8.18999958       2.31489872E-09
   8.25000000       2.74759437E-09
   8.31000042       3.11556092E-09
   8.36999989       3.41417605E-09
   8.43000031       3.64427422E-09
   8.48999977       3.80938081E-09
   8.55000019       3.91385901E-09
   8.60999966       3.96281052E-09
   8.67000008       3.96366717E-09
   8.72999954       3.92849264E-09
   8.78999996       3.87549060E-09
   8.85000038       3.82838294E-09
   8.90999985       3.81311294E-09
   8.97000027       3.85250587E-09
   9.02999973       3.96052124E-09
   9.09000015       4.13816936E-09
   9.14999962       4.37273506E-09
   9.21000004       4.64083039E-09
   9.27000046       4.91436447E-09
   9.32999992       5.16739274E-09
   9.39000034       5.38143796E-09
   9.44999981       5.54748292E-09
   9.51000023       5.66419001E-09
   9.56999969       5.73343151E-09
   9.63000011       5.75530601E-09
   9.68999958       5.72500447E-09
   9.75000000       5.63300562E-09
   9.81000042       5.46860690E-09
   9.86999989       5.22523669E-09
   9.93000031       4.90513452E-09
   9.98999977       4.52115323E-09
   10.0500002       4.09461887E-09
   10.1099997       3.64987884E-09
   10.1700001       3.20764393E-09
   10.2299995       2.77987433E-09
   10.2900000       2.36840281E-09
   10.3500004       1.96801642E-09
   10.4099998       1.57283953E-09
   10.4700003       1.18342236E-09
   10.5299997       8.11513634E-10
   10.5900002       4.80322282E-10
   10.6499996       2.19832930E-10
   10.7100000       5.87600038E-11
   10.7700005       1.61573498E-11
   10.8299999       9.59520866E-11
   10.8900003       2.86581231E-10
   10.9499998       5.65890779E-10
   11.0100002       9.09316455E-10
   11.0699997       1.29800148E-09
   11.1300001       1.72351644E-09
   11.1899996       2.18727525E-09
   11.2500000       2.69500688E-09
   11.3100004       3.24880656E-09
   11.3699999       3.84040133E-09
   11.4300003       4.44882708E-09
   11.4899998       5.04389241E-09
   11.5500002       5.59434010E-09
   11.6099997       6.07759176E-09
   11.6700001       6.48720855E-09
   11.7299995       6.83507562E-09
   11.7900000       7.14741244E-09
   11.8500004       7.45617257E-09
   11.9099998       7.78916487E-09
   11.9700003       8.16266255E-09
   12.0299997       8.57912230E-09
   12.0900002       9.03050879E-09
   12.1499996       9.50547818E-09
   12.2100000       9.99711780E-09
   12.2700005       1.05078284E-08
   12.3299999       1.10491190E-08
   12.3900003       1.16362031E-08
   12.4499998       1.22793891E-08
   12.5100002       1.29755788E-08
   12.5699997       1.37032758E-08
   12.6300001       1.44231560E-08
   12.6899996       1.50842805E-08
   12.7500000       1.56339421E-08
   12.8100004       1.60279665E-08
   12.8699999       1.62383209E-08
   12.9300003       1.62561857E-08
   12.9899998       1.60905174E-08
   13.0500002       1.57638613E-08
   13.1099997       1.53080180E-08
   13.1700001       1.47616133E-08
   13.2299995       1.41703600E-08
   13.2900000       1.35889362E-08
   13.3500004       1.30821842E-08
   13.4099998       1.27231825E-08
   13.4700003       1.25867734E-08
   13.5299997       1.27389423E-08
   13.5900002       1.32243390E-08
   13.6499996       1.40553498E-08
   13.7100000       1.52060942E-08
   13.7700005       1.66134484E-08
   13.8299999       1.81852364E-08
   13.8900003       1.98136867E-08
   13.9499998       2.13908624E-08
   14.0100002       2.28224284E-08
   14.0699997       2.40369271E-08
   14.1300001       2.49891876E-08
   14.1899996       2.56583323E-08
   14.2500000       2.60421977E-08
   14.3100004       2.61506496E-08
   14.3699999       2.60000022E-08
   14.4300003       2.56097454E-08
   14.4899998       2.50015297E-08
   14.5500002       2.41993732E-08
   14.6099997       2.32297435E-08
   14.6700001       2.21205472E-08
   14.7299995       2.08990159E-08
   14.7900000       1.95893364E-08
   14.8500004       1.82112743E-08
   14.9099998       1.67805805E-08
   14.9700003       1.53111532E-08
   15.0299997       1.38179033E-08
   15.0900002       1.23187514E-08
   15.1499996       1.08344915E-08
   15.2100000       9.38615052E-09
   15.2700005       7.99063127E-09
   15.3299999       6.65618982E-09
   15.3900003       5.37946665E-09
   15.4499998       4.14521173E-09
   15.5100002       2.92895463E-09
   15.5699997       1.70198922E-09
   15.6300001       4.37466841E-10
   15.6899996      -8.83803253E-10
   15.7500000      -2.26909003E-09
   15.8100004      -3.71188236E-09
   15.8699999      -5.19277243E-09
   15.9300003      -6.68276368E-09
   15.9899998      -8.14805023E-09
   16.0499992      -9.55487867E-09
   16.1100006      -1.08731317E-08
   16.1700001      -1.20777752E-08
   16.2299995      -1.31482150E-08
   16.2900009      -1.40664964E-08
   16.3500004      -1.48157566E-08
   16.4099998      -1.53801523E-08
   16.4699993      -1.57468012E-08
   16.5300007      -1.59093112E-08
   16.5900002      -1.58717093E-08
   16.6499996      -1.56513220E-08
   16.7099991      -1.52793262E-08
   16.7700005      -1.47983332E-08
   16.8299999      -1.42570453E-08
   16.8899994      -1.37029303E-08
   16.9500008      -1.31744304E-08
   17.0100002      -1.26947084E-08
   17.0699997      -1.22687975E-08
   17.1299992      -1.18853736E-08
   17.1900005      -1.15230518E-08
   17.2500000      -1.11596030E-08
   17.3099995      -1.07813012E-08
   17.3700008      -1.03892797E-08
   17.4300003      -1.00005959E-08
   17.4899998      -9.64339719E-09
   17.5499992      -9.34759115E-09
   17.6100006      -9.13395404E-09
   17.6700001      -9.00515662E-09
   17.7299995      -8.94155150E-09
   17.7900009      -8.90310226E-09
   17.8500004      -8.83699158E-09
   17.9099998      -8.68881589E-09
   17.9699993      -8.41432524E-09
   18.0300007      -7.98858402E-09
   18.0900002      -7.41023287E-09
   18.1499996      -6.70004097E-09
   18.2099991      -5.89461369E-09
   18.2700005      -5.03757303E-09
   18.3299999      -4.17109680E-09
   18.3899994      -3.33026406E-09
   18.4500008      -2.54131982E-09
   18.5100002      -1.82328097E-09
   18.5699997      -1.19101295E-09
   18.6299992      -6.57554955E-10
   18.6900005      -2.34174680E-10
   18.7500000       7.19355686E-11
   18.8099995       2.60991811E-10
   18.8700008       3.42927131E-10
   18.9300003       3.36934314E-10
   18.9899998       2.67735084E-10
   19.0499992       1.59615737E-10
   19.1100006       3.04274037E-11
   19.1700001      -1.12066224E-10
   19.2299995      -2.70025224E-10
   19.2900009      -4.51727600E-10
   19.3500004      -6.65949185E-10
   19.4099998      -9.17239174E-10
   19.4699993      -1.20445742E-09
   19.5300007      -1.52342405E-09
   19.5900002      -1.87251237E-09
   19.6499996      -2.25838637E-09
   19.7099991      -2.69866751E-09
   19.7700005      -3.21937943E-09
   19.8299999      -3.84716481E-09
   19.8899994      -4.59856109E-09
   19.9500008      -5.47006618E-09
   20.0100002      -6.43266374E-09
   20.0699997      -7.43299289E-09
   20.1299992      -8.40107184E-09
   20.1900005      -9.26235888E-09
   20.2500000      -9.95072291E-09
   20.3099995      -1.04189386E-08
   20.3700008      -1.06443983E-08
   20.4300003      -1.06293427E-08
   20.4899998      -1.03965094E-08
   20.5499992      -9.98218219E-09
   20.6100006      -9.42900691E-09
   20.6700001      -8.78059137E-09
   20.7299995      -8.07893397E-09
   20.7900009      -7.36445571E-09
   20.8500004      -6.67727074E-09
   20.9099998      -6.05779427E-09
   20.9699993      -5.54513990E-09
   21.0300007      -5.17292031E-09
   21.0900002      -4.96360908E-09
   21.1499996      -4.92368546E-09
   21.2099991      -5.04194686E-09
   21.2700005      -5.29224264E-09
   21.3299999      -5.64009373E-09
   21.3899994      -6.05094375E-09
   21.4500008      -6.49700338E-09
   21.5100002      -6.96022617E-09
   21.5699997      -7.43058104E-09
   21.6299992      -7.90073962E-09
   21.6900005      -8.35967118E-09
   21.7500000      -8.78795881E-09
   21.8099995      -9.15682197E-09
   21.8700008      -9.43138367E-09
   21.9300003      -9.57728297E-09
   21.9899998      -9.56872004E-09
   22.0499992      -9.39574729E-09
   22.1100006      -9.06893405E-09
   22.1700001      -8.62028759E-09
   22.2299995      -8.10022005E-09
   22.2900009      -7.57132845E-09
   22.3500004      -7.10045756E-09
   22.4099998      -6.75074219E-09
   22.4699993      -6.57507027E-09
   22.5300007      -6.61153310E-09
   22.5900002      -6.88052548E-09
   22.6499996      -7.38255101E-09
   22.7099991      -8.09596301E-09
   22.7700005      -8.97475338E-09
   22.8299999      -9.94770399E-09
   22.8899994      -1.09209033E-08
   22.9500008      -1.17852963E-08
   23.0100002      -1.24293784E-08
   23.0699997      -1.27550068E-08
   23.1299992      -1.26925679E-08
   23.1900005      -1.22112196E-08
   23.2500000      -1.13211778E-08
   23.3099995      -1.00674420E-08
   23.3700008      -8.51708393E-09
   23.4300003      -6.74407286E-09
   23.4899998      -4.81586726E-09
   23.5499992      -2.78474244E-09
   23.6100006      -6.84667656E-10
   23.6700001       1.46738977E-09
   23.7299995       3.66784625E-09
   23.7900009       5.92245497E-09
   23.8500004       8.24263324E-09
   23.9099998       1.06418288E-08
   23.9699993       1.31310856E-08
   24.0300007       1.57134306E-08
   24.0900002       1.83778042E-08
   24.1499996       2.10943796E-08
   24.2099991       2.38134668E-08
   24.2700005       2.64695075E-08
   24.3299999       2.89899553E-08
   24.3899994       3.13070458E-08
   24.4500008       3.33692256E-08
   24.5100002       3.51490250E-08
   24.5699997       3.66453463E-08
   24.6299992       3.78801701E-08
   24.6900005       3.88913328E-08
   24.7500000       3.97240640E-08
   24.8099995       4.04237248E-08
   24.8700008       4.10312815E-08
   24.9300003       4.15817105E-08
   24.9899998       4.21046487E-08
   25.0499992       4.26261479E-08
   25.1100006       4.31706368E-08
   25.1700001       4.37625047E-08
   25.2299995       4.44270825E-08
   25.2900009       4.51908839E-08
   25.3500004       4.60810696E-08
   25.4099998       4.71239083E-08
   25.4699993       4.83420557E-08
   25.5300007       4.97508310E-08
   25.5900002       5.13536165E-08
   25.6499996       5.31371356E-08
   25.7099991       5.50675452E-08
   25.7700005       5.70885064E-08
   25.8299999       5.91225735E-08
   25.8899994       6.10765838E-08
   25.9500008       6.28509724E-08
   26.0100002       6.43516884E-08
   26.0699997       6.55020074E-08
   26.1299992       6.62514239E-08
   26.1900005       6.65789486E-08
   26.2500000       6.64900242E-08
   26.3099995       6.60082335E-08
   26.3700008       6.51648193E-08
   26.4300003       6.39896953E-08
   26.4899998       6.25067500E-08
   26.5499992       6.07344077E-08
   26.6100006       5.86900768E-08
   26.6700001       5.63956704E-08
   26.7299995       5.38809211E-08
   26.7900009       5.11827025E-08
   26.8500004       4.83400768E-08
   26.9099998       4.53870719E-08
   26.9699993       4.23460236E-08
   27.0300007       3.92240906E-08
   27.0900002       3.60144981E-08
   27.1499996       3.27019691E-08
   27.2099991       2.92705078E-08
   27.2700005       2.57105910E-08
   27.3299999       2.20234835E-08
   27.3899994       1.82215025E-08
   27.4500008       1.43249057E-08
   27.5100002       1.03576125E-08
   27.5699997       6.34435837E-09
   27.6299992       2.31118302E-09
   27.6900005      -1.71064340E-09
   27.7500000      -5.67918867E-09
   27.8099995      -9.53804946E-09
   27.8700008      -1.32170914E-08
   27.9300003      -1.66388983E-08
   27.9899998      -1.97295460E-08
   28.0499992      -2.24301342E-08
   28.1100006      -2.47048479E-08
   28.1700001      -2.65424696E-08
   28.2299995      -2.79509997E-08
   28.2900009      -2.89478130E-08
   28.3500004      -2.95497085E-08
   28.4099998      -2.97670386E-08
   28.4699993      -2.96042106E-08
   28.5300007      -2.90660154E-08
   28.5900002      -2.81667383E-08
   28.6499996      -2.69379150E-08
   28.7099991      -2.54313193E-08
   28.7700005      -2.37159110E-08
   28.8299999      -2.18698180E-08
   28.8899994      -1.99703649E-08
   28.9500008      -1.80853394E-08
   29.0100002      -1.62679346E-08
   29.0699997      -1.45558081E-08
   29.1299992      -1.29730573E-08
   29.1900005      -1.15328858E-08
   29.2500000      -1.02390683E-08
   29.3099995      -9.08543907E-09
   29.3700008      -8.05416533E-09
   29.4300003      -7.11453252E-09
   29.4899998      -6.22405461E-09
   29.5499992      -5.33278666E-09
   29.6100006      -4.39029346E-09
   29.6700001      -3.35349393E-09
   29.7299995      -2.19320140E-09
   29.7900009      -8.97665275E-10
   29.8500004       5.27351052E-10
   29.9099998       2.06115458E-09
   29.9699993       3.67182862E-09
   30.0300007       5.31958566E-09
   30.0900002       6.95907909E-09
   30.1499996       8.54104076E-09
   30.2099991       1.00142765E-08
   30.2700005       1.13290408E-08
   30.3299999       1.24419772E-08
   30.3899994       1.33215785E-08
   30.4500008       1.39521950E-08
   30.5100002       1.43345256E-08
   30.5699997       1.44816079E-08
   30.6299992       1.44112633E-08
   30.6900005       1.41378509E-08
   30.7500000       1.36670817E-08
   30.8099995       1.29967903E-08
   30.8700008       1.21240644E-08
   30.9300003       1.10559846E-08
   30.9899998       9.81898474E-09
   31.0499992       8.46175841E-09
   31.1100006       7.04915770E-09
   31.1700001       5.64853497E-09
   31.2299995       4.31376845E-09
   31.2900009       3.07375370E-09
   31.3500004       1.93053906E-09
   31.4099998       8.68141448E-10
   31.4699993      -1.31748154E-10
   31.5300007      -1.07417775E-09
   31.5900002      -1.94257366E-09
   31.6499996      -2.70160849E-09
   31.7099991      -3.31043037E-09
   31.7700005      -3.74088627E-09
   31.8299999      -3.99317779E-09
   31.8899994      -4.10234691E-09
   31.9500008      -4.13256052E-09
   32.0099983      -4.16091650E-09
   32.0699997      -4.25647384E-09
   32.1300011      -4.46199788E-09
   32.1899986      -4.78489470E-09
   32.2500000      -5.20038945E-09
   32.3100014      -5.66548541E-09
   32.3699989      -6.13831030E-09
   32.4300003      -6.59560628E-09
   32.4900017      -7.04203984E-09
   32.5499992      -7.50839391E-09
   32.6100006      -8.04008771E-09
   32.6699982      -8.68111361E-09
   32.7299995      -9.45988088E-09
   32.7900009      -1.03820526E-08
   32.8499985      -1.14321699E-08
   32.9099998      -1.25820794E-08
   32.9700012      -1.38016842E-08
   33.0299988      -1.50672399E-08
   33.0900002      -1.63641936E-08
   33.1500015      -1.76843855E-08
   33.2099991      -1.90199003E-08
   33.2700005      -2.03570316E-08
   33.3300018      -2.16733902E-08
   33.3899994      -2.29394761E-08
   33.4500008      -2.41241036E-08
   33.5099983      -2.52014960E-08
   33.5699997      -2.61573820E-08
   33.6300011      -2.69919749E-08
   33.6899986      -2.77190058E-08
   33.7500000      -2.83614590E-08
   33.8100014      -2.89456850E-08
   33.8699989      -2.94957516E-08
   33.9300003      -3.00293941E-08
   33.9900017      -3.05557784E-08
   34.0499992      -3.10746238E-08
   34.1100006      -3.15760147E-08
   34.1699982      -3.20406954E-08
   34.2299995      -3.24415659E-08
   34.2900009      -3.27472307E-08
   34.3499985      -3.29279928E-08
   34.4099998      -3.29632925E-08
   34.4700012      -3.28480283E-08
   34.5299988      -3.25951390E-08
   34.5900002      -3.22323288E-08
   34.6500015      -3.17934763E-08
   34.7099991      -3.13075468E-08
   34.7700005      -3.07891561E-08
   34.8300018      -3.02346308E-08
   34.8899994      -2.96250970E-08
   34.9500008      -2.89351725E-08
   35.0099983      -2.81435746E-08
   35.0699997      -2.72412208E-08
   35.1300011      -2.62337405E-08
   35.1899986      -2.51376573E-08
   35.2500000      -2.39722446E-08
   35.3100014      -2.27506902E-08
   35.3699989      -2.14744915E-08
   35.4300003      -2.01336778E-08
   35.4900017      -1.87131679E-08
   35.5499992      -1.72030301E-08
   35.6100006      -1.56086610E-08
   35.6699982      -1.39564564E-08
   35.7299995      -1.22918600E-08
   35.7900009      -1.06695559E-08
   35.8499985      -9.13872356E-09
   35.9099998      -7.72876518E-09
   35.9700012      -6.44123688E-09
   36.0299988      -5.25153876E-09
   36.0900002      -4.12005541E-09
   36.1500015      -3.00841108E-09
   36.2099991      -1.89430271E-09
   36.2700005      -7.79032228E-10
   36.3300018       3.14811816E-10
   36.3899994       1.35364597E-09
   36.4500008       2.30585617E-09
   36.5099983       3.15132875E-09
   36.5699997       3.88351751E-09
   36.6300011       4.50386972E-09
   36.6899986       5.01215425E-09
   36.7500000       5.39809841E-09
   36.8100014       5.63897906E-09
   36.8699989       5.70498937E-09
   36.9300003       5.57061641E-09
   36.9900017       5.22754906E-09
   37.0499992       4.69378358E-09
   37.1100006       4.01488887E-09
   37.1699982       3.25620797E-09
   37.2299995       2.48811327E-09
   37.2900009       1.76904003E-09
   37.3499985       1.13205911E-09
   37.4099998       5.79721660E-10
   37.4700012       8.91066249E-11
   37.5299988      -3.74674958E-10
   37.5900002      -8.41498204E-10
   37.6500015      -1.32219247E-09
   37.7099991      -1.80286075E-09
   37.7700005      -2.24969332E-09
   37.8300018      -2.62217337E-09
   37.8899994      -2.88911584E-09
   37.9500008      -3.04081405E-09
   38.0099983      -3.09223736E-09
   38.0699997      -3.07603365E-09
   38.1300011      -3.02837200E-09
   38.1899986      -2.97360825E-09
   38.2500000      -2.91411228E-09
   38.3100014      -2.82935519E-09
   38.3699989      -2.68451661E-09
   38.4300003      -2.44510523E-09
   38.4900017      -2.09185069E-09
   38.5499992      -1.63022251E-09
   38.6100006      -1.09116738E-09
   38.6699982      -5.23065813E-10
   38.7299995       2.18156031E-11
   38.7900009       5.01156838E-10
   38.8499985       8.91542173E-10
   38.9099998       1.18940280E-09
   38.9700012       1.40404410E-09
   39.0299988       1.54609037E-09
   39.0900002       1.61663682E-09
   39.1500015       1.60219726E-09
   39.2099991       1.47814849E-09
   39.2700005       1.21965937E-09
   39.3300018       8.15615075E-10
   39.3899994       2.79372858E-10
   39.4500008      -3.48806678E-10
   39.5099983      -1.00940678E-09
   39.5699997      -1.63877267E-09
   39.6300011      -2.18572827E-09
   39.6899986      -2.62294431E-09
   39.7500000      -2.94857627E-09
   39.8100014      -3.17798543E-09
   39.8699989      -3.32975447E-09
   39.9300003      -3.41266237E-09
   39.9900017      -3.41965833E-09
   40.0499992      -3.33147576E-09
   40.1100006      -3.12798609E-09
   40.1699982      -2.80180235E-09
   40.2299995      -2.36764297E-09
   40.2900009      -1.86294136E-09
   40.3499985      -1.33916178E-09
   40.4099998      -8.47345860E-10
   40.4700012      -4.23793167E-10
   40.5299988      -8.14928611E-11
   40.5900002       1.89729552E-10
   40.6500015       4.15083773E-10
   40.7099991       6.22513319E-10
   40.7700005       8.31256008E-10
   40.8300018       1.04536690E-09
   40.8899994       1.25385569E-09
   40.9500008       1.43632650E-09
   41.0099983       1.57106661E-09
   41.0699997       1.64209146E-09
   41.1300011       1.64263947E-09
   41.1899986       1.57444613E-09
   41.2500000       1.44397272E-09
   41.3100014       1.25792021E-09
   41.3699989       1.02040010E-09
   41.4300003       7.33223593E-10
   41.4900017       3.99206557E-10
   41.5499992       2.68891662E-11
   41.6100006      -3.65781377E-10
   41.6699982      -7.51078089E-10
   41.7299995      -1.09547704E-09
   41.7900009      -1.36724865E-09
   41.8499985      -1.54526103E-09
   41.9099998      -1.62584668E-09
   41.9700012      -1.62508496E-09
   42.0299988      -1.57547042E-09
   42.0900002      -1.51798418E-09
   42.1500015      -1.49225043E-09
   42.2099991      -1.52806112E-09
   42.2700005      -1.64093172E-09
   42.3300018      -1.83280924E-09
   42.3899994      -2.09722351E-09
   42.4500008      -2.42669174E-09
   42.5099983      -2.81948354E-09
   42.5699997      -3.28308469E-09
   42.6300011      -3.83276166E-09
   42.6899986      -4.48532989E-09
   42.7500000      -5.25006394E-09
   42.8100014      -6.12015727E-09
   42.8699989      -7.06849690E-09
   42.9300003      -8.05043943E-09
   42.9900017      -9.01374886E-09
   43.0499992      -9.91275328E-09
   43.1100006      -1.07214806E-08
   43.1699982      -1.14401875E-08
   43.2299995      -1.20920074E-08
   43.2900009      -1.27105615E-08
   43.3499985      -1.33236098E-08
   43.4099998      -1.39400758E-08
   43.4700012      -1.45467505E-08
   43.5299988      -1.51168322E-08
   43.5900002      -1.56270090E-08
   43.6500015      -1.60755711E-08
   43.7099991      -1.64930150E-08
   43.7700005      -1.69396195E-08
   43.8300018      -1.74898958E-08
   43.8899994      -1.82096027E-08
   43.9500008      -1.91342089E-08
   44.0099983      -2.02571488E-08
   44.0699997      -2.15321361E-08
   44.1300011      -2.28881074E-08
   44.1899986      -2.42505926E-08
   44.2500000      -2.55613060E-08
   44.3100014      -2.67892926E-08
   44.3699989      -2.79310139E-08
   44.4300003      -2.90013329E-08
   44.4900017      -3.00206970E-08
   44.5499992      -3.10042978E-08
   44.6100006      -3.19572955E-08
   44.6699982      -3.28767200E-08
   44.7299995      -3.37579351E-08
   44.7900009      -3.46017899E-08
   44.8499985      -3.54191556E-08
   44.9099998      -3.62311035E-08
   44.9700012      -3.70651208E-08
   45.0299988      -3.79490785E-08
   45.0900002      -3.89050996E-08
   45.1500015      -3.99450535E-08
   45.2099991      -4.10686596E-08
   45.2700005      -4.22645527E-08
   45.3300018      -4.35140564E-08
   45.3899994      -4.47969555E-08
   45.4500008      -4.60978136E-08
   45.5099983      -4.74107402E-08
   45.5699997      -4.87404428E-08
   45.6300011      -5.00984250E-08
   45.6899986      -5.14949186E-08
   45.7500000      -5.29292521E-08
   45.8100014      -5.43826104E-08
   45.8699989      -5.58165532E-08
   45.9300003      -5.71784149E-08
   45.9900017      -5.84116719E-08
   46.0499992      -5.94670553E-08
   46.1100006      -6.03099295E-08
   46.1699982      -6.09213231E-08
   46.2299995      -6.12933988E-08
   46.2900009      -6.14225044E-08
   46.3499985      -6.13043127E-08
   46.4099998      -6.09336013E-08
   46.4700012      -6.03085510E-08
   46.5299988      -5.94368608E-08
   46.5900002      -5.83397473E-08
   46.6500015      -5.70511531E-08
   46.7099991      -5.56120625E-08
   46.7700005      -5.40622231E-08
   46.8300018      -5.24328456E-08
   46.8899994      -5.07431963E-08
   46.9500008      -4.90020966E-08
   47.0099983      -4.72132058E-08
   47.0699997      -4.53815687E-08
   47.1300011      -4.35186891E-08
   47.1899986      -4.16443662E-08
   47.2500000      -3.97849860E-08
   47.3100014      -3.79692473E-08
   47.3699989      -3.62232306E-08
   47.4300003      -3.45666820E-08
   47.4900017      -3.30118191E-08
   47.5499992      -3.15648592E-08
   47.6100006      -3.02292271E-08
   47.6699982      -2.90086888E-08
   47.7299995      -2.79086692E-08
   47.7900009      -2.69349183E-08
   47.8499985      -2.60900475E-08
   47.9099998      -2.53696548E-08
   47.9700012      -2.47599843E-08
   48.0299988      -2.42384797E-08
   48.0900002      -2.37771687E-08
   48.1500015      -2.33477220E-08
   48.2099991      -2.29264021E-08
   48.2700005      -2.24975079E-08
   48.3300018      -2.20546514E-08
   48.3899994      -2.16000089E-08
   48.4500008      -2.11418829E-08
   48.5099983      -2.06909316E-08
   48.5699997      -2.02553991E-08
   48.6300011      -1.98359675E-08
   48.6899986      -1.94215417E-08
   48.7500000      -1.89875760E-08
   48.8100014      -1.84983229E-08
   48.8699989      -1.79129849E-08
   48.9300003      -1.71938535E-08
   48.9900017      -1.63129332E-08
   49.0499992      -1.52532511E-08
   49.1100006      -1.40025076E-08
   49.1699982      -1.25397079E-08
   49.2299995      -1.08184786E-08
   49.2900009      -8.75273543E-09
   49.3499985      -6.20987617E-09
   49.4099998      -3.01376635E-09
   49.4700012       1.04432774E-09
   49.5299988       6.19235152E-09
   49.5900002       1.26683863E-08
   49.6500015       2.07210586E-08
   49.7099991       3.06209422E-08
   49.7700005       4.26803695E-08
   49.8300018       5.72767469E-08
   49.8899994       7.48744000E-08
   49.9500008       9.60422497E-08
   50.0099983       1.21467110E-07
   50.0699997       1.51964670E-07
   50.1300011       1.88490318E-07
   50.1899986       2.32152303E-07
   50.2500000       2.84228207E-07
   50.3100014       3.46186710E-07
   50.3699989       4.19715349E-07
   50.4300003       5.06756010E-07
   50.4900017       6.09547328E-07
   50.5499992       7.30672070E-07
   50.6100006       8.73106103E-07