  -2.400000      0.0000000E+00
  -2.340000      0.0000000E+00
  -2.280000      0.0000000E+00
  -2.220000      0.0000000E+00
  -2.160000      0.0000000E+00
  -2.100000      0.0000000E+00
  -2.040000      0.0000000E+00
  -1.980000      0.0000000E+00
  -1.920000      3.8065120E-25
  -1.860000      5.4931864E-24
  -1.800000      3.8189716E-23
  -1.740000      1.6747733E-22
  -1.680000      5.0206067E-22
  -1.620000      9.9936100E-22
  -1.560000      9.0886490E-22
  -1.500000     -1.9773924E-21
  -1.440000     -1.1137398E-20
  -1.380000     -2.8058008E-20
  -1.320000     -4.4504653E-20
  -1.260000     -3.3536700E-20
  -1.200000      4.9511823E-20
  -1.140000      2.3975378E-19
  -1.080000      5.0198867E-19
  -1.020000      6.6069268E-19
 -0.9600000      3.8920905E-19
 -0.9000000     -6.5203835E-19
 -0.8400000     -2.4897255E-18
 -0.7800000     -4.4340822E-18
 -0.7200000     -4.9029394E-18
 -0.6600000     -1.8768579E-18
 -0.6000000      5.7936243E-18
 -0.5400000      1.6556860E-17
 -0.4800000      2.4882341E-17
 -0.4200000      2.2087122E-17
 -0.3600000      3.9793431E-19
 -0.3000000     -4.0287081E-17
 -0.2400000     -8.6007103E-17
 -0.1800000     -1.0784899E-16
 -0.1200000     -7.1360322E-17
 -5.9999999E-02  4.3077095E-17
  0.0000000E+00  2.1574332E-16
  5.9999999E-02  3.7336797E-16
  0.1200000      4.0194069E-16
  0.1800000      1.9532970E-16
  0.2400000     -2.7044812E-16
  0.3000000     -8.7089551E-16
  0.3600000     -1.3227785E-15
  0.4200000     -1.2688881E-15
  0.4800000     -4.5684383E-16
  0.5400000      1.0498528E-15
  0.6000000      2.7433123E-15
  0.6600000      3.7471598E-15
  0.7200000      3.1526511E-15
  0.7800000      5.3818006E-16
  0.8400000     -3.5523461E-15
  0.9000000     -7.4754317E-15
  0.9600000     -8.9327756E-15
   1.020000     -5.9918213E-15
   1.080000      1.6569251E-15
   1.140000      1.1821503E-14
   1.200000      1.9958930E-14
   1.260000      2.0683989E-14
   1.320000      1.0340831E-14
   1.380000     -1.0348760E-14
   1.440000     -3.4945866E-14
   1.500000     -5.2441334E-14
   1.560000     -5.1165147E-14
   1.620000     -2.4395093E-14
   1.680000      2.4608882E-14
   1.740000      8.0836576E-14
   1.800000      1.2090044E-13
   1.860000      1.2143747E-13
   1.920000      6.9945799E-14
   1.980000     -2.6419994E-14
   2.040000     -1.3877328E-13
   2.100000     -2.2382543E-13
   2.160000     -2.3954661E-13
   2.220000     -1.6393431E-13
   2.280000     -9.0181734E-15
   2.340000      1.7732685E-13
   2.400000      3.2517606E-13
   2.460000      3.6890158E-13
   2.520000      2.7658336E-13
   2.580000      6.9631062E-14
   2.640000     -1.7831343E-13
   2.700000     -3.6668457E-13
   2.760000     -4.1035694E-13
   2.820000     -2.8235251E-13
   2.880000     -3.6446242E-14
   2.940000      2.0563085E-13
   3.000000      3.0407504E-13
   3.060000      1.7203028E-13
   3.120000     -1.6246173E-13
   3.180000     -5.3711663E-13
   3.240000     -7.0030733E-13
   3.300000     -4.1653952E-13
   3.360000      4.0139097E-13
   3.420000      1.5896469E-12
   3.480000      2.7178602E-12
   3.540000      3.1941400E-12
   3.600000      2.4776260E-12
   3.660000      3.3388353E-13
   3.720000     -2.9666547E-12
   3.780000     -6.6057550E-12
   3.840000     -9.3837100E-12
   3.900000     -1.0071511E-11
   3.960000     -7.8439642E-12
   4.020000     -2.6385259E-12
   4.080000      4.7073625E-12
   4.140000      1.2615936E-11
   4.200000      1.9189043E-11
   4.260000      2.2743980E-11
   4.320000      2.2266756E-11
   4.380000      1.7614250E-11
   4.440000      9.4049967E-12
   4.500000     -1.3186898E-12
   4.560000     -1.3462777E-11
   4.620000     -2.6071747E-11
   4.680000     -3.8211843E-11
   4.740000     -4.8594760E-11
   4.800000     -5.5167513E-11
   4.860000     -5.4987747E-11
   4.920000     -4.4648715E-11
   4.980000     -2.1313585E-11
   5.040000      1.5865909E-11
   5.100000      6.4416826E-11
   5.160000      1.1785713E-10
   5.220000      1.6607786E-10
   5.280000      1.9689174E-10
   5.340000      1.9843426E-10
   5.400000      1.6177321E-10
   5.460000      8.2973801E-11
   5.520000     -3.5963128E-11
   5.580000     -1.8747769E-10
   5.640000     -3.5986683E-10
   5.700000     -5.3912252E-10
   5.760000     -7.1050110E-10
   5.820000     -8.5936241E-10
   5.880000     -9.7125197E-10
   5.940000     -1.0316467E-09
   6.000000     -1.0260317E-09
   6.060000     -9.4088959E-10
   6.120000     -7.6577894E-10
   6.180000     -4.9610216E-10
   6.240000     -1.3567843E-10
   6.300000      3.0193273E-10
   6.360000      7.9414408E-10
   6.420000      1.3122389E-09
   6.480000      1.8258257E-09
   6.540000      2.3076188E-09
   6.600000      2.7371498E-09
   6.660000      3.1023895E-09
   6.720000      3.3990457E-09
   6.780000      3.6281920E-09
   6.840000      3.7934940E-09
   6.900000      3.8993857E-09
   6.960000      3.9510129E-09
   7.020000      3.9558521E-09
   7.080000      3.9260000E-09
   7.140000      3.8796242E-09
   7.200000      3.8402619E-09
   7.260000      3.8334593E-09
   7.320000      3.8814298E-09
   7.380000      3.9973811E-09
   7.440000      4.1815786E-09
   7.500000      4.4207353E-09
   7.560000      4.6912025E-09
   7.620000      4.9649862E-09
   7.680000      5.2165268E-09
   7.740000      5.4278684E-09
   7.800000      5.5904676E-09
   7.860000      5.7032592E-09
   7.920000      5.7681273E-09
   7.980000      5.7849689E-09
   8.040000      5.7486784E-09
   8.100000      5.6494875E-09
   8.160000      5.4766014E-09
   8.220000      5.2235456E-09
   8.280000      4.8928079E-09
   8.340000      4.4975641E-09
   8.400000      4.0594630E-09
   8.460000      3.6031409E-09
   8.520000      3.1495793E-09
   8.580000      2.7110370E-09
   8.640000      2.2897204E-09
   8.700000      1.8808661E-09
   8.760000      1.4790684E-09
   8.820000      1.0852551E-09
   8.880000      7.1133621E-10
   8.940000      3.8037998E-10
   9.000000      1.2193532E-10
   9.060000     -3.5900269E-11
   9.120000     -7.4675079E-11
   9.180000      9.1577032E-12
   9.240000      2.0401023E-10
   9.300000      4.8805532E-10
   9.360000      8.3725982E-10
   9.420000      1.2332687E-09
   9.480000      1.6679044E-09
   9.540000      2.1424653E-09
   9.600000      2.6622269E-09
   9.660000      3.2286369E-09
   9.720000      3.8327581E-09
   9.780000      4.4530699E-09
   9.840000      5.0589595E-09
   9.900000      5.6188330E-09
   9.960000      6.1097931E-09
   10.02000      6.5250907E-09
   10.08000      6.8763750E-09
   10.14000      7.1898087E-09
   10.20000      7.4975448E-09
   10.26000      7.8278353E-09
   10.32000      8.1975200E-09
   10.38000      8.6095504E-09
   10.44000      9.0561718E-09
   10.50000      9.5260280E-09
   10.56000      1.0011981E-08
   10.62000      1.0516167E-08
   10.68000      1.1049992E-08
   10.74000      1.1628883E-08
   10.80000      1.2263667E-08
   10.86000      1.2951979E-08
   10.92000      1.3673033E-08
   10.98000      1.4388001E-08
   11.04000      1.5046069E-08
   11.10000      1.5594289E-08
   11.16000      1.5987968E-08
   11.22000      1.6198486E-08
   11.28000      1.6216518E-08
   11.34000      1.6050732E-08
   11.40000      1.5723607E-08
   11.46000      1.5267021E-08
   11.52000      1.4719745E-08
   11.58000      1.4127600E-08
   11.64000      1.3545283E-08
   11.70000      1.3037523E-08
   11.76000      1.2677153E-08
   11.82000      1.2538618E-08
   11.88000      1.2687399E-08
   11.94000      1.3167614E-08
   12.00000      1.3991224E-08
   12.06000      1.5132162E-08
   12.12000      1.6527444E-08
   12.18000      1.8085350E-08
   12.24000      1.9698758E-08
   12.30000      2.1260458E-08
   12.36000      2.2676849E-08
   12.42000      2.3877218E-08
   12.48000      2.4817242E-08
   12.54000      2.5477016E-08
   12.60000      2.5855382E-08
   12.66000      2.5962994E-08
   12.72000      2.5816432E-08
   12.78000      2.5434737E-08
   12.84000      2.4838458E-08
   12.90000      2.4050188E-08
   12.96000      2.3095135E-08
   13.02000      2.2000513E-08
   13.08000      2.0793578E-08
   13.14000      1.9499049E-08
   13.20000      1.8137282E-08
   13.26000      1.6724242E-08
   13.32000      1.5273445E-08
   13.38000      1.3798909E-08
   13.44000      1.2317488E-08
   13.50000      1.0849153E-08
   13.56000      9.4146220E-09
   13.62000      8.0310443E-09
   13.68000      6.7072796E-09
   13.74000      5.4406248E-09
   13.80000      4.2162647E-09
   13.86000      3.0098082E-09
   13.92000      1.7922914E-09
   13.98000      5.3638205E-10
   14.04000     -7.7767931E-10
   14.10000     -2.1577060E-09
   14.16000     -3.5976526E-09
   14.22000     -5.0784674E-09
   14.28000     -6.5713750E-09
   14.34000     -8.0426208E-09
   14.40000     -9.4583186E-09
   14.46000     -1.0788042E-08
   14.52000     -1.2006338E-08
   14.58000     -1.3092195E-08
   14.64000     -1.4027328E-08
   14.70000     -1.4794651E-08
   14.76000     -1.5378143E-08
   14.82000     -1.5764677E-08
   14.88000     -1.5947444E-08
   14.94000     -1.5929869E-08
   15.00000     -1.5728549E-08
   15.06000     -1.5373939E-08
   15.12000     -1.4907961E-08
   15.18000     -1.4378642E-08
   15.24000     -1.3832655E-08
   15.30000     -1.3307461E-08
   15.36000     -1.2825114E-08
   15.42000     -1.2389677E-08
   15.48000     -1.1989341E-08
   15.54000     -1.1603015E-08
   15.60000     -1.1209625E-08
   15.66000     -1.0797265E-08
   15.72000     -1.0369201E-08
   15.78000     -9.9445536E-09
   15.84000     -9.5532249E-09
   15.90000     -9.2264605E-09
   15.96000     -8.9859800E-09
   16.02000     -8.8350376E-09
   16.08000     -8.7542631E-09
   16.14000     -8.7036893E-09
   16.20000     -8.6304972E-09
   16.26000     -8.4803480E-09
   16.32000     -8.2091010E-09
   16.38000     -7.7917282E-09
   16.44000     -7.2261415E-09
   16.50000     -6.5313834E-09
   16.56000     -5.7413945E-09
   16.62000     -4.8968407E-09
   16.68000     -4.0377288E-09
   16.74000     -3.1987570E-09
   16.80000     -2.4079105E-09
   16.86000     -1.6874004E-09
   16.92000     -1.0552818E-09
   16.98000     -5.2620974E-10
   17.04000     -1.1065696E-10
   17.10000      1.8700762E-10
   17.16000      3.7040324E-10
   17.22000      4.5167095E-10
   17.28000      4.4984894E-10
   17.34000      3.8718256E-10
   17.40000      2.8435188E-10
   17.46000      1.5614716E-10
   17.52000      9.0970426E-12
   17.58000     -1.5809493E-10
   17.64000     -3.5151412E-10
   17.70000     -5.7773286E-10
   17.76000     -8.4024798E-10
   17.82000     -1.1384916E-09
   17.88000     -1.4701604E-09
   17.94000     -1.8359597E-09
   18.00000     -2.2444095E-09
   18.06000     -2.7138654E-09
   18.12000     -3.2697660E-09
   18.18000     -3.9370707E-09
   18.24000     -4.7300337E-09
   18.30000     -5.6428671E-09
   18.36000     -6.6448056E-09
   18.42000     -7.6815674E-09
   18.48000     -8.6830081E-09
   18.54000     -9.5747215E-09
   18.60000     -1.0290360E-08
   18.66000     -1.0781612E-08
   18.72000     -1.1023897E-08
   18.78000     -1.1017218E-08
   18.84000     -1.0782859E-08
   18.90000     -1.0357389E-08
   18.96000     -9.7857784E-09
   19.02000     -9.1153547E-09
   19.08000     -8.3918188E-09
   19.14000     -7.6577829E-09
   19.20000     -6.9531914E-09
   19.26000     -6.3162156E-09
   19.32000     -5.7829497E-09
   19.38000     -5.3849032E-09
   19.44000     -5.1445692E-09
   19.50000     -5.0707092E-09
   19.56000     -5.1556595E-09
   19.62000     -5.3764495E-09
   19.68000     -5.6999894E-09
   19.74000     -6.0907444E-09
   19.80000     -6.5180821E-09
   19.86000     -6.9605322E-09
   19.92000     -7.4054838E-09
   19.98000     -7.8448075E-09
   20.04000     -8.2685574E-09
   20.10000     -8.6596250E-09
   20.16000     -8.9917123E-09
   20.22000     -9.2316874E-09
   20.28000     -9.3457277E-09
   20.34000     -9.3075148E-09
   20.40000     -9.1061105E-09
   20.46000     -8.7513330E-09
   20.52000     -8.2751903E-09
   20.58000     -7.7289668E-09
   20.64000     -7.1767130E-09
   20.70000     -6.6867316E-09
   20.76000     -6.3230439E-09
   20.82000     -6.1384915E-09
   20.88000     -6.1701977E-09
   20.94000     -6.4370296E-09
   21.00000     -6.9379587E-09
   21.06000     -7.6503301E-09
   21.12000     -8.5279437E-09
   21.18000     -9.5001811E-09
   21.24000     -1.0474215E-08
   21.30000     -1.1342113E-08
   21.36000     -1.1993130E-08
   21.42000     -1.2329354E-08
   21.48000     -1.2280949E-08
   21.54000     -1.1816715E-08
   21.60000     -1.0946763E-08
   21.66000     -9.7165254E-09
   21.72000     -8.1940579E-09
   21.78000     -6.4545547E-09
   21.84000     -4.5663593E-09
   21.90000     -2.5816504E-09
   21.96000     -5.3291382E-10
   22.02000      1.5657013E-09
   22.08000      3.7141796E-09
   22.14000      5.9216392E-09
   22.20000      8.2016989E-09
   22.26000      1.0568293E-08
   22.32000      1.3031362E-08
   22.38000      1.5592015E-08
   22.44000      1.8237554E-08
   22.50000      2.0937698E-08
   22.56000      2.3643778E-08
   22.62000      2.6292261E-08
   22.68000      2.8812616E-08
   22.74000      3.1138043E-08
   22.80000      3.3216331E-08
   22.86000      3.5017891E-08
   22.92000      3.6538925E-08
   22.98000      3.7799150E-08
   23.04000      3.8835360E-08
   23.10000      3.9693013E-08
   23.16000      4.0418431E-08
   23.22000      4.1053358E-08
   23.28000      4.1632646E-08
   23.34000      4.2184734E-08
   23.40000      4.2733870E-08
   23.46000      4.3302865E-08
   23.52000      4.3915350E-08
   23.58000      4.4597009E-08
   23.64000      4.5375508E-08
   23.70000      4.6279279E-08
   23.76000      4.7335412E-08
   23.82000      4.8566683E-08
   23.88000      4.9987989E-08
   23.94000      5.1602168E-08
   24.00000      5.3395592E-08
   24.06000      5.5334286E-08
   24.12000      5.7361834E-08
   24.18000      5.9400399E-08
   24.24000      6.1356012E-08
   24.30000      6.3128006E-08
   24.36000      6.4621268E-08
   24.42000      6.5758464E-08
   24.48000      6.6489093E-08
   24.54000      6.6792829E-08
   24.60000      6.6676272E-08
   24.66000      6.6164461E-08
   24.72000      6.5290273E-08
   24.78000      6.4085214E-08
   24.84000      6.2574557E-08
   24.90000      6.0777651E-08
   24.96000      5.8712239E-08
   25.02000      5.6399966E-08
   25.08000      5.3870004E-08
   25.14000      5.1158732E-08
   25.20000      4.8305175E-08
   25.26000      4.5343761E-08
   25.32000      4.2297284E-08
   25.38000      3.9172871E-08
   25.44000      3.5962710E-08
   25.50000      3.2649417E-08
   25.56000      2.9214243E-08
   25.62000      2.5645109E-08
   25.68000      2.1941736E-08
   25.74000      1.8116380E-08
   25.80000      1.4190661E-08
   25.86000      1.0190647E-08
   25.92000      6.1431309E-09
   25.98000      2.0753450E-09
   26.04000     -1.9814437E-09
   26.10000     -5.9862195E-09
   26.16000     -9.8836530E-09
   26.22000     -1.3603938E-08
   26.28000     -1.7068629E-08
   26.34000     -2.0201442E-08
   26.40000     -2.2940501E-08
   26.46000     -2.5247475E-08
   26.52000     -2.7110060E-08
   26.58000     -2.8536913E-08
   26.64000     -2.9547321E-08
   26.70000     -3.0160162E-08
   26.76000     -3.0386918E-08
   26.82000     -3.0231615E-08
   26.88000     -2.9697404E-08
   26.94000     -2.8796544E-08
   27.00000     -2.7559180E-08
   27.06000     -2.6036952E-08
   27.12000     -2.4299885E-08
   27.18000     -2.2427775E-08
   27.24000     -2.0499453E-08
   27.30000     -1.8583597E-08
   27.36000     -1.6733626E-08
   27.42000     -1.4987091E-08
   27.48000     -1.3368031E-08
   27.54000     -1.1889864E-08
   27.60000     -1.0556798E-08
   27.66000     -9.3631165E-09
   27.72000     -8.2912370E-09
   27.78000     -7.3104016E-09
   27.84000     -6.3778600E-09
   27.90000     -5.4433564E-09
   27.96000     -4.4563002E-09
   28.02000     -3.3738115E-09
   28.08000     -2.1673536E-09
   28.14000     -8.2624729E-10
   28.20000      6.4244460E-10
   28.26000      2.2168238E-09
   28.32000      3.8641828E-09
   28.38000      5.5445279E-09
   28.44000      7.2128228E-09
   28.50000      8.8203373E-09
   28.56000      1.0316337E-08
   28.62000      1.1651290E-08
   28.68000      1.2781883E-08
   28.74000      1.3676718E-08
   28.80000      1.4320470E-08
   28.86000      1.4714330E-08
   28.92000      1.4871714E-08
   28.98000      1.4810390E-08
   29.04000      1.4544121E-08
   29.10000      1.4077675E-08
   29.16000      1.3407996E-08
   29.22000      1.2531649E-08
   29.28000      1.1455596E-08
   29.34000      1.0206254E-08
   29.40000      8.8320311E-09
   29.46000      7.3970421E-09
   29.52000      5.9676686E-09
   29.58000      4.5971222E-09
   29.64000      3.3144762E-09
   29.70000      2.1230115E-09
   29.76000      1.0087645E-09
   29.82000     -4.4378130E-11
   29.88000     -1.0397204E-09
   29.94000     -1.9597002E-09
   30.00000     -2.7686045E-09
   30.06000     -3.4253071E-09
   30.12000     -3.9009689E-09
   30.18000     -4.1944404E-09
   30.24000     -4.3389234E-09
   30.30000     -4.3968109E-09
   30.36000     -4.4441753E-09
   30.42000     -4.5503130E-09
   30.48000     -4.7595869E-09
   30.54000     -5.0819398E-09
   30.60000     -5.4952389E-09
   30.66000     -5.9583054E-09
   30.72000     -6.4296017E-09
   30.78000     -6.8846542E-09
   30.84000     -7.3259816E-09
   30.90000     -7.7823481E-09
   30.96000     -8.2983416E-09
   31.02000     -8.9188612E-09
   31.08000     -9.6747170E-09
   31.14000     -1.0574541E-08
   31.20000     -1.1605234E-08
   31.26000     -1.2739519E-08
   31.32000     -1.3946547E-08
   31.38000     -1.5200795E-08
   31.44000     -1.6485917E-08
   31.50000     -1.7792818E-08
   31.56000     -1.9113857E-08
   31.62000     -2.0436481E-08
   31.68000     -2.1739599E-08
   31.74000     -2.2994431E-08
   31.80000     -2.4169600E-08
   31.86000     -2.5238451E-08
   31.92000     -2.6185761E-08
   31.98000     -2.7011360E-08
   32.04000     -2.7729506E-08
   32.10000     -2.8364459E-08
   32.16000     -2.8943996E-08
   32.22000     -2.9493078E-08
   32.28000     -3.0029309E-08
   32.34000     -3.0560670E-08
   32.40000     -3.1085129E-08
   32.46000     -3.1591103E-08
   32.52000     -3.2058416E-08
   32.58000     -3.2459997E-08
   32.64000     -3.2765175E-08
   32.70000     -3.2945103E-08
   32.76000     -3.2979504E-08
   32.82000     -3.2862790E-08
   32.88000     -3.2606767E-08
   32.94000     -3.2238017E-08
   33.00000     -3.1790073E-08
   33.06000     -3.1292764E-08
   33.12000     -3.0762706E-08
   33.18000     -3.0198716E-08
   33.24000     -2.9583934E-08
   33.30000     -2.8893727E-08
   33.36000     -2.8106049E-08
   33.42000     -2.7210003E-08
   33.48000     -2.6209209E-08
   33.54000     -2.5118901E-08
   33.60000     -2.3958242E-08
   33.66000     -2.2741297E-08
   33.72000     -2.1470774E-08
   33.78000     -2.0137453E-08
   33.84000     -1.8726103E-08
   33.90000     -1.7225835E-08
   33.96000     -1.5640811E-08
   34.02000     -1.3996537E-08
   34.08000     -1.2338315E-08
   34.14000     -1.0721390E-08
   34.20000     -9.1958663E-09
   34.26000     -7.7920035E-09
   34.32000     -6.5118306E-09
   34.38000     -5.3307669E-09
   34.44000     -4.2088542E-09
   34.50000     -3.1071989E-09
   34.56000     -2.0030042E-09
   34.62000     -8.9731350E-10
   34.68000      1.8710934E-10
   34.74000      1.2159651E-09
   34.80000      2.1564994E-09
   34.86000      2.9874248E-09
   34.92000      3.7015460E-09
   34.98000      4.3006407E-09
   35.04000      4.7858513E-09
   35.10000      5.1488773E-09
   35.16000      5.3688232E-09
   35.22000      5.4169078E-09
   35.28000      5.2676770E-09
   35.34000      4.9123119E-09
   35.40000      4.3684381E-09
   35.46000      3.6819028E-09
   35.52000      2.9189349E-09
   35.58000      2.1507869E-09
   35.64000      1.4359866E-09
   35.70000      8.0649143E-10
   35.76000      2.6281322E-10
   35.82000     -2.2005500E-10
   35.88000     -6.7815592E-10
   35.94000     -1.1410758E-09
   36.00000     -1.6181745E-09
   36.06000     -2.0937700E-09
   36.12000     -2.5328861E-09
   36.18000     -2.8949132E-09
   36.24000     -3.1493881E-09
   36.30000     -3.2873861E-09
   36.36000     -3.3239957E-09
   36.42000     -3.2911076E-09
   36.48000     -3.2236935E-09
   36.54000     -3.1452716E-09
   36.60000     -3.0583753E-09
   36.66000     -2.9437162E-09
   36.72000     -2.7682445E-09
   36.78000     -2.4989466E-09
   36.84000     -2.1171376E-09
   36.90000     -1.6279572E-09
   36.96000     -1.0616228E-09
   37.02000     -4.6608539E-10
   37.08000      1.0609567E-10
   37.14000      6.1167749E-10
   37.20000      1.0261981E-09
   37.26000      1.3454768E-09
   37.32000      1.5788879E-09
   37.38000      1.7376216E-09
   37.44000      1.8233908E-09
   37.50000      1.8229914E-09
   37.56000      1.7116473E-09
   37.62000      1.4641288E-09
   37.68000      1.0689719E-09
   37.74000      5.3942228E-10
   37.80000     -8.4111114E-11
   37.86000     -7.4175543E-10
   37.92000     -1.3692870E-09
   37.98000     -1.9146769E-09
   38.04000     -2.3494644E-09
   38.10000     -2.6706337E-09
   38.16000     -2.8928142E-09
   38.22000     -3.0347689E-09
   38.28000     -3.1064893E-09
   38.34000     -3.1027303E-09
   38.40000     -3.0058025E-09
   38.46000     -2.7961995E-09
   38.52000     -2.4660698E-09
   38.58000     -2.0292026E-09
   38.64000     -1.5226607E-09
   38.70000     -9.9882957E-10
   38.76000     -5.1084015E-10
   38.82000     -9.7223563E-11
   38.88000      2.2803560E-10
   38.94000      4.7624560E-10
   39.00000      6.7569650E-10
   39.06000      8.5814367E-10
   39.12000      1.0457887E-09
   39.18000      1.2437354E-09
   39.24000      1.4401214E-09
   39.30000      1.6127032E-09
   39.36000      1.7382006E-09
   39.42000      1.8001344E-09
   39.48000      1.7922693E-09
   39.54000      1.7171649E-09
   39.60000      1.5815866E-09
   39.66000      1.3916599E-09
   39.72000      1.1503336E-09
   39.78000      8.5832247E-10
   39.84000      5.1793431E-10
   39.90000      1.3781032E-10
   39.96000     -2.6386174E-10
   40.02000     -6.5955658E-10
   40.08000     -1.0166363E-09
   40.14000     -1.3046089E-09
   40.20000     -1.5031910E-09
   40.26000     -1.6084682E-09
   40.32000     -1.6349684E-09
   40.38000     -1.6127950E-09
   40.44000     -1.5806271E-09
   40.50000     -1.5767889E-09
   40.56000     -1.6312087E-09
   40.62000     -1.7607209E-09
   40.68000     -1.9689974E-09
   40.74000     -2.2508151E-09
   40.80000     -2.5989011E-09
   40.86000     -3.0106899E-09
   40.92000     -3.4922554E-09
   40.98000     -4.0575450E-09
   41.04000     -4.7226818E-09
   41.10000     -5.4970792E-09
   41.16000     -6.3747443E-09
   41.22000     -7.3296800E-09
   41.28000     -8.3182323E-09
   41.34000     -9.2887023E-09
   41.40000     -1.0195383E-08
   41.46000     -1.1011775E-08
   41.52000     -1.1737405E-08
   41.58000     -1.2394868E-08
   41.64000     -1.3017768E-08
   41.70000     -1.3634472E-08
   41.76000     -1.4254884E-08
   41.82000     -1.4866609E-08
   41.88000     -1.5442877E-08
   41.94000     -1.5959298E-08
   42.00000     -1.6412118E-08
   42.06000     -1.6829510E-08
   42.12000     -1.7270022E-08
   42.18000     -1.7807743E-08
   42.24000     -1.8509496E-08
   42.30000     -1.9412855E-08
   42.36000     -2.0513594E-08
   42.42000     -2.1767166E-08
   42.48000     -2.3103185E-08
   42.54000     -2.4446839E-08
   42.60000     -2.5738933E-08
   42.66000     -2.6947685E-08
   42.72000     -2.8069305E-08
   42.78000     -2.9119194E-08
   42.84000     -3.0118898E-08
   42.90000     -3.1084753E-08
   42.96000     -3.2022445E-08
   43.02000     -3.2928451E-08
   43.08000     -3.3796400E-08
   43.14000     -3.4624772E-08
   43.20000     -3.5422385E-08
   43.26000     -3.6209549E-08
   43.32000     -3.7014850E-08
   43.38000     -3.7868830E-08
   43.44000     -3.8796820E-08
   43.50000     -3.9813052E-08
   43.56000     -4.0917786E-08
   43.62000     -4.2098272E-08
   43.68000     -4.3333444E-08
   43.74000     -4.4601169E-08
   43.80000     -4.5885667E-08
   43.86000     -4.7182571E-08
   43.92000     -4.8499185E-08
   43.98000     -4.9849248E-08
   44.04000     -5.1243656E-08
   44.10000     -5.2680502E-08
   44.16000     -5.4138507E-08
   44.22000     -5.5576812E-08
   44.28000     -5.6941523E-08
   44.34000     -5.8176401E-08
   44.40000     -5.9233418E-08
   44.46000     -6.0079067E-08
   44.52000     -6.0694596E-08
   44.58000     -6.1071233E-08
   44.64000     -6.1204048E-08
   44.70000     -6.1087995E-08
   44.76000     -6.0718335E-08
   44.82000     -6.0094884E-08
   44.88000     -5.9227379E-08
   44.94000     -5.8138490E-08
   45.00000     -5.6862529E-08
   45.06000     -5.5439848E-08
   45.12000     -5.3909240E-08
   45.18000     -5.2301285E-08
   45.24000     -5.0635158E-08
   45.30000     -4.8919794E-08
   45.36000     -4.7158519E-08
   45.42000     -4.5355083E-08
   45.48000     -4.3518838E-08
   45.54000     -4.1667306E-08
   45.60000     -3.9825377E-08
   45.66000     -3.8021717E-08
   45.72000     -3.6283755E-08
   45.78000     -3.4633167E-08
   45.84000     -3.3083605E-08
   45.90000     -3.1641385E-08
   45.96000     -3.0308648E-08
   46.02000     -2.9087239E-08
   46.08000     -2.7981262E-08
   46.14000     -2.6996707E-08
   46.20000     -2.6138181E-08
   46.26000     -2.5404240E-08
   46.32000     -2.4783736E-08
   46.38000     -2.4255217E-08
   46.44000     -2.3790008E-08
   46.50000     -2.3357920E-08
   46.56000     -2.2933369E-08
   46.62000     -2.2499750E-08
   46.68000     -2.2050921E-08
   46.74000     -2.1589861E-08
   46.80000     -2.1125421E-08
   46.86000     -2.0668129E-08
   46.92000     -2.0225665E-08
   46.98000     -1.9798366E-08
   47.04000     -1.9375429E-08
   47.10000     -1.8933109E-08
   47.16000     -1.8436348E-08
   47.22000     -1.7844377E-08
   47.28000     -1.7118902E-08
   47.34000     -1.6231345E-08
   47.40000     -1.5164831E-08
   47.46000     -1.3907991E-08
   47.52000     -1.2440935E-08
   47.58000     -1.0717662E-08
   47.64000     -8.6512868E-09
   47.70000     -6.1077032E-09
   47.76000     -2.9097078E-09
   47.82000      1.1511727E-09
   47.88000      6.3013528E-09
   47.94000      1.2777162E-08
   48.00000      2.0826555E-08
   48.06000      3.0720951E-08
   48.12000      4.2774357E-08
   48.18000      5.7365224E-08
   48.24000      7.4957313E-08
   48.30000      9.6117503E-08
   48.36000      1.2153039E-07
   48.42000      1.5201068E-07
   48.48000      1.8851469E-07
   48.54000      2.3215269E-07
   48.60000      2.8420436E-07
   48.66000      3.4613930E-07
   48.72000      4.1964518E-07
   48.78000      5.0666353E-07
   48.84000      6.0943279E-07
   48.90000      7.3053599E-07
   48.96000      8.7294927E-07
   49.02000      1.0400901E-06
   49.08000      1.2358631E-06
   49.14000      1.4647082E-06
   49.20000      1.7316519E-06
   49.26000      2.0423693E-06
   49.32000      2.4032568E-06
   49.38000      2.8215218E-06
   49.44000      3.3052802E-06
   49.50000      3.8636636E-06
   49.56000      4.5069228E-06
   49.62000      5.2465330E-06
   49.68000      6.0952884E-06
   49.74000      7.0674009E-06
   49.80000      8.1786002E-06
   49.86000      9.4462521E-06
   49.92000      1.0889481E-05
   49.98000      1.2529315E-05
   50.04000      1.4388826E-05
   50.10000      1.6493248E-05
   50.16000      1.8870118E-05
   50.22000      2.1549366E-05
   50.28000      2.4563422E-05
   50.34000      2.7947310E-05
   50.40000      3.1738738E-05
   50.46000      3.5978195E-05
   50.52000      4.0709023E-05
   50.58000      4.5977475E-05
   50.64000      5.1832776E-05
   50.70000      5.8327132E-05
   50.76000      6.5515727E-05
   50.82000      7.3456664E-05
   50.88000      8.2210892E-05
   50.94000      9.1842106E-05
   51.00000      1.0241658E-04
   51.06000      1.1400298E-04
   51.12000      1.2667215E-04
   51.18000      1.4049686E-04
   51.24000      1.5555150E-04
   51.30000      1.7191170E-04
   51.36000      1.8965396E-04
   51.42000      2.0885520E-04
   51.48000      2.2959229E-04
   51.54000      2.5194150E-04
   51.60000      2.7597786E-04
   51.66000      3.0177468E-04
   51.72000      3.2940277E-04
   51.78000      3.5892983E-04
   51.84000      3.9041977E-04
   51.90000      4.2393192E-04
   51.96000      4.5952052E-04
   52.02000      4.9723359E-04
   52.08000      5.3711270E-04
   52.14000      5.7919160E-04
   52.20000      6.2349625E-04
   52.26000      6.7004334E-04
   52.32000      7.1884034E-04
   52.38000      7.6988462E-04
   52.44000      8.2316285E-04
   52.50000      8.7865075E-04
   52.56000      9.3631254E-04
   52.62000      9.9610060E-04
   52.68000      1.0579553E-03
   52.74000      1.1218055E-03
   52.80000      1.1875677E-03
   52.86000      1.2551463E-03
   52.92000      1.3244344E-03
   52.98000      1.3953138E-03
   53.04000      1.4676556E-03
   53.10000      1.5413210E-03
   53.16000      1.6161613E-03
   53.22000      1.6920196E-03
   53.28000      1.7687317E-03
   53.34000      1.8461269E-03
   53.40000      1.9240290E-03
   53.46000      2.0022579E-03
   53.52000      2.0806307E-03
   53.58000      2.1589638E-03
   53.64000      2.2370729E-03
   53.70000      2.3147759E-03
   53.76000      2.3918936E-03
   53.82000      2.4682512E-03
   53.88000      2.5436797E-03
   53.94000      2.6180174E-03
   54.00000      2.6911113E-03
   54.06000      2.7628178E-03
   54.12000      2.8330041E-03
   54.18000      2.9015504E-03
   54.24000      2.9683479E-03
   54.30000      3.0333023E-03
   54.36000      3.0963325E-03
   54.42000      3.1573719E-03
   54.48000      3.2163677E-03
   54.54000      3.2732820E-03
   54.60000      3.3280917E-03
   54.66000      3.3807869E-03
   54.72000      3.4313716E-03
   54.78000      3.4798626E-03
   54.84000      3.5262874E-03
   54.90000      3.5706847E-03
   54.96000      3.6131022E-03
   55.02000      3.6535966E-03
   55.08000      3.6922309E-03
   55.14000      3.7290747E-03
   55.20000      3.7642005E-03
   55.26000      3.7976834E-03
   55.32000      3.8296001E-03
   55.38000      3.8600250E-03
   55.44000      3.8890317E-03
   55.50000      3.9166892E-03
   55.56000      3.9430619E-03