  -2.400000      0.0000000E+00
  -2.340000      0.0000000E+00
  -2.280000      0.0000000E+00
  -2.220000      0.0000000E+00
  -2.160000      0.0000000E+00
  -2.100000      0.0000000E+00
  -2.040000      0.0000000E+00
  -1.980000      0.0000000E+00
  -1.920000     -3.6629228E-26
  -1.860000     -4.7559586E-25
  -1.800000     -3.1572576E-24
  -1.740000     -1.4205607E-23
  -1.680000     -4.8355186E-23
  -1.620000     -1.3120701E-22
  -1.560000     -2.8917886E-22
  -1.500000     -5.0857148E-22
  -1.440000     -6.4238339E-22
  -1.380000     -2.6491423E-22
  -1.320000      1.4508811E-21
  -1.260000      5.6174841E-21
  -1.200000      1.2927265E-20
  -1.140000      2.2094267E-20
  -1.080000      2.7789346E-20
  -1.020000      1.9599216E-20
 -0.9600000     -1.5373559E-20
 -0.9000000     -8.4228674E-20
 -0.8400000     -1.7608014E-19
 -0.7800000     -2.5428918E-19
 -0.7200000     -2.6607738E-19
 -0.6600000     -1.7712284E-19
 -0.6000000     -1.7807950E-20
 -0.5400000      1.0208665E-19
 -0.4800000      6.7337368E-20
 -0.4200000     -5.9881718E-20
 -0.3600000      1.6813847E-19
 -0.3000000      1.6029630E-18
 -0.2400000      5.0634372E-18
 -0.1800000      1.0346632E-17
 -0.1200000      1.5027309E-17
 -5.9999999E-02  1.3942890E-17
  0.0000000E+00  5.3722946E-19
  5.9999999E-02 -2.9253993E-17
  0.1200000     -7.1377230E-17
  0.1800000     -1.0915170E-16
  0.2400000     -1.1417107E-16
  0.3000000     -5.6177621E-17
  0.3600000      7.8387367E-17
  0.4200000      2.6569992E-16
  0.4800000      4.3401447E-16
  0.5400000      4.7651977E-16
  0.6000000      2.9365693E-16
  0.6600000     -1.4415229E-16
  0.7200000     -7.3998863E-16
  0.7800000     -1.2570135E-15
  0.8400000     -1.3781611E-15
  0.9000000     -8.4110170E-16
  0.9600000      3.9129764E-16
   1.020000      2.0027812E-15
   1.080000      3.3265908E-15
   1.140000      3.5354012E-15
   1.200000      1.9982625E-15
   1.260000     -1.3106490E-15
   1.320000     -5.5383859E-15
   1.380000     -9.0049140E-15
   1.440000     -9.6798697E-15
   1.500000     -6.0129573E-15
   1.560000      2.1485698E-15
   1.620000      1.2955099E-14
   1.680000      2.2650847E-14
   1.740000      2.6563883E-14
   1.800000      2.0837625E-14
   1.860000      4.3697994E-15
   1.920000     -1.9830541E-14
   1.980000     -4.4635170E-14
   2.040000     -6.0535710E-14
   2.100000     -5.8877308E-14
   2.160000     -3.5614246E-14
   2.220000      5.8775032E-15
   2.280000      5.4380156E-14
   2.340000      9.3601613E-14
   2.400000      1.0774901E-13
   2.460000      8.8204197E-14
   2.520000      3.8671205E-14
   2.580000     -2.3850708E-14
   2.640000     -7.3776597E-14
   2.700000     -8.6737075E-14
   2.760000     -5.1487965E-14
   2.820000      2.0780547E-14
   2.880000      9.4596653E-14
   2.940000      1.1881814E-13
   3.000000      4.5125589E-14
   3.060000     -1.4837388E-13
   3.120000     -4.3647554E-13
   3.180000     -7.3808158E-13
   3.240000     -9.2600526E-13
   3.300000     -8.5708469E-13
   3.360000     -4.1784653E-13
   3.420000      4.2502124E-13
   3.480000      1.5838077E-12
   3.540000      2.8331400E-12
   3.600000      3.8286600E-12
   3.660000      4.1654310E-12
   3.720000      3.4716819E-12
   3.780000      1.5237757E-12
   3.840000     -1.6408750E-12
   3.900000     -5.6429306E-12
   3.960000     -9.7440727E-12
   4.020000     -1.2919784E-11
   4.080000     -1.4032778E-11
   4.140000     -1.2093863E-11
   4.200000     -6.5679137E-12
   4.260000      2.3440538E-12
   4.320000      1.3530723E-11
   4.380000      2.4983187E-11
   4.440000      3.4044097E-11
   4.500000      3.7891613E-11
   4.560000      3.4193169E-11
   4.620000      2.1803835E-11
   4.680000      1.3435916E-12
   4.740000     -2.4517806E-11
   4.800000     -5.1203309E-11
   4.860000     -7.2855895E-11
   4.920000     -8.3401758E-11
   4.980000     -7.7886163E-11
   5.040000     -5.3823140E-11
   5.100000     -1.2251428E-11
   5.160000      4.1792927E-11
   5.220000      9.9585555E-11
   5.280000      1.4984985E-10
   5.340000      1.8058442E-10
   5.400000      1.8127996E-10
   5.460000      1.4511888E-10
   5.520000      7.0738117E-11
   5.580000     -3.6778060E-11
   5.640000     -1.6584631E-10
   5.700000     -2.9925148E-10
   5.760000     -4.1573975E-10
   5.820000     -4.9203608E-10
   5.880000     -5.0495974E-10
   5.940000     -4.3336071E-10
   6.000000     -2.5969457E-10
   6.060000      2.8842193E-11
   6.120000      4.3960993E-10
   6.180000      9.7419739E-10
   6.240000      1.6283903E-09
   6.300000      2.3923625E-09
   6.360000      3.2510361E-09
   6.420000      4.1845767E-09
   6.480000      5.1690257E-09
   6.540000      6.1770908E-09
   6.600000      7.1791391E-09
   6.660000      8.1444247E-09
   6.720000      9.0425454E-09
   6.780000      9.8450617E-09
   6.840000      1.0527141E-08
   6.900000      1.1069036E-08
   6.960000      1.1457225E-08
   7.020000      1.1685084E-08
   7.080000      1.1753071E-08
   7.140000      1.1668488E-08
   7.200000      1.1444893E-08
   7.260000      1.1101259E-08
   7.320000      1.0660806E-08
   7.380000      1.0149400E-08
   7.440000      9.5933688E-09
   7.500000      9.0166568E-09
   7.560000      8.4375404E-09
   7.620000      7.8653555E-09
   7.680000      7.2979964E-09
   7.740000      6.7210078E-09
   7.800000      6.1089236E-09
   7.860000      5.4290674E-09
   7.920000      4.6474162E-09
   7.980000      3.7354999E-09
   8.040000      2.6768829E-09
   8.100000      1.4716935E-09
   8.160000      1.3802129E-10
   8.220000     -1.2902904E-09
   8.280000     -2.7690181E-09
   8.340000     -4.2508321E-09
   8.400000     -5.6926810E-09
   8.460000     -7.0614612E-09
   8.520000     -8.3366221E-09
   8.580000     -9.5092227E-09
   8.640000     -1.0577965E-08
   8.700000     -1.1543580E-08
   8.760000     -1.2403412E-08
   8.820000     -1.3147940E-08
   8.880000     -1.3760419E-08
   8.940000     -1.4219841E-08
   9.000000     -1.4506472E-08
   9.060000     -1.4608417E-08
   9.120000     -1.4527391E-08
   9.180000     -1.4282064E-08
   9.240000     -1.3908059E-08
   9.300000     -1.3454625E-08
   9.360000     -1.2978896E-08
   9.420000     -1.2539237E-08
   9.480000     -1.2189258E-08
   9.540000     -1.1973683E-08
   9.600000     -1.1926479E-08
   9.660000     -1.2070863E-08
   9.720000     -1.2420179E-08
   9.780000     -1.2978578E-08
   9.840000     -1.3740676E-08
   9.900000     -1.4690168E-08
   9.960000     -1.5798037E-08
   10.02000     -1.7021513E-08
   10.08000     -1.8304970E-08
   10.14000     -1.9583400E-08
   10.20000     -2.0788379E-08
   10.26000     -2.1855467E-08
   10.32000     -2.2731450E-08
   10.38000     -2.3379719E-08
   10.44000     -2.3782460E-08
   10.50000     -2.3939307E-08
   10.56000     -2.3863004E-08
   10.62000     -2.3573598E-08
   10.68000     -2.3093063E-08
   10.74000     -2.2442125E-08
   10.80000     -2.1640288E-08
   10.86000     -2.0708960E-08
   10.92000     -1.9676317E-08
   10.98000     -1.8581741E-08
   11.04000     -1.7477440E-08
   11.10000     -1.6425576E-08
   11.16000     -1.5490542E-08
   11.22000     -1.4727870E-08
   11.28000     -1.4172615E-08
   11.34000     -1.3830768E-08
   11.40000     -1.3676782E-08
   11.46000     -1.3658588E-08
   11.52000     -1.3709271E-08
   11.58000     -1.3762344E-08
   11.64000     -1.3766215E-08
   11.70000     -1.3693458E-08
   11.76000     -1.3541984E-08
   11.82000     -1.3327677E-08
   11.88000     -1.3070788E-08
   11.94000     -1.2780512E-08
   12.00000     -1.2442884E-08
   12.06000     -1.2016347E-08
   12.12000     -1.1437105E-08
   12.18000     -1.0633440E-08
   12.24000     -9.5453823E-09
   12.30000     -8.1443217E-09
   12.36000     -6.4469305E-09
   12.42000     -4.5191877E-09
   12.48000     -2.4689950E-09
   12.54000     -4.2905143E-10
   12.60000      1.4656567E-09
   12.66000      3.0999614E-09
   12.72000      4.3947139E-09
   12.78000      5.3134501E-09
   12.84000      5.8587482E-09
   12.90000      6.0604504E-09
   12.96000      5.9600547E-09
   13.02000      5.5963110E-09
   13.08000      4.9962319E-09
   13.14000      4.1736907E-09
   13.20000      3.1352436E-09
   13.26000      1.8905082E-09
   13.32000      4.6309290E-10
   13.38000     -1.1020349E-09
   13.44000     -2.7376550E-09
   13.50000     -4.3607251E-09
   13.56000     -5.8846266E-09
   13.62000     -7.2337780E-09
   13.68000     -8.3562313E-09
   13.74000     -9.2302983E-09
   13.80000     -9.8629540E-09
   13.86000     -1.0280268E-08
   13.92000     -1.0512697E-08
   13.98000     -1.0579812E-08
   14.04000     -1.0479348E-08
   14.10000     -1.0184242E-08
   14.16000     -9.6487538E-09
   14.22000     -8.8219618E-09
   14.28000     -7.6644788E-09
   14.34000     -6.1632845E-09
   14.40000     -4.3401296E-09
   14.46000     -2.2510012E-09
   14.52000      2.3166146E-11
   14.58000      2.3918065E-09
   14.64000      4.7717594E-09
   14.70000      7.1014843E-09
   14.76000      9.3489900E-09
   14.82000      1.1512019E-08
   14.88000      1.3611241E-08
   14.94000      1.5679015E-08
   15.00000      1.7747229E-08
   15.06000      1.9837513E-08
   15.12000      2.1956026E-08
   15.18000      2.4093415E-08
   15.24000      2.6228873E-08
   15.30000      2.8336311E-08
   15.36000      3.0390261E-08
   15.42000      3.2369908E-08
   15.48000      3.4260644E-08
   15.54000      3.6053713E-08
   15.60000      3.7745234E-08
   15.66000      3.9335941E-08
   15.72000      4.0832301E-08
   15.78000      4.2248811E-08
   15.84000      4.3610360E-08
   15.90000      4.4953133E-08
   15.96000      4.6322729E-08
   16.02000      4.7768840E-08
   16.08000      4.9336904E-08
   16.14000      5.1058041E-08
   16.20000      5.2939338E-08
   16.26000      5.4956661E-08
   16.32000      5.7052027E-08
   16.38000      5.9136688E-08
   16.44000      6.1100089E-08
   16.50000      6.2823624E-08
   16.56000      6.4196946E-08
   16.62000      6.5134010E-08
   16.68000      6.5585638E-08
   16.74000      6.5546160E-08
   16.80000      6.5053001E-08
   16.86000      6.4179403E-08
   16.92000      6.3022242E-08
   16.98000      6.1687871E-08
   17.04000      6.0278985E-08
   17.10000      5.8885060E-08
   17.16000      5.7577552E-08
   17.22000      5.6409402E-08
   17.28000      5.5417608E-08
   17.34000      5.4626533E-08
   17.40000      5.4050176E-08
   17.46000      5.3692499E-08
   17.52000      5.3545740E-08
   17.58000      5.3588074E-08
   17.64000      5.3782177E-08
   17.70000      5.4076033E-08
   17.76000      5.4406648E-08
   17.82000      5.4706085E-08
   17.88000      5.4908487E-08
   17.94000      5.4956317E-08
   18.00000      5.4804445E-08
   18.06000      5.4421502E-08
   18.12000      5.3788845E-08
   18.18000      5.2898280E-08
   18.24000      5.1749726E-08
   18.30000      5.0349790E-08
   18.36000      4.8711374E-08
   18.42000      4.6853852E-08
   18.48000      4.4803013E-08
   18.54000      4.2589981E-08
   18.60000      4.0248928E-08
   18.66000      3.7813919E-08
   18.72000      3.5315793E-08
   18.78000      3.2779948E-08
   18.84000      3.0225674E-08
   18.90000      2.7667049E-08
   18.96000      2.5114870E-08
   19.02000      2.2578741E-08
   19.08000      2.0068429E-08
   19.14000      1.7593980E-08
   19.20000      1.5164650E-08
   19.26000      1.2787212E-08
   19.32000      1.0464493E-08
   19.38000      8.1949061E-09
   19.44000      5.9733649E-09
   19.50000      3.7933492E-09
   19.56000      1.6493725E-09
   19.62000     -4.6118176E-10
   19.68000     -2.5377440E-09
   19.74000     -4.5781512E-09
   19.80000     -6.5817853E-09
   19.86000     -8.5531875E-09
   19.92000     -1.0504675E-08
   19.98000     -1.2456562E-08
   20.04000     -1.4434179E-08
   20.10000     -1.6461886E-08
   20.16000     -1.8555308E-08
   20.22000     -2.0713861E-08
   20.28000     -2.2915913E-08
   20.34000     -2.5118453E-08
   20.40000     -2.7262042E-08
   20.46000     -2.9280343E-08
   20.52000     -3.1112037E-08
   20.58000     -3.2712048E-08
   20.64000     -3.4059010E-08
   20.70000     -3.5156873E-08
   20.76000     -3.6030354E-08
   20.82000     -3.6715864E-08
   20.88000     -3.7251013E-08
   20.94000     -3.7666130E-08
   21.00000     -3.7980435E-08
   21.06000     -3.8203588E-08
   21.12000     -3.8341401E-08
   21.18000     -3.8402888E-08
   21.24000     -3.8405535E-08
   21.30000     -3.8376673E-08
   21.36000     -3.8350393E-08
   21.42000     -3.8361346E-08
   21.48000     -3.8437772E-08
   21.54000     -3.8596053E-08
   21.60000     -3.8838220E-08
   21.66000     -3.9152262E-08
   21.72000     -3.9514280E-08
   21.78000     -3.9891038E-08
   21.84000     -4.0242103E-08
   21.90000     -4.0521584E-08
   21.96000     -4.0680337E-08
   22.02000     -4.0669530E-08
   22.08000     -4.0445986E-08
   22.14000     -3.9978648E-08
   22.20000     -3.9254715E-08
   22.26000     -3.8283591E-08
   22.32000     -3.7097344E-08
   22.38000     -3.5747306E-08
   22.44000     -3.4297695E-08
   22.50000     -3.2817884E-08
   22.56000     -3.1375095E-08
   22.62000     -3.0028950E-08
   22.68000     -2.8828286E-08
   22.74000     -2.7809868E-08
   22.80000     -2.6998313E-08
   22.86000     -2.6406362E-08
   22.92000     -2.6035254E-08
   22.98000     -2.5875359E-08
   23.04000     -2.5907621E-08
   23.10000     -2.6106317E-08
   23.16000     -2.6443143E-08
   23.22000     -2.6892030E-08
   23.28000     -2.7433620E-08
   23.34000     -2.8058105E-08
   23.40000     -2.8765641E-08
   23.46000     -2.9564166E-08
   23.52000     -3.0465387E-08
   23.58000     -3.1480237E-08
   23.64000     -3.2615127E-08
   23.70000     -3.3869888E-08
   23.76000     -3.5237559E-08
   23.82000     -3.6705384E-08
   23.88000     -3.8256207E-08
   23.94000     -3.9869516E-08
   24.00000     -4.1521982E-08
   24.06000     -4.3187875E-08
   24.12000     -4.4840004E-08
   24.18000     -4.6451689E-08
   24.24000     -4.7999588E-08
   24.30000     -4.9466742E-08
   24.36000     -5.0844776E-08
   24.42000     -5.2134368E-08
   24.48000     -5.3343776E-08
   24.54000     -5.4485618E-08
   24.60000     -5.5573057E-08
   24.66000     -5.6616205E-08
   24.72000     -5.7619410E-08
   24.78000     -5.8579545E-08
   24.84000     -5.9485124E-08
   24.90000     -6.0315976E-08
   24.96000     -6.1043707E-08
   25.02000     -6.1633479E-08
   25.08000     -6.2047697E-08
   25.14000     -6.2251949E-08
   25.20000     -6.2222391E-08
   25.26000     -6.1952896E-08
   25.32000     -6.1459772E-08
   25.38000     -6.0782114E-08
   25.44000     -5.9976927E-08
   25.50000     -5.9110064E-08
   25.56000     -5.8245416E-08
   25.62000     -5.7435496E-08
   25.68000     -5.6716065E-08
   25.74000     -5.6105886E-08
   25.80000     -5.5610766E-08
   25.86000     -5.5229425E-08
   25.92000     -5.4958331E-08
   25.98000     -5.4793400E-08
   26.04000     -5.4728030E-08
   26.10000     -5.4748849E-08
   26.16000     -5.4831595E-08
   26.22000     -5.4939562E-08
   26.28000     -5.5026145E-08
   26.34000     -5.5041244E-08
   26.40000     -5.4939957E-08
   26.46000     -5.4691096E-08
   26.52000     -5.4283266E-08
   26.58000     -5.3726978E-08
   26.64000     -5.3052439E-08
   26.70000     -5.2303644E-08
   26.76000     -5.1530137E-08
   26.82000     -5.0778006E-08
   26.88000     -5.0081741E-08
   26.94000     -4.9458482E-08
   27.00000     -4.8905697E-08
   27.06000     -4.8402942E-08
   27.12000     -4.7917261E-08
   27.18000     -4.7411135E-08
   27.24000     -4.6850811E-08
   27.30000     -4.6212914E-08
   27.36000     -4.5487599E-08
   27.42000     -4.4677662E-08
   27.48000     -4.3794444E-08
   27.54000     -4.2852360E-08
   27.60000     -4.1864183E-08
   27.66000     -4.0838664E-08
   27.72000     -3.9780872E-08
   27.78000     -3.8694324E-08
   27.84000     -3.7583280E-08
   27.90000     -3.6453475E-08
   27.96000     -3.5310400E-08
   28.02000     -3.4155619E-08
   28.08000     -3.2982655E-08
   28.14000     -3.1774618E-08
   28.20000     -3.0505426E-08
   28.26000     -2.9145292E-08
   28.32000     -2.7669563E-08
   28.38000     -2.6068422E-08
   28.44000     -2.4354307E-08
   28.50000     -2.2564043E-08
   28.56000     -2.0754166E-08
   28.62000     -1.8990010E-08
   28.68000     -1.7331272E-08
   28.74000     -1.5818207E-08
   28.80000     -1.4462777E-08
   28.86000     -1.3247676E-08
   28.92000     -1.2133857E-08
   28.98000     -1.1074341E-08
   29.04000     -1.0030052E-08
   29.10000     -8.9826599E-09
   29.16000     -7.9403257E-09
   29.22000     -6.9345529E-09
   29.28000     -6.0092935E-09
   29.34000     -5.2059757E-09
   29.40000     -4.5494577E-09
   29.46000     -4.0395283E-09
   29.52000     -3.6506747E-09
   29.58000     -3.3400249E-09
   29.64000     -3.0606340E-09
   29.70000     -2.7755516E-09
   29.76000     -2.4679543E-09
   29.82000     -2.1441231E-09
   29.88000     -1.8286476E-09
   29.94000     -1.5540462E-09
   30.00000     -1.3489706E-09
   30.06000     -1.2296115E-09
   30.12000     -1.1976300E-09
   30.18000     -1.2453610E-09
   30.24000     -1.3661194E-09
   30.30000     -1.5652732E-09
   30.36000     -1.8672119E-09
   30.42000     -2.3146542E-09
   30.48000     -2.9595366E-09
   30.54000     -3.8479282E-09
   30.60000     -5.0038840E-09
   30.66000     -6.4178742E-09
   30.72000     -8.0441085E-09
   30.78000     -9.8081161E-09
   30.84000     -1.1622416E-08
   30.90000     -1.3405274E-08
   30.96000     -1.5096489E-08
   31.02000     -1.6665219E-08
   31.08000     -1.8107707E-08
   31.14000     -1.9436374E-08
   31.20000     -2.0664643E-08
   31.26000     -2.1793227E-08
   31.32000     -2.2802718E-08
   31.38000     -2.3654900E-08
   31.44000     -2.4301841E-08
   31.50000     -2.4699176E-08
   31.56000     -2.4818725E-08
   31.62000     -2.4656197E-08
   31.68000     -2.4231802E-08
   31.74000     -2.3584203E-08
   31.80000     -2.2760416E-08
   31.86000     -2.1805329E-08
   31.92000     -2.0754076E-08
   31.98000     -1.9629111E-08
   32.04000     -1.8441996E-08
   32.10000     -1.7198309E-08
   32.16000     -1.5903211E-08
   32.22000     -1.4565388E-08
   32.28000     -1.3197901E-08
   32.34000     -1.1815931E-08
   32.40000     -1.0432753E-08
   32.46000     -9.0562313E-09
   32.52000     -7.6881861E-09
   32.58000     -6.3280599E-09
   32.64000     -4.9805737E-09
   32.70000     -3.6650509E-09
   32.76000     -2.4227036E-09
   32.82000     -1.3179984E-09
   32.88000     -4.3172965E-10
   32.94000      1.5382101E-10
   33.00000      3.7414380E-10
   33.06000      2.0046988E-10
   33.12000     -3.4956754E-10
   33.18000     -1.2127134E-09
   33.24000     -2.2929172E-09
   33.30000     -3.4828807E-09
   33.36000     -4.6881068E-09
   33.42000     -5.8464065E-09
   33.48000     -6.9373227E-09
   33.54000     -7.9791409E-09
   33.60000     -9.0150225E-09
   33.66000     -1.0092961E-08
   33.72000     -1.1245911E-08
   33.78000     -1.2478061E-08
   33.84000     -1.3761185E-08
   33.90000     -1.5041817E-08
   33.96000     -1.6256708E-08
   34.02000     -1.7351493E-08
   34.08000     -1.8296488E-08
   34.14000     -1.9094482E-08
   34.20000     -1.9777966E-08
   34.26000     -2.0396802E-08
   34.32000     -2.1000677E-08
   34.38000     -2.1622517E-08
   34.44000     -2.2268697E-08
   34.50000     -2.2919357E-08
   34.56000     -2.3538291E-08
   34.62000     -2.4088230E-08
   34.68000     -2.4545319E-08
   34.74000     -2.4907076E-08
   34.80000     -2.5190703E-08
   34.86000     -2.5422574E-08
   34.92000     -2.5623155E-08
   34.98000     -2.5793316E-08
   35.04000     -2.5907497E-08
   35.10000     -2.5916572E-08
   35.16000     -2.5759837E-08
   35.22000     -2.5382379E-08
   35.28000     -2.4752381E-08
   35.34000     -2.3872987E-08
   35.40000     -2.2785105E-08
   35.46000     -2.1560304E-08
   35.52000     -2.0285848E-08
   35.58000     -1.9046226E-08
   35.64000     -1.7906439E-08
   35.70000     -1.6901804E-08
   35.76000     -1.6036930E-08
   35.82000     -1.5293733E-08
   35.88000     -1.4645467E-08
   35.94000     -1.4071880E-08
   36.00000     -1.3570402E-08
   36.06000     -1.3159847E-08
   36.12000     -1.2875832E-08
   36.18000     -1.2760041E-08
   36.24000     -1.2847452E-08
   36.30000     -1.3155931E-08
   36.36000     -1.3681382E-08
   36.42000     -1.4399302E-08
   36.48000     -1.5271407E-08
   36.54000     -1.6254651E-08
   36.60000     -1.7309736E-08
   36.66000     -1.8407142E-08
   36.72000     -1.9529823E-08
   36.78000     -2.0672916E-08
   36.84000     -2.1841204E-08
   36.90000     -2.3045269E-08
   36.96000     -2.4297050E-08
   37.02000     -2.5605496E-08
   37.08000     -2.6972989E-08
   37.14000     -2.8393204E-08
   37.20000     -2.9850966E-08
   37.26000     -3.1324131E-08
   37.32000     -3.2786964E-08
   37.38000     -3.4214068E-08
   37.44000     -3.5583703E-08
   37.50000     -3.6879690E-08
   37.56000     -3.8091688E-08
   37.62000     -3.9214168E-08
   37.68000     -4.0244810E-08
   37.74000     -4.1182982E-08
   37.80000     -4.2028805E-08
   37.86000     -4.2782847E-08
   37.92000     -4.3446263E-08
   37.98000     -4.4021085E-08
   38.04000     -4.4510241E-08
   38.10000     -4.4916945E-08
   38.16000     -4.5243404E-08
   38.22000     -4.5488800E-08
   38.28000     -4.5647120E-08
   38.34000     -4.5705633E-08
   38.40000     -4.5645130E-08
   38.46000     -4.5442544E-08
   38.52000     -4.5076039E-08
   38.58000     -4.4531347E-08
   38.64000     -4.3807379E-08
   38.70000     -4.2918671E-08
   38.76000     -4.1893156E-08
   38.82000     -4.0765169E-08
   38.88000     -3.9565521E-08
   38.94000     -3.8311970E-08
   39.00000     -3.7003673E-08
   39.06000     -3.5622044E-08
   39.12000     -3.4138441E-08
   39.18000     -3.2526362E-08
   39.24000     -3.0774306E-08
   39.30000     -2.8894895E-08
   39.36000     -2.6927053E-08
   39.42000     -2.4930390E-08
   39.48000     -2.2973586E-08
   39.54000     -2.1120467E-08
   39.60000     -1.9418213E-08
   39.66000     -1.7891045E-08
   39.72000     -1.6540865E-08
   39.78000     -1.5353757E-08
   39.84000     -1.4309483E-08
   39.90000     -1.3390338E-08
   39.96000     -1.2586415E-08
   40.02000     -1.1896002E-08
   40.08000     -1.1321810E-08
   40.14000     -1.0865244E-08
   40.20000     -1.0521439E-08
   40.26000     -1.0277134E-08
   40.32000     -1.0112098E-08
   40.38000     -1.0003316E-08
   40.44000     -9.9301714E-09
   40.50000     -9.8787094E-09
   40.56000     -9.8437374E-09
   40.62000     -9.8284731E-09
   40.68000     -9.8423625E-09
   40.74000     -9.8980175E-09
   40.80000     -1.0008083E-08
   40.86000     -1.0182381E-08
   40.92000     -1.0425302E-08
   40.98000     -1.0733384E-08
   41.04000     -1.1093277E-08
   41.10000     -1.1480775E-08
   41.16000     -1.1861756E-08
   41.22000     -1.2195740E-08
   41.28000     -1.2442043E-08
   41.34000     -1.2567584E-08
   41.40000     -1.2554517E-08
   41.46000     -1.2405367E-08
   41.52000     -1.2143678E-08
   41.58000     -1.1809156E-08
   41.64000     -1.1447911E-08
   41.70000     -1.1100079E-08
   41.76000     -1.0788383E-08
   41.82000     -1.0511366E-08
   41.88000     -1.0244043E-08
   41.94000     -9.9464996E-09
   42.00000     -9.5783648E-09
   42.06000     -9.1147987E-09
   42.12000     -8.5586942E-09
   42.18000     -7.9446227E-09
   42.24000     -7.3324347E-09
   42.30000     -6.7917938E-09
   42.36000     -6.3819834E-09
   42.42000     -6.1330589E-09
   42.48000     -6.0342220E-09
   42.54000     -6.0330985E-09
   42.60000     -6.0461902E-09
   42.66000     -5.9772751E-09
   42.72000     -5.7381224E-09
   42.78000     -5.2653411E-09
   42.84000     -4.5286752E-09
   42.90000     -3.5289065E-09
   42.96000     -2.2867777E-09
   43.02000     -8.2681001E-10
   43.08000      8.3913865E-10
   43.14000      2.7244287E-09
   43.20000      4.8740643E-09
   43.26000      7.3650548E-09
   43.32000      1.0302657E-08
   43.38000      1.3815380E-08
   43.44000      1.8051509E-08
   43.50000      2.3178917E-08
   43.56000      2.9388660E-08
   43.62000      3.6901621E-08
   43.68000      4.5976716E-08
   43.74000      5.6919159E-08
   43.80000      7.0087744E-08
   43.86000      8.5901057E-08
   43.92000      1.0484347E-07
   43.98000      1.2747267E-07
   44.04000      1.5443062E-07
   44.10000      1.8645966E-07
   44.16000      2.2442453E-07
   44.22000      2.6933984E-07
   44.28000      3.2240146E-07
   44.34000      3.8501909E-07
   44.40000      4.5884781E-07
   44.46000      5.4581704E-07
   44.52000      6.4815765E-07
   44.58000      7.6842946E-07
   44.64000      9.0955410E-07
   44.70000      1.0748558E-06
   44.76000      1.2681141E-06
   44.82000      1.4936277E-06
   44.88000      1.7562843E-06
   44.94000      2.0616358E-06
   45.00000      2.4159692E-06
   45.06000      2.8263785E-06
   45.12000      3.3008344E-06
   45.18000      3.8482603E-06
   45.24000      4.4786170E-06
   45.30000      5.2030032E-06
   45.36000      6.0337679E-06
   45.42000      6.9846315E-06
   45.48000      8.0708096E-06
   45.54000      9.3091339E-06
   45.60000      1.0718160E-05
   45.66000      1.2318270E-05
   45.72000      1.4131772E-05
   45.78000      1.6182998E-05
   45.84000      1.8498406E-05
   45.90000      2.1106704E-05
   45.96000      2.4038953E-05
   46.02000      2.7328697E-05
   46.08000      3.1012049E-05
   46.14000      3.5127774E-05
   46.20000      3.9717310E-05
   46.26000      4.4824788E-05
   46.32000      5.0497023E-05
   46.38000      5.6783461E-05
   46.44000      6.3736123E-05
   46.50000      7.1409551E-05
   46.56000      7.9860729E-05
   46.62000      8.9148969E-05
   46.68000      9.9335783E-05
   46.74000      1.1048462E-04
   46.80000      1.2266064E-04
   46.86000      1.3593040E-04
   46.92000      1.5036145E-04
   46.98000      1.6602188E-04
   47.04000      1.8297994E-04
   47.10000      2.0130348E-04
   47.16000      2.2105944E-04
   47.22000      2.4231330E-04
   47.28000      2.6512847E-04
   47.34000      2.8956568E-04
   47.40000      3.1568221E-04
   47.46000      3.4353128E-04
   47.52000      3.7316125E-04
   47.58000      4.0461481E-04
   47.64000      4.3792839E-04
   47.70000      4.7313108E-04
   47.76000      5.1024416E-04
   47.82000      5.4928032E-04
   47.88000      5.9024285E-04
   47.94000      6.3312519E-04
   48.00000      6.7791028E-04
   48.06000      7.2457007E-04
   48.12000      7.7306485E-04
   48.18000      8.2334300E-04
   48.24000      8.7534072E-04
   48.30000      9.2898170E-04
   48.36000      9.8417699E-04
   48.42000      1.0408259E-03
   48.48000      1.0988148E-03
   48.54000      1.1580189E-03
   48.60000      1.2183018E-03
   48.66000      1.2795166E-03
   48.72000      1.3415064E-03
   48.78000      1.4041056E-03
   48.84000      1.4671404E-03
   48.90000      1.5304304E-03
   48.96000      1.5937897E-03
   49.02000      1.6570276E-03
   49.08000      1.7199516E-03
   49.14000      1.7823678E-03
   49.20000      1.8440830E-03
   49.26000      1.9049068E-03
   49.32000      1.9646529E-03
   49.38000      2.0231416E-03
   49.44000      2.0801998E-03
   49.50000      2.1356647E-03
   49.56000      2.1893845E-03
   49.62000      2.2412196E-03
   49.68000      2.2910454E-03
   49.74000      2.3387515E-03
   49.80000      2.3842456E-03
   49.86000      2.4274532E-03
   49.92000      2.4683177E-03
   49.98000      2.5068023E-03
   50.04000      2.5428892E-03
   50.10000      2.5765817E-03
   50.16000      2.6079018E-03
   50.22000      2.6368923E-03
   50.28000      2.6636140E-03
   50.34000      2.6881467E-03
   50.40000      2.7105873E-03
   50.46000      2.7310490E-03
   50.52000      2.7496591E-03
   50.58000      2.7665589E-03
   50.64000      2.7819003E-03
   50.70000      2.7958455E-03
   50.76000      2.8085627E-03
   50.82000      2.8202264E-03
   50.88000      2.8310129E-03
   50.94000      2.8410994E-03
   51.00000      2.8506608E-03
   51.06000      2.8598686E-03
   51.12000      2.8688877E-03
   51.18000      2.8778750E-03
   51.24000      2.8869761E-03
   51.30000      2.8963254E-03
   51.36000      2.9060426E-03
   51.42000      2.9162320E-03
   51.48000      2.9269813E-03
   51.54000      2.9383600E-03
   51.60000      2.9504194E-03
   51.66000      2.9631918E-03
   51.72000      2.9766909E-03
   51.78000      2.9909106E-03
   51.84000      3.0058259E-03
   51.90000      3.0213932E-03
   51.96000      3.0375530E-03
   52.02000      3.0542284E-03
   52.08000      3.0713284E-03
   52.14000      3.0887490E-03
   52.20000      3.1063752E-03
   52.26000      3.1240820E-03
   52.32000      3.1417375E-03
   52.38000      3.1592045E-03
   52.44000      3.1763434E-03
   52.50000      3.1930131E-03
   52.56000      3.2090754E-03
   52.62000      3.2243954E-03
   52.68000      3.2388452E-03
   52.74000      3.2523037E-03
   52.80000      3.2646609E-03
   52.86000      3.2758182E-03
   52.92000      3.2856902E-03
   52.98000      3.2942065E-03
   53.04000      3.3013124E-03
   53.10000      3.3069705E-03
   53.16000      3.3111589E-03
   53.22000      3.3138744E-03
   53.28000      3.3151300E-03
   53.34000      3.3149566E-03
   53.40000      3.3134017E-03
   53.46000      3.3105284E-03
   53.52000      3.3064145E-03
   53.58000      3.3011506E-03
   53.64000      3.2948398E-03
   53.70000      3.2875943E-03
   53.76000      3.2795351E-03
   53.82000      3.2707890E-03
   53.88000      3.2614884E-03
   53.94000      3.2517666E-03
   54.00000      3.2417579E-03
   54.06000      3.2315932E-03
   54.12000      3.2213998E-03
   54.18000      3.2112980E-03
   54.24000      3.2013995E-03
   54.30000      3.1918061E-03
   54.36000      3.1826079E-03
   54.42000      3.1738826E-03
   54.48000      3.1656923E-03
   54.54000      3.1580841E-03
   54.60000      3.1510880E-03
   54.66000      3.1447180E-03
   54.72000      3.1389704E-03
   54.78000      3.1338241E-03
   54.84000      3.1292420E-03
   54.90000      3.1251709E-03
   54.96000      3.1215413E-03
   55.02000      3.1182691E-03
   55.08000      3.1152563E-03
   55.14000      3.1123934E-03
   55.20000      3.1095596E-03
   55.26000      3.1066258E-03
   55.32000      3.1034565E-03
   55.38000      3.0999104E-03
   55.44000      3.0958448E-03
   55.50000      3.0911139E-03
   55.56000      3.0855737E-03