 -0.750000000       0.00000000    
 -0.689999998       0.00000000    
 -0.629999995       0.00000000    
 -0.569999993       0.00000000    
 -0.509999990       0.00000000    
 -0.449999988       0.00000000    
 -0.389999986       0.00000000    
 -0.330000013       0.00000000    
 -0.270000011      -4.34003167E-26
 -0.209999993      -4.92683719E-25
 -0.150000006      -2.78778967E-24
  -9.00000036E-02  -1.04233209E-23
  -2.99999993E-02  -2.89796889E-23
   2.99999993E-02  -6.49226214E-23
   9.00000036E-02  -1.27713425E-22
  0.150000006      -2.43290232E-22
  0.209999993      -4.71337449E-22
  0.270000011      -8.68263378E-22
  0.330000013      -1.27988963E-21
  0.389999986      -8.84620188E-22
  0.449999988       2.33473667E-21
  0.509999990       1.15517154E-20
  0.569999993       2.95216399E-20
  0.629999995       5.48857859E-20
  0.689999998       7.71965790E-20
  0.750000000       7.34163765E-20
  0.810000002       9.49575313E-21
  0.870000005      -1.50909060E-19
  0.930000007      -4.31629901E-19
  0.990000010      -8.25109042E-19
   1.04999995      -1.26673219E-18
   1.11000001      -1.59236786E-18
   1.16999996      -1.47374768E-18
   1.23000002      -3.62315112E-19
   1.28999996       2.45794775E-18
   1.35000002       7.54643821E-18
   1.40999997       1.45868437E-17
   1.47000003       2.13841739E-17
   1.52999997       2.31195674E-17
   1.59000003       1.28304225E-17
   1.64999998      -1.58977099E-17
   1.71000004      -6.38489730E-17
   1.76999998      -1.20239146E-16
   1.83000004      -1.59463759E-16
   1.88999999      -1.45047920E-16
   1.95000005      -4.37370889E-17
   2.00999999       1.52119481E-16
   2.06999993       4.02504366E-16
   2.13000011       6.11931700E-16
   2.19000006       6.49338634E-16
   2.25000000       3.99779249E-16
   2.30999994      -1.64835364E-16
   2.36999989      -9.26423969E-16
   2.43000007      -1.61152910E-15
   2.49000001      -1.86044476E-15
   2.54999995      -1.37192942E-15
   2.60999990      -7.86132867E-17
   2.67000008       1.72589252E-15
   2.73000002       3.39176662E-15
   2.78999996       4.09569907E-15
   2.84999990       3.17387735E-15
   2.91000009       4.93883100E-16
   2.97000003      -3.30062969E-15
   3.02999997      -6.82961564E-15
   3.08999991      -8.37182123E-15
   3.15000010      -6.54316519E-15
   3.21000004      -1.03554744E-15
   3.26999998       6.89871786E-15
   3.32999992       1.45095490E-14
   3.39000010       1.82948376E-14
   3.45000005       1.53050908E-14
   3.50999999       4.60154164E-15
   3.56999993      -1.17253695E-14
   3.63000011      -2.85555745E-14
   3.69000006      -3.90619205E-14
   3.75000000      -3.71665250E-14
   3.80999994      -2.03758536E-14
   3.86999989       8.16507574E-15
   3.93000007       3.95628625E-14
   3.99000001       6.16406950E-14
   4.05000019       6.36107717E-14
   4.11000013       4.14418222E-14
   4.17000008       1.61133269E-15
   4.23000002      -3.90302957E-14
   4.28999996      -5.84444602E-14
   4.34999990      -3.88082782E-14
   4.40999985       2.28915973E-14
   4.46999979       1.07567628E-13
   4.53000021       1.74413733E-13
   4.59000015       1.71287219E-13
   4.65000010       5.38778854E-14
   4.71000004      -1.91434962E-13
   4.76999998      -5.28894094E-13
   4.82999992      -8.67094048E-13
   4.88999987      -1.07093230E-12
   4.94999981      -9.92793521E-13
   5.01000023      -5.18141086E-13
   5.07000017       3.84604512E-13
   5.13000011       1.62335954E-12
   5.19000006       2.96485015E-12
   5.25000000       4.05169301E-12
   5.30999994       4.45989252E-12
   5.36999989       3.79418458E-12
   5.42999983       1.80828345E-12
   5.48999977      -1.47382486E-12
   5.55000019      -5.66814868E-12
   5.61000013      -1.00082104E-11
   5.67000008      -1.34193203E-11
   5.73000002      -1.47017433E-11
   5.78999996      -1.28076421E-11
   5.84999990      -7.16476618E-12
   5.90999985       2.02778918E-12
   5.96999979       1.36203245E-11
   6.03000021       2.55303209E-11
   6.09000015       3.50053007E-11
   6.15000010       3.91254494E-11
   6.21000004       3.54770276E-11
   6.26999998       2.28681865E-11
   6.32999992       1.91968837E-12
   6.38999987      -2.46424357E-11
   6.44999981      -5.21292939E-11
   6.51000023      -7.45269194E-11
   6.57000017      -8.55828325E-11
   6.63000011      -8.01776492E-11
   6.69000006      -5.57177741E-11
   6.75000000      -1.32316302E-11
   6.80999994       4.21332552E-11
   6.86999989       1.01421656E-10
   6.92999983       1.53041427E-10
   6.98999977       1.84653653E-10
   7.05000019       1.85466795E-10
   7.11000013       1.48508691E-10
   7.17000008       7.24379168E-11
   7.23000002      -3.74519721E-11
   7.28999996      -1.69209327E-10
   7.34999990      -3.05152625E-10
   7.40999985      -4.23541258E-10
   7.46999979      -5.00669894E-10
   7.53000021      -5.13046106E-10
   7.59000015      -4.39365516E-10
   7.65000010      -2.62101701E-10
   7.71000004       3.13651778E-11
   7.76999998       4.48067916E-10
   7.82999992       9.89158977E-10
   7.88999987       1.64992420E-09
   7.94999981       2.42002840E-09
   8.01000023       3.28393179E-09
   8.06999969       4.22144231E-09
   8.13000011       5.20838217E-09
   8.18999958       6.21739726E-09
   8.25000000       7.21893123E-09
   8.31000042       8.18240675E-09
   8.36999989       9.07762754E-09
   8.43000031       9.87633264E-09
   8.48999977       1.05537969E-08
   8.55000019       1.10902851E-08
   8.60999966       1.14722001E-08
   8.67000008       1.16927890E-08
   8.72999954       1.17523733E-08
   8.78999996       1.16581615E-08
   8.85000038       1.14237153E-08
   8.90999985       1.10681411E-08
   8.97000027       1.06149551E-08
   9.02999973       1.00904733E-08
   9.09000015       9.52159951E-09
   9.14999962       8.93293794E-09
   9.21000004       8.34344416E-09
   9.27000046       7.76309328E-09
   9.32999992       7.19032478E-09
   9.39000034       6.61109656E-09
   9.44999981       6.00020789E-09
   9.51000023       5.32509370E-09
   9.56999969       4.55169236E-09
   9.63000011       3.65135810E-09
   9.68999958       2.60735833E-09
   9.75000000       1.41942635E-09
   9.81000042       1.05191418E-10
   9.86999989      -1.30199451E-09
   9.93000031      -2.75839840E-09
   9.98999977      -4.21715507E-09
   10.0500002      -5.63563196E-09
   10.1099997      -6.98108282E-09
   10.1700001      -8.23323454E-09
   10.2299995      -9.38333855E-09
   10.2900000      -1.04302105E-08
   10.3500004      -1.13746781E-08
   10.4099998      -1.22142572E-08
   10.4700003      -1.29398030E-08
   10.5299997      -1.35352387E-08
   10.5900002      -1.39805367E-08
   10.6499996      -1.42571350E-08
   10.7100000      -1.43542778E-08
   10.7700005      -1.42745042E-08
   10.8299999      -1.40367664E-08
   10.8900003      -1.36763525E-08
   10.9499998      -1.32416513E-08
   11.0100002      -1.27886350E-08
   11.0699997      -1.23744339E-08
   11.1300001      -1.20514807E-08
   11.1899996      -1.18633396E-08
   11.2500000      -1.18426948E-08
   11.3100004      -1.20112036E-08
   11.3699999      -1.23804060E-08
   11.4300003      -1.29526230E-08
   11.4899998      -1.37210492E-08
   11.5500002      -1.46688119E-08
   11.6099997      -1.57674513E-08
   11.6700001      -1.69758625E-08
   11.7299995      -1.82408186E-08
   11.7900000      -1.94999092E-08
   11.8500004      -2.06869526E-08
   11.9099998      -2.17390497E-08
   11.9700003      -2.26037553E-08
   12.0299997      -2.32446151E-08
   12.0900002      -2.36436346E-08
   12.1499996      -2.38001565E-08
   12.2100000      -2.37266313E-08
   12.2700005      -2.34427908E-08
   12.3299999      -2.29702160E-08
   12.3900003      -2.23291128E-08
   12.4499998      -2.15383960E-08
   12.5100002      -2.06189199E-08
   12.5699997      -1.95984846E-08
   12.6300001      -1.85163493E-08
   12.6899996      -1.74248402E-08
   12.7500000      -1.63863909E-08
   12.8100004      -1.54656608E-08
   12.8699999      -1.47182915E-08
   12.9300003      -1.41791592E-08
   12.9899998      -1.38537741E-08
   13.0500002      -1.37158604E-08
   13.1099997      -1.37125449E-08
   13.1700001      -1.37762601E-08
   13.2299995      -1.38401983E-08
   13.2900000      -1.38528415E-08
   13.3500004      -1.37870995E-08
   13.4099998      -1.36411940E-08
   13.4700003      -1.34309435E-08
   13.5299997      -1.31759670E-08
   13.5900002      -1.28843372E-08
   13.6499996      -1.25408883E-08
   13.7100000      -1.21033921E-08
   13.7700005      -1.15084386E-08
   13.8299999      -1.06859366E-08
   13.8900003      -9.57844470E-09
   13.9499998      -8.16001755E-09
   14.0100002      -6.44921361E-09
   14.0699997      -4.51245219E-09
   14.1300001      -2.45651277E-09
   14.1899996      -4.11908702E-10
   14.2500000       1.48870594E-09
   14.3100004       3.13170512E-09
   14.3699999       4.43811876E-09
   14.4300003       5.37030242E-09
   14.4899998       5.92882454E-09
   14.5500002       6.14146067E-09
   14.6099997       6.04826722E-09
   14.6700001       5.68749448E-09
   14.7299995       5.08651343E-09
   14.7900000       4.26005364E-09
   14.8500004       3.21561555E-09
   14.9099998       1.96358108E-09
   14.9700003       5.28065980E-10
   15.0299997      -1.04565856E-09
   15.0900002      -2.69020939E-09
   15.1499996      -4.32253833E-09
   15.2100000      -5.85624704E-09
   15.2700005      -7.21623428E-09
   15.3299999      -8.35118286E-09
   15.3900003      -9.23990395E-09
   15.4499998      -9.88936311E-09
   15.5100002      -1.03248352E-08
   15.5699997      -1.05751781E-08
   15.6300001      -1.06578879E-08
   15.6899996      -1.05687619E-08
   15.7500000      -1.02795683E-08
   15.8100004      -9.74461578E-09
   15.8699999      -8.91421426E-09
   15.9300003      -7.75091813E-09
   15.9899998      -6.24355012E-09
   16.0499992      -4.41480896E-09
   16.1100006      -2.32028086E-09
   16.1700001      -3.92656879E-11
   16.2299995       2.33986808E-09
   16.2900009       4.73573714E-09
   16.3500004       7.08725745E-09
   16.4099998       9.36115896E-09
   16.4699993       1.15524195E-08
   16.5300007       1.36783216E-08
   16.5900002       1.57683502E-08
   16.6499996       1.78529689E-08
   16.7099991       1.99541983E-08
   16.7700005       2.20800995E-08
   16.8299999       2.42238745E-08
   16.8899994       2.63669726E-08
   16.9500008       2.84845658E-08
   17.0100002       3.05512984E-08
   17.0699997       3.25456533E-08
   17.1299992       3.44520181E-08
   17.1900005       3.62607224E-08
   17.2500000       3.79671228E-08
   17.3099995       3.95710913E-08
   17.3700008       4.10778505E-08
   17.4300003       4.25002895E-08
   17.4899998       4.38617356E-08
   17.5499992       4.51975311E-08
   17.6100006       4.65537759E-08
   17.6700001       4.79821480E-08
   17.7299995       4.95309855E-08
   17.7900009       5.12341920E-08
   17.8500004       5.31003508E-08
   17.9099998       5.51049517E-08
   17.9699993       5.71878900E-08
   18.0300007       5.92575198E-08
   18.0900002       6.12009288E-08
   18.1499996       6.28987564E-08
   18.2099991       6.42418811E-08
   18.2700005       6.51469136E-08
   18.3299999       6.55676260E-08
   18.3899994       6.55004939E-08
   18.4500008       6.49835030E-08
   18.5100002       6.40888942E-08
   18.5699997       6.29116812E-08
   18.6299992       6.15564346E-08
   18.6900005       6.01249965E-08
   18.7500000       5.87072968E-08
   18.8099995       5.73762904E-08
   18.8700008       5.61869697E-08
   18.9300003       5.51781199E-08
   18.9899998       5.43750573E-08
   19.0499992       5.37916520E-08
   19.1100006       5.34306821E-08
   19.1700001       5.32825624E-08
   19.2299995       5.33235536E-08
   19.2900009       5.35148956E-08
   19.3500004       5.38040439E-08
   19.4099998       5.41285132E-08
   19.4699993       5.44217187E-08
   19.5300007       5.46194769E-08
   19.5900002       5.46656231E-08
   19.6499996       5.45155601E-08
   19.7099991       5.41374305E-08
   19.7700005       5.35113394E-08
   19.8299999       5.26276231E-08
   19.8899994       5.14851948E-08
   19.9500008       5.00904846E-08
   20.0100002       4.84569966E-08
   20.0699997       4.66050203E-08
   20.1299992       4.45608457E-08
   20.1900005       4.23552287E-08
   20.2500000       4.00210070E-08
   20.3099995       3.75904143E-08
   20.3700008       3.50927216E-08
   20.4300003       3.25526983E-08
   20.4899998       2.99902467E-08
   20.5499992       2.74210983E-08
   20.6100006       2.48581689E-08
   20.6700001       2.23129515E-08
   20.7299995       1.97964400E-08
   20.7900009       1.73191754E-08
   20.8500004       1.48903778E-08
   20.9099998       1.25165567E-08
   20.9699993       1.02001794E-08
   21.0300007       7.93917287E-09
   21.0900002       5.72770276E-09
   21.1499996       3.55823504E-09
   21.2099991       1.42424761E-09
   21.2700005      -6.77487011E-10
   21.3299999      -2.74617618E-09
   21.3899994      -4.77850648E-09
   21.4500008      -6.77216239E-09
   21.5100002      -8.73018813E-09
   21.5699997      -1.06644062E-08
   21.6299992      -1.25960833E-08
   21.6900005      -1.45527981E-08
   21.7500000      -1.65617173E-08
   21.8099995      -1.86408453E-08
   21.8700008      -2.07907398E-08
   21.9300003      -2.29893580E-08
   21.9899998      -2.51920280E-08
   22.0499992      -2.73370944E-08
   22.1100006      -2.93561762E-08
   22.1700001      -3.11865662E-08
   22.2299995      -3.27825518E-08
   22.2900009      -3.41226958E-08
   22.3500004      -3.52111833E-08
   22.4099998      -3.60731214E-08
   22.4699993      -3.67454902E-08
   22.5300007      -3.72666662E-08
   22.5900002      -3.76679239E-08
   22.6499996      -3.79693645E-08
   22.7099991      -3.81811773E-08
   22.7700005      -3.83091141E-08
   22.8299999      -3.83615628E-08
   22.8899994      -3.83551750E-08
   22.9500008      -3.83166494E-08
   23.0100002      -3.82800316E-08
   23.0699997      -3.82805361E-08
   23.1299992      -3.83473058E-08
   23.1900005      -3.84975145E-08
   23.2500000      -3.87334644E-08
   23.3099995      -3.90428596E-08
   23.3700008      -3.94012396E-08
   23.4300003      -3.97749602E-08
   23.4899998      -4.01236484E-08
   23.5499992      -4.04019254E-08
   23.6100006      -4.05611686E-08
   23.6700001      -4.05525178E-08
   23.7299995      -4.03318374E-08
   23.7900009      -3.98662223E-08
   23.8500004      -3.91406516E-08
   23.9099998      -3.81627423E-08
   23.9699993      -3.69638897E-08
   24.0300007      -3.55961376E-08
   24.0900002      -3.41255095E-08
   24.1499996      -3.26235856E-08
   24.2099991      -3.11594626E-08
   24.2700005      -2.97937888E-08
   24.3299999      -2.85754940E-08
   24.3899994      -2.75409064E-08
   24.4500008      -2.67141598E-08
   24.5100002      -2.61079371E-08
   24.5699997      -2.57240060E-08
   24.6299992      -2.55537209E-08
   24.6900005      -2.55791974E-08
   24.7500000      -2.57757655E-08
   24.8099995      -2.61158597E-08
   24.8700008      -2.65737938E-08
   24.9300003      -2.71302483E-08
   24.9899998      -2.77751528E-08
   25.0499992      -2.85081132E-08
   25.1100006      -2.93362561E-08
   25.1700001      -3.02703036E-08
   25.2299995      -3.13201909E-08
   25.2900009      -3.24914602E-08
   25.3500004      -3.37833299E-08
   25.4099998      -3.51883749E-08
   25.4699993      -3.66933399E-08
   25.5300007      -3.82802163E-08
   25.5900002      -3.99271443E-08
   25.6499996      -4.16089847E-08
   25.7099991      -4.32981047E-08
   25.7700005      -4.49657946E-08
   25.8299999      -4.65846988E-08
   25.8899994      -4.81319127E-08
   25.9500008      -4.95918826E-08
   26.0100002      -5.09582492E-08
   26.0699997      -5.22337835E-08
   26.1299992      -5.34284190E-08
   26.1900005      -5.45558301E-08
   26.2500000      -5.56296058E-08
   26.3099995      -5.66598466E-08
   26.3700008      -5.76507837E-08
   26.4300003      -5.85993654E-08
   26.4899998      -5.94945462E-08
   26.5499992      -6.03170207E-08
   26.6100006      -6.10395716E-08
   26.6700001      -6.16285689E-08
   26.7299995      -6.20473770E-08
   26.7900009      -6.22619467E-08
   26.8500004      -6.22479774E-08
   26.9099998      -6.19980440E-08
   26.9699993      -6.15265563E-08
   27.0300007      -6.08705903E-08
   27.0900002      -6.00854975E-08
   27.1499996      -5.92362639E-08
   27.2099991      -5.83868136E-08
   27.2700005      -5.75903236E-08
   27.3299999      -5.68833869E-08
   27.3899994      -5.62852591E-08
   27.4500008      -5.58015856E-08
   27.5100002      -5.54302737E-08
   27.5699997      -5.51667085E-08
   27.6299992      -5.50059092E-08
   27.6900005      -5.49410046E-08
   27.7500000      -5.49591093E-08
   27.8099995      -5.50369919E-08
   27.8700008      -5.51391039E-08
   27.9300003      -5.52196404E-08
   27.9899998      -5.52286750E-08
   28.0499992      -5.51208714E-08
   28.1100006      -5.48642873E-08
   28.1700001      -5.44468648E-08
   28.2299995      -5.38788996E-08
   28.2900009      -5.31909627E-08
   28.3500004      -5.24279145E-08
   28.4099998      -5.16403418E-08
   28.4699993      -5.08752542E-08
   28.5300007      -5.01676674E-08
   28.5900002      -4.95347976E-08
   28.6499996      -4.89738561E-08
   28.7099991      -4.84639635E-08
   28.7700005      -4.79718310E-08
   28.8299999      -4.74597890E-08
   28.8899994      -4.68941792E-08
   28.9500008      -4.62518699E-08
   29.0100002      -4.55232438E-08
   29.0699997      -4.47111717E-08
   29.1299992      -4.38267946E-08
   29.1900005      -4.28840501E-08
   29.2500000      -4.18950492E-08
   29.3099995      -4.08678389E-08
   29.3700008      -3.98069240E-08
   29.4300003      -3.87155055E-08
   29.4899998      -3.75978253E-08
   29.5499992      -3.64598485E-08
   29.6100006      -3.53075293E-08
   29.6700001      -3.41430706E-08
   29.7299995      -3.29607950E-08
   29.7900009      -3.17447402E-08
   29.8500004      -3.04697743E-08
   29.9099998      -2.91069195E-08
   29.9699993      -2.76319341E-08
   30.0300007      -2.60348738E-08
   30.0900002      -2.43274645E-08
   30.1499996      -2.25454304E-08
   30.2099991      -2.07441513E-08
   30.2700005      -1.89881018E-08
   30.3299999      -1.73365855E-08
   30.3899994      -1.58298885E-08
   30.4500008      -1.44801291E-08
   30.5100002      -1.32699567E-08
   30.5699997      -1.21598545E-08
   30.6299992      -1.11019842E-08
   30.6900005      -1.00562865E-08
   30.7500000      -9.00366359E-09
   30.8099995      -7.95198218E-09
   30.8700008      -6.93298929E-09
   30.9300003      -5.99126926E-09
   30.9899998      -5.16904075E-09
   31.0499992      -4.49190596E-09
   31.1100006      -3.96026634E-09
   31.1700001      -3.54910701E-09
   31.2299995      -3.21600235E-09
   31.2900009      -2.91443447E-09
   31.3500004      -2.60785149E-09
   31.4099998      -2.27976926E-09
   31.4699993      -1.93673411E-09
   31.5300007      -1.60353930E-09
   31.5900002      -1.31284839E-09
   31.6499996      -1.09336684E-09
   31.7099991      -9.61181357E-10
   31.7700005      -9.17647514E-10
   31.8299999      -9.54652912E-10
   31.8899994      -1.06512055E-09
   31.9500008      -1.25435462E-09
   32.0099983      -1.54720592E-09
   32.0699997      -1.98735495E-09
   32.1300011      -2.62788857E-09
   32.1899986      -3.51572482E-09
   32.2500000      -4.67501593E-09
   32.3100014      -6.09541351E-09
   32.3699989      -7.72962228E-09
   32.4300003      -9.50151424E-09
   32.4900017      -1.13223804E-08
   32.5499992      -1.31100437E-08
   32.6100006      -1.48045984E-08
   32.6699982      -1.63758678E-08
   32.7299995      -1.78206729E-08
   32.7900009      -1.91516190E-08
   32.8499985      -2.03819699E-08
   32.9099998      -2.15122302E-08
   32.9700012      -2.25230998E-08
   33.0299988      -2.33769288E-08
   33.0900002      -2.40266331E-08
   33.1500015      -2.44285800E-08
   33.2099991      -2.45547920E-08
   33.2700005      -2.44004763E-08
   33.3300018      -2.39848035E-08
   33.3899994      -2.33452546E-08
   33.4500008      -2.25279511E-08
   33.5099983      -2.15773444E-08
   33.5699997      -2.05285104E-08
   33.6300011      -1.94039629E-08
   33.6899986      -1.82152196E-08
   33.7500000      -1.69676930E-08
   33.8100014      -1.56665401E-08
   33.8699989      -1.43208929E-08
   33.9300003      -1.29448905E-08
   33.9900017      -1.15552172E-08
   34.0499992      -1.01665822E-08
   34.1100006      -8.78761686E-09
   34.1699982      -7.41988160E-09
   34.2299995      -6.06161521E-09
   34.2900009      -4.71592543E-09
   34.3499985      -3.40089534E-09
   34.4099998      -2.15751172E-09
   34.4700012      -1.05124143E-09
   34.5299988      -1.64757666E-10
   34.5900002       4.17667900E-10
   34.6500015       6.30292596E-10
   34.7099991       4.44476261E-10
   34.7700005      -1.20576285E-10
   34.8300018      -9.99070049E-10
   34.8899994      -2.09229212E-09
   34.9500008      -3.29104277E-09
   35.0099983      -4.50027171E-09
   35.0699997      -5.65864378E-09
   35.1300011      -6.74748035E-09
   35.1899986      -7.78697107E-09
   35.2500000      -8.82152129E-09
   35.3100014      -9.89928761E-09
   35.3699989      -1.10524097E-08
   35.4300003      -1.22838717E-08
   35.4900017      -1.35646285E-08
   35.5499992      -1.48413717E-08
   35.6100006      -1.60520983E-08
   35.6699982      -1.71443499E-08
   35.7299995      -1.80902617E-08
   35.7900009      -1.88936173E-08
   35.8499985      -1.95867571E-08
   35.9099998      -2.02184367E-08
   35.9700012      -2.08368558E-08
   36.0299988      -2.14737206E-08
   36.0900002      -2.21348415E-08
   36.1500015      -2.28003962E-08
   36.2099991      -2.34344366E-08
   36.2700005      -2.39996965E-08
   36.3300018      -2.44718592E-08
   36.3899994      -2.48476386E-08
   36.4500008      -2.51435335E-08
   36.5099983      -2.53857699E-08
   36.5699997      -2.55954138E-08
   36.6300011      -2.57745079E-08
   36.6899986      -2.58987285E-08
   36.7500000      -2.59197055E-08
   36.8100014      -2.57766484E-08
   36.8699989      -2.54137351E-08
   36.9300003      -2.47977621E-08
   36.9900017      -2.39304914E-08
   37.0499992      -2.28518733E-08
   37.1100006      -2.16331344E-08
   37.1699982      -2.03617958E-08
   37.2299995      -1.91230018E-08
   37.2900009      -1.79826056E-08
   37.3499985      -1.69767418E-08
   37.4099998      -1.61106826E-08
   37.4700012      -1.53667497E-08
   37.5299988      -1.47183137E-08
   37.5900002      -1.41450078E-08
   37.6500015      -1.36440788E-08
   37.7099991      -1.32343105E-08
   37.7700005      -1.29515918E-08
   37.8300018      -1.28381918E-08
   37.8899994      -1.29297417E-08
   37.9500008      -1.32444837E-08
   38.0099983      -1.37780916E-08
   38.0699997      -1.45051722E-08
   38.1300011      -1.53861901E-08
   38.1899986      -1.63770224E-08
   38.2500000      -1.74380155E-08
   38.3100014      -1.85402289E-08
   38.3699989      -1.96679615E-08
   38.4300003      -2.08178452E-08
   38.4900017      -2.19956586E-08
   38.5499992      -2.32120421E-08
   38.6100006      -2.44780995E-08
   38.6699982      -2.58015120E-08
   38.7299995      -2.71835638E-08
   38.7900009      -2.86174657E-08
   38.8499985      -3.00882128E-08
   38.9099998      -3.15741140E-08
   38.9700012      -3.30496626E-08
   39.0299988      -3.44891085E-08
   39.0900002      -3.58697996E-08
   39.1500015      -3.71744768E-08
   39.2099991      -3.83920913E-08
   39.2700005      -3.95171220E-08
   39.3300018      -4.05479739E-08
   39.3899994      -4.14851087E-08
   39.4500008      -4.23296136E-08
   39.5099983      -4.30825970E-08
   39.5699997      -4.37453274E-08
   39.6300011      -4.43198047E-08
   39.6899986      -4.48091413E-08
   39.7500000      -4.52171420E-08
   39.8100014      -4.55467948E-08
   39.8699989      -4.57978047E-08
   39.9300003      -4.59639011E-08
   39.9900017      -4.60311007E-08
   40.0499992      -4.59781688E-08
   40.1100006      -4.57799274E-08
   40.1699982      -4.54131275E-08
   40.2299995      -4.48633592E-08
   40.2900009      -4.41307044E-08
   40.3499985      -4.32317329E-08
   40.4099998      -4.21964188E-08
   40.4700012      -4.10603498E-08
   40.5299988      -3.98543953E-08
   40.5900002      -3.85952923E-08
   40.6500015      -3.72806568E-08
   40.7099991      -3.58906220E-08
   40.7700005      -3.43960345E-08
   40.8300018      -3.27708172E-08
   40.8899994      -3.10045678E-08
   40.9500008      -2.91111206E-08
   41.0099983      -2.71302039E-08
   41.0699997      -2.51215067E-08
   41.1300011      -2.31530688E-08
   41.1899986      -2.12876525E-08
   41.2500000      -1.95713614E-08
   41.3100014      -1.80277429E-08
   41.3699989      -1.66586513E-08
   41.4300003      -1.54508104E-08
   41.4900017      -1.43851118E-08
   41.5499992      -1.34451215E-08
   41.6100006      -1.26219337E-08
   41.6699982      -1.19141941E-08
   41.7299995      -1.13241514E-08
   41.7900009      -1.08520233E-08
   41.8499985      -1.04913900E-08
   41.9099998      -1.02276001E-08
   41.9700012      -1.00396864E-08
   42.0299988      -9.90481386E-09
   42.0900002      -9.80335990E-09
   42.1500015      -9.72278613E-09
   42.2099991      -9.65917391E-09
   42.2700005      -9.61644542E-09
   42.3300018      -9.60405266E-09
   42.3899994      -9.63416102E-09
   42.4500008      -9.71901581E-09
   42.5099983      -9.86858684E-09
   42.5699997      -1.00882147E-08
   42.6300011      -1.03759961E-08
   42.6899986      -1.07202043E-08
   42.7500000      -1.10976028E-08
   42.8100014      -1.14738725E-08
   42.8699989      -1.18070798E-08
   42.9300003      -1.20542598E-08
   42.9900017      -1.21799788E-08
   43.0499992      -1.21647208E-08
   43.1100006      -1.20104904E-08
   43.1699982      -1.17414691E-08
   43.2299995      -1.13988090E-08
   43.2900009      -1.10303668E-08
   43.3499985      -1.06779225E-08
   43.4099998      -1.03655013E-08
   43.4700012      -1.00925357E-08
   43.5299988      -9.83445680E-09
   43.5900002      -9.55120960E-09
   43.6500015      -9.20162968E-09
   43.7099991      -8.75945716E-09
   43.7700005      -8.22578894E-09
   43.8300018      -7.63344943E-09
   43.8899994      -7.04108727E-09
   43.9500008      -6.51804921E-09
   44.0099983      -6.12422291E-09
   44.0699997      -5.89089888E-09
   44.1300011      -5.80863802E-09
   44.1899986      -5.82602322E-09
   44.2500000      -5.85978732E-09
   44.3100014      -5.81321924E-09
   44.3699989      -5.59722491E-09
   44.4300003      -5.14772358E-09
   44.4900017      -4.43443593E-09
   44.5499992      -3.45895068E-09
   44.6100006      -2.24334373E-09
   44.6699982      -8.13317969E-10
   44.7299995       8.18974777E-10
   44.7900009       2.66787481E-09
   44.8499985       4.78042672E-09
   44.9099998       7.23599225E-09
   44.9700012       1.01415853E-08
   45.0299988       1.36262903E-08
   45.0900002       1.78377739E-08
   45.1500015       2.29426345E-08
   45.2099991       2.91306961E-08
   45.2700005       3.66221080E-08
   45.3300018       4.56756197E-08
   45.3899994       5.65966296E-08
   45.4500008       6.97442530E-08
   45.5099983       8.55374793E-08
   45.5699997       1.04461321E-07
   45.6300011       1.27074443E-07
   45.6899986       1.54020071E-07
   45.7500000       1.86041660E-07
   45.8100014       2.24004637E-07
   45.8699989       2.68923685E-07
   45.9300003       3.21994094E-07
   45.9900017       3.84624713E-07
   46.0499992       4.58469657E-07
   46.1100006       5.45457397E-07
   46.1699982       6.47818013E-07
   46.2299995       7.68110851E-07
   46.2900009       9.09257210E-07
   46.3499985       1.07458141E-06
   46.4099998       1.26786347E-06
   46.4700012       1.49340246E-06
   46.5299988       1.75608648E-06
   46.5900002       2.06146660E-06
   46.6500015       2.41583007E-06
   46.7099991       2.82627047E-06
   46.7700005       3.30075864E-06
   46.8300018       3.84821715E-06
   46.8899994       4.47860657E-06
   46.9500008       5.20302501E-06
   47.0099983       6.03382159E-06
   47.0699997       6.98471422E-06
   47.1300011       8.07091965E-06
   47.1899986       9.30926944E-06
   47.2500000       1.07183178E-05
   47.3100014       1.23184491E-05
   47.3699989       1.41319715E-05
   47.4300003       1.61832140E-05
   47.4900017       1.84986420E-05
   47.5499992       2.11069546E-05
   47.6100006       2.40392201E-05
   47.6699982       2.73289752E-05
   47.7299995       3.10123396E-05
   47.7900009       3.51280687E-05
   47.8499985       3.97176082E-05
   47.9099998       4.48250903E-05
   47.9700012       5.04973286E-05
   48.0299988       5.67837669E-05
   48.0900002       6.37364210E-05
   48.1500015       7.14098496E-05
   48.2099991       7.98610272E-05
   48.2700005       8.91492673E-05
   48.3300018       9.93360736E-05
   48.3899994       1.10484900E-04
   48.4500008       1.22660902E-04
   48.5099983       1.35930648E-04
   48.5699997       1.50361666E-04
   48.6300011       1.66022102E-04
   48.6899986       1.82980148E-04
   48.7500000       2.01303657E-04
   48.8100014       2.21059599E-04
   48.8699989       2.42313428E-04
   48.9300003       2.65128561E-04
   48.9900017       2.89565709E-04
   49.0499992       3.15682177E-04
   49.1100006       3.43531225E-04
   49.1699982       3.73161165E-04
   49.2299995       4.04614751E-04
   49.2900009       4.37928247E-04
   49.3499985       4.73130873E-04
   49.4099998       5.10243815E-04
   49.4700012       5.49279852E-04
   49.5299988       5.90242271E-04
   49.5900002       6.33124553E-04
   49.6500015       6.77909644E-04
   49.7099991       7.24569312E-04
   49.7700005       7.73064094E-04
   49.8300018       8.23342125E-04
   49.8899994       8.75339785E-04
   49.9500008       9.28980589E-04
   50.0099983       9.84175946E-04
   50.0699997       1.04082469E-03
   50.1300011       1.09881361E-03
   50.1899986       1.15801767E-03
   50.2500000       1.21830055E-03
   50.3100014       1.27951533E-03
   50.3699989       1.34150533E-03
   50.4300003       1.40410452E-03
   50.4900017       1.46713934E-03
   50.5499992       1.53042923E-03
   50.6100006       1.59378839E-03