 -0.750000000       0.00000000    
 -0.689999998       0.00000000    
 -0.629999995       0.00000000    
 -0.569999993       0.00000000    
 -0.509999990       0.00000000    
 -0.449999988       0.00000000    
 -0.389999986       0.00000000    
 -0.330000013       0.00000000    
 -0.270000011       1.99337832E-26
 -0.209999993       2.32208997E-25
 -0.150000006       1.29494584E-24
  -9.00000036E-02   4.33814057E-24
  -2.99999993E-02   8.21765319E-24
   2.99999993E-02   3.58268845E-27
   9.00000036E-02  -6.10579603E-23
  0.150000006      -2.47901950E-22
  0.209999993      -6.11187013E-22
  0.270000011      -1.01046009E-21
  0.330000013      -8.47680091E-22
  0.389999986       1.08760417E-21
  0.449999988       6.21765979E-21
  0.509999990       1.47631609E-20
  0.569999993       2.34121372E-20
  0.629999995       2.33692853E-20
  0.689999998       1.33522572E-21
  0.750000000      -5.40794141E-20
  0.810000002      -1.40663278E-19
  0.870000005      -2.30857630E-19
  0.930000007      -2.69642216E-19
  0.990000010      -1.90573857E-19
   1.04999995       5.17280143E-20
   1.11000001       4.50255604E-19
   1.16999996       9.42140416E-19
   1.23000002       1.44601118E-18
   1.28999996       1.91166154E-18
   1.35000002       2.30599715E-18
   1.40999997       2.45579274E-18
   1.47000003       1.76031355E-18
   1.52999997      -1.02327215E-18
   1.59000003      -7.52914931E-18
   1.64999998      -1.86772982E-17
   1.71000004      -3.27104768E-17
   1.76999998      -4.31582676E-17
   1.83000004      -3.83832848E-17
   1.88999999      -4.66882451E-18
   1.95000005       6.61640662E-17
   2.00999999       1.66127315E-16
   2.06999993       2.62275652E-16
   2.13000011       2.96985236E-16
   2.19000006       2.03677715E-16
   2.25000000      -6.11970981E-17
   2.30999994      -4.78601038E-16
   2.36999989      -9.38121388E-16
   2.43000007      -1.24230235E-15
   2.49000001      -1.15945321E-15
   2.54999995      -5.21126803E-16
   2.60999990       6.65442583E-16
   2.67000008       2.14063564E-15
   2.73000002       3.40465295E-15
   2.78999996       3.84734985E-15
   2.84999990       2.97633867E-15
   2.91000009       6.69428402E-16
   2.97000003      -2.65744538E-15
   3.02999997      -6.06737662E-15
   3.08999991      -8.34590457E-15
   3.15000010      -8.41761522E-15
   3.21000004      -5.79166274E-15
   3.26999998      -8.49180758E-16
   3.32999992       5.17780610E-15
   3.39000010       1.05720393E-14
   3.45000005       1.37261037E-14
   3.50999999       1.37302923E-14
   3.56999993       1.06892407E-14
   3.63000011       5.59983900E-15
   3.69000006      -1.82532834E-16
   3.75000000      -5.64878353E-15
   3.80999994      -1.06414816E-14
   3.86999989      -1.58266802E-14
   3.93000007      -2.20174576E-14
   3.99000001      -2.90695270E-14
   4.05000019      -3.48813826E-14
   4.11000013      -3.51610254E-14
   4.17000008      -2.44547916E-14
   4.23000002       1.53332530E-15
   4.28999996       4.29416973E-14
   4.34999990       9.32461031E-14
   4.40999985       1.38640577E-13
   4.46999979       1.60354436E-13
   4.53000021       1.40038615E-13
   4.59000015       6.70810521E-14
   4.65000010      -5.44750775E-14
   4.71000004      -2.02305254E-13
   4.76999998      -3.37895944E-13
   4.82999992      -4.15189042E-13
   4.88999987      -3.94267843E-13
   4.94999981      -2.56263625E-13
   5.01000023      -1.43467832E-14
   5.07000017       2.83910997E-13
   5.13000011       5.65195460E-13
   5.19000006       7.48909506E-13
   5.25000000       7.70548068E-13
   5.30999994       6.02804970E-13
   5.36999989       2.67325035E-13
   5.42999983      -1.67347432E-13
   5.48999977      -6.01733398E-13
   5.55000019      -9.30903358E-13
   5.61000013      -1.07203200E-12
   5.67000008      -9.86015631E-13
   5.73000002      -6.87186798E-13
   5.78999996      -2.38959107E-13
   5.84999990       2.62580376E-13
   5.90999985       7.11909752E-13
   5.96999979       1.01760484E-12
   6.03000021       1.12038146E-12
   6.09000015       1.00222619E-12
   6.15000010       6.86241049E-13
   6.21000004       2.29479440E-13
   6.26999998      -2.87603762E-13
   6.32999992      -7.71890798E-13
   6.38999987      -1.12723264E-12
   6.44999981      -1.26409083E-12
   6.51000023      -1.11177885E-12
   6.57000017      -6.35174639E-13
   6.63000011       1.45376997E-13
   6.69000006       1.13674977E-12
   6.75000000       2.16758968E-12
   6.80999994       3.00404146E-12
   6.86999989       3.39110532E-12
   6.92999983       3.11518953E-12
   6.98999977       2.07359520E-12
   7.05000019       3.30070471E-13
   7.11000013      -1.86444566E-12
   7.17000008      -4.09912772E-12
   7.23000002      -5.87884906E-12
   7.28999996      -6.73406296E-12
   7.34999990      -6.34036703E-12
   7.40999985      -4.61911238E-12
   7.46999979      -1.79339811E-12
   7.53000021       1.61790590E-12
   7.59000015       4.87459682E-12
   7.65000010       7.15333565E-12
   7.71000004       7.73431753E-12
   7.76999998       6.21147968E-12
   7.82999992       2.69263604E-12
   7.88999987      -2.04974839E-12
   7.94999981      -6.51707334E-12
   8.01000023      -8.54394593E-12
   8.06999969      -5.49244678E-12
   8.13000011       5.43109438E-12
   8.18999958       2.67788725E-11
   8.25000000       6.04506167E-11
   8.31000042       1.07348699E-10
   8.36999989       1.67172345E-10
   8.43000031       2.38399578E-10
   8.48999977       3.18465282E-10
   8.55000019       4.04101086E-10
   8.60999966       4.91765462E-10
   8.67000008       5.78075199E-10
   8.72999954       6.60153210E-10
   8.78999996       7.35834560E-10
   8.85000038       8.03709932E-10
   8.90999985       8.63030702E-10
   8.97000027       9.13528697E-10
   9.02999973       9.55221680E-10
   9.09000015       9.88270243E-10
   9.14999962       1.01292918E-09
   9.21000004       1.02960473E-09
   9.27000046       1.03899278E-09
   9.32999992       1.04224940E-09
   9.39000034       1.04113962E-09
   9.44999981       1.03811681E-09
   9.51000023       1.03631381E-09
   9.56999969       1.03944964E-09
   9.63000011       1.05167353E-09
   9.68999958       1.07736031E-09
   9.75000000       1.12084353E-09
   9.81000042       1.18604093E-09
   9.86999989       1.27591637E-09
   9.93000031       1.39174516E-09
   9.98999977       1.53221769E-09
   10.0500002       1.69251302E-09
   10.1099997       1.86355686E-09
   10.1700001       2.03170680E-09
   10.2299995       2.17906737E-09
   10.2900000       2.28451857E-09
   10.3500004       2.32539388E-09
   10.4099998       2.27959740E-09
   10.4700003       2.12788542E-09
   10.5299997       1.85601645E-09
   10.5900002       1.45653778E-09
   10.6499996       9.30050648E-10
   10.7100000       2.85868301E-10
   10.7700005      -4.57969301E-10
   10.8299999      -1.27531652E-09
   10.8900003      -2.13312989E-09
   10.9499998      -2.99315195E-09
   11.0100002      -3.81391141E-09
   11.0699997      -4.55284521E-09
   11.1300001      -5.16839149E-09
   11.1899996      -5.62198998E-09
   11.2500000      -5.88003335E-09
   11.3100004      -5.91589089E-09
   11.3699999      -5.71210457E-09
   11.4300003      -5.26269783E-09
   11.4899998      -4.57534410E-09
   11.5500002      -3.67288822E-09
   11.6099997      -2.59361954E-09
   11.6700001      -1.38973955E-09
   11.7299995      -1.23728097E-10
   11.7900000       1.13728027E-09
   11.8500004       2.32852848E-09
   11.9099998       3.39509820E-09
   11.9700003       4.29859126E-09
   12.0299997       5.02183228E-09
   12.0900002       5.57066970E-09
   12.1499996       5.97244121E-09
   12.2100000       6.27127017E-09
   12.2700005       6.52097887E-09
   12.3299999       6.77685685E-09
   12.3900003       7.08775083E-09
   12.4499998       7.48980877E-09
   12.5100002       8.00284461E-09
   12.5699997       8.62965344E-09
   12.6300001       9.35801836E-09
   12.6899996       1.01645838E-08
   12.7500000       1.10195923E-08
   12.8100004       1.18914860E-08
   12.8699999       1.27506823E-08
   12.9300003       1.35722313E-08
   12.9899998       1.43374326E-08
   13.0500002       1.50346757E-08
   13.1099997       1.56598166E-08
   13.1700001       1.62162159E-08
   13.2299995       1.67144449E-08
   13.2900000       1.71714465E-08
   13.3500004       1.76089578E-08
   13.4099998       1.80510664E-08
   13.4700003       1.85210070E-08
   13.5299997       1.90375236E-08
   13.5900002       1.96113721E-08
   13.6499996       2.02426342E-08
   13.7100000       2.09195790E-08
   13.7700005       2.16195737E-08
   13.8299999       2.23122250E-08
   13.8900003       2.29644801E-08
   13.9499998       2.35468072E-08
   14.0100002       2.40392328E-08
   14.0699997       2.44357494E-08
   14.1300001       2.47457894E-08
   14.1899996       2.49920031E-08
   14.2500000       2.52043257E-08
   14.3100004       2.54114099E-08
   14.3699999       2.56311363E-08
   14.4300003       2.58625601E-08
   14.4899998       2.60814748E-08
   14.5500002       2.62412065E-08
   14.6099997       2.62790483E-08
   14.6700001       2.61274149E-08
   14.7299995       2.57273580E-08
   14.7900000       2.50413184E-08
   14.8500004       2.40618192E-08
   14.9099998       2.28136798E-08
   14.9700003       2.13488907E-08
   15.0299997       1.97352925E-08
   15.0900002       1.80419644E-08
   15.1499996       1.63252185E-08
   15.2100000       1.46190091E-08
   15.2700005       1.29322251E-08
   15.3299999       1.12534098E-08
   15.3900003       9.56117407E-09
   15.4499998       7.83703591E-09
   15.5100002       6.07680706E-09
   15.5699997       4.29724301E-09
   15.6300001       2.53621235E-09
   15.6899996       8.46577086E-10
   15.7500000      -7.14296511E-10
   15.8100004      -2.09641837E-09
   15.8699999      -3.26734195E-09
   15.9300003      -4.21823465E-09
   15.9899998      -4.96473795E-09
   16.0499992      -5.54288393E-09
   16.1100006      -6.00148953E-09
   16.1700001      -6.39306963E-09
   16.2299995      -6.76536294E-09
   16.2900009      -7.15514670E-09
   16.3500004      -7.58528973E-09
   16.4099998      -8.06520362E-09
   16.4699993      -8.59415650E-09
   16.5300007      -9.16637610E-09
   16.5900002      -9.77660441E-09
   16.6499996      -1.04246469E-08
   16.7099991      -1.11176766E-08
   16.7700005      -1.18694290E-08
   16.8299999      -1.26961464E-08
   16.8899994      -1.36099541E-08
   16.9500008      -1.46112251E-08
   17.0100002      -1.56820743E-08
   17.0699997      -1.67831828E-08
   17.1299992      -1.78555304E-08
   17.1900005      -1.88274178E-08
   17.2500000      -1.96255492E-08
   17.3099995      -2.01877235E-08
   17.3700008      -2.04738626E-08
   17.4300003      -2.04724095E-08
   17.4899998      -2.02003445E-08
   17.5499992      -1.96968450E-08
   17.6100006      -1.90123828E-08
   17.6700001      -1.81964506E-08
   17.7299995      -1.72872827E-08
   17.7900009      -1.63063376E-08
   17.8500004      -1.52587063E-08
   17.9099998      -1.41388803E-08
   17.9699993      -1.29396955E-08
   18.0300007      -1.16614371E-08
   18.0900002      -1.03181534E-08
   18.1499996      -8.93907970E-09
   18.2099991      -7.56461027E-09
   18.2700005      -6.23781249E-09
   18.3299999      -4.99387154E-09
   18.3899994      -3.85048438E-09
   18.4500008      -2.80209367E-09
   18.5100002      -1.81988702E-09
   18.5699997      -8.57952376E-10
   18.6299992       1.35703004E-10
   18.6900005       1.20597066E-09
   18.7500000       2.37870879E-09
   18.8099995       3.65326724E-09
   18.8700008       5.00158936E-09
   18.9300003       6.37429753E-09
   18.9899998       7.71230102E-09
   19.0499992       8.96094576E-09
   19.1100006       1.00829638E-08
   19.1700001       1.10667697E-08
   19.2299995       1.19278303E-08
   19.2900009       1.27026976E-08
   19.3500004       1.34373330E-08
   19.4099998       1.41729224E-08
   19.4699993       1.49331623E-08
   19.5300007       1.57165783E-08
   19.5900002       1.64961342E-08
   19.6499996       1.72262240E-08
   19.7099991       1.78551378E-08
   19.7700005       1.83394615E-08
   19.8299999       1.86564062E-08
   19.8899994       1.88107183E-08
   19.9500008       1.88344451E-08
   20.0100002       1.87800033E-08
   20.0699997       1.87087768E-08
   20.1299992       1.86786711E-08
   20.1900005       1.87339335E-08
   20.2500000       1.88996587E-08
   20.3099995       1.91816945E-08
   20.3700008       1.95710363E-08
   20.4300003       2.00506651E-08
   20.4899998       2.06023483E-08
   20.5499992       2.12114166E-08
   20.6100006       2.18684733E-08
   20.6700001       2.25681038E-08
   20.7299995       2.33056028E-08
   20.7900009       2.40731133E-08
   20.8500004       2.48566394E-08
   20.9099998       2.56348880E-08
   20.9699993       2.63804019E-08
   21.0300007       2.70627591E-08
   21.0900002       2.76531367E-08
   21.1499996       2.81290884E-08
   21.2099991       2.84783166E-08
   21.2700005       2.87002297E-08
   21.3299999       2.88046156E-08
   21.3899994       2.88074418E-08
   21.4500008       2.87246671E-08
   21.5100002       2.85657311E-08
   21.5699997       2.83287829E-08
   21.6299992       2.79993042E-08
   21.6900005       2.75529963E-08
   21.7500000       2.69623683E-08
   21.8099995       2.62052708E-08
   21.8700008       2.52727581E-08
   21.9300003       2.41737954E-08
   21.9899998       2.29352111E-08
   22.0499992       2.15967439E-08
   22.1100006       2.02026111E-08
   22.1700001       1.87919671E-08
   22.2299995       1.73908745E-08
   22.2900009       1.60077427E-08
   22.3500004       1.46329580E-08
   22.4099998       1.32420679E-08
   22.4699993       1.18010073E-08
   22.5300007       1.02714841E-08
   22.5900002       8.61509175E-09
   22.6499996       6.79558809E-09
   22.7099991       4.77971662E-09
   22.7700005       2.53760502E-09
   22.8299999       4.39592911E-11
   22.8899994      -2.71914513E-09
   22.9500008      -5.75781600E-09
   23.0100002      -9.06103104E-09
   23.0699997      -1.25958692E-08
   23.1299992      -1.63049023E-08
   23.1900005      -2.01070733E-08
   23.2500000      -2.39026647E-08
   23.3099995      -2.75820629E-08
   23.3700008      -3.10370432E-08
   23.4300003      -3.41727251E-08
   23.4899998      -3.69179638E-08
   23.5499992      -3.92323045E-08
   23.6100006      -4.11080912E-08
   23.6700001      -4.25674962E-08
   23.7299995      -4.36551559E-08
   23.7900009      -4.44281838E-08
   23.8500004      -4.49458177E-08
   23.9099998      -4.52610713E-08
   23.9699993      -4.54161437E-08
   24.0300007      -4.54421922E-08
   24.0900002      -4.53628282E-08
   24.1499996      -4.51994460E-08
   24.2099991      -4.49759874E-08
   24.2700005      -4.47209345E-08
   24.3299999      -4.44654304E-08
   24.3899994      -4.42378294E-08
   24.4500008      -4.40565699E-08
   24.5100002      -4.39240324E-08
   24.5699997      -4.38240555E-08
   24.6299992      -4.37246825E-08
   24.6900005      -4.35861089E-08
   24.7500000      -4.33719833E-08
   24.8099995      -4.30611706E-08
   24.8700008      -4.26566302E-08
   24.9300003      -4.21888160E-08
   24.9899998      -4.17125037E-08
   25.0499992      -4.12975574E-08
   25.1100006      -4.10158023E-08
   25.1700001      -4.09271053E-08
   25.2299995      -4.10678815E-08
   25.2900009      -4.14447889E-08
   25.3500004      -4.20348378E-08
   25.4099998      -4.27918856E-08
   25.4699993      -4.36575789E-08
   25.5300007      -4.45739907E-08
   25.5900002      -4.54946054E-08
   25.6499996      -4.63910119E-08
   25.7099991      -4.72537423E-08
   25.7700005      -4.80876885E-08
   25.8299999      -4.89038570E-08
   25.8899994      -4.97105113E-08
   25.9500008      -5.05065607E-08
   26.0100002      -5.12793967E-08
   26.0699997      -5.20077421E-08
   26.1299992      -5.26683763E-08
   26.1900005      -5.32444488E-08
   26.2500000      -5.37325171E-08
   26.3099995      -5.41458540E-08
   26.3700008      -5.45128138E-08
   26.4300003      -5.48704691E-08
   26.4899998      -5.52551853E-08
   26.5499992      -5.56926736E-08
   26.6100006      -5.61903235E-08
   26.6700001      -5.67340308E-08
   26.7299995      -5.72905883E-08
   26.7900009      -5.78152601E-08
   26.8500004      -5.82628665E-08
   26.9099998      -5.85997064E-08
   26.9699993      -5.88133311E-08
   27.0300007      -5.89177134E-08
   27.0900002      -5.89523701E-08
   27.1499996      -5.89754414E-08
   27.2099991      -5.90522973E-08
   27.2700005      -5.92421898E-08
   27.3299999      -5.95861280E-08
   27.3899994      -6.00987278E-08
   27.4500008      -6.07659487E-08
   27.5100002      -6.15490166E-08
   27.5699997      -6.23934469E-08
   27.6299992      -6.32406767E-08
   27.6900005      -6.40394262E-08
   27.7500000      -6.47536851E-08
   27.8099995      -6.53658176E-08
   27.8700008      -6.58740973E-08
   27.9300003      -6.62862050E-08
   27.9899998      -6.66110225E-08
   28.0499992      -6.68516549E-08
   28.1100006      -6.70020981E-08
   28.1700001      -6.70484042E-08
   28.2299995      -6.69739961E-08
   28.2900009      -6.67669298E-08
   28.3500004      -6.64264306E-08
   28.4099998      -6.59662120E-08
   28.4699993      -6.54131114E-08
   28.5300007      -6.48011351E-08
   28.5900002      -6.41623714E-08
   28.6499996      -6.35174260E-08
   28.7099991      -6.28678336E-08
   28.7700005      -6.21928606E-08
   28.8299999      -6.14517219E-08
   28.8899994      -6.05908568E-08
   28.9500008      -5.95549174E-08
   29.0100002      -5.82988982E-08
   29.0699997      -5.67986191E-08
   29.1299992      -5.50568977E-08
   29.1900005      -5.31036797E-08
   29.2500000      -5.09898328E-08
   29.3099995      -4.87758385E-08
   29.3700008      -4.65181493E-08
   29.4300003      -4.42566517E-08
   29.4899998      -4.20065547E-08
   29.5499992      -3.97568343E-08
   29.6100006      -3.74755018E-08
   29.6700001      -3.51201166E-08
   29.7299995      -3.26503447E-08
   29.7900009      -3.00390575E-08
   29.8500004      -2.72790484E-08
   29.9099998      -2.43839082E-08
   29.9699993      -2.13835474E-08
   30.0300007      -1.83163156E-08
   30.0900002      -1.52204471E-08
   30.1499996      -1.21274963E-08
   30.2099991      -9.05935416E-09
   30.2700005      -6.02921535E-09
   30.3299999      -3.04550318E-09
   30.3899994      -1.16986240E-10
   30.4500008       2.74287615E-09
   30.5100002       5.51389689E-09
   30.5699997       8.17012413E-09
   30.6299992       1.06835287E-08
   30.6900005       1.30293101E-08
   30.7500000       1.51912669E-08
   30.8099995       1.71656644E-08
   30.8700008       1.89624494E-08
   30.9300003       2.06034070E-08
   30.9899998       2.21177245E-08
   31.0499992       2.35360638E-08
   31.1100006       2.48847343E-08
   31.1700001       2.61814375E-08
   31.2299995       2.74336482E-08
   31.2900009       2.86398283E-08
   31.3500004       2.97929468E-08
   31.4099998       3.08849941E-08
   31.4699993       3.19109823E-08
   31.5300007       3.28710463E-08
   31.5900002       3.37699504E-08
   31.6499996       3.46141285E-08
   31.7099991       3.54072114E-08
   31.7700005       3.61456820E-08
   31.8299999       3.68161501E-08
   31.8899994       3.73955622E-08
   31.9500008       3.78545373E-08
   32.0099983       3.81631260E-08
   32.0699997       3.82974150E-08
   32.1300011       3.82450018E-08
   32.1899986       3.80076770E-08
   32.2500000       3.76004721E-08
   32.3100014       3.70473856E-08
   32.3699989       3.63750807E-08
   32.4300003       3.56064298E-08
   32.4900017       3.47557503E-08
   32.5499992       3.38268009E-08
   32.6100006       3.28138086E-08
   32.6699982       3.17048432E-08
   32.7299995       3.04864578E-08
   32.7900009       2.91484472E-08
   32.8499985       2.76878414E-08
   32.9099998       2.61115254E-08
   32.9700012       2.44372060E-08
   33.0299988       2.26923831E-08
   33.0900002       2.09111750E-08
   33.1500015       1.91290752E-08
   33.2099991       1.73762515E-08
   33.2700005       1.56707110E-08
   33.3300018       1.40130627E-08
   33.3899994       1.23846648E-08
   33.4500008       1.07501963E-08
   33.5099983       9.06450737E-09
   33.5699997       7.28228500E-09
   33.6300011       5.36812861E-09
   33.6899986       3.30447425E-09
   33.7500000       1.09545040E-09
   33.8100014      -1.23402732E-09
   33.8699989      -3.64329122E-09
   33.9300003      -6.08346573E-09
   33.9900017      -8.50549942E-09
   34.0499992      -1.08668381E-08
   34.1100006      -1.31354954E-08
   34.1699982      -1.52910182E-08
   34.2299995      -1.73225487E-08
   34.2900009      -1.92247942E-08
   34.3499985      -2.09931130E-08
   34.4099998      -2.26191261E-08
   34.4700012      -2.40881413E-08
   34.5299988      -2.53792578E-08
   34.5900002      -2.64681965E-08
   34.6500015      -2.73320904E-08
   34.7099991      -2.79547017E-08
   34.7700005      -2.83304171E-08
   34.8300018      -2.84657347E-08
   34.8899994      -2.83778867E-08
   34.9500008      -2.80913426E-08
   35.0099983      -2.76336518E-08
   35.0699997      -2.70322786E-08
   35.1300011      -2.63135185E-08
   35.1899986      -2.55035832E-08
   35.2500000      -2.46309835E-08
   35.3100014      -2.37286564E-08
   35.3699989      -2.28343602E-08
   35.4300003      -2.19884608E-08
   35.4900017      -2.12292033E-08
   35.5499992      -2.05866382E-08
   35.6100006      -2.00769303E-08
   35.6699982      -1.96990140E-08
   35.7299995      -1.94349887E-08
   35.7900009      -1.92548324E-08
   35.8499985      -1.91246503E-08
   35.9099998      -1.90167260E-08
   35.9700012      -1.89186871E-08
   36.0299988      -1.88391898E-08
   36.0900002      -1.88082083E-08
   36.1500015      -1.88713809E-08
   36.2099991      -1.90797440E-08
   36.2700005      -1.94775449E-08
   36.3300018      -2.00916492E-08
   36.3899994      -2.09255440E-08
   36.4500008      -2.19597034E-08
   36.5099983      -2.31579058E-08
   36.5699997      -2.44774494E-08
   36.6300011      -2.58799080E-08
   36.6899986      -2.73391692E-08
   36.7500000      -2.88444486E-08
   36.8100014      -3.03977217E-08
   36.8699989      -3.20066995E-08
   36.9300003      -3.36759136E-08
   36.9900017      -3.53988732E-08
   37.0499992      -3.71540310E-08
   37.1100006      -3.89059878E-08
   37.1699982      -4.06118588E-08
   37.2299995      -4.22310080E-08
   37.2900009      -4.37350600E-08
   37.3499985      -4.51149482E-08
   37.4099998      -4.63823042E-08
   37.4700012      -4.75644448E-08
   37.5299988      -4.86943321E-08
   37.5900002      -4.97988921E-08
   37.6500015      -5.08897600E-08
   37.7099991      -5.19599475E-08
   37.7700005      -5.29876232E-08
   37.8300018      -5.39456551E-08
   37.8899994      -5.48132348E-08
   37.9500008      -5.55852395E-08
   38.0099983      -5.62758338E-08
   38.0699997      -5.69151837E-08
   38.1300011      -5.75407313E-08
   38.1899986      -5.81864121E-08
   38.2500000      -5.88736135E-08
   38.3100014      -5.96067409E-08
   38.3699989      -6.03743402E-08
   38.4300003      -6.11548856E-08
   38.4900017      -6.19250002E-08
   38.5499992      -6.26675458E-08
   38.6100006      -6.33774206E-08
   38.6699982      -6.40638049E-08
   38.7299995      -6.47482494E-08
   38.7900009      -6.54591403E-08
   38.8499985      -6.62235990E-08
   38.9099998      -6.70587070E-08
   38.9700012      -6.79643293E-08
   39.0299988      -6.89197535E-08
   39.0900002      -6.98855942E-08
   39.1500015      -7.08110264E-08
   39.2099991      -7.16446849E-08
   39.2700005      -7.23461397E-08
   39.3300018      -7.28946006E-08
   39.3899994      -7.32923127E-08
   39.4500008      -7.35616439E-08
   39.5099983      -7.37372616E-08
   39.5699997      -7.38560857E-08
   39.6300011      -7.39482573E-08
   39.6899986      -7.40317603E-08
   39.7500000      -7.41116892E-08
   39.8100014      -7.41834896E-08
   39.8699989      -7.42382866E-08
   39.9300003      -7.42679021E-08
   39.9900017      -7.42677386E-08
   40.0499992      -7.42366026E-08
   40.1100006      -7.41739896E-08
   40.1699982      -7.40759489E-08
   40.2299995      -7.39314032E-08
   40.2900009      -7.37203791E-08
   40.3499985      -7.34148955E-08
   40.4099998      -7.29825800E-08
   40.4700012      -7.23920479E-08
   40.5299988      -7.16185724E-08
   40.5900002      -7.06486531E-08
   40.6500015      -6.94822120E-08
   40.7099991      -6.81321026E-08
   40.7700005      -6.66208990E-08
   40.8300018      -6.49759713E-08
   40.8899994      -6.32239221E-08
   40.9500008      -6.13856059E-08
   41.0099983      -5.94726792E-08
   41.0699997      -5.74861971E-08
   41.1300011      -5.54173951E-08
   41.1899986      -5.32502860E-08
   41.2500000      -5.09654328E-08
   41.3100014      -4.85440985E-08
   41.3699989      -4.59719942E-08
   41.4300003      -4.32420464E-08
   41.4900017      -4.03558502E-08
   41.5499992      -3.73238720E-08
   41.6100006      -3.41646214E-08
   41.6699982      -3.09031769E-08
   41.7299995      -2.75694756E-08
   41.7900009      -2.41965896E-08
   41.8499985      -2.08191597E-08
   41.9099998      -1.74719919E-08
   41.9700012      -1.41888572E-08
   42.0299988      -1.10015339E-08
   42.0900002      -7.93913113E-09
   42.1500015      -5.02776798E-09
   42.2099991      -2.29059172E-09
   42.2700005       2.51978660E-10
   42.3300018       2.58194355E-09
   42.3899994       4.68350958E-09
   42.4500008       6.54304877E-09
   42.5099983       8.14916135E-09
   42.5699997       9.49265377E-09
   42.6300011       1.05662155E-08
   42.6899986       1.13636540E-08
   42.7500000       1.18788073E-08
   42.8100014       1.21045129E-08
   42.8699989       1.20322436E-08
   42.9300003       1.16530048E-08
   42.9900017       1.09598215E-08
   43.0499992       9.95158356E-09
   43.1100006       8.63740102E-09
   43.1699982       7.04016268E-09
   43.2299995       5.19793586E-09
   43.2900009       3.16231308E-09
   43.3499985       9.93663152E-10
   43.4099998      -1.24580746E-09
   43.4700012      -3.49958951E-09
   43.5299988      -5.72327030E-09
   43.5900002      -7.88846588E-09
   43.6500015      -9.98373029E-09
   43.7099991      -1.20126638E-08
   43.7700005      -1.39899772E-08
   43.8300018      -1.59364344E-08
   43.8899994      -1.78735018E-08
   43.9500008      -1.98183798E-08
   44.0099983      -2.17800178E-08
   44.0699997      -2.37566784E-08
   44.1300011      -2.57356163E-08
   44.1899986      -2.76950196E-08
   44.2500000      -2.96079463E-08
   44.3100014      -3.14473105E-08
   44.3699989      -3.31906520E-08
   44.4300003      -3.48234543E-08
   44.4900017      -3.63403778E-08
   44.5499992      -3.77445630E-08
   44.6100006      -3.90457586E-08
   44.6699982      -4.02582430E-08
   44.7299995      -4.13992680E-08
   44.7900009      -4.24881073E-08
   44.8499985      -4.35453060E-08
   44.9099998      -4.45918715E-08
   44.9700012      -4.56483207E-08
   45.0299988      -4.67342822E-08
   45.0900002      -4.78694702E-08
   45.1500015      -4.90767071E-08
   45.2099991      -5.03868485E-08
   45.2700005      -5.18444843E-08
   45.3300018      -5.35127640E-08
   45.3899994      -5.54757378E-08
   45.4500008      -5.78374326E-08
   45.5099983      -6.07180013E-08
   45.5699997      -6.42482547E-08
   45.6300011      -6.85643613E-08
   45.6899986      -7.38042374E-08
   45.7500000      -8.01068154E-08
   45.8100014      -8.76146800E-08
   45.8699989      -9.64800861E-08
   45.9300003      -1.06874246E-07
   45.9900017      -1.18999154E-07
   46.0499992      -1.33100954E-07
   46.1100006      -1.49483256E-07
   46.1699982      -1.68518753E-07
   46.2299995      -1.90657644E-07
   46.2900009      -2.16432426E-07
   46.3499985      -2.46459933E-07
   46.4099998      -2.81442624E-07
   46.4700012      -3.22171218E-07
   46.5299988      -3.69531193E-07
   46.5900002      -4.24513843E-07
   46.6500015      -4.88232502E-07
   46.7099991      -5.61942102E-07
   46.7700005      -6.47060233E-07
   46.8300018      -7.45188572E-07
   46.8899994      -8.58132353E-07
   46.9500008      -9.87917929E-07
   47.0099983      -1.13680801E-06
   47.0699997      -1.30731587E-06
   47.1300011      -1.50222047E-06
   47.1899986      -1.72458351E-06
   47.2500000      -1.97776876E-06
   47.3100014      -2.26546467E-06
   47.3699989      -2.59170884E-06
   47.4300003      -2.96091343E-06
   47.4900017      -3.37788879E-06
   47.5499992      -3.84786335E-06
   47.6100006      -4.37649987E-06
   47.6699982      -4.96990833E-06
   47.7299995      -5.63465528E-06
   47.7900009      -6.37776930E-06
   47.8499985      -7.20674780E-06
   47.9099998      -8.12956114E-06
   47.9700012      -9.15465716E-06
   48.0299988      -1.02909571E-05
   48.0900002      -1.15478579E-05
   48.1500015      -1.29352165E-05
   48.2099991      -1.44633377E-05
   48.2700005      -1.61429525E-05
   48.3300018      -1.79851904E-05
   48.3899994      -2.00015456E-05
   48.4500008      -2.22038343E-05
   48.5099983      -2.46041363E-05
   48.5699997      -2.72147263E-05
   48.6300011      -3.00479933E-05
   48.6899986      -3.31163501E-05
   48.7500000      -3.64321422E-05
   48.8100014      -4.00075442E-05
   48.8699989      -4.38544630E-05
   48.9300003      -4.79844275E-05
   48.9900017      -5.24084899E-05
   49.0499992      -5.71370911E-05
   49.1100006      -6.21799481E-05
   49.1699982      -6.75459305E-05
   49.2299995      -7.32429035E-05
   49.2900009      -7.92776264E-05
   49.3499985      -8.56555780E-05
   49.4099998      -9.23808839E-05
   49.4700012      -9.94561269E-05
   49.5299988      -1.06882268E-04
   49.5900002      -1.14658527E-04
   49.6500015      -1.22782236E-04
   49.7099991      -1.31248788E-04
   49.7700005      -1.40051590E-04
   49.8300018      -1.49181884E-04
   49.8899994      -1.58628827E-04
   49.9500008      -1.68379367E-04
   50.0099983      -1.78418268E-04
   50.0699997      -1.88728081E-04
   50.1300011      -1.99289265E-04
   50.1899986      -2.10080150E-04
   50.2500000      -2.21077134E-04
   50.3100014      -2.32254737E-04
   50.3699989      -2.43585790E-04
   50.4300003      -2.55041552E-04
   50.4900017      -2.66591960E-04
   50.5499992      -2.78205611E-04
   50.6100006      -2.89850374E-04