 -0.750000000       0.00000000    
 -0.689999998       0.00000000    
 -0.629999995       0.00000000    
 -0.569999993       0.00000000    
 -0.509999990       0.00000000    
 -0.449999988       0.00000000    
 -0.389999986       0.00000000    
 -0.330000013       0.00000000    
 -0.270000011       6.36616297E-27
 -0.209999993       1.48533954E-25
 -0.150000006       1.47292923E-24
  -9.00000036E-02   8.91064699E-24
  -2.99999993E-02   3.76737123E-23
   2.99999993E-02   1.17853787E-22
   9.00000036E-02   2.73963668E-22
  0.150000006       4.34557850E-22
  0.209999993       2.40994684E-22
  0.270000011      -1.16179557E-21
  0.330000013      -5.03159628E-21
  0.389999986      -1.20819745E-20
  0.449999988      -2.02697750E-20
  0.509999990      -2.18411790E-20
  0.569999993      -1.93813870E-21
  0.629999995       5.72252530E-20
  0.689999998       1.62947769E-19
  0.750000000       2.90225986E-19
  0.810000002       3.61313086E-19
  0.870000005       2.46165435E-19
  0.930000007      -1.93877216E-19
  0.990000010      -1.00959069E-18
   1.04999995      -2.03678316E-18
   1.11000001      -2.80362260E-18
   1.16999996      -2.56904576E-18
   1.23000002      -5.79003164E-19
   1.28999996       3.44928401E-18
   1.35000002       8.74898346E-18
   1.40999997       1.31357108E-17
   1.47000003       1.32625036E-17
   1.52999997       5.83537665E-18
   1.59000003      -1.02312051E-17
   1.64999998      -3.13783190E-17
   1.71000004      -4.80668731E-17
   1.76999998      -4.63018715E-17
   1.83000004      -1.32692368E-17
   1.88999999       5.34233771E-17
   1.95000005       1.36199139E-16
   2.00999999       1.93645562E-16
   2.06999993       1.69002065E-16
   2.13000011       1.44568506E-17
   2.19000006      -2.72972434E-16
   2.25000000      -6.18285029E-16
   2.30999994      -8.59935112E-16
   2.36999989      -7.86450663E-16
   2.43000007      -2.24370240E-16
   2.49000001       8.42599153E-16
   2.54999995       2.17205569E-15
   2.60999990       3.24380817E-15
   2.67000008       3.37594108E-15
   2.73000002       1.98249649E-15
   2.78999996      -1.09124663E-15
   2.84999990      -5.28748374E-15
   2.91000009      -9.26889689E-15
   2.97000003      -1.11870081E-14
   3.02999997      -9.29444340E-15
   3.08999991      -2.75295428E-15
   3.15000010       7.65291134E-15
   3.21000004       1.92435416E-14
   3.26999998       2.78807417E-14
   3.32999992       2.91584824E-14
   3.39000010       2.00852400E-14
   3.45000005       7.08937937E-16
   3.50999999      -2.50006399E-14
   3.56999993      -4.95826118E-14
   3.63000011      -6.40134647E-14
   3.69000006      -6.07469668E-14
   3.75000000      -3.69152747E-14
   3.80999994       3.57238687E-15
   3.86999989       5.01536441E-14
   3.93000007       8.84129941E-14
   3.99000001       1.04970144E-13
   4.05000019       9.28159662E-14
   4.11000013       5.48688157E-14
   4.17000008       3.80615949E-15
   4.23000002      -4.25099409E-14
   4.28999996      -6.87745217E-14
   4.34999990      -7.00694995E-14
   4.40999985      -5.58586888E-14
   4.46999979      -4.70770477E-14
   4.53000021      -6.58634117E-14
   4.59000015      -1.21106589E-13
   4.65000010      -1.96117319E-13
   4.71000004      -2.45738271E-13
   4.76999998      -2.07955899E-13
   4.82999992      -2.97109749E-14
   4.88999987       3.00268951E-13
   4.94999981       7.24453700E-13
   5.01000023       1.10976484E-12
   5.07000017       1.27137114E-12
   5.13000011       1.02767068E-12
   5.19000006       2.74684247E-13
   5.25000000      -9.42822968E-13
   5.30999994      -2.39109578E-12
   5.36999989      -3.66159316E-12
   5.42999983      -4.25006558E-12
   5.48999977      -3.69162166E-12
   5.55000019      -1.72283693E-12
   5.61000013       1.57267851E-12
   5.67000008       5.68289903E-12
   5.73000002       9.68883654E-12
   5.78999996       1.24063685E-11
   5.84999990       1.26370546E-11
   5.90999985       9.48624686E-12
   5.96999979       2.68236041E-12
   6.03000021      -7.18130330E-12
   6.09000015      -1.85574871E-11
   6.15000010      -2.90640827E-11
   6.21000004      -3.58324447E-11
   6.26999998      -3.60613102E-11
   6.32999992      -2.77037577E-11
   6.38999987      -1.01680097E-11
   6.44999981       1.51223114E-11
   6.51000023       4.44771234E-11
   6.57000017       7.21483706E-11
   6.63000011       9.10888656E-11
   6.69000006       9.42490183E-11
   6.75000000       7.62622049E-11
   6.80999994       3.52243928E-11
   6.86999989      -2.58407878E-11
   6.92999983      -9.82801132E-11
   6.98999977      -1.68251774E-10
   7.05000019      -2.18500731E-10
   7.11000013      -2.31376696E-10
   7.17000008      -1.92684285E-10
   7.23000002      -9.56804427E-11
   7.28999996       5.56140342E-11
   7.34999990       2.44588155E-10
   7.40999985       4.42273135E-10
   7.46999979       6.09827244E-10
   7.53000021       7.03020253E-10
   7.59000015       6.78050671E-10
   7.65000010       4.97752062E-10
   7.71000004       1.37161740E-10
   7.76999998      -4.12444884E-10
   7.82999992      -1.14165055E-09
   7.88999987      -2.02332662E-09
   7.94999981      -3.01521341E-09
   8.01000023      -4.06416278E-09
   8.06999969      -5.11139708E-09
   8.13000011      -6.09811801E-09
   8.18999958      -6.97090341E-09
   8.25000000      -7.68645325E-09
   8.31000042      -8.21541413E-09
   8.36999989      -8.54505888E-09
   8.43000031      -8.68065619E-09
   8.48999977      -8.64533600E-09
   8.55000019      -8.47828918E-09
   8.60999966      -8.23120150E-09
   8.67000008      -7.96298938E-09
   8.72999954      -7.73314213E-09
   8.78999996      -7.59425500E-09
   8.85000038      -7.58462093E-09
   8.90999985      -7.72190134E-09
   8.97000027      -7.99896593E-09
   9.02999973      -8.38277714E-09
   9.09000015      -8.81686280E-09
   9.14999962      -9.22733712E-09
   9.21000004      -9.53183665E-09
   9.27000046      -9.65010649E-09
   9.32999992      -9.51461754E-09
   9.39000034      -9.07947051E-09
   9.44999981      -8.32616909E-09
   9.51000023      -7.26543803E-09
   9.56999969      -5.93506888E-09
   9.63000011      -4.39452386E-09
   9.68999958      -2.71753953E-09
   9.75000000      -9.84081150E-10
   9.81000042       7.27243932E-10
   9.86999989       2.34571096E-09
   9.93000031       3.81383325E-09
   9.98999977       5.09174836E-09
   10.0500002       6.16080831E-09
   10.1099997       7.02623337E-09
   10.1700001       7.71825803E-09
   10.2299995       8.29090219E-09
   10.2900000       8.81752005E-09
   10.3500004       9.38278877E-09
   10.4099998       1.00715818E-08
   10.4700003       1.09561720E-08
   10.5299997       1.20839818E-08
   10.5900002       1.34683606E-08
   10.6499996       1.50846091E-08
   10.7100000       1.68724643E-08
   10.7700005       1.87449594E-08
   10.8299999       2.06021031E-08
   10.8900003       2.23467538E-08
   10.9499998       2.38995153E-08
   11.0100002       2.52097792E-08
   11.0699997       2.62609170E-08
   11.1300001       2.70690297E-08
   11.1899996       2.76760357E-08
   11.2500000       2.81390022E-08
   11.3100004       2.85181816E-08
   11.3699999       2.88661095E-08
   11.4300003       2.92195885E-08
   11.4899998       2.95954532E-08
   11.5500002       2.99901792E-08
   11.6099997       3.03827363E-08
   11.6700001       3.07396597E-08
   11.7299995       3.10213473E-08
   11.7900000       3.11885451E-08
   11.8500004       3.12083444E-08
   11.9099998       3.10590274E-08
   11.9700003       3.07333856E-08
   12.0299997       3.02400736E-08
   12.0900002       2.96028215E-08
   12.1499996       2.88573521E-08
   12.2100000       2.80462160E-08
   12.2700005       2.72121135E-08
   12.3299999       2.63906781E-08
   12.3900003       2.56041339E-08
   12.4499998       2.48572878E-08
   12.5100002       2.41372327E-08
   12.5699997       2.34173552E-08
   12.6300001       2.26652279E-08
   12.6899996       2.18528005E-08
   12.7500000       2.09662971E-08
   12.8100004       2.00129442E-08
   12.8699999       1.90221190E-08
   12.9300003       1.80399624E-08
   12.9899998       1.71182748E-08
   13.0500002       1.63004366E-08
   13.1099997       1.56081565E-08
   13.1700001       1.50330326E-08
   13.2299995       1.45356935E-08
   13.2900000       1.40533229E-08
   13.3500004       1.35139215E-08
   13.4099998       1.28536977E-08
   13.4700003       1.20329071E-08
   13.5299997       1.10457385E-08
   13.5900002       9.92141658E-09
   13.6499996       8.71608030E-09
   13.7100000       7.49767359E-09
   13.7700005       6.32810826E-09
   13.8299999       5.24786614E-09
   13.8900003       4.26755387E-09
   13.9499998       3.36888162E-09
   14.0100002       2.51469667E-09
   14.0699997       1.66488312E-09
   14.1300001       7.93060062E-10
   14.1899996      -1.01264143E-10
   14.2500000      -9.89030635E-10
   14.3100004      -1.81768545E-09
   14.3699999      -2.52507748E-09
   14.4300003      -3.05682102E-09
   14.4899998      -3.38164341E-09
   14.5500002      -3.49992013E-09
   14.6099997      -3.44276652E-09
   14.6700001      -3.26204019E-09
   14.7299995      -3.01442982E-09
   14.7900000      -2.74462142E-09
   14.8500004      -2.47281506E-09
   14.9099998      -2.19055818E-09
   14.9700003      -1.86638105E-09
   15.0299997      -1.45977463E-09
   15.0900002      -9.39498368E-10
   15.1499996      -3.00762248E-10
   15.2100000       4.24078717E-10
   15.2700005       1.16503340E-09
   15.3299999       1.82511350E-09
   15.3900003       2.29985520E-09
   15.4499998       2.50080978E-09
   15.5100002       2.37671682E-09
   15.5699997       1.92646499E-09
   15.6300001       1.20005361E-09
   15.6899996       2.87045193E-10
   15.7500000      -7.04493741E-10
   15.8100004      -1.67284964E-09
   15.8699999      -2.54453569E-09
   15.9300003      -3.28730576E-09
   15.9899998      -3.91109012E-09
   16.0499992      -4.45720527E-09
   16.1100006      -4.97960961E-09
   16.1700001      -5.52416113E-09
   16.2299995      -6.11214634E-09
   16.2900009      -6.73269440E-09
   16.3500004      -7.34571515E-09
   16.4099998      -7.89361287E-09
   16.4699993      -8.31741076E-09
   16.5300007      -8.57180282E-09
   16.5900002      -8.63442207E-09
   16.6499996      -8.50676418E-09
   16.7099991      -8.20718071E-09
   16.7700005      -7.75890463E-09
   16.8299999      -7.17760962E-09
   16.8899994      -6.46291864E-09
   16.9500008      -5.59682434E-09
   17.0100002      -4.54962823E-09
   17.0699997      -3.29152128E-09
   17.1299992      -1.80614268E-09
   17.1900005      -1.01765187E-10
   17.2500000       1.78359238E-09
   17.3099995       3.78513487E-09
   17.3700008       5.82211390E-09
   17.4300003       7.81407206E-09
   17.4899998       9.69850245E-09
   17.5499992       1.14453629E-08
   17.6100006       1.30644890E-08
   17.6700001       1.46035823E-08
   17.7299995       1.61367062E-08
   17.7900009       1.77456059E-08
   17.8500004       1.94980654E-08
   17.9099998       2.14283631E-08
   17.9699993       2.35245938E-08
   18.0300007       2.57260293E-08
   18.0900002       2.79313355E-08
   18.1499996       3.00158405E-08
   18.2099991       3.18540074E-08
   18.2700005       3.33419621E-08
   18.3299999       3.44153364E-08
   18.3899994       3.50587932E-08
   18.4500008       3.53058951E-08
   18.5100002       3.52302791E-08
   18.5699997       3.49308813E-08
   18.6299992       3.45150859E-08
   18.6900005       3.40834632E-08
   18.7500000       3.37188588E-08
   18.8099995       3.34808696E-08
   18.8700008       3.34053176E-08
   18.9300003       3.35069146E-08
   18.9899998       3.37828965E-08
   19.0499992       3.42157236E-08
   19.1100006       3.47737448E-08
   19.1700001       3.54100536E-08
   19.2299995       3.60608503E-08
   19.2900009       3.66451793E-08
   19.3500004       3.70679558E-08
   19.4099998       3.72274052E-08
   19.4699993       3.70266378E-08
   19.5300007       3.63878030E-08
   19.5900002       3.52658205E-08
   19.6499996       3.36584165E-08
   19.7099991       3.16094351E-08
   19.7700005       2.92039068E-08
   19.8299999       2.65553179E-08
   19.8899994       2.37876829E-08
   19.9500008       2.10166071E-08
   20.0100002       1.83339282E-08
   20.0699997       1.57996194E-08
   20.1299992       1.34425564E-08
   20.1900005       1.12690399E-08
   20.2500000       9.27572241E-09
   20.3099995       7.46227791E-09
   20.3700008       5.83952664E-09
   20.4300003       4.43043202E-09
   20.4899998       3.26394356E-09
   20.5499992       2.36414377E-09
   20.6100006       1.73871206E-09
   20.6700001       1.37086165E-09
   20.7299995       1.21768651E-09
   20.7900009       1.21572219E-09
   20.8500004       1.29225797E-09
   20.9099998       1.37921452E-09
   20.9699993       1.42571210E-09
   21.0300007       1.40587286E-09
   21.0900002       1.31974587E-09
   21.1499996       1.18707777E-09
   21.2099991       1.03551967E-09
   21.2700005       8.86322293E-10
   21.3299999       7.41278205E-10
   21.3899994       5.74490455E-10
   21.4500008       3.31423639E-10
   21.5100002      -6.41032852E-11
   21.5699997      -6.96418867E-10
   21.6299992      -1.64123926E-09
   21.6900005      -2.94987368E-09
   21.7500000      -4.63845362E-09
   21.8099995      -6.68490197E-09
   21.8700008      -9.03424535E-09
   21.9300003      -1.16105801E-08
   21.9899998      -1.43323025E-08
   22.0499992      -1.71265064E-08
   22.1100006      -1.99389643E-08
   22.1700001      -2.27376162E-08
   22.2299995      -2.55093671E-08
   22.2900009      -2.82519022E-08
   22.3500004      -3.09634096E-08
   22.4099998      -3.36335013E-08
   22.4699993      -3.62380916E-08
   22.5300007      -3.87398060E-08
   22.5900002      -4.10938519E-08
   22.6499996      -4.32576392E-08
   22.7099991      -4.52013396E-08
   22.7700005      -4.69160497E-08
   22.8299999      -4.84168261E-08
   22.8899994      -4.97391497E-08
   22.9500008      -5.09294793E-08
   23.0100002      -5.20322665E-08
   23.0699997      -5.30771480E-08
   23.1299992      -5.40703375E-08
   23.1900005      -5.49928210E-08
   23.2500000      -5.58063071E-08
   23.3099995      -5.64651828E-08
   23.3700008      -5.69308902E-08
   23.4300003      -5.71841952E-08
   23.4899998      -5.72314214E-08
   23.5499992      -5.71024508E-08
   23.6100006      -5.68410847E-08
   23.6700001      -5.64907090E-08
   23.7299995      -5.60801148E-08
   23.7900009      -5.56142332E-08
   23.8500004      -5.50732260E-08
   23.9099998      -5.44206031E-08
   23.9699993      -5.36180131E-08
   24.0300007      -5.26419939E-08
   24.0900002      -5.14970644E-08
   24.1499996      -5.02206383E-08
   24.2099991      -4.88778404E-08
   24.2700005      -4.75475801E-08
   24.3299999      -4.63043790E-08
   24.3899994      -4.52016593E-08
   24.4500008      -4.42619381E-08
   24.5100002      -4.34769696E-08
   24.5699997      -4.28175611E-08
   24.6299992      -4.22497131E-08
   24.6900005      -4.17516866E-08
   24.7500000      -4.13264267E-08
   24.8099995      -4.10054746E-08
   24.8700008      -4.08432115E-08
   24.9300003      -4.09032594E-08
   24.9899998      -4.12411048E-08
   25.0499992      -4.18879651E-08
   25.1100006      -4.28401847E-08
   25.1700001      -4.40568080E-08
   25.2299995      -4.54657467E-08
   25.2900009      -4.69767052E-08
   25.3500004      -4.84976894E-08
   25.4099998      -4.99511827E-08
   25.4699993      -5.12864489E-08
   25.5300007      -5.24854222E-08
   25.5900002      -5.35611697E-08
   25.6499996      -5.45497798E-08
   25.7099991      -5.54979209E-08
   25.7700005      -5.64494549E-08
   25.8299999      -5.74345016E-08
   25.8899994      -5.84636197E-08
   25.9500008      -5.95280625E-08
   26.0100002      -6.06054726E-08
   26.0699997      -6.16685014E-08
   26.1299992      -6.26933385E-08
   26.1900005      -6.36653823E-08
   26.2500000      -6.45802558E-08
   26.3099995      -6.54403465E-08
   26.3700008      -6.62482620E-08
   26.4300003      -6.69998101E-08
   26.4899998      -6.76790179E-08
   26.5499992      -6.82572150E-08
   26.6100006      -6.86968562E-08
   26.6700001      -6.89590678E-08
   26.7299995      -6.90128914E-08
   26.7900009      -6.88434696E-08
   26.8500004      -6.84564014E-08
   26.9099998      -6.78768473E-08
   26.9699993      -6.71433114E-08
   27.0300007      -6.62978863E-08
   27.0900002      -6.53760210E-08
   27.1499996      -6.43990177E-08
   27.2099991      -6.33715942E-08
   27.2700005      -6.22854017E-08
   27.3299999      -6.11268973E-08
   27.3899994      -5.98868155E-08
   27.4500008      -5.85679061E-08
   27.5100002      -5.71880818E-08
   27.5699997      -5.57781199E-08
   27.6299992      -5.43747092E-08
   27.6900005      -5.30114370E-08
   27.7500000      -5.17109164E-08
   27.8099995      -5.04808142E-08
   27.8700008      -4.93151724E-08
   27.9300003      -4.82005333E-08
   27.9899998      -4.71246047E-08
   28.0499992      -4.60842031E-08
   28.1100006      -4.50891875E-08
   28.1700001      -4.41604158E-08
   28.2299995      -4.33217373E-08
   28.2900009      -4.25883400E-08
   28.3500004      -4.19555448E-08
   28.4099998      -4.13924575E-08
   28.4699993      -4.08436165E-08
   28.5300007      -4.02392821E-08
   28.5900002      -3.95118249E-08
   28.6499996      -3.86132690E-08
   28.7099991      -3.75282383E-08
   28.7700005      -3.62778572E-08
   28.8299999      -3.49130360E-08
   28.8899994      -3.34993047E-08
   28.9500008      -3.20980078E-08
   29.0100002      -3.07497992E-08
   29.0699997      -2.94652835E-08
   29.1299992      -2.82250205E-08
   29.1900005      -2.69878946E-08
   29.2500000      -2.57045052E-08
   29.3099995      -2.43311966E-08
   29.3700008      -2.28409096E-08
   29.4300003      -2.12286047E-08
   29.4899998      -1.95108925E-08
   29.5499992      -1.77209287E-08
   29.6100006      -1.59004347E-08
   29.6700001      -1.40908600E-08
   29.7299995      -1.23255379E-08
   29.7900009      -1.06242375E-08
   29.8500004      -8.99106567E-09
   29.9099998      -7.41593853E-09
   29.9699993      -5.87893911E-09
   30.0300007      -4.35608571E-09
   30.0900002      -2.82454593E-09
   30.1499996      -1.26563726E-09
   30.2099991       3.35025979E-10
   30.2700005       1.98946504E-09
   30.3299999       3.70938080E-09
   30.3899994       5.50609691E-09
   30.4500008       7.38707717E-09
   30.5100002       9.34949451E-09
   30.5699997       1.13731993E-08
   30.6299992       1.34164653E-08
   30.6900005       1.54174611E-08
   30.7500000       1.73025487E-08
   30.8099995       1.89998612E-08
   30.8700008       2.04544879E-08
   30.9300003       2.16405898E-08
   30.9899998       2.25667147E-08
   31.0499992       2.32727935E-08
   31.1100006       2.38200446E-08
   31.1700001       2.42770906E-08
   31.2299995       2.47062761E-08
   31.2900009       2.51533994E-08
   31.3500004       2.56421835E-08
   31.4099998       2.61731277E-08
   31.4699993       2.67251767E-08
   31.5300007       2.72587588E-08
   31.5900002       2.77196150E-08
   31.6499996       2.80437380E-08
   31.7099991       2.81642603E-08
   31.7700005       2.80204535E-08
   31.8299999       2.75678076E-08
   31.8899994       2.67868447E-08
   31.9500008       2.56878376E-08
   32.0099983       2.43093350E-08
   32.0699997       2.27102213E-08
   32.1300011       2.09572217E-08
   32.1899986       1.91113010E-08
   32.2500000       1.72168111E-08
   32.3100014       1.52961217E-08
   32.3699989       1.33505385E-08
   32.4300003       1.13663301E-08
   32.4900017       9.32343358E-09
   32.5499992       7.20412530E-09
   32.6100006       4.99960828E-09
   32.6699982       2.71344258E-09
   32.7299995       3.61643909E-10
   32.7900009      -2.03020045E-09
   32.8499985      -4.43213022E-09
   32.9099998      -6.81641144E-09
   32.9700012      -9.16424270E-09
   33.0299988      -1.14709318E-08
   33.0900002      -1.37478304E-08
   33.1500015      -1.60198343E-08
   33.2099991      -1.83183779E-08
   33.2700005      -2.06712780E-08
   33.3300018      -2.30919746E-08
   33.3899994      -2.55712802E-08
   33.4500008      -2.80742363E-08
   33.5099983      -3.05434043E-08
   33.5699997      -3.29081047E-08
   33.6300011      -3.50974716E-08
   33.6899986      -3.70540363E-08
   33.7500000      -3.87443926E-08
   33.8100014      -4.01640712E-08
   33.8699989      -4.13354293E-08
   33.9300003      -4.22990389E-08
   33.9900017      -4.31010250E-08
   34.0499992      -4.37799663E-08
   34.1100006      -4.43570549E-08
   34.1699982      -4.48322517E-08
   34.2299995      -4.51871998E-08
   34.2900009      -4.53935236E-08
   34.3499985      -4.54234232E-08
   34.4099998      -4.52589362E-08
   34.4700012      -4.48969324E-08
   34.5299988      -4.43486456E-08
   34.5900002      -4.36343974E-08
   34.6500015      -4.27757278E-08
   34.7099991      -4.17877501E-08
   34.7700005      -4.06742302E-08
   34.8300018      -3.94268902E-08
   34.8899994      -3.80291922E-08
   34.9500008      -3.64637920E-08
   35.0099983      -3.47218041E-08
   35.0699997      -3.28115384E-08
   35.1300011      -3.07641024E-08
   35.1899986      -2.86337336E-08
   35.2500000      -2.64918860E-08
   35.3100014      -2.44158080E-08
   35.3699989      -2.24743673E-08
   35.4300003      -2.07151771E-08
   35.4900017      -1.91572305E-08
   35.5499992      -1.77916828E-08
   35.6100006      -1.65907235E-08
   35.6699982      -1.55214348E-08
   35.7299995      -1.45596815E-08
   35.7900009      -1.36989557E-08
   35.8499985      -1.29511930E-08
   35.9099998      -1.23398172E-08
   35.9700012      -1.18882877E-08
   36.0299988      -1.16091350E-08
   36.0900002      -1.14978693E-08
   36.1500015      -1.15339214E-08
   36.2099991      -1.16877237E-08
   36.2700005      -1.19307568E-08
   36.3300018      -1.22445272E-08
   36.3899994      -1.26253976E-08
   36.4500008      -1.30841169E-08
   36.5099983      -1.36409355E-08
   36.5699997      -1.43184504E-08
   36.6300011      -1.51344572E-08
   36.6899986      -1.60964664E-08
   36.7500000      -1.71986372E-08
   36.8100014      -1.84213214E-08
   36.8699989      -1.97332177E-08
   36.9300003      -2.10961968E-08
   36.9900017      -2.24726016E-08
   37.0499992      -2.38342146E-08
   37.1100006      -2.51710173E-08
   37.1699982      -2.64971636E-08
   37.2299995      -2.78515557E-08
   37.2900009      -2.92916020E-08
   37.3499985      -3.08808730E-08
   37.4099998      -3.26735758E-08
   37.4700012      -3.47003315E-08
   37.5299988      -3.69596123E-08
   37.5900002      -3.94174471E-08
   37.6500015      -4.20152837E-08
   37.7099991      -4.46831052E-08
   37.7700005      -4.73533355E-08
   37.8300018      -4.99714155E-08
   37.8899994      -5.25006989E-08
   37.9500008      -5.49217987E-08
   38.0099983      -5.72286254E-08
   38.0699997      -5.94237903E-08
   38.1300011      -6.15154363E-08
   38.1899986      -6.35156923E-08
   38.2500000      -6.54396288E-08
   38.3100014      -6.73030556E-08
   38.3699989      -6.91186415E-08
   38.4300003      -7.08909198E-08
   38.4900017      -7.26125648E-08
   38.5499992      -7.42639372E-08
   38.6100006      -7.58169705E-08
   38.6699982      -7.72424897E-08
   38.7299995      -7.85182479E-08
   38.7900009      -7.96345958E-08
   38.8499985      -8.05957470E-08
   38.9099998      -8.14165304E-08
   38.9700012      -8.21165713E-08
   39.0299988      -8.27146636E-08
   39.0900002      -8.32256859E-08
   39.1500015      -8.36607654E-08
   39.2099991      -8.40294305E-08
   39.2700005      -8.43417567E-08
   39.3300018      -8.46084873E-08
   39.3899994      -8.48384900E-08
   39.4500008      -8.50345714E-08
   39.5099983      -8.51894555E-08
   39.5699997      -8.52840216E-08
   39.6300011      -8.52888746E-08
   39.6899986      -8.51688142E-08
   39.7500000      -8.48889172E-08
   39.8100014      -8.44203427E-08
   39.8699989      -8.37445882E-08
   39.9300003      -8.28553368E-08
   39.9900017      -8.17583654E-08
   40.0499992      -8.04700591E-08
   40.1100006      -7.90152868E-08
   40.1699982      -7.74250992E-08
   40.2299995      -7.57341780E-08
   40.2900009      -7.39781711E-08
   40.3499985      -7.21907440E-08
   40.4099998      -7.04007377E-08
   40.4700012      -6.86300368E-08
   40.5299988      -6.68927456E-08
   40.5900002      -6.51961116E-08
   40.6500015      -6.35427213E-08
   40.7099991      -6.19332994E-08
   40.7700005      -6.03688619E-08
   40.8300018      -5.88512279E-08
   40.8899994      -5.73817438E-08
   40.9500008      -5.59589957E-08
   41.0099983      -5.45769083E-08
   41.0699997      -5.32245572E-08
   41.1300011      -5.18880832E-08
   41.1899986      -5.05539113E-08
   41.2500000      -4.92112946E-08
   41.3100014      -4.78523816E-08
   41.3699989      -4.64689940E-08
   41.4300003      -4.50472726E-08
   41.4900017      -4.35628138E-08
   41.5499992      -4.19794617E-08
   41.6100006      -4.02533864E-08
   41.6699982      -3.83418453E-08
   41.7299995      -3.62135033E-08
   41.7900009      -3.38559794E-08
   41.8499985      -3.12773238E-08
   41.9099998      -2.85006703E-08
   41.9700012      -2.55545114E-08
   42.0299988      -2.24630714E-08
   42.0900002      -1.92412291E-08
   42.1500015      -1.58962496E-08
   42.2099991      -1.24353061E-08
   42.2700005      -8.87506513E-09
   42.3300018      -5.24874455E-09
   42.3899994      -1.60735247E-09
   42.4500008       1.98540251E-09
   42.5099983       5.46224399E-09
   42.5699997       8.76175665E-09
   42.6300011       1.18347199E-08
   42.6899986       1.46458516E-08
   42.7500000       1.71716596E-08
   42.8100014       1.93966478E-08
   42.8699989       2.13102069E-08
   42.9300003       2.29055477E-08
   42.9900017       2.41805171E-08
   43.0499992       2.51391352E-08
   43.1100006       2.57924810E-08
   43.1699982       2.61582276E-08
   43.2299995       2.62589825E-08
   43.2900009       2.61202029E-08
   43.3499985       2.57684203E-08
   43.4099998       2.52300598E-08
   43.4700012       2.45305856E-08
   43.5299988       2.36935414E-08
   43.5900002       2.27393446E-08
   43.6500015       2.16842615E-08
   43.7099991       2.05403214E-08
   43.7700005       1.93168699E-08
   43.8300018       1.80236324E-08
   43.8899994       1.66742353E-08
   43.9500008       1.52883857E-08
   44.0099983       1.38910163E-08
   44.0699997       1.25076847E-08
   44.1300011       1.11571241E-08
   44.1899986       9.84341053E-09
   44.2500000       8.55085958E-09
   44.3100014       7.24415283E-09
   44.3699989       5.87435078E-09
   44.4300003       4.38910730E-09
   44.4900017       2.74360068E-09
   44.5499992       9.08285724E-10
   44.6100006      -1.12915488E-09
   44.6699982      -3.36780048E-09
   44.7299995      -5.80104098E-09
   44.7900009      -8.42387937E-09
   44.8499985      -1.12366285E-08
   44.9099998      -1.42437324E-08
   44.9700012      -1.74492101E-08
   45.0299988      -2.08522444E-08
   45.0900002      -2.44467007E-08
   45.1500015      -2.82266281E-08
   45.2099991      -3.21968834E-08
   45.2700005      -3.63853445E-08
   45.3300018      -4.08520222E-08
   45.3899994      -4.56914080E-08
   45.4500008      -5.10271683E-08
   45.5099983      -5.70014613E-08
   45.5699997      -6.37635011E-08
   45.6300011      -7.14622388E-08
   45.6899986      -8.02464513E-08
   45.7500000      -9.02727066E-08
   45.8100014      -1.01719095E-07
   45.8699989      -1.14800983E-07
   45.9300003      -1.29785533E-07
   45.9900017      -1.47002993E-07
   46.0499992      -1.66854591E-07
   46.1100006      -1.89818380E-07
   46.1699982      -2.16454410E-07
   46.2299995      -2.47410810E-07
   46.2900009      -2.83430751E-07
   46.3499985      -3.25360475E-07
   46.4099998      -3.74158247E-07
   46.4700012      -4.30905288E-07
   46.5299988      -4.96818529E-07
   46.5900002      -5.73266846E-07
   46.6500015      -6.61790125E-07
   46.7099991      -7.64120728E-07
   46.7700005      -8.82204404E-07
   46.8300018      -1.01822172E-06
   46.8899994      -1.17460752E-06
   46.9500008      -1.35407106E-06
   47.0099983      -1.55962073E-06
   47.0699997      -1.79459209E-06
   47.1300011      -2.06268351E-06
   47.1899986      -2.36799565E-06
   47.2500000      -2.71506951E-06
   47.3100014      -3.10892165E-06
   47.3699989      -3.55507018E-06
   47.4300003      -4.05955370E-06
   47.4900017      -4.62894150E-06
   47.5499992      -5.27034763E-06
   47.6100006      -5.99144732E-06
   47.6699982      -6.80050152E-06
   47.7299995      -7.70638871E-06
   47.7900009      -8.71863904E-06
   47.8499985      -9.84746566E-06
   47.9099998      -1.11037771E-05
   47.9700012      -1.24991893E-05
   48.0299988      -1.40460143E-05
   48.0900002      -1.57572322E-05
   48.1500015      -1.76464710E-05
   48.2099991      -1.97279769E-05
   48.2700005      -2.20165693E-05
   48.3300018      -2.45276206E-05
   48.3899994      -2.72770067E-05
   48.4500008      -3.02810622E-05
   48.5099983      -3.35565310E-05
   48.5699997      -3.71204587E-05
   48.6300011      -4.09901477E-05
   48.6899986      -4.51830128E-05
   48.7500000      -4.97164947E-05
   48.8100014      -5.46078882E-05
   48.8699989      -5.98742117E-05
   48.9300003      -6.55320255E-05
   48.9900017      -7.15972856E-05
   49.0499992      -7.80851478E-05
   49.1100006      -8.50098513E-05
   49.1699982      -9.23845073E-05
   49.2299995      -1.00220983E-04
   49.2900009      -1.08529734E-04
   49.3499985      -1.17319651E-04
   49.4099998      -1.26597864E-04
   49.4700012      -1.36369577E-04
   49.5299988      -1.46637918E-04
   49.5900002      -1.57403716E-04
   49.6500015      -1.68665341E-04
   49.7099991      -1.80418603E-04
   49.7700005      -1.92656633E-04
   49.8300018      -2.05369783E-04
   49.8899994      -2.18545494E-04
   49.9500008      -2.32168357E-04
   50.0099983      -2.46220065E-04
   50.0699997      -2.60679371E-04
   50.1300011      -2.75522150E-04
   50.1899986      -2.90721626E-04
   50.2500000      -3.06248112E-04
   50.3100014      -3.22069478E-04
   50.3699989      -3.38151120E-04
   50.4300003      -3.54456308E-04
   50.4900017      -3.70946393E-04
   50.5499992      -3.87581094E-04
   50.6100006      -4.04318678E-04