  -2.400000      0.0000000E+00
  -2.340000      0.0000000E+00
  -2.280000      0.0000000E+00
  -2.220000      0.0000000E+00
  -2.160000      0.0000000E+00
  -2.100000      0.0000000E+00
  -2.040000      0.0000000E+00
  -1.980000      0.0000000E+00
  -1.920000     -5.4656189E-27
  -1.860000      3.1161937E-27
  -1.800000      5.8264246E-25
  -1.740000      5.3704238E-24
  -1.680000      2.7794542E-23
  -1.620000      9.9120928E-23
  -1.560000      2.5766414E-22
  -1.500000      4.7363547E-22
  -1.440000      4.6610820E-22
  -1.380000     -5.3596629E-22
  -1.320000     -3.8096009E-21
  -1.260000     -1.0398935E-20
  -1.200000     -1.9144405E-20
  -1.140000     -2.3795732E-20
  -1.080000     -1.1157965E-20
  -1.020000      3.6087573E-20
 -0.9600000      1.2829807E-19
 -0.9000000      2.4970985E-19
 -0.8400000      3.3920307E-19
 -0.7800000      2.8760307E-19
 -0.7200000     -2.9274145E-20
 -0.6600000     -6.7343297E-19
 -0.6000000     -1.5414877E-18
 -0.5400000     -2.2878620E-18
 -0.4800000     -2.3499264E-18
 -0.4200000     -1.1387943E-18
 -0.3600000      1.6033577E-18
 -0.3000000      5.3872660E-18
 -0.2400000      8.7283883E-18
 -0.1800000      9.3561224E-18
 -0.1200000      5.0972768E-18
 -5.9999999E-02 -4.6179517E-18
  0.0000000E+00 -1.7130715E-17
  5.9999999E-02 -2.5802366E-17
  0.1200000     -2.1362323E-17
  0.1800000      3.8288809E-18
  0.2400000      4.9094880E-17
  0.3000000      9.8881230E-17
  0.3600000      1.2082703E-16
  0.4200000      7.3439576E-17
  0.4800000     -7.4177924E-17
  0.5400000     -3.1408860E-16
  0.6000000     -5.7428537E-16
  0.6600000     -7.1410383E-16
  0.7200000     -5.5717298E-16
  0.7800000      3.2659135E-17
  0.8400000      1.0485823E-15
  0.9000000      2.2522267E-15
  0.9600000      3.1557307E-15
   1.020000      3.1238338E-15
   1.080000      1.6080111E-15
   1.140000     -1.5373548E-15
   1.200000     -5.7726934E-15
   1.260000     -9.7786777E-15
   1.320000     -1.1682091E-14
   1.380000     -9.6404022E-15
   1.440000     -2.6711478E-15
   1.500000      8.5480625E-15
   1.560000      2.1279324E-14
   1.620000      3.1057188E-14
   1.680000      3.2884750E-14
   1.740000      2.3088126E-14
   1.800000      1.2633003E-15
   1.860000     -2.8481327E-14
   1.920000     -5.7735195E-14
   1.980000     -7.5801385E-14
   2.040000     -7.3198643E-14
   2.100000     -4.5602495E-14
   2.160000      3.2900094E-15
   2.220000      6.1414219E-14
   2.280000      1.1122339E-13
   2.340000      1.3529713E-13
   2.400000      1.2288067E-13
   2.460000      7.4787581E-14
   2.520000      4.3006484E-15
   2.580000     -6.6982532E-14
   2.640000     -1.1734670E-13
   2.700000     -1.3414713E-13
   2.760000     -1.1987435E-13
   2.820000     -9.1605163E-14
   2.880000     -7.2760686E-14
   2.940000     -7.9586904E-14
   3.000000     -1.0799417E-13
   3.060000     -1.2778012E-13
   3.120000     -8.9712851E-14
   3.180000      5.3592764E-14
   3.240000      3.1835905E-13
   3.300000      6.6295748E-13
   3.360000      9.7741129E-13
   3.420000      1.1000220E-12
   3.480000      8.6404028E-13
   3.540000      1.6581712E-13
   3.600000     -9.6541134E-13
   3.660000     -2.3225874E-12
   3.720000     -3.5256691E-12
   3.780000     -4.0901640E-12
   3.840000     -3.5547830E-12
   3.900000     -1.6424948E-12
   3.960000      1.5879430E-12
   4.020000      5.6499857E-12
   4.080000      9.6399581E-12
   4.140000      1.2372599E-11
   4.200000      1.2632954E-11
   4.260000      9.5026383E-12
   4.320000      2.6908877E-12
   4.380000     -7.2134386E-12
   4.440000     -1.8649048E-11
   4.500000     -2.9206297E-11
   4.560000     -3.5987789E-11
   4.620000     -3.6176933E-11
   4.680000     -2.7735170E-11
   4.740000     -1.0103050E-11
   4.800000      1.5251311E-11
   4.860000      4.4601656E-11
   4.920000      7.2193335E-11
   4.980000      9.1014127E-11
   5.040000      9.4086010E-11
   5.100000      7.6126890E-11
   5.160000      3.5294063E-11
   5.220000     -2.5386551E-11
   5.280000     -9.7339574E-11
   5.340000     -1.6687654E-10
   5.400000     -2.1693847E-10
   5.460000     -2.3006051E-10
   5.520000     -1.9216301E-10
   5.580000     -9.6500870E-11
   5.640000      5.3048180E-11
   5.700000      2.4015037E-10
   5.760000      4.3621332E-10
   5.820000      6.0281669E-10
   5.880000      6.9613382E-10
   5.940000      6.7268852E-10
   6.000000      4.9551113E-10
   6.060000      1.3967226E-10
   6.120000     -4.0370077E-10
   6.180000     -1.1255206E-09
   6.240000     -1.9991562E-09
   6.300000     -2.9829847E-09
   6.360000     -4.0245962E-09
   6.420000     -5.0660001E-09
   6.480000     -6.0491727E-09
   6.540000     -6.9213719E-09
   6.600000     -7.6397999E-09
   6.660000     -8.1753342E-09
   6.720000     -8.5151450E-09
   6.780000     -8.6640259E-09
   6.840000     -8.6442986E-09
   6.900000     -8.4940943E-09
   6.960000     -8.2639309E-09
   7.020000     -8.0115941E-09
   7.080000     -7.7956184E-09
   7.140000     -7.6679054E-09
   7.200000     -7.6663573E-09
   7.260000     -7.8085423E-09
   7.320000     -8.0875111E-09
   7.380000     -8.4706544E-09
   7.440000     -8.9021457E-09
   7.500000     -9.3089287E-09
   7.560000     -9.6095745E-09
   7.620000     -9.7247597E-09
   7.680000     -9.5877271E-09
   7.740000     -9.1530454E-09
   7.800000     -8.4022664E-09
   7.860000     -7.3457143E-09
   7.920000     -6.0203851E-09
   7.980000     -4.4846877E-09
   8.040000     -2.8112088E-09
   8.100000     -1.0788255E-09
   8.160000      6.3476435E-10
   8.220000      2.2594842E-09
   8.280000      3.7381795E-09
   8.340000      5.0309512E-09
   8.400000      6.1186998E-09
   8.460000      7.0057622E-09
   8.520000      7.7210958E-09
   8.580000      8.3171745E-09
   8.640000      8.8657481E-09
   8.700000      9.4500532E-09
   8.760000      1.0153903E-08
   8.820000      1.1048998E-08
   8.880000      1.2182648E-08
   8.940000      1.3568434E-08
   9.000000      1.5182076E-08
   9.060000      1.6963785E-08
   9.120000      1.8827100E-08
   9.180000      2.0672609E-08
   9.240000      2.2403919E-08
   9.300000      2.3942606E-08
   9.360000      2.5239197E-08
   9.420000      2.6278197E-08
   9.480000      2.7076599E-08
   9.540000      2.7676734E-08
   9.600000      2.8135490E-08
   9.660000      2.8512382E-08
   9.720000      2.8858848E-08
   9.780000      2.9210536E-08
   9.840000      2.9583346E-08
   9.900000      2.9973265E-08
   9.960000      3.0359260E-08
   10.02000      3.0708314E-08
   10.08000      3.0981518E-08
   10.14000      3.1140367E-08
   10.20000      3.1152613E-08
   10.26000      3.0996990E-08
   10.32000      3.0666534E-08
   10.38000      3.0169968E-08
   10.44000      2.9530986E-08
   10.50000      2.8785241E-08
   10.56000      2.7975224E-08
   10.62000      2.7143592E-08
   10.68000      2.6325942E-08
   10.74000      2.5544393E-08
   10.80000      2.4803557E-08
   10.86000      2.4090166E-08
   10.92000      2.3377078E-08
   10.98000      2.2631168E-08
   11.04000      2.1823583E-08
   11.10000      2.0939730E-08
   11.16000      1.9986143E-08
   11.22000      1.8991821E-08
   11.28000      1.8002988E-08
   11.34000      1.7072109E-08
   11.40000      1.6243819E-08
   11.46000      1.5541548E-08
   11.52000      1.4958784E-08
   11.58000      1.4457820E-08
   11.64000      1.3976881E-08
   11.70000      1.3444093E-08
   11.76000      1.2794828E-08
   11.82000      1.1987766E-08
   11.88000      1.1015261E-08
   11.94000      9.9050039E-09
   12.00000      8.7123846E-09
   12.06000      7.5055766E-09
   12.12000      6.3475394E-09
   12.18000      5.2801417E-09
   12.24000      4.3150825E-09
   12.30000      3.4343275E-09
   12.36000      2.5998992E-09
   12.42000      1.7699203E-09
   12.48000      9.1581831E-10
   12.54000      3.5142680E-11
   12.60000     -8.4417484E-10
   12.66000     -1.6695639E-09
   12.72000     -2.3777931E-09
   12.78000     -2.9127543E-09
   12.84000     -3.2414258E-09
   12.90000     -3.3629888E-09
   12.96000     -3.3082732E-09
   13.02000     -3.1297755E-09
   13.08000     -2.8854257E-09
   13.14000     -2.6212188E-09
   13.20000     -2.3581703E-09
   13.26000     -2.0877571E-09
   13.32000     -1.7774668E-09
   13.38000     -1.3850340E-09
   13.44000     -8.7726165E-10
   13.50000     -2.4779834E-10
   13.56000      4.7170368E-10
   13.62000      1.2109271E-09
   13.68000      1.8717095E-09
   13.74000      2.3480196E-09
   13.80000      2.5500004E-09
   13.86000      2.4255913E-09
   13.92000      1.9736877E-09
   13.98000      1.2450118E-09
   14.04000      3.3026781E-10
   14.10000     -6.6129069E-10
   14.16000     -1.6270334E-09
   14.22000     -2.4930149E-09
   14.28000     -3.2270566E-09
   14.34000     -3.8396646E-09
   14.40000     -4.3731840E-09
   14.46000     -4.8829469E-09
   14.52000     -5.4163496E-09
   14.58000     -5.9961032E-09
   14.64000     -6.6123111E-09
   14.70000     -7.2251085E-09
   14.76000     -7.7762392E-09
   14.82000     -8.2053093E-09
   14.88000     -8.4652294E-09
   14.94000     -8.5320231E-09
   15.00000     -8.4062641E-09
   15.06000     -8.1063707E-09
   15.12000     -7.6566167E-09
   15.18000     -7.0743655E-09
   15.24000     -6.3610766E-09
   15.30000     -5.5002056E-09
   15.36000     -4.4627577E-09
   15.42000     -3.2187113E-09
   15.48000     -1.7506314E-09
   15.54000     -6.5093368E-11
   15.60000      1.8018749E-09
   15.66000      3.7874184E-09
   15.72000      5.8123719E-09
   15.78000      7.7972730E-09
   15.84000      9.6799093E-09
   15.90000      1.1429863E-08
   15.96000      1.3056100E-08
   16.02000      1.4605241E-08
   16.08000      1.6150400E-08
   16.14000      1.7772797E-08
   16.20000      1.9540272E-08
   16.26000      2.1487688E-08
   16.32000      2.3604031E-08
   16.38000      2.5829390E-08
   16.44000      2.8062821E-08
   16.50000      3.0179383E-08
   16.56000      3.2052554E-08
   16.62000      3.3576960E-08
   16.68000      3.4686508E-08
   16.74000      3.5364231E-08
   16.80000      3.5642394E-08
   16.86000      3.5593704E-08
   16.92000      3.5316518E-08
   16.98000      3.4917903E-08
   17.04000      3.4498317E-08
   17.10000      3.4140754E-08
   17.16000      3.3905376E-08
   17.22000      3.3829043E-08
   17.28000      3.3927925E-08
   17.34000      3.4200895E-08
   17.40000      3.4631803E-08
   17.46000      3.5189721E-08
   17.52000      3.5827522E-08
   17.58000      3.6480198E-08
   17.64000      3.7064869E-08
   17.70000      3.7484284E-08
   17.76000      3.7634774E-08
   17.82000      3.7418236E-08
   17.88000      3.6756433E-08
   17.94000      3.5604657E-08
   18.00000      3.3961477E-08
   18.06000      3.1871728E-08
   18.12000      2.9421265E-08
   18.18000      2.6724106E-08
   18.24000      2.3904539E-08
   18.30000      2.1078421E-08
   18.36000      1.8338136E-08
   18.42000      1.5744821E-08
   18.48000      1.3329295E-08
   18.54000      1.1100542E-08
   18.60000      9.0582919E-09
   18.66000      7.2051880E-09
   18.72000      5.5543468E-09
   18.78000      4.1299346E-09
   18.84000      2.9608778E-09
   18.90000      2.0701894E-09
   18.96000      1.4638405E-09
   19.02000      1.1231571E-09
   19.08000      1.0034978E-09
   19.14000      1.0399204E-09
   19.20000      1.1583937E-09
   19.26000      1.2894904E-09
   19.32000      1.3808262E-09
   19.38000      1.4048918E-09
   19.44000      1.3601615E-09
   19.50000      1.2651119E-09
   19.56000      1.1466100E-09
   19.62000      1.0256337E-09
   19.68000      9.0407076E-10
   19.74000      7.5624124E-10
   19.80000      5.2770888E-10
   19.86000      1.4212487E-10
   19.92000     -4.8528048E-10
   19.98000     -1.4308076E-09
   20.04000     -2.7462757E-09
   20.10000     -4.4479993E-09
   20.16000     -6.5135404E-09
   20.22000     -8.8868894E-09
   20.28000     -1.1490467E-08
   20.34000     -1.4240561E-08
   20.40000     -1.7062119E-08
   20.46000     -1.9899209E-08
   20.52000     -2.2718918E-08
   20.58000     -2.5508339E-08
   20.64000     -2.8266212E-08
   20.70000     -3.0992204E-08
   20.76000     -3.3677178E-08
   20.82000     -3.6297592E-08
   20.88000     -3.8815731E-08
   20.94000     -4.1185832E-08
   21.00000     -4.3364306E-08
   21.06000     -4.5320959E-08
   21.12000     -4.7047575E-08
   21.18000     -4.8560914E-08
   21.24000     -4.9898702E-08
   21.30000     -5.1109481E-08
   21.36000     -5.2238978E-08
   21.42000     -5.3317045E-08
   21.48000     -5.4349208E-08
   21.54000     -5.5315358E-08
   21.60000     -5.6176169E-08
   21.66000     -5.6885295E-08
   21.72000     -5.7403614E-08
   21.78000     -5.7711144E-08
   21.84000     -5.7812883E-08
   21.90000     -5.7736756E-08
   21.96000     -5.7524240E-08
   22.02000     -5.7216624E-08
   22.08000     -5.6841348E-08
   22.14000     -5.6402971E-08
   22.20000     -5.5882094E-08
   22.26000     -5.5242950E-08
   22.32000     -5.4447657E-08
   22.38000     -5.3472675E-08
   22.44000     -5.2322022E-08
   22.50000     -5.1032657E-08
   22.56000     -4.9669826E-08
   22.62000     -4.8313524E-08
   22.68000     -4.7040214E-08
   22.74000     -4.5905750E-08
   22.80000     -4.4934957E-08
   22.86000     -4.4121222E-08
   22.92000     -4.3436017E-08
   22.98000     -4.2844995E-08
   23.04000     -4.2325222E-08
   23.10000     -4.1877936E-08
   23.16000     -4.1532793E-08
   23.22000     -4.1342481E-08
   23.28000     -4.1369479E-08
   23.34000     -4.1668944E-08
   23.40000     -4.2272685E-08
   23.46000     -4.3178435E-08
   23.52000     -4.4347125E-08
   23.58000     -4.5708649E-08
   23.64000     -4.7174467E-08
   23.70000     -4.8653980E-08
   23.76000     -5.0070764E-08
   23.82000     -5.1374975E-08
   23.88000     -5.2549311E-08
   23.94000     -5.3607359E-08
   24.00000     -5.4585250E-08
   24.06000     -5.5529043E-08
   24.12000     -5.6481273E-08
   24.18000     -5.7470228E-08
   24.24000     -5.8504433E-08
   24.30000     -5.9573342E-08
   24.36000     -6.0653129E-08
   24.42000     -6.1715376E-08
   24.48000     -6.2735559E-08
   24.54000     -6.3698614E-08
   24.60000     -6.4600037E-08
   24.66000     -6.5442535E-08
   24.72000     -6.6229454E-08
   24.78000     -6.6957590E-08
   24.84000     -6.7611879E-08
   24.90000     -6.8164148E-08
   24.96000     -6.8576689E-08
   25.02000     -6.8810074E-08
   25.08000     -6.8832911E-08
   25.14000     -6.8630470E-08
   25.20000     -6.8209410E-08
   25.26000     -6.7596631E-08
   25.32000     -6.6832548E-08
   25.38000     -6.5960599E-08
   25.44000     -6.5016529E-08
   25.50000     -6.4020881E-08
   25.56000     -6.2977030E-08
   25.62000     -6.1875348E-08
   25.68000     -6.0701709E-08
   25.74000     -5.9447189E-08
   25.80000     -5.8115635E-08
   25.86000     -5.6726442E-08
   25.92000     -5.5311805E-08
   25.98000     -5.3909513E-08
   26.04000     -5.2553862E-08
   26.10000     -5.1267808E-08
   26.16000     -5.0058983E-08
   26.22000     -4.8920921E-08
   26.28000     -4.7839098E-08
   26.34000     -4.6799638E-08
   26.40000     -4.5797506E-08
   26.46000     -4.4840895E-08
   26.52000     -4.3949594E-08
   26.58000     -4.3147239E-08
   26.64000     -4.2449560E-08
   26.70000     -4.1852804E-08
   26.76000     -4.1326874E-08
   26.82000     -4.0816595E-08
   26.88000     -4.0251884E-08
   26.94000     -3.9564309E-08
   27.00000     -3.8704911E-08
   27.06000     -3.7657450E-08
   27.12000     -3.6442405E-08
   27.18000     -3.5110297E-08
   27.24000     -3.3726440E-08
   27.30000     -3.2352094E-08
   27.36000     -3.1027991E-08
   27.42000     -2.9764983E-08
   27.48000     -2.8543973E-08
   27.54000     -2.7324147E-08
   27.60000     -2.6056197E-08
   27.66000     -2.4696265E-08
   27.72000     -2.3216820E-08
   27.78000     -2.1612312E-08
   27.84000     -1.9899019E-08
   27.90000     -1.8110086E-08
   27.96000     -1.6287498E-08
   28.02000     -1.4473057E-08
   28.08000     -1.2700253E-08
   28.14000     -1.0988688E-08
   28.20000     -9.3420010E-09
   28.26000     -7.7495450E-09
   28.32000     -6.1910304E-09
   28.38000     -4.6425188E-09
   28.44000     -3.0817358E-09
   28.50000     -1.4910200E-09
   28.56000      1.4269015E-10
   28.62000      1.8299946E-09
   28.68000      3.5812948E-09
   28.74000      5.4069327E-09
   28.80000      7.3138668E-09
   28.86000      9.2993169E-09
   28.92000      1.1343686E-08
   28.98000      1.3406135E-08
   29.04000      1.5425796E-08
   29.10000      1.7329793E-08
   29.16000      1.9046658E-08
   29.22000      2.0521449E-08
   29.28000      2.1727951E-08
   29.34000      2.2674108E-08
   29.40000      2.3399156E-08
   29.46000      2.3963628E-08
   29.52000      2.4435566E-08
   29.58000      2.4876991E-08
   29.64000      2.5333764E-08
   29.70000      2.5830188E-08
   29.76000      2.6367806E-08
   29.82000      2.6926854E-08
   29.88000      2.7468946E-08
   29.94000      2.7940505E-08
   30.00000      2.8277505E-08
   30.06000      2.8412384E-08
   30.12000      2.8283312E-08
   30.18000      2.7844614E-08
   30.24000      2.7075870E-08
   30.30000      2.5986727E-08
   30.36000      2.4615380E-08
   30.42000      2.3020508E-08
   30.48000      2.1268733E-08
   30.54000      1.9421099E-08
   30.60000      1.7522355E-08
   30.66000      1.5595667E-08
   30.72000      1.3643500E-08
   30.78000      1.1653421E-08
   30.84000      9.6065245E-09
   30.90000      7.4858262E-09
   30.96000      5.2827063E-09
   31.02000      3.0003415E-09
   31.08000      6.5390054E-10
   31.14000     -1.7321611E-09
   31.20000     -4.1290931E-09
   31.26000     -6.5102093E-09
   31.32000     -8.8573486E-09
   31.38000     -1.1165855E-08
   31.44000     -1.3446465E-08
   31.50000     -1.5722986E-08
   31.56000     -1.8025659E-08
   31.62000     -2.0381426E-08
   31.68000     -2.2803460E-08
   31.74000     -2.5282905E-08
   31.80000     -2.7785413E-08
   31.86000     -3.0254022E-08
   31.92000     -3.2618100E-08
   31.98000     -3.4806472E-08
   32.04000     -3.6761392E-08
   32.10000     -3.8449702E-08
   32.16000     -3.9868063E-08
   32.22000     -4.1040654E-08
   32.28000     -4.2010033E-08
   32.34000     -4.2823693E-08
   32.40000     -4.3520405E-08
   32.46000     -4.4120227E-08
   32.52000     -4.4621057E-08
   32.58000     -4.5002178E-08
   32.64000     -4.5233232E-08
   32.70000     -4.5285130E-08
   32.76000     -4.5139334E-08
   32.82000     -4.4792731E-08
   32.88000     -4.4257003E-08
   32.94000     -4.3553371E-08
   33.00000     -4.2704801E-08
   33.06000     -4.1728342E-08
   33.12000     -4.0629907E-08
   33.18000     -3.9403023E-08
   33.24000     -3.8032049E-08
   33.30000     -3.6499273E-08
   33.36000     -3.4794262E-08
   33.42000     -3.2923136E-08
   33.48000     -3.0914919E-08
   33.54000     -2.8822500E-08
   33.60000     -2.6716933E-08
   33.66000     -2.4675856E-08
   33.72000     -2.2768825E-08
   33.78000     -2.1043977E-08
   33.84000     -1.9520403E-08
   33.90000     -1.8188981E-08
   33.96000     -1.7021513E-08
   34.02000     -1.5984901E-08
   34.08000     -1.5055203E-08
   34.14000     -1.4226468E-08
   34.20000     -1.3511321E-08
   34.26000     -1.2933667E-08
   34.32000     -1.2516930E-08
   34.38000     -1.2272895E-08
   34.44000     -1.2195642E-08
   34.50000     -1.2262738E-08
   34.56000     -1.2442758E-08
   34.62000     -1.2705798E-08
   34.68000     -1.3032825E-08
   34.74000     -1.3420574E-08
   34.80000     -1.3880837E-08
   34.86000     -1.4435122E-08
   34.92000     -1.5107021E-08
   34.98000     -1.5914791E-08
   35.04000     -1.6865924E-08
   35.10000     -1.7954388E-08
   35.16000     -1.9160550E-08
   35.22000     -2.0453538E-08
   35.28000     -2.1795980E-08
   35.34000     -2.3151015E-08
   35.40000     -2.4490927E-08
   35.46000     -2.5805743E-08
   35.52000     -2.7109314E-08
   35.58000     -2.8440127E-08
   35.64000     -2.9855318E-08
   35.70000     -3.1418374E-08
   35.76000     -3.3183490E-08
   35.82000     -3.5181166E-08
   35.88000     -3.7409599E-08
   35.94000     -3.9834557E-08
   36.00000     -4.2397527E-08
   36.06000     -4.5029015E-08
   36.12000     -4.7662368E-08
   36.18000     -5.0243951E-08
   36.24000     -5.2737548E-08
   36.30000     -5.5123436E-08
   36.36000     -5.7394519E-08
   36.42000     -5.9552299E-08
   36.48000     -6.1604332E-08
   36.54000     -6.3563078E-08
   36.60000     -6.5444731E-08
   36.66000     -6.7266477E-08
   36.72000     -6.9041839E-08
   36.78000     -7.0775378E-08
   36.84000     -7.2458981E-08
   36.90000     -7.4072069E-08
   36.96000     -7.5586129E-08
   37.02000     -7.6972420E-08
   37.08000     -7.8209787E-08
   37.14000     -7.9289713E-08
   37.20000     -8.0216878E-08
   37.26000     -8.1005609E-08
   37.32000     -8.1674223E-08
   37.38000     -8.2240142E-08
   37.44000     -8.2717520E-08
   37.50000     -8.3117619E-08
   37.56000     -8.3450814E-08
   37.62000     -8.3728068E-08
   37.68000     -8.3960408E-08
   37.74000     -8.4156198E-08
   37.80000     -8.4317236E-08
   37.86000     -8.4435499E-08
   37.92000     -8.4492072E-08
   37.98000     -8.4458904E-08
   38.04000     -8.4303061E-08
   38.10000     -8.3992013E-08
   38.16000     -8.3498648E-08
   38.22000     -8.2804931E-08
   38.28000     -8.1903671E-08
   38.34000     -8.0798841E-08
   38.40000     -7.9504652E-08
   38.46000     -7.8044089E-08
   38.52000     -7.6446995E-08
   38.58000     -7.4747796E-08
   38.64000     -7.2982708E-08
   38.70000     -7.1186591E-08
   38.76000     -6.9389756E-08
   38.82000     -6.7615375E-08
   38.88000     -6.5878297E-08
   38.94000     -6.4185620E-08
   39.00000     -6.2539030E-08
   39.06000     -6.0937829E-08
   39.12000     -5.9381644E-08
   39.18000     -5.7871446E-08
   39.24000     -5.6408631E-08
   39.30000     -5.4992658E-08
   39.36000     -5.3618752E-08
   39.42000     -5.2277155E-08
   39.48000     -5.0954551E-08
   39.54000     -4.9637027E-08
   39.60000     -4.8312788E-08
   39.66000     -4.6972598E-08
   39.72000     -4.5607116E-08
   39.78000     -4.4201890E-08
   39.84000     -4.2732683E-08
   39.90000     -4.1164114E-08
   39.96000     -3.9453404E-08
   40.02000     -3.7558827E-08
   40.08000     -3.5449695E-08
   40.14000     -3.3113821E-08
   40.20000     -3.0559015E-08
   40.26000     -2.7807866E-08
   40.32000     -2.4888168E-08
   40.38000     -2.1823427E-08
   40.44000     -1.8627944E-08
   40.50000     -1.5308677E-08
   40.56000     -1.1872892E-08
   40.62000     -8.3378264E-09
   40.68000     -4.7377022E-09
   40.74000     -1.1247845E-09
   40.80000      2.4360385E-09
   40.86000      5.8767515E-09
   40.92000      9.1358858E-09
   40.98000      1.2164860E-08
   41.04000      1.4929434E-08
   41.10000      1.7407084E-08
   41.16000      1.9582732E-08
   41.22000      2.1445430E-08
   41.28000      2.2987452E-08
   41.34000      2.4205617E-08
   41.40000      2.5103454E-08
   41.46000      2.5692545E-08
   41.52000      2.5992094E-08
   41.58000      2.6026820E-08
   41.64000      2.5824141E-08
   41.70000      2.5411708E-08
   41.76000      2.4815924E-08
   41.82000      2.4061304E-08
   41.88000      2.3170189E-08
   41.94000      2.2162286E-08
   42.00000      2.1054143E-08
   42.06000      1.9859101E-08
   42.12000      1.8588358E-08
   42.18000      1.7253360E-08
   42.24000      1.5868727E-08
   42.30000      1.4454239E-08
   42.36000      1.3034196E-08
   42.42000      1.1633337E-08
   42.48000      1.0269911E-08
   42.54000      8.9481196E-09
   42.60000      7.6529343E-09
   42.66000      6.3498709E-09
   42.72000      4.9905888E-09
   42.78000      3.5228440E-09
   42.84000      1.9014526E-09
   42.90000      9.6309669E-11
   42.96000     -1.9053075E-09
   43.02000     -4.1025348E-09
   43.08000     -6.4885564E-09
   43.14000     -9.0582652E-09
   43.20000     -1.1812399E-08
   43.26000     -1.4756640E-08
   43.32000     -1.7896983E-08
   43.38000     -2.1234882E-08
   43.44000     -2.4766175E-08
   43.50000     -2.8486108E-08
   43.56000     -3.2399829E-08
   43.62000     -3.6534836E-08
   43.68000     -4.0950578E-08
   43.74000     -4.5741242E-08
   43.80000     -5.1030657E-08
   43.86000     -5.6961529E-08
   43.92000     -6.3683778E-08
   43.98000     -7.1347038E-08
   44.04000     -8.0100683E-08
   44.10000     -9.0101913E-08
   44.16000     -1.0152959E-07
   44.22000     -1.1459998E-07
   44.28000     -1.2958125E-07
   44.34000     -1.4680447E-07
   44.40000     -1.6667146E-07
   44.46000     -1.8966037E-07
   44.52000     -2.1633116E-07
   44.58000     -2.4733131E-07
   44.64000     -2.8340315E-07
   44.70000     -3.2539151E-07
   44.76000     -3.7425309E-07
   44.82000     -4.3106709E-07
   44.88000     -4.9704863E-07
   44.94000     -5.7356522E-07
   45.00000     -6.6215608E-07
   45.06000     -7.6455365E-07
   45.12000     -8.8270428E-07
   45.18000     -1.0187892E-06
   45.24000     -1.1752438E-06
   45.30000     -1.3547773E-06
   45.36000     -1.5603968E-06
   45.42000     -1.7954358E-06
   45.48000     -2.0635903E-06
   45.54000     -2.3689586E-06
   45.60000     -2.7160809E-06
   45.66000     -3.1099737E-06
   45.72000     -3.5561566E-06
   45.78000     -4.0606683E-06
   45.84000     -4.6300806E-06
   45.90000     -5.2715072E-06
   45.96000     -5.9926215E-06
   46.02000     -6.8016839E-06
   46.08000     -7.7075720E-06
   46.14000     -8.7198159E-06
   46.20000     -9.8486271E-06
   46.26000     -1.1104917E-05
   46.32000     -1.2500298E-05
   46.38000     -1.4047082E-05
   46.44000     -1.5758251E-05
   46.50000     -1.7647433E-05
   46.56000     -1.9728874E-05
   46.62000     -2.2017397E-05
   46.68000     -2.4528375E-05
   46.74000     -2.7277689E-05
   46.80000     -3.0281668E-05
   46.86000     -3.3557048E-05
   46.92000     -3.7120884E-05
   46.98000     -4.0990479E-05
   47.04000     -4.5183246E-05
   47.10000     -4.9716626E-05
   47.16000     -5.4607917E-05
   47.22000     -5.9874135E-05
   47.28000     -6.5531844E-05
   47.34000     -7.1596995E-05
   47.40000     -7.8084762E-05
   47.46000     -8.5009371E-05
   47.52000     -9.2383925E-05
   47.58000     -1.0022031E-04
   47.64000     -1.0852896E-04
   47.70000     -1.1731878E-04
   47.76000     -1.2659689E-04
   47.82000     -1.3636852E-04
   47.88000     -1.4663674E-04
   47.94000     -1.5740242E-04
   48.00000     -1.6866396E-04
   48.06000     -1.8041719E-04
   48.12000     -1.9265524E-04
   48.18000     -2.0536839E-04
   48.24000     -2.1854410E-04
   48.30000     -2.3216696E-04
   48.36000     -2.4621861E-04
   48.42000     -2.6067786E-04
   48.48000     -2.7552061E-04
   48.54000     -2.9071997E-04
   48.60000     -3.0624637E-04
   48.66000     -3.2206767E-04
   48.72000     -3.3814932E-04
   48.78000     -3.5445456E-04
   48.84000     -3.7094470E-04
   48.90000     -3.8757944E-04
   48.96000     -4.0431708E-04
   49.02000     -4.2111485E-04
   49.08000     -4.3792924E-04
   49.14000     -4.5471624E-04
   49.20000     -4.7143185E-04
   49.26000     -4.8803232E-04
   49.32000     -5.0447462E-04
   49.38000     -5.2071683E-04
   49.44000     -5.3671864E-04
   49.50000     -5.5244163E-04
   49.56000     -5.6784973E-04
   49.62000     -5.8290944E-04
   49.68000     -5.9759035E-04
   49.74000     -6.1186531E-04
   49.80000     -6.2571064E-04
   49.86000     -6.3910655E-04
   49.92000     -6.5203744E-04
   49.98000     -6.6449138E-04
   50.04000     -6.7646103E-04
   50.10000     -6.8794301E-04
   50.16000     -6.9893827E-04
   50.22000     -7.0945168E-04
   50.28000     -7.1949261E-04
   50.34000     -7.2907406E-04
   50.40000     -7.3821290E-04
   50.46000     -7.4692955E-04
   50.52000     -7.5524743E-04
   50.58000     -7.6319266E-04
   50.64000     -7.7079347E-04
   50.70000     -7.7808002E-04
   50.76000     -7.8508374E-04
   50.82000     -7.9183717E-04
   50.88000     -7.9837319E-04
   50.94000     -8.0472464E-04
   51.00000     -8.1092404E-04
   51.06000     -8.1700273E-04
   51.12000     -8.2299038E-04
   51.18000     -8.2891475E-04
   51.24000     -8.3480089E-04
   51.30000     -8.4067107E-04
   51.36000     -8.4654428E-04
   51.42000     -8.5243571E-04
   51.48000     -8.5835718E-04
   51.54000     -8.6431630E-04
   51.60000     -8.7031664E-04
   51.66000     -8.7635760E-04
   51.72000     -8.8243419E-04
   51.78000     -8.8853709E-04
   51.84000     -8.9465297E-04
   51.90000     -9.0076448E-04
   51.96000     -9.0685056E-04
   52.02000     -9.1288722E-04
   52.08000     -9.1884728E-04
   52.14000     -9.2470093E-04
   52.20000     -9.3041622E-04
   52.26000     -9.3595911E-04
   52.32000     -9.4129471E-04
   52.38000     -9.4638724E-04
   52.44000     -9.5120078E-04
   52.50000     -9.5570000E-04
   52.56000     -9.5985050E-04
   52.62000     -9.6361933E-04
   52.68000     -9.6697523E-04
   52.74000     -9.6988934E-04
   52.80000     -9.7233575E-04
   52.86000     -9.7429182E-04
   52.92000     -9.7573857E-04
   52.98000     -9.7666099E-04
   53.04000     -9.7704830E-04
   53.10000     -9.7689370E-04
   53.16000     -9.7619527E-04
   53.22000     -9.7495492E-04
   53.28000     -9.7317912E-04
   53.34000     -9.7087887E-04
   53.40000     -9.6806930E-04
   53.46000     -9.6476957E-04
   53.52000     -9.6100272E-04
   53.58000     -9.5679512E-04
   53.64000     -9.5217605E-04
   53.70000     -9.4717753E-04
   53.76000     -9.4183366E-04
   53.82000     -9.3618059E-04
   53.88000     -9.3025569E-04
   53.94000     -9.2409737E-04
   54.00000     -9.1774418E-04
   54.06000     -9.1123430E-04
   54.12000     -9.0460503E-04
   54.18000     -8.9789252E-04
   54.24000     -8.9113112E-04
   54.30000     -8.8435365E-04
   54.36000     -8.7759062E-04
   54.42000     -8.7086990E-04
   54.48000     -8.6421671E-04
   54.54000     -8.5765269E-04
   54.60000     -8.5119600E-04
   54.66000     -8.4486109E-04
   54.72000     -8.3865901E-04
   54.78000     -8.3259732E-04
   54.84000     -8.2668010E-04
   54.90000     -8.2090840E-04
   54.96000     -8.1527967E-04
   55.02000     -8.0978847E-04
   55.08000     -8.0442615E-04
   55.14000     -7.9918141E-04
   55.20000     -7.9404080E-04
   55.26000     -7.8898919E-04
   55.32000     -7.8401004E-04
   55.38000     -7.7908573E-04
   55.44000     -7.7419804E-04
   55.50000     -7.6932798E-04
   55.56000     -7.6445634E-04