 -0.750000000       0.00000000    
 -0.689999998       0.00000000    
 -0.629999995       0.00000000    
 -0.569999993       0.00000000    
 -0.509999990       3.23423091E-18
 -0.449999988       2.22703044E-17
 -0.389999986       7.90481190E-17
 -0.330000013       1.85377277E-16
 -0.270000011       2.99260711E-16
 -0.209999993       2.76851581E-16
 -0.150000006      -1.31454643E-16
  -9.00000036E-02  -1.18318983E-15
  -2.99999993E-02  -2.92163708E-15
   2.99999993E-02  -4.89058274E-15
   9.00000036E-02  -5.94894109E-15
  0.150000006      -4.40325080E-15
  0.209999993       1.38451241E-15
  0.270000011       1.19600790E-14
  0.330000013       2.56517999E-14
  0.389999986       3.79496002E-14
  0.449999988       4.20212571E-14
  0.509999990       3.07141431E-14
  0.569999993      -2.03823073E-16
  0.629999995      -4.85298481E-14
  0.689999998      -1.03344572E-13
  0.750000000      -1.45517753E-13
  0.810000002      -1.51936569E-13
  0.870000005      -1.03173993E-13
  0.930000007       7.16615284E-15
  0.990000010       1.64416169E-13
   1.04999995       3.29553035E-13
   1.11000001       4.43402151E-13
   1.16999996       4.39307092E-13
   1.23000002       2.62753442E-13
   1.28999996      -1.06057978E-13
   1.35000002      -6.32450743E-13
   1.40999997      -1.21655561E-12
   1.47000003      -1.69690770E-12
   1.52999997      -1.87148973E-12
   1.59000003      -1.53652611E-12
   1.64999998      -5.40200859E-13
   1.71000004       1.15484868E-12
   1.76999998       3.41015085E-12
   1.83000004       5.86523842E-12
   1.88999999       7.92499746E-12
   1.95000005       8.80119588E-12
   2.00999999       7.62667360E-12
   2.06999993       3.65077890E-12
   2.13000011      -3.49481403E-12
   2.19000006      -1.34986128E-11
   2.25000000      -2.51097632E-11
   2.30999994      -3.60107257E-11
   2.36999989      -4.29233107E-11
   2.43000007      -4.20280200E-11
   2.49000001      -2.97227139E-11
   2.54999995      -3.66311061E-12
   2.60999990       3.60710906E-11
   2.67000008       8.59328442E-11
   2.73000002       1.38293932E-10
   2.78999996       1.81567567E-10
   2.84999990       2.01300185E-10
   2.91000009       1.82315843E-10
   2.97000003       1.11789737E-10
   3.02999997      -1.71014383E-11
   3.08999991      -2.01508255E-10
   3.15000010      -4.25899760E-10
   3.21000004      -6.60408284E-10
   3.26999998      -8.61087091E-10
   3.32999992      -9.72372960E-10
   3.39000010      -9.31686950E-10
   3.45000005      -6.75716705E-10
   3.50999999      -1.47584694E-10
   3.56999993       6.96096236E-10
   3.63000011       1.87931004E-09
   3.69000006       3.40272321E-09
   3.75000000       5.24228794E-09
   3.80999994       7.35044647E-09
   3.86999989       9.65960645E-09
   3.93000007       1.20872103E-08
   3.99000001       1.45416115E-08
   4.05000019       1.69279577E-08
   4.11000013       1.91535943E-08
   4.17000008       2.11326601E-08
   4.23000002       2.27899761E-08
   4.28999996       2.40643399E-08
   4.34999990       2.49114080E-08
   4.40999985       2.53061696E-08
   4.46999979       2.52447538E-08
   4.53000021       2.47451837E-08
   4.59000015       2.38465976E-08
   4.65000010       2.26066348E-08
   4.71000004       2.10970281E-08
   4.76999998       1.93978416E-08
   4.82999992       1.75911108E-08
   4.88999987       1.57548818E-08
   4.94999981       1.39584788E-08
   5.01000023       1.22595596E-08
   5.07000017       1.07030456E-08
   5.13000011       9.32155064E-09
   5.19000006       8.13664158E-09
   5.25000000       7.16020265E-09
   5.30999994       6.39539044E-09
   5.36999989       5.83703663E-09
   5.42999983       5.47177148E-09
   5.48999977       5.27846300E-09
   5.55000019       5.22959809E-09
   5.61000013       5.29401589E-09
   5.67000008       5.44090684E-09
   5.73000002       5.64442981E-09
   5.78999996       5.88780091E-09
   5.84999990       6.16553564E-09
   5.90999985       6.48273035E-09
   5.96999979       6.85094559E-09
   6.03000021       7.28120275E-09
   6.09000015       7.77561038E-09
   6.15000010       8.31987190E-09
   6.21000004       8.87908147E-09
   6.26999998       9.39866851E-09
   6.32999992       9.81110748E-09
   6.38999987       1.00474091E-08
   6.44999981       1.00508526E-08
   6.51000023       9.78941372E-09
   6.57000017       9.26330568E-09
   6.63000011       8.50504112E-09
   6.69000006       7.57131247E-09
   6.75000000       6.52823307E-09
   6.80999994       5.43347944E-09
   6.86999989       4.32000880E-09
   6.92999983       3.18588511E-09
   6.98999977       1.99337391E-09
   7.05000019       6.78096412E-10
   7.11000013      -8.33614122E-10
   7.17000008      -2.60330357E-09
   7.23000002      -4.66034100E-09
   7.28999996      -6.98849822E-09
   7.34999990      -9.52293799E-09
   7.40999985      -1.21588251E-08
   7.46999979      -1.47698520E-08
   7.53000021      -1.72323755E-08
   7.59000015      -1.94493115E-08
   7.65000010      -2.13678852E-08
   7.71000004      -2.29867858E-08
   7.76999998      -2.43509497E-08
   7.82999992      -2.55353481E-08
   7.88999987      -2.66220326E-08
   7.94999981      -2.76764567E-08
   8.01000023      -2.87292341E-08
   8.06999969      -2.97680760E-08
   8.13000011      -3.07419015E-08
   8.18999958      -3.15758975E-08
   8.25000000      -3.21934408E-08
   8.31000042      -3.25390559E-08
   8.36999989      -3.25964251E-08
   8.43000031      -3.23969083E-08
   8.48999977      -3.20165050E-08
   8.55000019      -3.15622408E-08
   8.60999966      -3.11515151E-08
   8.67000008      -3.08895487E-08
   8.72999954      -3.08501704E-08
   8.78999996      -3.10641575E-08
   8.85000038      -3.15171924E-08
   8.90999985      -3.21570646E-08
   8.97000027      -3.29077707E-08
   9.02999973      -3.36866997E-08
   9.09000015      -3.44210136E-08
   9.14999962      -3.50598448E-08
   9.21000004      -3.55804666E-08
   9.27000046      -3.59880126E-08
   9.32999992      -3.63098316E-08
   9.39000034      -3.65863251E-08
   9.44999981      -3.68605981E-08
   9.51000023      -3.71688706E-08
   9.56999969      -3.75332192E-08
   9.63000011      -3.79574097E-08
   9.68999958      -3.84260872E-08
   9.75000000      -3.89069292E-08
   9.81000042      -3.93551289E-08
   9.86999989      -3.97192572E-08
   9.93000031      -3.99475191E-08
   9.98999977      -3.99934237E-08
   10.0500002      -3.98199980E-08
   10.1099997      -3.94021065E-08
   10.1700001      -3.87267001E-08
   10.2299995      -3.77914553E-08
   10.2900000      -3.66025823E-08
   10.3500004      -3.51727145E-08
   10.4099998      -3.35196759E-08
   10.4700003      -3.16665307E-08
   10.5299997      -2.96425746E-08
   10.5900002      -2.74845284E-08
   10.6499996      -2.52367851E-08
   10.7100000      -2.29498571E-08
   10.7700005      -2.06766533E-08
   10.8299999      -1.84669968E-08
   10.8900003      -1.63616019E-08
   10.9499998      -1.43869130E-08
   11.0100002      -1.25522277E-08
   11.0699997      -1.08497780E-08
   11.1300001      -9.25771548E-09
   11.1899996      -7.74512632E-09
   11.2500000      -6.27782315E-09
   11.3100004      -4.82366991E-09
   11.3699999      -3.35658279E-09
   11.4300003      -1.85895366E-09
   11.4899998      -3.22727123E-10
   11.5500002       1.25035382E-09
   11.6099997       2.84884805E-09
   11.6700001       4.45185089E-09
   11.7299995       6.02952710E-09
   11.7900000       7.54441132E-09
   11.8500004       8.95406593E-09
   11.9099998       1.02155244E-08
   11.9700003       1.12915233E-08
   12.0299997       1.21578809E-08
   12.0900002       1.28107791E-08
   12.1499996       1.32721896E-08
   12.2100000       1.35916522E-08
   12.2700005       1.38430263E-08
   12.3299999       1.41158001E-08
   12.3900003       1.45018548E-08
   12.4499998       1.50798485E-08
   12.5100002       1.59003335E-08
   12.5699997       1.69749530E-08
   12.6300001       1.82724822E-08
   12.6899996       1.97231103E-08
   12.7500000       2.12305409E-08
   12.8100004       2.26897328E-08
   12.8699999       2.40066722E-08
   12.9300003       2.51160621E-08
   12.9899998       2.59931650E-08
   13.0500002       2.66573483E-08
   13.1099997       2.71666725E-08
   13.1700001       2.76049921E-08
   13.2299995       2.80645640E-08
   13.2900000       2.86281878E-08
   13.3500004       2.93547746E-08
   13.4099998       3.02711243E-08
   13.4700003       3.13710871E-08
   13.5299997       3.26211982E-08
   13.5900002       3.39705615E-08
   13.6499996       3.53618255E-08
   13.7100000       3.67405590E-08
   13.7700005       3.80613052E-08
   13.8299999       3.92900574E-08
   13.8900003       4.04042382E-08
   13.9499998       4.13917256E-08
   14.0100002       4.22503632E-08
   14.0699997       4.29884892E-08
   14.1300001       4.36258176E-08
   14.1899996       4.41933672E-08
   14.2500000       4.47309816E-08
   14.3100004       4.52817268E-08
   14.3699999       4.58837626E-08
   14.4300003       4.65615813E-08
   14.4899998       4.73191974E-08
   14.5500002       4.81377498E-08
   14.6099997       4.89787766E-08
   14.6700001       4.97928170E-08
   14.7299995       5.05310851E-08
   14.7900000       5.11569915E-08
   14.8500004       5.16541832E-08
   14.9099998       5.20287564E-08
   14.9700003       5.23051824E-08
   15.0299997       5.25173540E-08
   15.0900002       5.26976542E-08
   15.1499996       5.28675201E-08
   15.2100000       5.30322488E-08
   15.2700005       5.31814344E-08
   15.3299999       5.32944782E-08
   15.3900003       5.33491260E-08
   15.4499998       5.33300195E-08
   15.5100002       5.32345226E-08
   15.5699997       5.30740216E-08
   15.6300001       5.28705151E-08
   15.6899996       5.26497352E-08
   15.7500000       5.24331867E-08
   15.8100004       5.22316554E-08
   15.8699999       5.20421466E-08
   15.9300003       5.18491596E-08
   15.9899998       5.16296979E-08
   16.0499992       5.13604803E-08
   16.1100006       5.10251255E-08
   16.1700001       5.06192315E-08
   16.2299995       5.01520176E-08
   16.2900009       4.96441857E-08
   16.3500004       4.91228356E-08
   16.4099998       4.86149432E-08
   16.4699993       4.81414659E-08
   16.5300007       4.77136517E-08
   16.5900002       4.73326018E-08
   16.6499996       4.69920565E-08
   16.7099991       4.66832866E-08
   16.7700005       4.64004444E-08
   16.8299999       4.61444145E-08
   16.8899994       4.59237199E-08
   16.9500008       4.57520244E-08
   17.0100002       4.56428992E-08
   17.0699997       4.56035139E-08
   17.1299992       4.56294131E-08
   17.1900005       4.57022757E-08
   17.2500000       4.57916869E-08
   17.3099995       4.58606237E-08
   17.3700008       4.58733247E-08
   17.4300003       4.58032723E-08
   17.4899998       4.56390055E-08
   17.5499992       4.53861944E-08
   17.6100006       4.50653488E-08
   17.6700001       4.47058213E-08
   17.7299995       4.43377957E-08
   17.7900009       4.39842900E-08
   17.8500004       4.36552803E-08
   17.9099998       4.33452954E-08
   17.9699993       4.30349445E-08
   18.0300007       4.26958806E-08
   18.0900002       4.22977529E-08
   18.1499996       4.18153654E-08
   18.2099991       4.12342764E-08
   18.2700005       4.05533918E-08
   18.3299999       3.97840729E-08
   18.3899994       3.89460446E-08
   18.4500008       3.80612697E-08
   18.5100002       3.71473270E-08
   18.5699997       3.62120112E-08
   18.6299992       3.52504479E-08
   18.6900005       3.42453461E-08
   18.7500000       3.31703127E-08
   18.8099995       3.19952989E-08
   18.8700008       3.06928669E-08
   18.9300003       2.92438127E-08
   18.9899998       2.76407075E-08
   19.0499992       2.58886104E-08
   19.1100006       2.40026985E-08
   19.1700001       2.20033680E-08
   19.2299995       1.99099830E-08
   19.2900009       1.77347808E-08
   19.3500004       1.54785038E-08
   19.4099998       1.31288909E-08
   19.4699993       1.06624949E-08
   19.5300007       8.04939315E-09
   19.5900002       5.25963806E-09
   19.6499996       2.26983454E-09
   19.7099991      -9.31732913E-10
   19.7700005      -4.34251790E-09
   19.8299999      -7.94598343E-09
   19.8899994      -1.17142420E-08
   19.9500008      -1.56120112E-08
   20.0100002      -1.96006607E-08
   20.0699997      -2.36414479E-08
   20.1299992      -2.76975207E-08
   20.1900005      -3.17349169E-08
   20.2500000      -3.57231436E-08
   20.3099995      -3.96359212E-08
   20.3700008      -4.34524488E-08
   20.4300003      -4.71590553E-08
   20.4899998      -5.07506073E-08
   20.5499992      -5.42309770E-08
   20.6100006      -5.76118850E-08
   20.6700001      -6.09099047E-08
   20.7299995      -6.41419220E-08
   20.7900009      -6.73198244E-08
   20.8500004      -7.04455232E-08
   20.9099998      -7.35073584E-08
   20.9699993      -7.64787629E-08
   21.0300007      -7.93197827E-08
   21.0900002      -8.19813692E-08
   21.1499996      -8.44120436E-08
   21.2099991      -8.65660752E-08
   21.2700005      -8.84118450E-08
   21.3299999      -8.99388937E-08
   21.3899994      -9.11621001E-08
   21.4500008      -9.21219367E-08
   21.5100002      -9.28801214E-08
   21.5699997      -9.35111046E-08
   21.6299992      -9.40908009E-08
   21.6900005      -9.46843812E-08
   21.7500000      -9.53356292E-08
   21.8099995      -9.60596438E-08
   21.8700008      -9.68400116E-08
   21.9300003      -9.76306183E-08
   21.9899998      -9.83609567E-08
   22.0499992      -9.89435307E-08
   22.1100006      -9.92816283E-08
   22.1700001      -9.92763276E-08
   22.2299995      -9.88322384E-08
   22.2900009      -9.78622623E-08
   22.3500004      -9.62920410E-08
   22.4099998      -9.40646672E-08
   22.4699993      -9.11459992E-08
   22.5300007      -8.75300117E-08
   22.5900002      -8.32431368E-08
   22.6499996      -7.83462113E-08
   22.7099991      -7.29327212E-08
   22.7700005      -6.71227269E-08
   22.8299999      -6.10526740E-08
   22.8899994      -5.48624364E-08
   22.9500008      -4.86815672E-08
   23.0100002      -4.26173585E-08
   23.0699997      -3.67468758E-08
   23.1299992      -3.11147268E-08
   23.1900005      -2.57370001E-08
   23.2500000      -2.06106350E-08
   23.3099995      -1.57263322E-08
   23.3700008      -1.10822000E-08
   23.4300003      -6.69517686E-09
   23.4899998      -2.60761479E-09
   23.5499992       1.11250664E-09
   23.6100006       4.37786385E-09
   23.6700001       7.09318604E-09
   23.7299995       9.16919340E-09
   23.7900009       1.05359712E-08
   23.8500004       1.11529488E-08
   23.9099998       1.10136380E-08
   23.9699993       1.01447082E-08
   24.0300007       8.60041105E-09
   24.0900002       6.45430953E-09
   24.1499996       3.79059184E-09
   24.2099991       6.96803115E-10
   24.2700005      -2.74105516E-09
   24.3299999      -6.44113074E-09
   24.3899994      -1.03268469E-08
   24.4500008      -1.43276981E-08
   24.5100002      -1.83806375E-08
   24.5699997      -2.24325021E-08
   24.6299992      -2.64432423E-08
   24.6900005      -3.03892307E-08
   24.7500000      -3.42656641E-08
   24.8099995      -3.80870269E-08
   24.8700008      -4.18849240E-08
   24.9300003      -4.57029863E-08
   24.9899998      -4.95892110E-08
   25.0499992      -5.35867599E-08
   25.1100006      -5.77246269E-08
   25.1700001      -6.20100451E-08
   25.2299995      -6.64241995E-08
   25.2900009      -7.09222761E-08
   25.3500004      -7.54379457E-08
   25.4099998      -7.98913717E-08
   25.4699993      -8.41989660E-08
   25.5300007      -8.82827891E-08
   25.5900002      -9.20778618E-08
   25.6499996      -9.55361159E-08
   25.7099991      -9.86266997E-08
   25.7700005      -1.01333384E-07
   25.8299999      -1.03650066E-07
   25.8899994      -1.05575729E-07
   25.9500008      -1.07110104E-07
   26.0100002      -1.08250724E-07
   26.0699997      -1.08991827E-07
   26.1299992      -1.09325043E-07
   26.1900005      -1.09241540E-07
   26.2500000      -1.08734881E-07
   26.3099995      -1.07803899E-07
   26.3700008      -1.06454756E-07
   26.4300003      -1.04701648E-07
   26.4899998      -1.02565913E-07
   26.5499992      -1.00073798E-07
   26.6100006      -9.72532916E-08
   26.6700001      -9.41310034E-08
   26.7299995      -9.07295430E-08
   26.7900009      -8.70659775E-08
   26.8500004      -8.31515763E-08
   26.9099998      -7.89927483E-08
   26.9699993      -7.45930180E-08
   27.0300007      -6.99558669E-08
   27.0900002      -6.50880807E-08
   27.1499996      -6.00032948E-08
   27.2099991      -5.47250067E-08
   27.2700005      -4.92885164E-08
   27.3299999      -4.37408474E-08
   27.3899994      -3.81383174E-08
   27.4500008      -3.25419016E-08
   27.5100002      -2.70111062E-08
   27.5699997      -2.15978524E-08
   27.6299992      -1.63418985E-08
   27.6900005      -1.12690843E-08
   27.7500000      -6.39296083E-09
   27.8099995      -1.71925163E-09
   27.8700008       2.74812595E-09
   27.9300003       7.00130931E-09
   27.9899998       1.10246399E-08
   28.0499992       1.47937014E-08
   28.1100006       1.82773068E-08
   28.1700001       2.14415756E-08
   28.2299995       2.42547884E-08
   28.2900009       2.66915894E-08
   28.3500004       2.87356556E-08
   28.4099998       3.03805585E-08
   28.4699993       3.16292557E-08
   28.5300007       3.24929985E-08
   28.5900002       3.29904317E-08
   28.6499996       3.31472556E-08
   28.7099991       3.29963115E-08
   28.7700005       3.25774288E-08
   28.8299999       3.19362634E-08
   28.8899994       3.11216297E-08
   28.9500008       3.01812939E-08
   29.0100002       2.91569453E-08
   29.0699997       2.80795316E-08
   29.1299992       2.69661857E-08
   29.1900005       2.58197179E-08
   29.2500000       2.46309000E-08
   29.3099995       2.33830217E-08
   29.3700008       2.20575771E-08
   29.4300003       2.06397086E-08
   29.4899998       1.91222664E-08
   29.5499992       1.75078334E-08
   29.6100006       1.58087232E-08
   29.6700001       1.40454040E-08
   29.7299995       1.22440218E-08
   29.7900009       1.04336380E-08
   29.8500004       8.64354455E-09
   29.9099998       6.90082480E-09
   29.9699993       5.22824184E-09
   30.0300007       3.64262087E-09
   30.0900002       2.15399321E-09
   30.1499996       7.65813857E-10
   30.2099991      -5.23614652E-10
   30.2700005      -1.71871695E-09
   30.3299999      -2.82381007E-09
   30.3899994      -3.84069487E-09
   30.4500008      -4.76742912E-09
   30.5100002      -5.59866997E-09
   30.5699997      -6.32740083E-09
   30.6299992      -6.94736979E-09
   30.6900005      -7.45533590E-09
   30.7500000      -7.85237475E-09
   30.8099995      -8.14396284E-09
   30.8700008      -8.33906544E-09
   30.9300003      -8.44884607E-09
   30.9899998      -8.48566284E-09
   31.0499992      -8.46274961E-09
   31.1100006      -8.39456504E-09
   31.1700001      -8.29743829E-09
   31.2299995      -8.18999801E-09
   31.2900009      -8.09304623E-09
   31.3500004      -8.02883093E-09
   31.4099998      -8.01999178E-09
   31.4699993      -8.08856537E-09
   31.5300007      -8.25533242E-09
   31.5900002      -8.53947490E-09
   31.6499996      -8.95818975E-09
   31.7099991      -9.52576062E-09
   31.7700005      -1.02517212E-08
   31.8299999      -1.11381313E-08
   31.8899994      -1.21765273E-08
   31.9500008      -1.33455060E-08
   32.0099983      -1.46100669E-08
   32.0699997      -1.59235309E-08
   32.1300011      -1.72322370E-08
   32.1899986      -1.84823996E-08
   32.2500000      -1.96277536E-08
   32.3100014      -2.06363353E-08
   32.3699989      -2.14947313E-08
   32.4300003      -2.22088445E-08
   32.4900017      -2.28009736E-08
   32.5499992      -2.33040041E-08
   32.6100006      -2.37540245E-08
   32.6699982      -2.41829845E-08
   32.7299995      -2.46127936E-08
   32.7900009      -2.50518415E-08
   32.8499985      -2.54943178E-08
   32.9099998      -2.59222670E-08
   32.9700012      -2.63099427E-08
   33.0299988      -2.66297597E-08
   33.0900002      -2.68589364E-08
   33.1500015      -2.69856866E-08
   33.2099991      -2.70137441E-08
   33.2700005      -2.69640310E-08
   33.3300018      -2.68726552E-08
   33.3899994      -2.67852194E-08
   33.4500008      -2.67482925E-08
   33.5099983      -2.67998725E-08
   33.5699997      -2.69611906E-08
   33.6300011      -2.72320921E-08
   33.6899986      -2.75914900E-08
   33.7500000      -2.80029866E-08
   33.8100014      -2.84243367E-08
   33.8699989      -2.88182598E-08
   33.9300003      -2.91615940E-08
   33.9900017      -2.94502822E-08
   34.0499992      -2.96987928E-08
   34.1100006      -2.99342879E-08
   34.1699982      -3.01873015E-08
   34.2299995      -3.04817647E-08
   34.2900009      -3.08274011E-08
   34.3499985      -3.12167110E-08
   34.4099998      -3.16273940E-08
   34.4700012      -3.20294795E-08
   34.5299988      -3.23949827E-08
   34.5900002      -3.27072236E-08
   34.6500015      -3.29671259E-08
   34.7099991      -3.31948016E-08
   34.7700005      -3.34259234E-08
   34.8300018      -3.37040618E-08
   34.8899994      -3.40709860E-08
   34.9500008      -3.45573987E-08
   35.0099983      -3.51762743E-08
   35.0699997      -3.59202659E-08
   35.1300011      -3.67635309E-08
   35.1899986      -3.76675082E-08
   35.2500000      -3.85892420E-08
   35.3100014      -3.94904482E-08
   35.3699989      -4.03453484E-08
   35.4300003      -4.11453982E-08
   35.4900017      -4.18997033E-08
   35.5499992      -4.26306705E-08
   35.6100006      -4.33657874E-08
   35.6699982      -4.41274288E-08
   35.7299995      -4.49234783E-08
   35.7900009      -4.57415972E-08
   35.8499985      -4.65491858E-08
   35.9099998      -4.72995758E-08
   35.9700012      -4.79430007E-08
   36.0299988      -4.84394036E-08
   36.0900002      -4.87694294E-08
   36.1500015      -4.89402154E-08
   36.2099991      -4.89843970E-08
   36.2700005      -4.89525007E-08
   36.3300018      -4.89010148E-08
   36.3899994      -4.88795067E-08
   36.4500008      -4.89201817E-08
   36.5099983      -4.90323586E-08
   36.5699997      -4.92028498E-08
   36.6300011      -4.94014927E-08
   36.6899986      -4.95901276E-08
   36.7500000      -4.97325843E-08
   36.8100014      -4.98034929E-08
   36.8699989      -4.97941777E-08
   36.9300003      -4.97146111E-08
   36.9900017      -4.95912147E-08
   37.0499992      -4.94610184E-08
   37.1100006      -4.93633330E-08
   37.1699982      -4.93307226E-08
   37.2299995      -4.93813417E-08
   37.2900009      -4.95145294E-08
   37.3499985      -4.97109163E-08
   37.4099998      -4.99371531E-08
   37.4700012      -5.01540249E-08
   37.5299988      -5.03256281E-08
   37.5900002      -5.04268520E-08
   37.6500015      -5.04469035E-08
   37.7099991      -5.03878219E-08
   37.7700005      -5.02587163E-08
   37.8300018      -5.00679569E-08
   37.8899994      -4.98164177E-08
   37.9500008      -4.94945809E-08
   38.0099983      -4.90849850E-08
   38.0699997      -4.85695963E-08
   38.1300011      -4.79397109E-08
   38.1899986      -4.72047788E-08
   38.2500000      -4.63966288E-08
   38.3100014      -4.55667113E-08
   38.3699989      -4.47763178E-08
   38.4300003      -4.40819932E-08
   38.4900017      -4.35202665E-08
   38.5499992      -4.30963283E-08
   38.6100006      -4.27802860E-08
   38.6699982      -4.25125890E-08
   38.7299995      -4.22174047E-08
   38.7900009      -4.18203960E-08
   38.8499985      -4.12660413E-08
   38.9099998      -4.05297058E-08
   38.9700012      -3.96213373E-08
   39.0299988      -3.85799019E-08
   39.0900002      -3.74604028E-08
   39.1500015      -3.63170294E-08
   39.2099991      -3.51871492E-08
   39.2700005      -3.40801698E-08
   39.3300018      -3.29741887E-08
   39.3899994      -3.18210809E-08
   39.4500008      -3.05585530E-08
   39.5099983      -2.91259390E-08
   39.5699997      -2.74794960E-08
   39.6300011      -2.56030788E-08
   39.6899986      -2.35112338E-08
   39.7500000      -2.12438245E-08
   39.8100014      -1.88536191E-08
   39.8699989      -1.63904481E-08
   39.9300003      -1.38866101E-08
   39.9900017      -1.13480247E-08
   40.0499992      -8.75399042E-09
   40.1100006      -6.06584560E-09
   40.1699982      -3.24209370E-09
   40.2299995      -2.55468008E-10
   40.2900009       2.89319302E-09
   40.3499985       6.16852347E-09
   40.4099998       9.50364054E-09
   40.4700012       1.28118165E-08
   40.5299988       1.60035363E-08
   40.5900002       1.90042275E-08
   40.6500015       2.17679546E-08
   40.7099991       2.42835991E-08
   40.7700005       2.65722626E-08
   40.8300018       2.86768849E-08
   40.8899994       3.06470973E-08
   40.9500008       3.25232854E-08
   41.0099983       3.43238469E-08
   41.0699997       3.60387205E-08
   41.1300011       3.76305529E-08
   41.1899986       3.90428880E-08
   41.2500000       4.02132407E-08
   41.3100014       4.10874677E-08
   41.3699989       4.16318784E-08
   41.4300003       4.18400070E-08
   41.4900017       4.17324877E-08
   41.5499992       4.13504146E-08
   41.6100006       4.07442968E-08
   41.6699982       3.99618898E-08
   41.7299995       3.90384720E-08
   41.7900009       3.79922867E-08
   41.8499985       3.68262647E-08
   41.9099998       3.55351943E-08
   41.9700012       3.41158604E-08
   42.0299988       3.25766472E-08
   42.0900002       3.09434114E-08
   42.1500015       2.92593576E-08
   42.2099991       2.75786842E-08
   42.2700005       2.59555506E-08
   42.3300018       2.44314489E-08
   42.3899994       2.30246240E-08
   42.4500008       2.17245812E-08
   42.5099983       2.04933919E-08
   42.5699997       1.92734984E-08
   42.6300011       1.79999518E-08
   42.6899986       1.66139120E-08
   42.7500000       1.50739137E-08
   42.8100014       1.33622509E-08
   42.8699989       1.14852501E-08
   42.9300003       9.46788692E-09
   42.9900017       7.34465910E-09
   43.0499992       5.14942400E-09
   43.1100006       2.90692026E-09
   43.1699982       6.27977281E-10
   43.2299995      -1.69080261E-09
   43.2900009      -4.06341272E-09
   43.3499985      -6.50847731E-09
   43.4099998      -9.04310671E-09
   43.4700012      -1.16786207E-08
   43.5299988      -1.44194390E-08
   43.5900002      -1.72652772E-08
   43.6500015      -2.02155803E-08
   43.7099991      -2.32741950E-08
   43.7700005      -2.64521116E-08
   43.8300018      -2.97666318E-08
   43.8899994      -3.32366632E-08
   43.9500008      -3.68753632E-08
   44.0099983      -4.06825826E-08
   44.0699997      -4.46402311E-08
   44.1300011      -4.87128489E-08
   44.1899986      -5.28542969E-08
   44.2500000      -5.70193350E-08
   44.3100014      -6.11770474E-08
   44.3699989      -6.53222827E-08
   44.4300003      -6.94815157E-08
   44.4900017      -7.37113766E-08
   44.5499992      -7.80902525E-08
   44.6100006      -8.27055615E-08
   44.6699982      -8.76407924E-08
   44.7299995      -9.29662960E-08
   44.7900009      -9.87369120E-08
   44.8499985      -1.04997014E-07
   44.9099998      -1.11791977E-07
   44.9700012      -1.19182801E-07
   45.0299988      -1.27260506E-07
   45.0900002      -1.36156984E-07
   45.1500015      -1.46050709E-07
   45.2099991      -1.57167278E-07
   45.2700005      -1.69776612E-07
   45.3300018      -1.84189503E-07
   45.3899994      -2.00756546E-07
   45.4500008      -2.19871524E-07
   45.5099983      -2.41980445E-07
   45.5699997      -2.67595283E-07
   45.6300011      -2.97310834E-07
   45.6899986      -3.31822122E-07
   45.7500000      -3.71939763E-07
   45.8100014      -4.18602156E-07
   45.8699989      -4.72883585E-07
   45.9300003      -5.35999845E-07
   45.9900017      -6.09312963E-07
   46.0499992      -6.94338894E-07
   46.1100006      -7.92758783E-07
   46.1699982      -9.06436867E-07
   46.2299995      -1.03744276E-06
   46.2900009      -1.18807861E-06
   46.3499985      -1.36090648E-06
   46.4099998      -1.55877558E-06
   46.4700012      -1.78484459E-06
   46.5299988      -2.04260073E-06
   46.5900002      -2.33587662E-06
   46.6500015      -2.66886332E-06
   46.7099991      -3.04612695E-06
   46.7700005      -3.47262858E-06
   46.8300018      -3.95374855E-06
   46.8899994      -4.49531399E-06
   46.9500008      -5.10362543E-06
   47.0099983      -5.78548725E-06
   47.0699997      -6.54822315E-06
   47.1300011      -7.39969164E-06
   47.1899986      -8.34828643E-06
   47.2500000      -9.40293648E-06
   47.3100014      -1.05730942E-05
   47.3699989      -1.18687312E-05
   47.4300003      -1.33003232E-05
   47.4900017      -1.48788467E-05
   47.5499992      -1.66157661E-05
   47.6100006      -1.85230201E-05
   47.6699982      -2.06129935E-05
   47.7299995      -2.28984900E-05
   47.7900009      -2.53926737E-05
   47.8499985      -2.81090179E-05
   47.9099998      -3.10612159E-05
   47.9700012      -3.42631138E-05
   48.0299988      -3.77286015E-05
   48.0900002      -4.14715287E-05
   48.1500015      -4.55055924E-05
   48.2099991      -4.98442205E-05
   48.2700005      -5.45004732E-05
   48.3300018      -5.94869307E-05
   48.3899994      -6.48155619E-05
   48.4500008      -7.04975973E-05
   48.5099983      -7.65434233E-05
   48.5699997      -8.29624332E-05
   48.6300011      -8.97628488E-05
   48.6899986      -9.69516332E-05
   48.7500000      -1.04534265E-04
   48.8100014      -1.12514666E-04
   48.8699989      -1.20895027E-04
   48.9300003      -1.29675711E-04
   48.9900017      -1.38855146E-04
   49.0499992      -1.48429768E-04
   49.1100006      -1.58393901E-04
   49.1699982      -1.68739716E-04
   49.2299995      -1.79457158E-04
   49.2900009      -1.90533960E-04
   49.3499985      -2.01955525E-04
   49.4099998      -2.13705047E-04
   49.4700012      -2.25763433E-04
   49.5299988      -2.38109453E-04
   49.5900002      -2.50719779E-04
   49.6500015      -2.63569149E-04
   49.7099991      -2.76630424E-04
   49.7700005      -2.89874879E-04
   49.8300018      -3.03272303E-04
   49.8899994      -3.16791236E-04
   49.9500008      -3.30399285E-04
   50.0099983      -3.44063214E-04
   50.0699997      -3.57749319E-04
   50.1300011      -3.71423637E-04
   50.1899986      -3.85052321E-04
   50.2500000      -3.98601842E-04
   50.3100014      -4.12039430E-04
   50.3699989      -4.25333244E-04
   50.4300003      -4.38452815E-04
   50.4900017      -4.51369298E-04
   50.5499992      -4.64055804E-04
   50.6100006      -4.76487621E-04