  -2.400000      0.0000000E+00
  -2.340000      0.0000000E+00
  -2.280000      0.0000000E+00
  -2.220000      0.0000000E+00
  -2.160000      3.3775189E-18
  -2.100000      2.3279519E-17
  -2.040000      8.2693967E-17
  -1.980000      1.9403632E-16
  -1.920000      3.1335616E-16
  -1.860000      2.8999976E-16
  -1.800000     -1.3724291E-16
  -1.740000     -1.2371388E-15
  -1.680000     -3.0531197E-15
  -1.620000     -5.1060467E-15
  -1.560000     -6.2044066E-15
  -1.500000     -4.5891119E-15
  -1.440000      1.4272137E-15
  -1.380000      1.2382892E-14
  -1.320000      2.6514713E-14
  -1.260000      3.9146773E-14
  -1.200000      4.3264542E-14
  -1.140000      3.1605740E-14
  -1.080000     -2.1530974E-17
  -1.020000     -4.9212072E-14
 -0.9600000     -1.0476545E-13
 -0.9000000     -1.4735217E-13
 -0.8400000     -1.5390327E-13
 -0.7800000     -1.0533133E-13
 -0.7200000      4.2687386E-15
 -0.6600000      1.5993367E-13
 -0.6000000      3.2297618E-13
 -0.5400000      4.3548986E-13
 -0.4800000      4.3292832E-13
 -0.4200000      2.6307488E-13
 -0.3600000     -9.2564662E-14
 -0.3000000     -6.0038666E-13
 -0.2400000     -1.1649914E-12
 -0.1800000     -1.6327722E-12
 -0.1200000     -1.8114358E-12
 -5.9999999E-02 -1.5057171E-12
  0.0000000E+00 -5.6705752E-13
  5.9999999E-02  1.0477001E-12
  0.1200000      3.2169419E-12
  0.1800000      5.6069385E-12
  0.2400000      7.6540840E-12
  0.3000000      8.5977683E-12
  0.3600000      7.5840324E-12
  0.4200000      3.8512834E-12
  0.4800000     -3.0094629E-12
  0.5400000     -1.2755509E-11
  0.6000000     -2.4222258E-11
  0.6600000     -3.5176251E-11
  0.7200000     -4.2395396E-11
  0.7800000     -4.2062107E-11
  0.8400000     -3.0503166E-11
  0.9000000     -5.2274287E-12
  0.9600000      3.3888579E-11
   1.020000      8.3514411E-11
   1.080000      1.3619220E-10
   1.140000      1.8039745E-10
   1.200000      2.0158678E-10
   1.260000      1.8433495E-10
   1.320000      1.1544856E-10
   1.380000     -1.2300538E-11
   1.440000     -1.9639904E-10
   1.500000     -4.2148937E-10
   1.560000     -6.5766464E-10
   1.620000     -8.6073970E-10
   1.680000     -9.7478525E-10
   1.740000     -9.3682806E-10
   1.800000     -6.8321437E-10
   1.860000     -1.5680460E-10
   1.920000      6.8601341E-10
   1.980000      1.8694934E-09
   2.040000      3.3946794E-09
   2.100000      5.2379869E-09
   2.160000      7.3522668E-09
   2.220000      9.6700257E-09
   2.280000      1.2108234E-08
   2.340000      1.4574003E-08
   2.400000      1.6970523E-08
   2.460000      1.9202707E-08
   2.520000      2.1182316E-08
   2.580000      2.2832404E-08
   2.640000      2.4091083E-08
   2.700000      2.4914629E-08
   2.760000      2.5279819E-08
   2.820000      2.5185326E-08
   2.880000      2.4651870E-08
   2.940000      2.3720908E-08
   3.000000      2.2451683E-08
   3.060000      2.0916774E-08
   3.120000      1.9196571E-08
   3.180000      1.7373289E-08
   3.240000      1.5525318E-08
   3.300000      1.3722654E-08
   3.360000      1.2023816E-08
   3.420000      1.0474456E-08
   3.480000      9.1073487E-09
   3.540000      7.9433100E-09
   3.600000      6.9924266E-09
   3.660000      6.2551693E-09
   3.720000      5.7232201E-09
   3.780000      5.3801834E-09
   3.840000      5.2026259E-09
   3.900000      5.1619327E-09
   3.960000      5.2272746E-09
   4.020000      5.3695715E-09
   4.080000      5.5658069E-09
   4.140000      5.8026202E-09
   4.200000      6.0779186E-09
   4.260000      6.3995200E-09
   4.320000      6.7804757E-09
   4.380000      7.2317143E-09
   4.440000      7.7536066E-09
   4.500000      8.3287510E-09
   4.560000      8.9183665E-09
   4.620000      9.4640180E-09
   4.680000      9.8951203E-09
   4.740000      1.0141020E-08
   4.800000      1.0144936E-08
   4.860000      9.8761914E-09
   4.920000      9.3371959E-09
   4.980000      8.5627914E-09
   5.040000      7.6114981E-09
   5.100000      6.5503563E-09
   5.160000      5.4370450E-09
   5.220000      4.3038688E-09
   5.280000      3.1480532E-09
   5.340000      1.9313129E-09
   5.400000      5.8935079E-10
   5.460000     -9.5067643E-10
   5.520000     -2.7488665E-09
   5.580000     -4.8328106E-09
   5.640000     -7.1845538E-09
   5.700000     -9.7379402E-09
   5.760000     -1.2387494E-08
   5.820000     -1.5007055E-08
   5.880000     -1.7473857E-08
   5.940000     -1.9692207E-08
   6.000000     -2.1610909E-08
   6.060000     -2.3230040E-08
   6.120000     -2.4595424E-08
   6.180000     -2.5782208E-08
   6.240000     -2.6871888E-08
   6.300000     -2.7928776E-08
   6.360000     -2.8982072E-08
   6.420000     -3.0018157E-08
   6.480000     -3.0985042E-08
   6.540000     -3.1807662E-08
   6.600000     -3.2409829E-08
   6.660000     -3.2737098E-08
   6.720000     -3.2774512E-08
   6.780000     -3.2554791E-08
   6.840000     -3.2155000E-08
   6.900000     -3.1682760E-08
   6.960000     -3.1255535E-08
   7.020000     -3.0978146E-08
   7.080000     -3.0923765E-08
   7.140000     -3.1122450E-08
   7.200000     -3.1559264E-08
   7.260000     -3.2181596E-08
   7.320000     -3.2913299E-08
   7.380000     -3.3671832E-08
   7.440000     -3.4384609E-08
   7.500000     -3.5001168E-08
   7.560000     -3.5499312E-08
   7.620000     -3.5884803E-08
   7.680000     -3.6185636E-08
   7.740000     -3.6442788E-08
   7.800000     -3.6699713E-08
   7.860000     -3.6992624E-08
   7.920000     -3.7343167E-08
   7.980000     -3.7754358E-08
   8.040000     -3.8209926E-08
   8.100000     -3.8676774E-08
   8.160000     -3.9109711E-08
   8.220000     -3.9457507E-08
   8.280000     -3.9669146E-08
   8.340000     -3.9699277E-08
   8.400000     -3.9512116E-08
   8.460000     -3.9083389E-08
   8.520000     -3.8400373E-08
   8.580000     -3.7460516E-08
   8.640000     -3.6269437E-08
   8.700000     -3.4839129E-08
   8.760000     -3.3187106E-08
   8.820000     -3.1336601E-08
   8.880000     -2.9317539E-08
   8.940000     -2.7167465E-08
   9.000000     -2.4931474E-08
   9.060000     -2.2660382E-08
   9.120000     -2.0406892E-08
   9.180000     -1.8220259E-08
   9.240000     -1.6140481E-08
   9.300000     -1.4193418E-08
   9.360000     -1.2388036E-08
   9.420000     -1.0716452E-08
   9.480000     -9.1567243E-09
   9.540000     -7.6776487E-09
   9.600000     -6.2444072E-09
   9.660000     -4.8239053E-09
   9.720000     -3.3889567E-09
   9.780000     -1.9209596E-09
   9.840000     -4.1120407E-10
   9.900000      1.1387570E-09
   9.960000      2.7172238E-09
   10.02000      4.3027044E-09
   10.08000      5.8646106E-09
   10.14000      7.3647106E-09
   10.20000      8.7598995E-09
   10.26000      1.0006716E-08
   10.32000      1.1067613E-08
   10.38000      1.1918365E-08
   10.44000      1.2555336E-08
   10.50000      1.3000839E-08
   10.56000      1.3304793E-08
   10.62000      1.3541323E-08
   10.68000      1.3799947E-08
   10.74000      1.4172286E-08
   10.80000      1.4736500E-08
   10.86000      1.5542549E-08
   10.92000      1.6601566E-08
   10.98000      1.7882034E-08
   11.04000      1.9314079E-08
   11.10000      2.0801545E-08
   11.16000      2.2239593E-08
   11.22000      2.3534405E-08
   11.28000      2.4620851E-08
   11.34000      2.5474408E-08
   11.40000      2.6114815E-08
   11.46000      2.6600764E-08
   11.52000      2.7016977E-08
   11.58000      2.7456695E-08
   11.64000      2.8003596E-08
   11.70000      2.8717109E-08
   11.76000      2.9624021E-08
   11.82000      3.0717590E-08
   11.88000      3.1963332E-08
   11.94000      3.3309178E-08
   12.00000      3.4696811E-08
   12.06000      3.6071373E-08
   12.12000      3.7387732E-08
   12.18000      3.8613003E-08
   12.24000      3.9726292E-08
   12.30000      4.0717381E-08
   12.36000      4.1585757E-08
   12.42000      4.2340705E-08
   12.48000      4.3001926E-08
   12.54000      4.3599467E-08
   12.60000      4.4171500E-08
   12.66000      4.4759162E-08
   12.72000      4.5398966E-08
   12.78000      4.6114469E-08
   12.84000      4.6909634E-08
   12.90000      4.7766392E-08
   12.96000      4.8647632E-08
   13.02000      4.9505388E-08
   13.08000      5.0292098E-08
   13.14000      5.0971845E-08
   13.20000      5.1528314E-08
   13.26000      5.1967028E-08
   13.32000      5.2311478E-08
   13.38000      5.2594370E-08
   13.44000      5.2846961E-08
   13.50000      5.3089696E-08
   13.56000      5.3327106E-08
   13.62000      5.3548195E-08
   13.68000      5.3731860E-08
   13.74000      5.3855331E-08
   13.80000      5.3902667E-08
   13.86000      5.3870640E-08
   13.92000      5.3770094E-08
   13.98000      5.3622685E-08
   14.04000      5.3454091E-08
   14.10000      5.3286055E-08
   14.16000      5.3129835E-08
   14.22000      5.2982980E-08
   14.28000      5.2830384E-08
   14.34000      5.2649167E-08
   14.40000      5.2415736E-08
   14.46000      5.2113027E-08
   14.52000      5.1735690E-08
   14.58000      5.1291941E-08
   14.64000      5.0801685E-08
   14.70000      5.0291604E-08
   14.76000      4.9788841E-08
   14.82000      4.9315094E-08
   14.88000      4.8882832E-08
   14.94000      4.8494616E-08
   15.00000      4.8145534E-08
   15.06000      4.7827793E-08
   15.12000      4.7535796E-08
   15.18000      4.7269946E-08
   15.24000      4.7037716E-08
   15.30000      4.6851476E-08
   15.36000      4.6723692E-08
   15.42000      4.6661011E-08
   15.48000      4.6659249E-08
   15.54000      4.6701114E-08
   15.60000      4.6757705E-08
   15.66000      4.6793627E-08
   15.72000      4.6774424E-08
   15.78000      4.6674256E-08
   15.84000      4.6481674E-08
   15.90000      4.6201794E-08
   15.96000      4.5854293E-08
   16.02000      4.5467761E-08
   16.08000      4.5071946E-08
   16.14000      4.4689934E-08
   16.20000      4.4332264E-08
   16.26000      4.3994422E-08
   16.32000      4.3658194E-08
   16.38000      4.3296385E-08
   16.44000      4.2879599E-08
   16.50000      4.2383238E-08
   16.56000      4.1792990E-08
   16.62000      4.1107388E-08
   16.68000      4.0337007E-08
   16.74000      3.9500527E-08
   16.80000      3.8618840E-08
   16.86000      3.7708652E-08
   16.92000      3.6777266E-08
   16.98000      3.5819728E-08
   17.04000      3.4818992E-08
   17.10000      3.3749021E-08
   17.16000      3.2580044E-08
   17.22000      3.1284703E-08
   17.28000      2.9843644E-08
   17.34000      2.8249213E-08
   17.40000      2.6506276E-08
   17.46000      2.4629912E-08
   17.52000      2.2640458E-08
   17.58000      2.0557067E-08
   17.64000      1.8391406E-08
   17.70000      1.6143181E-08
   17.76000      1.3798702E-08
   17.82000      1.1332994E-08
   17.88000      8.7149221E-09
   17.94000      5.9140217E-09
   18.00000      2.9072764E-09
   18.06000     -3.1583050E-10
   18.12000     -3.7510568E-09
   18.18000     -7.3801485E-09
   18.24000     -1.1173937E-08
   18.30000     -1.5096598E-08
   18.36000     -1.9109782E-08
   18.42000     -2.3175710E-08
   18.48000     -2.7258892E-08
   18.54000     -3.1326795E-08
   18.60000     -3.5350116E-08
   18.66000     -3.9303330E-08
   18.72000     -4.3165848E-08
   18.78000     -4.6923642E-08
   18.84000     -5.0570797E-08
   18.90000     -5.4110142E-08
   18.96000     -5.7552302E-08
   19.02000     -6.0912967E-08
   19.08000     -6.4208500E-08
   19.14000     -6.7450671E-08
   19.20000     -7.0641626E-08
   19.26000     -7.3770096E-08
   19.32000     -7.6809833E-08
   19.38000     -7.9720905E-08
   19.44000     -8.2453830E-08
   19.50000     -8.4956355E-08
   19.56000     -8.7181675E-08
   19.62000     -8.9097050E-08
   19.68000     -9.0691088E-08
   19.74000     -9.1978130E-08
   19.80000     -9.2998583E-08
   19.86000     -9.3814577E-08
   19.92000     -9.4501388E-08
   19.98000     -9.5135924E-08
   20.04000     -9.5784323E-08
   20.10000     -9.6490986E-08
   20.16000     -9.7271091E-08
   20.22000     -9.8107670E-08
   20.28000     -9.8953429E-08
   20.34000     -9.9736312E-08
   20.40000     -1.0036726E-07
   20.46000     -1.0074832E-07
   20.52000     -1.0077995E-07
   20.58000     -1.0036680E-07
   20.64000     -9.9422365E-08
   20.70000     -9.7873020E-08
   20.76000     -9.5662372E-08
   20.82000     -9.2756181E-08
   20.88000     -8.9147640E-08
   20.94000     -8.4861817E-08
   21.00000     -7.9958014E-08
   21.06000     -7.4528465E-08
   21.12000     -6.8692643E-08
   21.18000     -6.2587318E-08
   21.24000     -5.6353507E-08
   21.30000     -5.0122448E-08
   21.36000     -4.4003215E-08
   21.42000     -3.8074369E-08
   21.48000     -3.2381433E-08
   21.54000     -2.6940773E-08
   21.60000     -2.1749129E-08
   21.66000     -1.6796774E-08
   21.72000     -1.2081459E-08
   21.78000     -7.6201001E-09
   21.84000     -3.4555157E-09
   21.90000      3.4329545E-10
   21.96000      3.6874745E-09
   22.02000      6.4798260E-09
   22.08000      8.6289642E-09
   22.14000      1.0062992E-08
   22.20000      1.0739829E-08
   22.26000      1.0652276E-08
   22.32000      9.8273034E-09
   22.38000      8.3204537E-09
   22.44000      6.2073018E-09
   22.50000      3.5742918E-09
   22.56000      5.1092902E-10
   22.62000     -2.8955418E-09
   22.68000     -6.5629044E-09
   22.74000     -1.0414963E-08
   22.80000     -1.4381970E-08
   22.86000     -1.8401597E-08
   22.92000     -2.2421029E-08
   22.98000     -2.6400100E-08
   23.04000     -3.0314716E-08
   23.10000     -3.4159488E-08
   23.16000     -3.7948457E-08
   23.22000     -4.1713044E-08
   23.28000     -4.5496989E-08
   23.34000     -4.9348639E-08
   23.40000     -5.3311592E-08
   23.46000     -5.7415331E-08
   23.52000     -6.1667585E-08
   23.58000     -6.6049985E-08
   23.64000     -7.0518063E-08
   23.70000     -7.5005630E-08
   23.76000     -7.9432688E-08
   23.82000     -8.3715207E-08
   23.88000     -8.7774630E-08
   23.94000     -9.1545296E-08
   24.00000     -9.4978660E-08
   24.06000     -9.8043770E-08
   24.12000     -1.0072473E-07
   24.18000     -1.0301618E-07
   24.24000     -1.0491812E-07
   24.30000     -1.0643144E-07
   24.36000     -1.0755475E-07
   24.42000     -1.0828322E-07
   24.48000     -1.0860921E-07
   24.54000     -1.0852427E-07
   24.60000     -1.0802201E-07
   24.66000     -1.0710107E-07
   24.72000     -1.0576719E-07
   24.78000     -1.0403402E-07
   24.84000     -1.0192241E-07
   24.90000     -9.9458084E-08
   24.96000     -9.6668572E-08
   25.02000     -9.3579843E-08
   25.08000     -9.0213646E-08
   25.14000     -8.6585914E-08
   25.20000     -8.2706642E-08
   25.26000     -7.8581131E-08
   25.32000     -7.4212295E-08
   25.38000     -6.9603736E-08
   25.44000     -6.4763185E-08
   25.50000     -5.9705712E-08
   25.56000     -5.4456432E-08
   25.62000     -4.9051831E-08
   25.68000     -4.3539391E-08
   25.74000     -3.7975035E-08
   25.80000     -3.2418672E-08
   25.86000     -2.6928484E-08
   25.92000     -2.1555270E-08
   25.98000     -1.6338177E-08
   26.04000     -1.1303082E-08
   26.10000     -6.4640666E-09
   26.16000     -1.8275895E-09
   26.22000      2.6018299E-09
   26.28000      6.8161223E-09
   26.34000      1.0799932E-08
   26.40000      1.4529618E-08
   26.46000      1.7975085E-08
   26.52000      2.1103666E-08
   26.58000      2.3884768E-08
   26.64000      2.6293936E-08
   26.70000      2.8315409E-08
   26.76000      2.9942949E-08
   26.82000      3.1179340E-08
   26.88000      3.2035359E-08
   26.94000      3.2529005E-08
   27.00000      3.2685307E-08
   27.06000      3.2536590E-08
   27.12000      3.2122440E-08
   27.18000      3.1488639E-08
   27.24000      3.0684475E-08
   27.30000      2.9758425E-08
   27.36000      2.8752940E-08
   27.42000      2.7699535E-08
   27.48000      2.6615478E-08
   27.54000      2.5503114E-08
   27.60000      2.4352097E-08
   27.66000      2.3144004E-08
   27.72000      2.1858250E-08
   27.78000      2.0477838E-08
   27.84000      1.8993758E-08
   27.90000      1.7407325E-08
   27.96000      1.5730375E-08
   28.02000      1.3983690E-08
   28.08000      1.2194405E-08
   28.14000      1.0392969E-08
   28.20000      8.6101313E-09
   28.26000      6.8742270E-09
   28.32000      5.2088773E-09
   28.38000      3.6313279E-09
   28.44000      2.1516720E-09
   28.50000      7.7323142E-10
   28.56000     -5.0583843E-10
   28.62000     -1.6899848E-09
   28.68000     -2.7833629E-09
   28.74000     -3.7874455E-09
   28.80000     -4.6998814E-09
   28.86000     -5.5149401E-09
   28.92000     -6.2253318E-09
   28.98000     -6.8246901E-09
   29.04000     -7.3098190E-09
   29.10000     -7.6819662E-09
   29.16000     -7.9468636E-09
   29.22000     -8.1137843E-09
   29.28000     -8.1942373E-09
   29.34000     -8.2009457E-09
   29.40000     -8.1474933E-09
   29.46000     -8.0486116E-09
   29.52000     -7.9207467E-09
   29.58000     -7.7824422E-09
   29.64000     -7.6542461E-09
   29.70000     -7.5581124E-09
   29.76000     -7.5165723E-09
   29.82000     -7.5519893E-09
   29.88000     -7.6860731E-09
   29.94000     -7.9395424E-09
   30.00000     -8.3315479E-09
   30.06000     -8.8783896E-09
   30.12000     -9.5912736E-09
   30.18000     -1.0473260E-08
   30.24000     -1.1516059E-08
   30.30000     -1.2697670E-08
   30.36000     -1.3981961E-08
   30.42000     -1.5320882E-08
   30.48000     -1.6659440E-08
   30.54000     -1.7942723E-08
   30.60000     -1.9123625E-08
   30.66000     -2.0169599E-08
   30.72000     -2.1066883E-08
   30.78000     -2.1821235E-08
   30.84000     -2.2454994E-08
   30.90000     -2.3001244E-08
   30.96000     -2.3496320E-08
   31.02000     -2.3972328E-08
   31.08000     -2.4451069E-08
   31.14000     -2.4940416E-08
   31.20000     -2.5433641E-08
   31.26000     -2.5911616E-08
   31.32000     -2.6347461E-08
   31.38000     -2.6712801E-08
   31.44000     -2.6984642E-08
   31.50000     -2.7151589E-08
   31.56000     -2.7218181E-08
   31.62000     -2.7206188E-08
   31.68000     -2.7152225E-08
   31.74000     -2.7101771E-08
   31.80000     -2.7100576E-08
   31.86000     -2.7185324E-08
   31.92000     -2.7375791E-08
   31.98000     -2.7670662E-08
   32.04000     -2.8048328E-08
   32.10000     -2.8472662E-08
   32.16000     -2.8902457E-08
   32.22000     -2.9302035E-08
   32.28000     -2.9650101E-08
   32.34000     -2.9944395E-08
   32.40000     -3.0200823E-08
   32.46000     -3.0447378E-08
   32.52000     -3.0714656E-08
   32.58000     -3.1025873E-08
   32.64000     -3.1389362E-08
   32.70000     -3.1795828E-08
   32.76000     -3.2221198E-08
   32.82000     -3.2634169E-08
   32.88000     -3.3006231E-08
   32.94000     -3.3321200E-08
   33.00000     -3.3581440E-08
   33.06000     -3.3809091E-08
   33.12000     -3.4041999E-08
   33.18000     -3.4325542E-08
   33.24000     -3.4702531E-08
   33.30000     -3.5203758E-08
   33.36000     -3.5841378E-08
   33.42000     -3.6606494E-08
   33.48000     -3.7471313E-08
   33.54000     -3.8395200E-08
   33.60000     -3.9333269E-08
   33.66000     -4.0245695E-08
   33.72000     -4.1105658E-08
   33.78000     -4.1904180E-08
   33.84000     -4.2650559E-08
   33.90000     -4.3367947E-08
   33.96000     -4.4084977E-08
   34.02000     -4.4825374E-08
   34.08000     -4.5598359E-08
   34.14000     -4.6392735E-08
   34.20000     -4.7176815E-08
   34.26000     -4.7904546E-08
   34.32000     -4.8526520E-08
   34.38000     -4.9002789E-08
   34.44000     -4.9313755E-08
   34.50000     -4.9465950E-08
   34.56000     -4.9490946E-08
   34.62000     -4.9437858E-08
   34.68000     -4.9361610E-08
   34.74000     -4.9310383E-08
   34.80000     -4.9315506E-08
   34.86000     -4.9386216E-08
   34.92000     -4.9510074E-08
   34.98000     -4.9658425E-08
   35.04000     -4.9795069E-08
   35.10000     -4.9885919E-08
   35.16000     -4.9907499E-08
   35.22000     -4.9852574E-08
   35.28000     -4.9732005E-08
   35.34000     -4.9572471E-08
   35.40000     -4.9410602E-08
   35.46000     -4.9284694E-08
   35.52000     -4.9225754E-08
   35.58000     -4.9250009E-08
   35.64000     -4.9354735E-08
   35.70000     -4.9518729E-08
   35.76000     -4.9707378E-08
   35.82000     -4.9881056E-08
   35.88000     -5.0004406E-08
   35.94000     -5.0053760E-08
   36.00000     -5.0020351E-08
   36.06000     -4.9908454E-08
   36.12000     -4.9729181E-08
   36.18000     -4.9492328E-08
   36.24000     -4.9199443E-08
   36.30000     -4.8840860E-08
   36.36000     -4.8398306E-08
   36.42000     -4.7852492E-08
   36.48000     -4.7193250E-08
   36.54000     -4.6428678E-08
   36.60000     -4.5589520E-08
   36.66000     -4.4726590E-08
   36.72000     -4.3901068E-08
   36.78000     -4.3169941E-08
   36.84000     -4.2570701E-08
   36.90000     -4.2109875E-08
   36.96000     -4.1759108E-08
   37.02000     -4.1460357E-08
   37.08000     -4.1139032E-08
   37.14000     -4.0721581E-08
   37.20000     -4.0152695E-08
   37.26000     -3.9407407E-08
   37.32000     -3.8494871E-08
   37.38000     -3.7453038E-08
   37.44000     -3.6335837E-08
   37.50000     -3.5196575E-08
   37.56000     -3.4072002E-08
   37.62000     -3.2971268E-08
   37.68000     -3.1872528E-08
   37.74000     -3.0727882E-08
   37.80000     -2.9475300E-08
   37.86000     -2.8054227E-08
   37.92000     -2.6420789E-08
   37.98000     -2.4558430E-08
   38.04000     -2.2481112E-08
   38.10000     -2.0228097E-08
   38.16000     -1.7851756E-08
   38.22000     -1.5401856E-08
   38.28000     -1.2911015E-08
   38.34000     -1.0385736E-08
   38.40000     -7.8059781E-09
   38.46000     -5.1336131E-09
   38.52000     -2.3274207E-09
   38.58000      6.3984473E-10
   38.64000      3.7674672E-09
   38.70000      7.0201724E-09
   38.76000      1.0331006E-08
   38.82000      1.3612970E-08
   38.88000      1.6776156E-08
   38.94000      1.9745650E-08
   39.00000      2.2475385E-08
   39.06000      2.4954440E-08
   39.12000      2.7204441E-08
   39.18000      2.9269108E-08
   39.24000      3.1198944E-08
   39.30000      3.3035128E-08
   39.36000      3.4796646E-08
   39.42000      3.6473704E-08
   39.48000      3.8028844E-08
   39.54000      3.9405158E-08
   39.60000      4.0539383E-08
   39.66000      4.1376406E-08
   39.72000      4.1881538E-08
   39.78000      4.2047503E-08
   39.84000      4.1894552E-08
   39.90000      4.1464020E-08
   39.96000      4.0807326E-08
   40.02000      3.9973731E-08
   40.08000      3.9000358E-08
   40.14000      3.7907252E-08
   40.20000      3.6698715E-08
   40.26000      3.5370196E-08
   40.32000      3.3918326E-08
   40.38000      3.2350659E-08
   40.44000      3.0691830E-08
   40.50000      2.8983829E-08
   40.56000      2.7279983E-08
   40.62000      2.5634105E-08
   40.68000      2.4087900E-08
   40.74000      2.2660231E-08
   40.80000      2.1341441E-08
   40.86000      2.0094445E-08
   40.92000      1.8862419E-08
   40.98000      1.7580993E-08
   41.04000      1.6191734E-08
   41.10000      1.4653413E-08
   41.16000      1.2948349E-08
   41.22000      1.1082647E-08
   41.28000      9.0808152E-09
   41.34000      6.9767370E-09
   41.40000      4.8037001E-09
   41.46000      2.5861386E-09
   41.52000      3.3498251E-10
   41.58000     -1.9526889E-09
   41.64000     -4.2902522E-09
   41.70000     -6.6959380E-09
   41.76000     -9.1870360E-09
   41.82000     -1.1775814E-08
   41.88000     -1.4468329E-08
   41.94000     -1.7266318E-08
   42.00000     -2.0171168E-08
   42.06000     -2.3188180E-08
   42.12000     -2.6329033E-08
   42.18000     -2.9610932E-08
   42.24000     -3.3052086E-08
   42.30000     -3.6664627E-08
   42.36000     -4.0447414E-08
   42.42000     -4.4381647E-08
   42.48000     -4.8431595E-08
   42.54000     -5.2551336E-08
   42.60000     -5.6696280E-08
   42.66000     -6.0836520E-08
   42.72000     -6.4968177E-08
   42.78000     -6.9119160E-08
   42.84000     -7.3347579E-08
   42.90000     -7.7733148E-08
   42.96000     -8.2364267E-08
   43.02000     -8.7324800E-08
   43.08000     -9.2684772E-08
   43.14000     -9.8497907E-08
   43.20000     -1.0480694E-07
   43.26000     -1.1165532E-07
   43.32000     -1.1910234E-07
   43.38000     -1.2723774E-07
   43.44000     -1.3619284E-07
   43.50000     -1.4614626E-07
   43.56000     -1.5732424E-07
   43.62000     -1.6999758E-07
   43.68000     -1.8447787E-07
   43.74000     -2.0111612E-07
   43.80000     -2.2030608E-07
   43.86000     -2.4249306E-07
   43.92000     -2.6818785E-07
   43.98000     -2.9798389E-07
   44.04000     -3.3257473E-07
   44.10000     -3.7276979E-07
   44.16000     -4.1950656E-07
   44.22000     -4.7385865E-07
   44.28000     -5.3704144E-07
   44.34000     -6.1041715E-07
   44.40000     -6.9550174E-07
   44.46000     -7.9397671E-07
   44.52000     -9.0770635E-07
   44.58000     -1.0387605E-06
   44.64000     -1.1894409E-06
   44.70000     -1.3623089E-06
   44.76000     -1.5602127E-06
   44.82000     -1.7863096E-06
   44.88000     -2.0440862E-06
   44.94000     -2.3373739E-06
   45.00000     -2.6703635E-06
   45.06000     -3.0476212E-06
   45.12000     -3.4741088E-06
   45.18000     -3.9552056E-06
   45.24000     -4.4967392E-06
   45.30000     -5.1050120E-06
   45.36000     -5.7868260E-06
   45.42000     -6.5495055E-06
   45.48000     -7.4009081E-06
   45.54000     -8.3494278E-06
   45.60000     -9.4039951E-06
   45.66000     -1.0574063E-05
   45.72000     -1.1869603E-05
   45.78000     -1.3301097E-05
   45.84000     -1.4879518E-05
   45.90000     -1.6616335E-05
   45.96000     -1.8523482E-05
   46.02000     -2.0613346E-05
   46.08000     -2.2898730E-05
   46.14000     -2.5392797E-05
   46.20000     -2.8109022E-05
   46.26000     -3.1061099E-05
   46.32000     -3.4262881E-05
   46.38000     -3.7728256E-05
   46.44000     -4.1471070E-05
   46.50000     -4.5505021E-05
   46.56000     -4.9843540E-05
   46.62000     -5.4499684E-05
   46.68000     -5.9486028E-05
   46.74000     -6.4814551E-05
   46.80000     -7.0496491E-05
   46.86000     -7.6542230E-05
   46.92000     -8.2961153E-05
   46.98000     -8.9761503E-05
   47.04000     -9.6950207E-05
   47.10000     -1.0453278E-04
   47.16000     -1.1251312E-04
   47.22000     -1.2089343E-04
   47.28000     -1.2967405E-04
   47.34000     -1.3885344E-04
   47.40000     -1.4842804E-04
   47.46000     -1.5839214E-04
   47.52000     -1.6873794E-04
   47.58000     -1.7945537E-04
   47.64000     -1.9053216E-04
   47.70000     -2.0195372E-04
   47.76000     -2.1370327E-04
   47.82000     -2.2576172E-04
   47.88000     -2.3810784E-04
   47.94000     -2.5071827E-04
   48.00000     -2.6356775E-04
   48.06000     -2.7662917E-04
   48.12000     -2.8987374E-04
   48.18000     -3.0327131E-04
   48.24000     -3.1679036E-04
   48.30000     -3.3039850E-04
   48.36000     -3.4406249E-04
   48.42000     -3.5774862E-04
   48.48000     -3.7142297E-04
   48.54000     -3.8505171E-04
   48.60000     -3.9860132E-04
   48.66000     -4.1203899E-04
   48.72000     -4.2533292E-04
   48.78000     -4.3845264E-04
   48.84000     -4.5136930E-04
   48.90000     -4.6405592E-04
   48.96000     -4.7648788E-04
   49.02000     -4.8864295E-04
   49.08000     -5.0050160E-04
   49.14000     -5.1204732E-04
   49.20000     -5.2326650E-04
   49.26000     -5.3414883E-04
   49.32000     -5.4468744E-04
   49.38000     -5.5487867E-04
   49.44000     -5.6472258E-04
   49.50000     -5.7422247E-04
   49.56000     -5.8338518E-04
   49.62000     -5.9222069E-04
   49.68000     -6.0074229E-04
   49.74000     -6.0896610E-04
   49.80000     -6.1691098E-04
   49.86000     -6.2459829E-04
   49.92000     -6.3205155E-04
   49.98000     -6.3929625E-04
   50.04000     -6.4635923E-04
   50.10000     -6.5326842E-04
   50.16000     -6.6005252E-04
   50.22000     -6.6674053E-04
   50.28000     -6.7336141E-04
   50.34000     -6.7994359E-04
   50.40000     -6.8651442E-04
   50.46000     -6.9309992E-04
   50.52000     -6.9972448E-04
   50.58000     -7.0641015E-04
   50.64000     -7.1317656E-04
   50.70000     -7.2004070E-04
   50.76000     -7.2701625E-04
   50.82000     -7.3411397E-04
   50.88000     -7.4134098E-04
   50.94000     -7.4870081E-04
   51.00000     -7.5619353E-04
   51.06000     -7.6381536E-04
   51.12000     -7.7155879E-04
   51.18000     -7.7941280E-04
   51.24000     -7.8736286E-04
   51.30000     -7.9539116E-04
   51.36000     -8.0347678E-04
   51.42000     -8.1159594E-04
   51.48000     -8.1972231E-04
   51.54000     -8.2782755E-04
   51.60000     -8.3588151E-04
   51.66000     -8.4385264E-04
   51.72000     -8.5170823E-04
   51.78000     -8.5941545E-04
   51.84000     -8.6694106E-04
   51.90000     -8.7425229E-04
   51.96000     -8.8131730E-04
   52.02000     -8.8810542E-04
   52.08000     -8.9458749E-04
   52.14000     -9.0073643E-04
   52.20000     -9.0652733E-04
   52.26000     -9.1193814E-04
   52.32000     -9.1694947E-04
   52.38000     -9.2154532E-04
   52.44000     -9.2571281E-04
   52.50000     -9.2944253E-04
   52.56000     -9.3272870E-04
   52.62000     -9.3556894E-04
   52.68000     -9.3796436E-04
   52.74000     -9.3991950E-04
   52.80000     -9.4144203E-04
   52.86000     -9.4254268E-04
   52.92000     -9.4323483E-04
   52.98000     -9.4353454E-04
   53.04000     -9.4346015E-04
   53.10000     -9.4303174E-04
   53.16000     -9.4227109E-04
   53.22000     -9.4120129E-04
   53.28000     -9.3984621E-04
   53.34000     -9.3823019E-04
   53.40000     -9.3637779E-04
   53.46000     -9.3431293E-04
   53.52000     -9.3205896E-04
   53.58000     -9.2963799E-04
   53.64000     -9.2707080E-04
   53.70000     -9.2437636E-04
   53.76000     -9.2157192E-04
   53.82000     -9.1867230E-04
   53.88000     -9.1569009E-04
   53.94000     -9.1263541E-04
   54.00000     -9.0951577E-04
   54.06000     -9.0633600E-04
   54.12000     -9.0309832E-04
   54.18000     -8.9980243E-04
   54.24000     -8.9644530E-04
   54.30000     -8.9302182E-04
   54.36000     -8.8952447E-04
   54.42000     -8.8594365E-04
   54.48000     -8.8226801E-04
   54.54000     -8.7848486E-04
   54.60000     -8.7458023E-04
   54.66000     -8.7053940E-04
   54.72000     -8.6634699E-04
   54.78000     -8.6198724E-04
   54.84000     -8.5744460E-04
   54.90000     -8.5270364E-04
   54.96000     -8.4774947E-04
   55.02000     -8.4256817E-04
   55.08000     -8.3714718E-04
   55.14000     -8.3147519E-04
   55.20000     -8.2554284E-04
   55.26000     -8.1934291E-04
   55.32000     -8.1287010E-04
   55.38000     -8.0612145E-04
   55.44000     -7.9909607E-04
   55.50000     -7.9179549E-04
   55.56000     -7.8422338E-04