 -0.750000000       0.00000000    
 -0.689999998       0.00000000    
 -0.629999995       0.00000000    
 -0.569999993       0.00000000    
 -0.509999990      -2.60675734E-18
 -0.449999988      -1.40898223E-17
 -0.389999986      -3.16471130E-17
 -0.330000013      -1.25131383E-17
 -0.270000011       1.52395640E-16
 -0.209999993       6.12292854E-16
 -0.150000006       1.43843442E-15
  -9.00000036E-02   2.43277963E-15
  -2.99999993E-02   2.96623230E-15
   2.99999993E-02   2.00398953E-15
   9.00000036E-02  -1.55463231E-15
  0.150000006      -8.22523964E-15
  0.209999993      -1.71684176E-14
  0.270000011      -2.56551982E-14
  0.330000013      -2.91714725E-14
  0.389999986      -2.24504118E-14
  0.449999988      -1.44627085E-15
  0.509999990       3.41239759E-14
  0.569999993       7.84530386E-14
  0.629999995       1.18613303E-13
  0.689999998       1.35936780E-13
  0.750000000       1.10503369E-13
  0.810000002       2.84927043E-14
  0.870000005      -1.09200064E-13
  0.930000007      -2.80043187E-13
  0.990000010      -4.38310114E-13
   1.04999995      -5.21945768E-13
   1.11000001      -4.68666772E-13
   1.16999996      -2.38566057E-13
   1.23000002       1.63210008E-13
   1.28999996       6.72379361E-13
   1.35000002       1.16799116E-12
   1.40999997       1.49517714E-12
   1.47000003       1.50508089E-12
   1.52999997       1.10172689E-12
   1.59000003       2.81185909E-13
   1.64999998      -8.50826083E-13
   1.71000004      -2.09023077E-12
   1.76999998      -3.17177057E-12
   1.83000004      -3.81931336E-12
   1.88999999      -3.79215539E-12
   1.95000005      -2.91451672E-12
   2.00999999      -1.08788369E-12
   2.06999993       1.69891586E-12
   2.13000011       5.33761750E-12
   2.19000006       9.52719240E-12
   2.25000000       1.36633630E-11
   2.30999994       1.67318121E-11
   2.36999989       1.72820525E-11
   2.43000007       1.35744289E-11
   2.49000001       3.96977763E-12
   2.54999995      -1.24372032E-11
   2.60999990      -3.50426181E-11
   2.67000008      -6.10250669E-11
   2.73000002      -8.49836174E-11
   2.78999996      -9.91956448E-11
   2.84999990      -9.46662193E-11
   2.91000009      -6.29527749E-11
   2.97000003       1.48145482E-12
   3.02999997       9.88381668E-11
   3.08999991       2.22045507E-10
   3.15000010       3.55849183E-10
   3.21000004       4.77294593E-10
   3.26999998       5.57671687E-10
   3.32999992       5.65667624E-10
   3.39000010       4.71198414E-10
   3.45000005       2.49245846E-10
   3.50999999      -1.16950422E-10
   3.56999993      -6.33815112E-10
   3.63000011      -1.29666633E-09
   3.69000006      -2.09015205E-09
   3.75000000      -2.98957814E-09
   3.80999994      -3.96272215E-09
   3.86999989      -4.97177766E-09
   3.93000007      -5.97522121E-09
   3.99000001      -6.92957824E-09
   4.05000019      -7.79119169E-09
   4.11000013      -8.51813908E-09
   4.17000008      -9.07235176E-09
   4.23000002      -9.42182066E-09
   4.28999996      -9.54261381E-09
   4.34999990      -9.42030365E-09
   4.40999985      -9.05042086E-09
   4.46999979      -8.43772785E-09
   4.53000021      -7.59435981E-09
   4.59000015      -6.53720944E-09
   4.65000010      -5.28516653E-09
   4.71000004      -3.85691612E-09
   4.76999998      -2.26986563E-09
   4.82999992      -5.40453071E-10
   4.88999987       1.31433897E-09
   4.94999981       3.27487926E-09
   5.01000023       5.31703970E-09
   5.07000017       7.41144257E-09
   5.13000011       9.52432355E-09
   5.19000006       1.16200036E-08
   5.25000000       1.36643452E-08
   5.30999994       1.56282134E-08
   5.36999989       1.74897536E-08
   5.42999983       1.92346707E-08
   5.48999977       2.08542605E-08
   5.55000019       2.23416734E-08
   5.61000013       2.36875906E-08
   5.67000008       2.48767194E-08
   5.73000002       2.58864574E-08
   5.78999996       2.66884221E-08
   5.84999990       2.72527512E-08
   5.90999985       2.75542060E-08
   5.96999979       2.75785421E-08
   6.03000021       2.73274026E-08
   6.09000015       2.68204090E-08
   6.15000010       2.60938098E-08
   6.21000004       2.51960373E-08
   6.26999998       2.41812952E-08
   6.32999992       2.31028174E-08
   6.38999987       2.20073915E-08
   6.44999981       2.09323101E-08
   6.51000023       1.99050287E-08
   6.57000017       1.89450766E-08
   6.63000011       1.80671069E-08
   6.69000006       1.72837833E-08
   6.75000000       1.66074514E-08
   6.80999994       1.60501425E-08
   6.86999989       1.56220157E-08
   6.92999983       1.53290589E-08
   6.98999977       1.51709596E-08
   7.05000019       1.51400705E-08
   7.11000013       1.52220156E-08
   7.17000008       1.53979389E-08
   7.23000002       1.56479736E-08
   7.28999996       1.59551359E-08
   7.34999990       1.63086966E-08
   7.40999985       1.67062328E-08
   7.46999979       1.71537486E-08
   7.53000021       1.76637265E-08
   7.59000015       1.82513542E-08
   7.65000010       1.89296188E-08
   7.71000004       1.97042045E-08
   7.76999998       2.05692299E-08
   7.82999992       2.15048104E-08
   7.88999987       2.24769838E-08
   7.94999981       2.34402382E-08
   8.01000023       2.43421994E-08
   8.06999969       2.51297472E-08
   8.13000011       2.57553960E-08
   8.18999958       2.61827626E-08
   8.25000000       2.63900830E-08
   8.31000042       2.63711684E-08
   8.36999989       2.61336748E-08
   8.43000031       2.56951687E-08
   8.48999977       2.50778527E-08
   8.55000019       2.43030733E-08
   8.60999966       2.33866064E-08
   8.67000008       2.23354970E-08
   8.72999954       2.11467679E-08
   8.78999996       1.98080059E-08
   8.85000038       1.82995414E-08
   8.90999985       1.65978840E-08
   8.97000027       1.46800740E-08
   9.02999973       1.25285036E-08
   9.09000015       1.01356985E-08
   9.14999962       7.50827667E-09
   9.21000004       4.66909578E-09
   9.27000046       1.65669745E-09
   9.32999992      -1.47850920E-09
   9.39000034      -4.68106975E-09
   9.44999981      -7.89912757E-09
   9.51000023      -1.10928902E-08
   9.56999969      -1.42406087E-08
   9.63000011      -1.73402022E-08
   9.68999958      -2.04057429E-08
   9.75000000      -2.34595845E-08
   9.81000042      -2.65222297E-08
   9.86999989      -2.96028873E-08
   9.93000031      -3.26934320E-08
   9.98999977      -3.57673891E-08
   10.0500002      -3.87840018E-08
   10.1099997      -4.16957882E-08
   10.1700001      -4.44570780E-08
   10.2299995      -4.70309800E-08
   10.2900000      -4.93931189E-08
   10.3500004      -5.15317105E-08
   10.4099998      -5.34449356E-08
   10.4700003      -5.51370967E-08
   10.5299997      -5.66150433E-08
   10.5900002      -5.78857353E-08
   10.6499996      -5.89549138E-08
   10.7100000      -5.98262915E-08
   10.7700005      -6.05008026E-08
   10.8299999      -6.09757294E-08
   10.8900003      -6.12441724E-08
   10.9499998      -6.12958289E-08
   11.0100002      -6.11196214E-08
   11.0699997      -6.07081674E-08
   11.1300001      -6.00630230E-08
   11.1899996      -5.91991238E-08
   11.2500000      -5.81465116E-08
   11.3100004      -5.69483376E-08
   11.3699999      -5.56551889E-08
   11.4300003      -5.43170451E-08
   11.4899998      -5.29750821E-08
   11.5500002      -5.16555687E-08
   11.6099997      -5.03674755E-08
   11.6700001      -4.91041696E-08
   11.7299995      -4.78484807E-08
   11.7900000      -4.65794798E-08
   11.8500004      -4.52790907E-08
   11.9099998      -4.39371632E-08
   11.9700003      -4.25542126E-08
   12.0299997      -4.11419663E-08
   12.0900002      -3.97223374E-08
   12.1499996      -3.83256271E-08
   12.2100000      -3.69883928E-08
   12.2700005      -3.57511638E-08
   12.3299999      -3.46557378E-08
   12.3900003      -3.37417170E-08
   12.4499998      -3.30422303E-08
   12.5100002      -3.25791625E-08
   12.5699997      -3.23587734E-08
   12.6300001      -3.23686500E-08
   12.6899996      -3.25769633E-08
   12.7500000      -3.29344090E-08
   12.8100004      -3.33786545E-08
   12.8699999      -3.38403581E-08
   12.9300003      -3.42496556E-08
   12.9899998      -3.45419586E-08
   13.0500002      -3.46623032E-08
   13.1099997      -3.45680320E-08
   13.1700001      -3.42301014E-08
   13.2299995      -3.36333912E-08
   13.2900000      -3.27764020E-08
   13.3500004      -3.16703819E-08
   13.4099998      -3.03376098E-08
   13.4700003      -2.88085893E-08
   13.5299997      -2.71180323E-08
   13.5900002      -2.53001122E-08
   13.6499996      -2.33838584E-08
   13.7100000      -2.13899103E-08
   13.7700005      -1.93296170E-08
   13.8299999      -1.72068688E-08
   13.8900003      -1.50221950E-08
   13.9499998      -1.27778854E-08
   14.0100002      -1.04825881E-08
   14.0699997      -8.15398238E-09
   14.1300001      -5.81890713E-09
   14.1899996      -3.51118890E-09
   14.2500000      -1.26809507E-09
   14.3100004       8.73376982E-10
   14.3699999       2.87946977E-09
   14.4300003       4.72159689E-09
   14.4899998       6.37752695E-09
   14.5500002       7.83239074E-09
   14.6099997       9.07994036E-09
   14.6700001       1.01239603E-08
   14.7299995       1.09792238E-08
   14.7900000       1.16711218E-08
   14.8500004       1.22333237E-08
   14.9099998       1.27034623E-08
   14.9700003       1.31176705E-08
   15.0299997       1.35053480E-08
   15.0900002       1.38856677E-08
   15.1499996       1.42668943E-08
   15.2100000       1.46486716E-08
   15.2700005       1.50265294E-08
   15.3299999       1.53971396E-08
   15.3900003       1.57626534E-08
   15.4499998       1.61328160E-08
   15.5100002       1.65242788E-08
   15.5699997       1.69573955E-08
   15.6300001       1.74515691E-08
   15.6899996       1.80205522E-08
   15.7500000       1.86690663E-08
   15.8100004       1.93917700E-08
   15.8699999       2.01748040E-08
   15.9300003       2.09995044E-08
   15.9899998       2.18472653E-08
   16.0499992       2.27041141E-08
   16.1100006       2.35637643E-08
   16.1700001       2.44281821E-08
   16.2299995       2.53055070E-08
   16.2900009       2.62058375E-08
   16.3500004       2.71361262E-08
   16.4099998       2.80956520E-08
   16.4699993       2.90734778E-08
   16.5300007       3.00487066E-08
   16.5900002       3.09936041E-08
   16.6499996       3.18787947E-08
   16.7099991       3.26791678E-08
   16.7700005       3.33788179E-08
   16.8299999       3.39737589E-08
   16.8899994       3.44715581E-08
   16.9500008       3.48881279E-08
   17.0100002       3.52425786E-08
   17.0699997       3.55516931E-08
   17.1299992       3.58256571E-08
   17.1900005       3.60664458E-08
   17.2500000       3.62693626E-08
   17.3099995       3.64273589E-08
   17.3700008       3.65367079E-08
   17.4300003       3.66021382E-08
   17.4899998       3.66394630E-08
   17.5499992       3.66745070E-08
   17.6100006       3.67382960E-08
   17.6700001       3.68597917E-08
   17.7299995       3.70585411E-08
   17.7900009       3.73397491E-08
   17.8500004       3.76936597E-08
   17.9099998       3.80996070E-08
   17.9699993       3.85333792E-08
   18.0300007       3.89753190E-08
   18.0900002       3.94160153E-08
   18.1499996       3.98575359E-08
   18.2099991       4.03095868E-08
   18.2700005       4.07820941E-08
   18.3299999       4.12769801E-08
   18.3899994       4.17823607E-08
   18.4500008       4.22713278E-08
   18.5100002       4.27057465E-08
   18.5699997       4.30437801E-08
   18.6299992       4.32483773E-08
   18.6900005       4.32940404E-08
   18.7500000       4.31697806E-08
   18.8099995       4.28779998E-08
   18.8700008       4.24302122E-08
   18.9300003       4.18416803E-08
   18.9899998       4.11269525E-08
   19.0499992       4.02976745E-08
   19.1100006       3.93630444E-08
   19.1700001       3.83321570E-08
   19.2299995       3.72170419E-08
   19.2900009       3.60348977E-08
   19.3500004       3.48085756E-08
   19.4099998       3.35648167E-08
   19.4699993       3.23305009E-08
   19.5300007       3.11277226E-08
   19.5900002       2.99689091E-08
   19.6499996       2.88532949E-08
   19.7099991       2.77658643E-08
   19.7700005       2.66794427E-08
   19.8299999       2.55597445E-08
   19.8899994       2.43724525E-08
   19.9500008       2.30906601E-08
   20.0100002       2.17007550E-08
   20.0699997       2.02050483E-08
   20.1299992       1.86203106E-08
   20.1900005       1.69724768E-08
   20.2500000       1.52889594E-08
   20.3099995       1.35908165E-08
   20.3700008       1.18871082E-08
   20.4300003       1.01732436E-08
   20.4899998       8.43390779E-09
   20.5499992       6.64980204E-09
   20.6100006       4.80615325E-09
   20.6700001       2.90039037E-09
   20.7299995       9.46527967E-10
   20.7900009      -1.02517772E-09
   20.8500004      -2.97330294E-09
   20.9099998      -4.85354468E-09
   20.9699993      -6.62768418E-09
   21.0300007      -8.27053359E-09
   21.0900002      -9.77289183E-09
   21.1499996      -1.11400240E-08
   21.2099991      -1.23867503E-08
   21.2700005      -1.35315092E-08
   21.3299999      -1.45920298E-08
   21.3899994      -1.55846518E-08
   21.4500008      -1.65277676E-08
   21.5100002      -1.74481034E-08
   21.5699997      -1.83872082E-08
   21.6299992      -1.94049985E-08
   21.6900005      -2.05778417E-08
   21.7500000      -2.19903118E-08
   21.8099995      -2.37217002E-08
   21.8700008      -2.58301736E-08
   21.9300003      -2.83384392E-08
   21.9899998      -3.12245767E-08
   22.0499992      -3.44204807E-08
   22.1100006      -3.78184488E-08
   22.1700001      -4.12843839E-08
   22.2299995      -4.46745929E-08
   22.2900009      -4.78524456E-08
   22.3500004      -5.07016651E-08
   22.4099998      -5.31341655E-08
   22.4699993      -5.50921229E-08
   22.5300007      -5.65455629E-08
   22.5900002      -5.74877852E-08
   22.6499996      -5.79309898E-08
   22.7099991      -5.79038257E-08
   22.7700005      -5.74512775E-08
   22.8299999      -5.66358054E-08
   22.8899994      -5.55379316E-08
   22.9500008      -5.42542793E-08
   23.0100002      -5.28918811E-08
   23.0699997      -5.15588603E-08
   23.1299992      -5.03530977E-08
   23.1900005      -4.93512751E-08
   23.2500000      -4.86009455E-08
   23.3099995      -4.81175206E-08
   23.3700008      -4.78868323E-08
   23.4300003      -4.78723727E-08
   23.4899998      -4.80253810E-08
   23.5499992      -4.82952487E-08
   23.6100006      -4.86379683E-08
   23.6700001      -4.90211178E-08
   23.7299995      -4.94248269E-08
   23.7900009      -4.98392900E-08
   23.8500004      -5.02601978E-08
   23.9099998      -5.06838127E-08
   23.9699993      -5.11033953E-08
   24.0300007      -5.15080352E-08
   24.0900002      -5.18842747E-08
   24.1499996      -5.22198214E-08
   24.2099991      -5.25080637E-08
   24.2700005      -5.27517834E-08
   24.3299999      -5.29646371E-08
   24.3899994      -5.31697992E-08
   24.4500008      -5.33959827E-08
   24.5100002      -5.36719291E-08
   24.5699997      -5.40209228E-08
   24.6299992      -5.44567769E-08
   24.6900005      -5.49821202E-08
   24.7500000      -5.55891297E-08
   24.8099995      -5.62619427E-08
   24.8700008      -5.69796690E-08
   24.9300003      -5.77188999E-08
   24.9899998      -5.84549511E-08
   25.0499992      -5.91618665E-08
   25.1100006      -5.98116898E-08
   25.1700001      -6.03738428E-08
   25.2299995      -6.08156512E-08
   25.2900009      -6.11045152E-08
   25.3500004      -6.12117361E-08
   25.4099998      -6.11173192E-08
   25.4699993      -6.08145712E-08
   25.5300007      -6.03132122E-08
   25.5900002      -5.96397385E-08
   25.6499996      -5.88346332E-08
   25.7099991      -5.79465436E-08
   25.7700005      -5.70246428E-08
   25.8299999      -5.61108315E-08
   25.8899994      -5.52335315E-08
   25.9500008      -5.44045875E-08
   26.0100002      -5.36197504E-08
   26.0699997      -5.28624184E-08
   26.1299992      -5.21092396E-08
   26.1900005      -5.13358884E-08
   26.2500000      -5.05212618E-08
   26.3099995      -4.96491488E-08
   26.3700008      -4.87072889E-08
   26.4300003      -4.76847752E-08
   26.4899998      -4.65693368E-08
   26.5499992      -4.53461126E-08
   26.6100006      -4.39988526E-08
   26.6700001      -4.25136264E-08
   26.7299995      -4.08839504E-08
   26.7900009      -3.91156583E-08
   26.8500004      -3.72295439E-08
   26.9099998      -3.52606158E-08
   26.9699993      -3.32537198E-08
   27.0300007      -3.12566399E-08
   27.0900002      -2.93124796E-08
   27.1499996      -2.74535754E-08
   27.2099991      -2.56984762E-08
   27.2700005      -2.40525164E-08
   27.3299999      -2.25113226E-08
   27.3899994      -2.10656612E-08
   27.4500008      -1.97058245E-08
   27.5100002      -1.84242595E-08
   27.5699997      -1.72160686E-08
   27.6299992      -1.60779940E-08
   27.6900005      -1.50071138E-08
   27.7500000      -1.40004479E-08
   27.8099995      -1.30560487E-08
   27.8700008      -1.21752519E-08
   27.9300003      -1.13650263E-08
   27.9899998      -1.06390958E-08
   28.0499992      -1.00168744E-08
   28.1100006      -9.52010026E-09
   28.1700001      -9.16794196E-09
   28.2299995      -8.97206931E-09
   28.2900009      -8.93318841E-09
   28.3500004      -9.04016062E-09
   28.4099998      -9.27191479E-09
   28.4699993      -9.60153645E-09
   28.5300007      -1.00012780E-08
   28.5900002      -1.04470690E-08
   28.6499996      -1.09214167E-08
   28.7099991      -1.14141008E-08
   28.7700005      -1.19208208E-08
   28.8299999      -1.24404398E-08
   28.8899994      -1.29718609E-08
   28.9500008      -1.35115705E-08
   29.0100002      -1.40525698E-08
   29.0699997      -1.45849945E-08
   29.1299992      -1.50980775E-08
   29.1900005      -1.55826321E-08
   29.2500000      -1.60330220E-08
   29.3099995      -1.64476806E-08
   29.3700008      -1.68278280E-08
   29.4300003      -1.71746617E-08
   29.4899998      -1.74860215E-08
   29.5499992      -1.77538642E-08
   29.6100006      -1.79636448E-08
   29.6700001      -1.80961521E-08
   29.7299995      -1.81314288E-08
   29.7900009      -1.80536652E-08
   29.8500004      -1.78555553E-08
   29.9099998      -1.75407830E-08
   29.9699993      -1.71239147E-08
   30.0300007      -1.66277463E-08
   30.0900002      -1.60789480E-08
   30.1499996      -1.55031401E-08
   30.2099991      -1.49206922E-08
   30.2700005      -1.43440708E-08
   30.3299999      -1.37772300E-08
   30.3899994      -1.32169067E-08
   30.4500008      -1.26553426E-08
   30.5100002      -1.20836301E-08
   30.5699997      -1.14947385E-08
   30.6299992      -1.08854472E-08
   30.6900005      -1.02566347E-08
   30.7500000      -9.61197877E-09
   30.8099995      -8.95565577E-09
   30.8700008      -8.29007263E-09
   30.9300003      -7.61474883E-09
   30.9899998      -6.92708069E-09
   31.0499992      -6.22494545E-09
   31.1100006      -5.51024248E-09
   31.1700001      -4.79187801E-09
   31.2299995      -4.08670697E-09
   31.2900009      -3.41758355E-09
   31.3500004      -2.80879764E-09
   31.4099998      -2.28027353E-09
   31.4699993      -1.84256843E-09
   31.5300007      -1.49457213E-09
   31.5900002      -1.22491639E-09
   31.6499996      -1.01676256E-09
   31.7099991      -8.54380011E-10
   31.7700005      -7.29241945E-10
   31.8299999      -6.43520959E-10
   31.8899994      -6.09800377E-10
   31.9500008      -6.47166376E-10
   32.0099983      -7.75094711E-10
   32.0699997      -1.00726771E-09
   32.1300011      -1.34739275E-09
   32.1899986      -1.78833437E-09
   32.2500000      -2.31470887E-09
   32.3100014      -2.90794722E-09
   32.3699989      -3.55208885E-09
   32.4300003      -4.23843094E-09
   32.4900017      -4.96761121E-09
   32.5499992      -5.74858561E-09
   32.6100006      -6.59489441E-09
   32.6699982      -7.51943130E-09
   32.7299995      -8.52927773E-09
   32.7900009      -9.62209068E-09
   32.8499985      -1.07850049E-08
   32.9099998      -1.19962920E-08
   32.9700012      -1.32292017E-08
   33.0299988      -1.44568677E-08
   33.0900002      -1.56569424E-08
   33.1500015      -1.68148055E-08
   33.2099991      -1.79247213E-08
   33.2700005      -1.89890326E-08
   33.3300018      -2.00160013E-08
   33.3899994      -2.10172804E-08
   33.4500008      -2.20058745E-08
   33.5099983      -2.29950849E-08
   33.5699997      -2.39983535E-08
   33.6300011      -2.50295251E-08
   33.6899986      -2.61028443E-08
   33.7500000      -2.72321863E-08
   33.8100014      -2.84293904E-08
   33.8699989      -2.97020559E-08
   33.9300003      -3.10514281E-08
   33.9900017      -3.24710250E-08
   34.0499992      -3.39465309E-08
   34.1100006      -3.54569849E-08
   34.1699982      -3.69771591E-08
   34.2299995      -3.84805112E-08
   34.2900009      -3.99422575E-08
   34.3499985      -4.13419983E-08
   34.4099998      -4.26655191E-08
   34.4700012      -4.39056755E-08
   34.5299988      -4.50623965E-08
   34.5900002      -4.61420804E-08
   34.6500015      -4.71567247E-08
   34.7099991      -4.81231694E-08
   34.7700005      -4.90623542E-08
   34.8300018      -4.99984338E-08
   34.8899994      -5.09571478E-08
   34.9500008      -5.19629353E-08
   35.0099983      -5.30347428E-08
   35.0699997      -5.41810294E-08
   35.1300011      -5.53953754E-08
   35.1899986      -5.66543186E-08
   35.2500000      -5.79188573E-08
   35.3100014      -5.91400351E-08
   35.3699989      -6.02677233E-08
   35.4300003      -6.12603230E-08
   35.4900017      -6.20925888E-08
   35.5499992      -6.27592200E-08
   35.6100006      -6.32731130E-08
   35.6699982      -6.36588524E-08
   35.7299995      -6.39439151E-08
   35.7900009      -6.41503135E-08
   35.8499985      -6.42894307E-08
   35.9099998      -6.43613589E-08
   35.9700012      -6.43582894E-08
   36.0299988      -6.42704094E-08
   36.0900002      -6.40917719E-08
   36.1500015      -6.38243520E-08
   36.2099991      -6.34790993E-08
   36.2700005      -6.30743031E-08
   36.3300018      -6.26322461E-08
   36.3899994      -6.21756016E-08
   36.4500008      -6.17246343E-08
   36.5099983      -6.12957081E-08
   36.5699997      -6.09008026E-08
   36.6300011      -6.05475421E-08
   36.6899986      -6.02391452E-08
   36.7500000      -5.99739494E-08
   36.8100014      -5.97447638E-08
   36.8699989      -5.95384684E-08
   36.9300003      -5.93363616E-08
   36.9900017      -5.91155747E-08
   37.0499992      -5.88514233E-08
   37.1100006      -5.85202358E-08
   37.1699982      -5.81020103E-08
   37.2299995      -5.75823371E-08
   37.2900009      -5.69533647E-08
   37.3499985      -5.62138709E-08
   37.4099998      -5.53689539E-08
   37.4700012      -5.44296839E-08
   37.5299988      -5.34130535E-08
   37.5900002      -5.23419423E-08
   37.6500015      -5.12445908E-08
   37.7099991      -5.01530124E-08
   37.7700005      -4.90999206E-08
   37.8300018      -4.81145541E-08
   37.8899994      -4.72183075E-08
   37.9500008      -4.64217109E-08
   38.0099983      -4.57239473E-08
   38.0699997      -4.51155699E-08
   38.1300011      -4.45838211E-08
   38.1899986      -4.41187389E-08
   38.2500000      -4.37177050E-08
   38.3100014      -4.33862439E-08
   38.3699989      -4.31339551E-08
   38.4300003      -4.29664162E-08
   38.4900017      -4.28752926E-08
   38.5499992      -4.28301234E-08
   38.6100006      -4.27749960E-08
   38.6699982      -4.26320312E-08
   38.7299995      -4.23114308E-08
   38.7900009      -4.17257944E-08
   38.8499985      -4.08047356E-08
   38.9099998      -3.95058244E-08
   38.9700012      -3.78188396E-08
   39.0299988      -3.57624828E-08
   39.0900002      -3.33751373E-08
   39.1500015      -3.07029673E-08
   39.2099991      -2.77893708E-08
   39.2700005      -2.46691023E-08
   39.3300018      -2.13684928E-08
   39.3899994      -1.79110735E-08
   39.4500008      -1.43259307E-08
   39.5099983      -1.06553113E-08
   39.5699997      -6.95833124E-09
   39.6300011      -3.30910321E-09
   39.6899986       2.10427675E-10
   39.7500000       3.52088092E-09
   39.8100014       6.55597132E-09
   39.8699989       9.27009935E-09
   39.9300003       1.16409504E-08
   39.9900017       1.36665896E-08
   40.0499992       1.53582551E-08
   40.1100006       1.67312031E-08
   40.1699982       1.77964843E-08
   40.2299995       1.85561309E-08
   40.2900009       1.90031972E-08
   40.3499985       1.91265759E-08
   40.4099998       1.89190512E-08
   40.4700012       1.83859914E-08
   40.5299988       1.75516330E-08
   40.5900002       1.64606639E-08
   40.6500015       1.51740256E-08
   40.7099991       1.37598697E-08
   40.7700005       1.22822525E-08
   40.8300018       1.07911271E-08
   40.8899994       9.31697119E-09
   40.9500008       7.87192533E-09
   41.0099983       6.45704912E-09
   41.0699997       5.07309839E-09
   41.1300011       3.73081743E-09
   41.1899986       2.45682608E-09
   41.2500000       1.29270983E-09
   41.3100014       2.87405294E-10
   41.3699989      -5.14554011E-10
   41.4300003      -1.08479237E-09
   41.4900017      -1.41867507E-09
   41.5499992      -1.53600932E-09
   41.6100006      -1.47461843E-09
   41.6699982      -1.27900890E-09
   41.7299995      -9.88039317E-10
   41.7900009      -6.25733410E-10
   41.8499985      -1.98200442E-10
   41.9099998       3.02546210E-10
   41.9700012       8.89496199E-10
   42.0299988       1.56968993E-09
   42.0900002       2.33546293E-09
   42.1500015       3.16119531E-09
   42.2099991       4.00701650E-09
   42.2700005       4.82856333E-09
   42.3300018       5.58978508E-09
   42.3899994       6.27468122E-09
   42.4500008       6.89405644E-09
   42.5099983       7.48490070E-09
   42.5699997       8.10231171E-09
   42.6300011       8.80620732E-09
   42.6899986       9.64669145E-09
   42.7500000       1.06522364E-08
   42.8100014       1.18238930E-08
   42.8699989       1.31367335E-08
   42.9300003       1.45475703E-08
   42.9900017       1.60062079E-08
   43.0499992       1.74667569E-08
   43.1100006       1.88958609E-08
   43.1699982       2.02758734E-08
   43.2299995       2.16027498E-08
   43.2900009       2.28798331E-08
   43.3499985       2.41099123E-08
   43.4099998       2.52882320E-08
   43.4700012       2.63987783E-08
   43.5299988       2.74153606E-08
   43.5900002       2.83074737E-08
   43.6500015       2.90496516E-08
   43.7099991       2.96317531E-08
   43.7700005       3.00670813E-08
   43.8300018       3.03956540E-08
   43.8899994       3.06812247E-08
   43.9500008       3.10026564E-08
   44.0099983       3.14423652E-08
   44.0699997       3.20757216E-08
   44.1300011       3.29654171E-08
   44.1899986       3.41632251E-08
   44.2500000       3.57192143E-08
   44.3100014       3.76956741E-08
   44.3699989       4.01814582E-08
   44.4300003       4.33023075E-08
   44.4900017       4.72245354E-08
   44.5499992       5.21521955E-08
   44.6100006       5.83208575E-08
   44.6699982       6.59925092E-08
   44.7299995       7.54562066E-08
   44.7900009       8.70366250E-08
   44.8499985       1.01110132E-07
   44.9099998       1.18124994E-07
   44.9700012       1.38621445E-07
   45.0299988       1.63247762E-07
   45.0900002       1.92771239E-07
   45.1500015       2.28085639E-07
   45.2099991       2.70219346E-07
   45.2700005       3.20348704E-07
   45.3300018       3.79820875E-07
   45.3899994       4.50186377E-07
   45.4500008       5.33240438E-07
   45.5099983       6.31068076E-07
   45.5699997       7.46088858E-07
   45.6300011       8.81098231E-07
   45.6899986       1.03930427E-06
   45.7500000       1.22436313E-06
   45.8100014       1.44041621E-06
   45.8699989       1.69213740E-06
   45.9300003       1.98478938E-06
   45.9900017       2.32429466E-06
   46.0499992       2.71731642E-06
   46.1100006       3.17134777E-06
   46.1699982       3.69480244E-06
   46.2299995       4.29710462E-06
   46.2900009       4.98877762E-06
   46.3499985       5.78153276E-06
   46.4099998       6.68835855E-06
   46.4700012       7.72361909E-06
   46.5299988       8.90315914E-06
   46.5900002       1.02444119E-05
   46.6500015       1.17665222E-05
   46.7099991       1.34904594E-05
   46.7700005       1.54391291E-05
   46.8300018       1.76374760E-05
   46.8899994       2.01125822E-05
   46.9500008       2.28937515E-05
   47.0099983       2.60125817E-05
   47.0699997       2.95030459E-05
   47.1300011       3.34015640E-05
   47.1899986       3.77470496E-05
   47.2500000       4.25809521E-05
   47.3100014       4.79472801E-05
   47.3699989       5.38925997E-05
   47.4300003       6.04659908E-05
   47.4900017       6.77190037E-05
   47.5499992       7.57055459E-05
   47.6100006       8.44817769E-05
   47.6699982       9.41059334E-05
   47.7299995       1.04638188E-04
   47.7900009       1.16140356E-04
   47.8499985       1.28675674E-04
   47.9099998       1.42308490E-04
   47.9700012       1.57103917E-04
   48.0299988       1.73127439E-04
   48.0900002       1.90444407E-04
   48.1500015       2.09119695E-04
   48.2099991       2.29217025E-04
   48.2700005       2.50798534E-04
   48.3300018       2.73924146E-04
   48.3899994       2.98650993E-04
   48.4500008       3.25032655E-04
   48.5099983       3.53118608E-04
   48.5699997       3.82953556E-04
   48.6300011       4.14576614E-04
   48.6899986       4.48020670E-04
   48.7500000       4.83311742E-04
   48.8100014       5.20468166E-04
   48.8699989       5.59500244E-04
   48.9300003       6.00409403E-04
   48.9900017       6.43187668E-04
   49.0499992       6.87817112E-04
   49.1100006       7.34269386E-04
   49.1699982       7.82505667E-04
   49.2299995       8.32475780E-04
   49.2900009       8.84118548E-04
   49.3499985       9.37361445E-04
   49.4099998       9.92120709E-04
   49.4700012       1.04830135E-03
   49.5299988       1.10579736E-03
   49.5900002       1.16449210E-03
   49.6500015       1.22425915E-03
   49.7099991       1.28496229E-03
   49.7700005       1.34645670E-03
   49.8300018       1.40858965E-03
   49.8899994       1.47120119E-03
   49.9500008       1.53412600E-03
   50.0099983       1.59719423E-03
   50.0699997       1.66023232E-03
   50.1300011       1.72306562E-03
   50.1899986       1.78551825E-03
   50.2500000       1.84741581E-03
   50.3100014       1.90858613E-03
   50.3699989       1.96886132E-03
   50.4300003       2.02807924E-03
   50.4900017       2.08608457E-03
   50.5499992       2.14273063E-03
   50.6100006       2.19788169E-03