  -2.400000      0.0000000E+00
  -2.340000      0.0000000E+00
  -2.280000      0.0000000E+00
  -2.220000      0.0000000E+00
  -2.160000      1.0466683E-18
  -2.100000      7.1929285E-18
  -2.040000      2.5811417E-17
  -1.980000      6.3050148E-17
  -1.920000      1.1403202E-16
  -1.860000      1.5226765E-16
  -1.800000      1.2596735E-16
  -1.740000     -3.2562759E-17
  -1.680000     -3.8405824E-16
  -1.620000     -9.5159948E-16
  -1.560000     -1.6895035E-15
  -1.500000     -2.4566797E-15
  -1.440000     -2.9982421E-15
  -1.380000     -2.9466457E-15
  -1.320000     -1.8689420E-15
  -1.260000      6.0466834E-16
  -1.200000      4.5568954E-15
  -1.140000      9.5132142E-15
  -1.080000      1.4260421E-14
  -1.020000      1.6940042E-14
 -0.9600000      1.5551018E-14
 -0.9000000      8.8130568E-15
 -0.8400000     -2.9146397E-15
 -0.7800000     -1.7150269E-14
 -0.7200000     -2.9685632E-14
 -0.6600000     -3.5956447E-14
 -0.6000000     -3.2946380E-14
 -0.5400000     -2.0750489E-14
 -0.4800000     -2.9086110E-15
 -0.4200000      1.4843063E-14
 -0.3600000      2.6868400E-14
 -0.3000000      2.9717155E-14
 -0.2400000      2.2725555E-14
 -0.1800000      6.7593089E-15
 -0.1200000     -1.7839529E-14
 -5.9999999E-02 -5.1977350E-14
  0.0000000E+00 -9.5340612E-14
  5.9999999E-02 -1.4079059E-13
  0.1200000     -1.6854260E-13
  0.1800000     -1.4519760E-13
  0.2400000     -3.2298661E-14
  0.3000000      1.9469819E-13
  0.3600000      5.2232377E-13
  0.4200000      8.8088749E-13
  0.4800000      1.1449583E-12
  0.5400000      1.1607577E-12
  0.6000000      7.9820872E-13
  0.6600000      1.2726806E-14
  0.7200000     -1.1071621E-12
  0.7800000     -2.3303735E-12
  0.8400000     -3.3251555E-12
  0.9000000     -3.7467633E-12
  0.9600000     -3.3458908E-12
   1.020000     -2.0611800E-12
   1.080000     -6.1149450E-14
   1.140000      2.2830117E-12
   1.200000      4.4880896E-12
   1.260000      6.0844546E-12
   1.320000      6.7361377E-12
   1.380000      6.3182289E-12
   1.440000      4.9312685E-12
   1.500000      2.8550682E-12
   1.560000      4.6359661E-13
   1.620000     -1.8689356E-12
   1.680000     -3.8446906E-12
   1.740000     -5.2884082E-12
   1.800000     -6.1648607E-12
   1.860000     -6.5791673E-12
   1.920000     -6.7730960E-12
   1.980000     -7.1241550E-12
   2.040000     -8.1447496E-12
   2.100000     -1.0471121E-11
   2.160000     -1.4831022E-11
   2.220000     -2.1985743E-11
   2.280000     -3.2654109E-11
   2.340000     -4.7439788E-11
   2.400000     -6.6790309E-11
   2.460000     -9.1012989E-11
   2.520000     -1.2035821E-10
   2.580000     -1.5515537E-10
   2.640000     -1.9596030E-10
   2.700000     -2.4365476E-10
   2.760000     -2.9943795E-10
   2.820000     -3.6467376E-10
   2.880000     -4.4059992E-10
   2.940000     -5.2795823E-10
   3.000000     -6.2664651E-10
   3.060000     -7.3550943E-10
   3.120000     -8.5236201E-10
   3.180000     -9.7427899E-10
   3.240000     -1.0981019E-09
   3.300000     -1.2210390E-09
   3.360000     -1.3411888E-09
   3.420000     -1.4578327E-09
   3.480000     -1.5714040E-09
   3.540000     -1.6831440E-09
   3.600000     -1.7945544E-09
   3.660000     -1.9068205E-09
   3.720000     -2.0203768E-09
   3.780000     -2.1347299E-09
   3.840000     -2.2485640E-09
   3.900000     -2.3600524E-09
   3.960000     -2.4672615E-09
   4.020000     -2.5685216E-09
   4.080000     -2.6626847E-09
   4.140000     -2.7492482E-09
   4.200000     -2.8283638E-09
   4.260000     -2.9007707E-09
   4.320000     -2.9676797E-09
   4.380000     -3.0306124E-09
   4.440000     -3.0911824E-09
   4.500000     -3.1508007E-09
   4.560000     -3.2102785E-09
   4.620000     -3.2693119E-09
   4.680000     -3.3258383E-09
   4.740000     -3.3752663E-09
   4.800000     -3.4096570E-09
   4.860000     -3.4169925E-09
   4.920000     -3.3807714E-09
   4.980000     -3.2801972E-09
   5.040000     -3.0911629E-09
   5.100000     -2.7880787E-09
   5.160000     -2.3463123E-09
   5.220000     -1.7447933E-09
   5.280000     -9.6818820E-10
   5.340000     -8.1333941E-12
   5.400000      1.1367325E-09
   5.460000      2.4618088E-09
   5.520000      3.9581778E-09
   5.580000      5.6142087E-09
   5.640000      7.4165381E-09
   5.700000      9.3501429E-09
   5.760000      1.1397582E-08
   5.820000      1.3537822E-08
   5.880000      1.5745186E-08
   5.940000      1.7988901E-08
   6.000000      2.0233470E-08
   6.060000      2.2439885E-08
   6.120000      2.4567397E-08
   6.180000      2.6575592E-08
   6.240000      2.8426451E-08
   6.300000      3.0086191E-08
   6.360000      3.1526636E-08
   6.420000      3.2726003E-08
   6.480000      3.3668922E-08
   6.540000      3.4345707E-08
   6.600000      3.4751015E-08
   6.660000      3.4882405E-08
   6.720000      3.4739216E-08
   6.780000      3.4322394E-08
   6.840000      3.3635363E-08
   6.900000      3.2685829E-08
   6.960000      3.1487829E-08
   7.020000      3.0063202E-08
   7.080000      2.8441862E-08
   7.140000      2.6660404E-08
   7.200000      2.4759366E-08
   7.260000      2.2779679E-08
   7.320000      2.0759112E-08
   7.380000      1.8729361E-08
   7.440000      1.6714196E-08
   7.500000      1.4728675E-08
   7.560000      1.2779331E-08
   7.620000      1.0865089E-08
   7.680000      8.9788070E-09
   7.740000      7.1092958E-09
   7.800000      5.2436544E-09
   7.860000      3.3696141E-09
   7.920000      1.4775038E-09
   7.980000     -4.3854109E-10
   8.040000     -2.3802738E-09
   8.100000     -4.3457957E-09
   8.160000     -6.3303851E-09
   8.220000     -8.3272340E-09
   8.280000     -1.0327812E-08
   8.340000     -1.2321888E-08
   8.400000     -1.4297487E-08
   8.460000     -1.6241192E-08
   8.520000     -1.8138920E-08
   8.580000     -1.9977069E-08
   8.640000     -2.1743556E-08
   8.700000     -2.3428285E-08
   8.760000     -2.5022773E-08
   8.820000     -2.6519063E-08
   8.880000     -2.7908465E-08
   8.940000     -2.9180702E-08
   9.000000     -3.0323896E-08
   9.060000     -3.1325445E-08
   9.120000     -3.2173432E-08
   9.180000     -3.2858040E-08
   9.240000     -3.3372586E-08
   9.300000     -3.3714116E-08
   9.360000     -3.3883754E-08
   9.420000     -3.3887179E-08
   9.480000     -3.3735375E-08
   9.540000     -3.3445563E-08
   9.600000     -3.3041818E-08
   9.660000     -3.2554944E-08
   9.720000     -3.2021294E-08
   9.780000     -3.1480567E-08
   9.840000     -3.0972991E-08
   9.900000     -3.0536469E-08
   9.960000     -3.0204049E-08
   10.02000     -3.0001992E-08
   10.08000     -2.9948257E-08
   10.14000     -3.0051311E-08
   10.20000     -3.0309103E-08
   10.26000     -3.0708321E-08
   10.32000     -3.1224157E-08
   10.38000     -3.1820811E-08
   10.44000     -3.2452906E-08
   10.50000     -3.3067646E-08
   10.56000     -3.3607495E-08
   10.62000     -3.4013176E-08
   10.68000     -3.4226900E-08
   10.74000     -3.4195885E-08
   10.80000     -3.3876258E-08
   10.86000     -3.3237296E-08
   10.92000     -3.2265614E-08
   10.98000     -3.0968650E-08
   11.04000     -2.9376586E-08
   11.10000     -2.7541995E-08
   11.16000     -2.5536822E-08
   11.22000     -2.3446830E-08
   11.28000     -2.1364079E-08
   11.34000     -1.9378362E-08
   11.40000     -1.7568652E-08
   11.46000     -1.5995548E-08
   11.52000     -1.4695611E-08
   11.58000     -1.3678251E-08
   11.64000     -1.2925526E-08
   11.70000     -1.2394929E-08
   11.76000     -1.2024841E-08
   11.82000     -1.1741927E-08
   11.88000     -1.1469478E-08
   11.94000     -1.1135611E-08
   12.00000     -1.0680289E-08
   12.06000     -1.0060474E-08
   12.12000     -9.2530117E-09
   12.18000     -8.2552125E-09
   12.24000     -7.0832771E-09
   12.30000     -5.7688405E-09
   12.36000     -4.3539892E-09
   12.42000     -2.8852158E-09
   12.48000     -1.4069668E-09
   12.54000      4.4399446E-11
   12.60000      1.4453266E-09
   12.66000      2.7876517E-09
   12.72000      4.0785948E-09
   12.78000      5.3381610E-09
   12.84000      6.5944725E-09
   12.90000      7.8779445E-09
   12.96000      9.2153956E-09
   13.02000      1.0625111E-08
   13.08000      1.2113624E-08
   13.14000      1.3674622E-08
   13.20000      1.5290027E-08
   13.26000      1.6932921E-08
   13.32000      1.8571715E-08
   13.38000      2.0174816E-08
   13.44000      2.1714856E-08
   13.50000      2.3171772E-08
   13.56000      2.4534168E-08
   13.62000      2.5798830E-08
   13.68000      2.6968697E-08
   13.74000      2.8049961E-08
   13.80000      2.9049136E-08
   13.86000      2.9970906E-08
   13.92000      3.0817240E-08
   13.98000      3.1587863E-08
   14.04000      3.2281786E-08
   14.10000      3.2899262E-08
   14.16000      3.3443410E-08
   14.22000      3.3920987E-08
   14.28000      3.4341880E-08
   14.34000      3.4717420E-08
   14.40000      3.5057859E-08
   14.46000      3.5369730E-08
   14.52000      3.5653912E-08
   14.58000      3.5904954E-08
   14.64000      3.6112162E-08
   14.70000      3.6262200E-08
   14.76000      3.6342733E-08
   14.82000      3.6346066E-08
   14.88000      3.6271800E-08
   14.94000      3.6127737E-08
   15.00000      3.5928696E-08
   15.06000      3.5693574E-08
   15.12000      3.5441577E-08
   15.18000      3.5188553E-08
   15.24000      3.4944581E-08
   15.30000      3.4713231E-08
   15.36000      3.4492626E-08
   15.42000      3.4277686E-08
   15.48000      3.4062825E-08
   15.54000      3.3844191E-08
   15.60000      3.3620893E-08
   15.66000      3.3394922E-08
   15.72000      3.3170007E-08
   15.78000      3.2949806E-08
   15.84000      3.2736157E-08
   15.90000      3.2527950E-08
   15.96000      3.2321051E-08
   16.02000      3.2109376E-08
   16.08000      3.1886884E-08
   16.14000      3.1649872E-08
   16.20000      3.1398834E-08
   16.26000      3.1139173E-08
   16.32000      3.0880319E-08
   16.38000      3.0633313E-08
   16.44000      3.0407463E-08
   16.50000      3.0206934E-08
   16.56000      3.0028414E-08
   16.62000      2.9860580E-08
   16.68000      2.9685687E-08
   16.74000      2.9482853E-08
   16.80000      2.9232242E-08
   16.86000      2.8918897E-08
   16.92000      2.8535309E-08
   16.98000      2.8082026E-08
   17.04000      2.7566372E-08
   17.10000      2.6999757E-08
   17.16000      2.6394497E-08
   17.22000      2.5761070E-08
   17.28000      2.5106562E-08
   17.34000      2.4434533E-08
   17.40000      2.3746091E-08
   17.46000      2.3041606E-08
   17.52000      2.2322233E-08
   17.58000      2.1590589E-08
   17.64000      2.0850225E-08
   17.70000      2.0103927E-08
   17.76000      1.9351345E-08
   17.82000      1.8586663E-08
   17.88000      1.7797049E-08
   17.94000      1.6962407E-08
   18.00000      1.6056607E-08
   18.06000      1.5049967E-08
   18.12000      1.3912455E-08
   18.18000      1.2616939E-08
   18.24000      1.1141910E-08
   18.30000      9.4732417E-09
   18.36000      7.6048847E-09
   18.42000      5.5386296E-09
   18.48000      3.2832850E-09
   18.54000      8.5364282E-10
   18.60000     -1.7304712E-09
   18.66000     -4.4449546E-09
   18.72000     -7.2621043E-09
   18.78000     -1.0151475E-08
   18.84000     -1.3081200E-08
   18.90000     -1.6019913E-08
   18.96000     -1.8939119E-08
   19.02000     -2.1815582E-08
   19.08000     -2.4633072E-08
   19.14000     -2.7382828E-08
   19.20000     -3.0062395E-08
   19.26000     -3.2672940E-08
   19.32000     -3.5215667E-08
   19.38000     -3.7688395E-08
   19.44000     -4.0083361E-08
   19.50000     -4.2387168E-08
   19.56000     -4.4583082E-08
   19.62000     -4.6655192E-08
   19.68000     -4.8593360E-08
   19.74000     -5.0397521E-08
   19.80000     -5.2079823E-08
   19.86000     -5.3663957E-08
   19.92000     -5.5181467E-08
   19.98000     -5.6665876E-08
   20.04000     -5.8146075E-08
   20.10000     -5.9640499E-08
   20.16000     -6.1153486E-08
   20.22000     -6.2674452E-08
   20.28000     -6.4179723E-08
   20.34000     -6.5636236E-08
   20.40000     -6.7005594E-08
   20.46000     -6.8247530E-08
   20.52000     -6.9321707E-08
   20.58000     -7.0187944E-08
   20.64000     -7.0805349E-08
   20.70000     -7.1131510E-08
   20.76000     -7.1122798E-08
   20.82000     -7.0736817E-08
   20.88000     -6.9936974E-08
   20.94000     -6.8698824E-08
   21.00000     -6.7016806E-08
   21.06000     -6.4909614E-08
   21.12000     -6.2422515E-08
   21.18000     -5.9625528E-08
   21.24000     -5.6606833E-08
   21.30000     -5.3462532E-08
   21.36000     -5.0284338E-08
   21.42000     -4.7147743E-08
   21.48000     -4.4103192E-08
   21.54000     -4.1172079E-08
   21.60000     -3.8348478E-08
   21.66000     -3.5606000E-08
   21.72000     -3.2908083E-08
   21.78000     -3.0219354E-08
   21.84000     -2.7515554E-08
   21.90000     -2.4790136E-08
   21.96000     -2.2056550E-08
   22.02000     -1.9346375E-08
   22.08000     -1.6704263E-08
   22.14000     -1.4181325E-08
   22.20000     -1.1828581E-08
   22.26000     -9.6918464E-09
   22.32000     -7.8088194E-09
   22.38000     -6.2084582E-09
   22.44000     -4.9121160E-09
   22.50000     -3.9355217E-09
   22.56000     -3.2905900E-09
   22.62000     -2.9862810E-09
   22.68000     -3.0281515E-09
   22.74000     -3.4167829E-09
   22.80000     -4.1457104E-09
   22.86000     -5.1996878E-09
   22.92000     -6.5540595E-09
   22.98000     -8.1756877E-09
   23.04000     -1.0025442E-08
   23.10000     -1.2061811E-08
   23.16000     -1.4244914E-08
   23.22000     -1.6540126E-08
   23.28000     -1.8920646E-08
   23.34000     -2.1368638E-08
   23.40000     -2.3874907E-08
   23.46000     -2.6437373E-08
   23.52000     -2.9058825E-08
   23.58000     -3.1744481E-08
   23.64000     -3.4499827E-08
   23.70000     -3.7329016E-08
   23.76000     -4.0233768E-08
   23.82000     -4.3212612E-08
   23.88000     -4.6260119E-08
   23.94000     -4.9365831E-08
   24.00000     -5.2512917E-08
   24.06000     -5.5676836E-08
   24.12000     -5.8824611E-08
   24.18000     -6.1915330E-08
   24.24000     -6.4902366E-08
   24.30000     -6.7737240E-08
   24.36000     -7.0374490E-08
   24.42000     -7.2776551E-08
   24.48000     -7.4917381E-08
   24.54000     -7.6783778E-08
   24.60000     -7.8374114E-08
   24.66000     -7.9694715E-08
   24.72000     -8.0754944E-08
   24.78000     -8.1562312E-08
   24.84000     -8.2118895E-08
   24.90000     -8.2419788E-08
   24.96000     -8.2453987E-08
   25.02000     -8.2206988E-08
   25.08000     -8.1664595E-08
   25.14000     -8.0816655E-08
   25.20000     -7.9660047E-08
   25.26000     -7.8200252E-08
   25.32000     -7.6451421E-08
   25.38000     -7.4435036E-08
   25.44000     -7.2177556E-08
   25.50000     -6.9707681E-08
   25.56000     -6.7053726E-08
   25.62000     -6.4241654E-08
   25.68000     -6.1293932E-08
   25.74000     -5.8229382E-08
   25.80000     -5.5063786E-08
   25.86000     -5.1810868E-08
   25.92000     -4.8483386E-08
   25.98000     -4.5093962E-08
   26.04000     -4.1655568E-08
   26.10000     -3.8181689E-08
   26.16000     -3.4686277E-08
   26.22000     -3.1183731E-08
   26.28000     -2.7688944E-08
   26.34000     -2.4217440E-08
   26.40000     -2.0785448E-08
   26.46000     -1.7409800E-08
   26.52000     -1.4107558E-08
   26.58000     -1.0895435E-08
   26.64000     -7.7892093E-09
   26.70000     -4.8034390E-09
   26.76000     -1.9517508E-09
   26.82000      7.5221379E-10
   26.88000      3.2933520E-09
   26.94000      5.6536220E-09
   27.00000      7.8111775E-09
   27.06000      9.7407469E-09
   27.12000      1.1415660E-08
   27.18000      1.2811468E-08
   27.24000      1.3910622E-08
   27.30000      1.4707202E-08
   27.36000      1.5210516E-08
   27.42000      1.5446485E-08
   27.48000      1.5456104E-08
   27.54000      1.5290937E-08
   27.60000      1.5006256E-08
   27.66000      1.4653009E-08
   27.72000      1.4270176E-08
   27.78000      1.3879058E-08
   27.84000      1.3480762E-08
   27.90000      1.3057520E-08
   27.96000      1.2577737E-08
   28.02000      1.2003870E-08
   28.08000      1.1301537E-08
   28.14000      1.0448019E-08
   28.20000      9.4383257E-09
   28.26000      8.2875680E-09
   28.32000      7.0292012E-09
   28.38000      5.7096559E-09
   28.44000      4.3806958E-09
   28.50000      3.0912437E-09
   28.56000      1.8804103E-09
   28.62000      7.7298279E-10
   28.68000     -2.2208145E-10
   28.74000     -1.1103334E-09
   28.80000     -1.9084092E-09
   28.86000     -2.6394846E-09
   28.92000     -3.3285685E-09
   28.98000     -3.9984047E-09
   29.04000     -4.6664672E-09
   29.10000     -5.3432894E-09
   29.16000     -6.0321139E-09
   29.22000     -6.7296750E-09
   29.28000     -7.4277162E-09
   29.34000     -8.1147791E-09
   29.40000     -8.7777776E-09
   29.46000     -9.4030677E-09
   29.52000     -9.9769872E-09
   29.58000     -1.0486164E-08
   29.64000     -1.0918055E-08
   29.70000     -1.1262129E-08
   29.76000     -1.1511763E-08
   29.82000     -1.1666489E-08
   29.88000     -1.1733844E-08
   29.94000     -1.1729970E-08
   30.00000     -1.1678368E-08
   30.06000     -1.1606802E-08
   30.12000     -1.1542974E-08
   30.18000     -1.1510115E-08
   30.24000     -1.1523674E-08
   30.30000     -1.1590010E-08
   30.36000     -1.1707271E-08
   30.42000     -1.1868027E-08
   30.48000     -1.2062664E-08
   30.54000     -1.2282454E-08
   30.60000     -1.2521449E-08
   30.66000     -1.2776836E-08
   30.72000     -1.3047913E-08
   30.78000     -1.3334224E-08
   30.84000     -1.3633549E-08
   30.90000     -1.3940375E-08
   30.96000     -1.4245282E-08
   31.02000     -1.4535390E-08
   31.08000     -1.4795821E-08
   31.14000     -1.5011951E-08
   31.20000     -1.5172017E-08
   31.26000     -1.5269643E-08
   31.32000     -1.5305645E-08
   31.38000     -1.5288633E-08
   31.44000     -1.5233987E-08
   31.50000     -1.5161193E-08
   31.56000     -1.5089858E-08
   31.62000     -1.5035218E-08
   31.68000     -1.5004185E-08
   31.74000     -1.4993047E-08
   31.80000     -1.4987579E-08
   31.86000     -1.4965835E-08
   31.92000     -1.4903101E-08
   31.98000     -1.4777897E-08
   32.04000     -1.4577513E-08
   32.10000     -1.4301638E-08
   32.16000     -1.3963063E-08
   32.22000     -1.3585266E-08
   32.28000     -1.3197498E-08
   32.34000     -1.2828703E-08
   32.40000     -1.2501872E-08
   32.46000     -1.2230262E-08
   32.52000     -1.2016287E-08
   32.58000     -1.1853180E-08
   32.64000     -1.1728687E-08
   32.70000     -1.1629640E-08
   32.76000     -1.1546125E-08
   32.82000     -1.1474241E-08
   32.88000     -1.1416921E-08
   32.94000     -1.1382867E-08
   33.00000     -1.1384114E-08
   33.06000     -1.1432980E-08
   33.12000     -1.1539186E-08
   33.18000     -1.1707798E-08
   33.24000     -1.1938322E-08
   33.30000     -1.2225049E-08
   33.36000     -1.2558458E-08
   33.42000     -1.2927334E-08
   33.48000     -1.3321159E-08
   33.54000     -1.3732350E-08
   33.60000     -1.4157946E-08
   33.66000     -1.4600478E-08
   33.72000     -1.5067872E-08
   33.78000     -1.5572361E-08
   33.84000     -1.6128588E-08
   33.90000     -1.6751111E-08
   33.96000     -1.7451759E-08
   34.02000     -1.8237236E-08
   34.08000     -1.9107411E-08
   34.14000     -2.0054683E-08
   34.20000     -2.1064533E-08
   34.26000     -2.2117273E-08
   34.32000     -2.3190637E-08
   34.38000     -2.4262775E-08
   34.44000     -2.5314982E-08
   34.50000     -2.6333655E-08
   34.56000     -2.7311009E-08
   34.62000     -2.8244495E-08
   34.68000     -2.9135075E-08
   34.74000     -2.9984896E-08
   34.80000     -3.0795025E-08
   34.86000     -3.1563964E-08
   34.92000     -3.2287474E-08
   34.98000     -3.2959889E-08
   35.04000     -3.3576665E-08
   35.10000     -3.4137411E-08
   35.16000     -3.4648483E-08
   35.22000     -3.5124103E-08
   35.28000     -3.5585355E-08
   35.34000     -3.6056903E-08
   35.40000     -3.6562135E-08
   35.46000     -3.7117776E-08
   35.52000     -3.7729674E-08
   35.58000     -3.8390823E-08
   35.64000     -3.9082600E-08
   35.70000     -3.9778847E-08
   35.76000     -4.0451965E-08
   35.82000     -4.1079318E-08
   35.88000     -4.1648274E-08
   35.94000     -4.2158621E-08
   36.00000     -4.2621778E-08
   36.06000     -4.3057213E-08
   36.12000     -4.3487201E-08
   36.18000     -4.3931340E-08
   36.24000     -4.4402267E-08
   36.30000     -4.4903448E-08
   36.36000     -4.5429299E-08
   36.42000     -4.5967262E-08
   36.48000     -4.6501043E-08
   36.54000     -4.7014090E-08
   36.60000     -4.7492513E-08
   36.66000     -4.7926974E-08
   36.72000     -4.8313449E-08
   36.78000     -4.8652968E-08
   36.84000     -4.8950685E-08
   36.90000     -4.9214623E-08
   36.96000     -4.9454364E-08
   37.02000     -4.9679965E-08
   37.08000     -4.9901029E-08
   37.14000     -5.0125983E-08
   37.20000     -5.0361326E-08
   37.26000     -5.0610645E-08
   37.32000     -5.0873368E-08
   37.38000     -5.1143164E-08
   37.44000     -5.1406399E-08
   37.50000     -5.1641045E-08
   37.56000     -5.1816745E-08
   37.62000     -5.1896428E-08
   37.68000     -5.1839770E-08
   37.74000     -5.1608115E-08
   37.80000     -5.1170122E-08
   37.86000     -5.0506834E-08
   37.92000     -4.9615078E-08
   37.98000     -4.8508170E-08
   38.04000     -4.7213621E-08
   38.10000     -4.5768267E-08
   38.16000     -4.4211809E-08
   38.22000     -4.2580137E-08
   38.28000     -4.0899831E-08
   38.34000     -3.9184822E-08
   38.40000     -3.7435591E-08
   38.46000     -3.5640809E-08
   38.52000     -3.3780726E-08
   38.58000     -3.1831462E-08
   38.64000     -2.9769344E-08
   38.70000     -2.7574655E-08
   38.76000     -2.5234419E-08
   38.82000     -2.2744112E-08
   38.88000     -2.0108384E-08
   38.94000     -1.7340945E-08
   39.00000     -1.4463788E-08
   39.06000     -1.1505858E-08
   39.12000     -8.5012886E-09
   39.18000     -5.4872835E-09
   39.24000     -2.5017772E-09
   39.30000      4.1892889E-10
   39.36000      3.2423166E-09
   39.42000      5.9413390E-09
   39.48000      8.4954355E-09
   39.54000      1.0890775E-08
   39.60000      1.3119717E-08
   39.66000      1.5179586E-08
   39.72000      1.7070906E-08
   39.78000      1.8795259E-08
   39.84000      2.0352910E-08
   39.90000      2.1740508E-08
   39.96000      2.2949148E-08
   40.02000      2.3963352E-08
   40.08000      2.4761427E-08
   40.14000      2.5317609E-08
   40.20000      2.5605994E-08
   40.26000      2.5605738E-08
   40.32000      2.5306498E-08
   40.38000      2.4712831E-08
   40.44000      2.3846313E-08
   40.50000      2.2744690E-08
   40.56000      2.1458101E-08
   40.62000      2.0043222E-08
   40.68000      1.8556639E-08
   40.74000      1.7048896E-08
   40.80000      1.5560300E-08
   40.86000      1.4118983E-08
   40.92000      1.2741102E-08
   40.98000      1.1432638E-08
   41.04000      1.0192107E-08
   41.10000      9.0134735E-09
   41.16000      7.8888069E-09
   41.22000      6.8103216E-09
   41.28000      5.7715810E-09
   41.34000      4.7677382E-09
   41.40000      3.7948080E-09
   41.46000      2.8481604E-09
   41.52000      1.9206079E-09
   41.58000      1.0006111E-09
   41.64000      7.1114295E-11
   41.70000     -8.9065449E-10
   41.76000     -1.9123587E-09
   41.82000     -3.0249347E-09
   41.88000     -4.2605715E-09
   41.94000     -5.6506626E-09
   42.00000     -7.2239521E-09
   42.06000     -9.0048990E-09
   42.12000     -1.1012156E-08
   42.18000     -1.3257119E-08
   42.24000     -1.5742668E-08
   42.30000     -1.8462448E-08
   42.36000     -2.1401187E-08
   42.42000     -2.4536490E-08
   42.48000     -2.7842182E-08
   42.54000     -3.1292842E-08
   42.60000     -3.4868702E-08
   42.66000     -3.8559683E-08
   42.72000     -4.2367546E-08
   42.78000     -4.6305455E-08
   42.84000     -5.0395059E-08
   42.90000     -5.4661989E-08
   42.96000     -5.9131366E-08
   43.02000     -6.3824956E-08
   43.08000     -6.8761388E-08
   43.14000     -7.3959832E-08
   43.20000     -7.9446579E-08
   43.26000     -8.5262982E-08
   43.32000     -9.1473019E-08
   43.38000     -9.8168663E-08
   43.44000     -1.0547249E-07
   43.50000     -1.1353760E-07
   43.56000     -1.2254623E-07
   43.62000     -1.3270859E-07
   43.68000     -1.4426378E-07
   43.74000     -1.5748331E-07
   43.80000     -1.7267790E-07
   43.86000     -1.9020629E-07
   43.92000     -2.1048550E-07
   43.98000     -2.3400078E-07
   44.04000     -2.6131511E-07
   44.10000     -2.9307685E-07
   44.16000     -3.3002672E-07
   44.22000     -3.7300418E-07
   44.28000     -4.2295437E-07
   44.34000     -4.8093676E-07
   44.40000     -5.4813626E-07
   44.46000     -6.2587714E-07
   44.52000     -7.1564000E-07
   44.58000     -8.1908081E-07
   44.64000     -9.3805107E-07
   44.70000     -1.0746186E-06
   44.76000     -1.2310855E-06
   44.82000     -1.4100067E-06
   44.88000     -1.6142041E-06
   44.94000     -1.8467828E-06
   45.00000     -2.1111448E-06
   45.06000     -2.4110059E-06
   45.12000     -2.7504136E-06
   45.18000     -3.1337670E-06
   45.24000     -3.5658397E-06
   45.30000     -4.0518003E-06
   45.36000     -4.5972356E-06
   45.42000     -5.2081664E-06
   45.48000     -5.8910646E-06
   45.54000     -6.6528619E-06
   45.60000     -7.5009539E-06
   45.66000     -8.4432004E-06
   45.72000     -9.4879188E-06
   45.78000     -1.0643873E-05
   45.84000     -1.1920263E-05
   45.90000     -1.3326708E-05
   45.96000     -1.4873222E-05
   46.02000     -1.6570200E-05
   46.08000     -1.8428385E-05
   46.14000     -2.0458841E-05
   46.20000     -2.2672908E-05
   46.26000     -2.5082163E-05
   46.32000     -2.7698348E-05
   46.38000     -3.0533312E-05
   46.44000     -3.3598932E-05
   46.50000     -3.6907008E-05
   46.56000     -4.0469196E-05
   46.62000     -4.4296878E-05
   46.68000     -4.8401067E-05
   46.74000     -5.2792308E-05
   46.80000     -5.7480538E-05
   46.86000     -6.2475017E-05
   46.92000     -6.7784182E-05
   46.98000     -7.3415511E-05
   47.04000     -7.9375459E-05
   47.10000     -8.5669300E-05
   47.16000     -9.2301038E-05
   47.22000     -9.9273260E-05
   47.28000     -1.0658705E-04
   47.34000     -1.1424191E-04
   47.40000     -1.2223561E-04
   47.46000     -1.3056415E-04
   47.52000     -1.3922167E-04
   47.58000     -1.4820042E-04
   47.64000     -1.5749069E-04
   47.70000     -1.6708083E-04
   47.76000     -1.7695717E-04
   47.82000     -1.8710410E-04
   47.88000     -1.9750412E-04
   47.94000     -2.0813788E-04
   48.00000     -2.1898421E-04
   48.06000     -2.3002032E-04
   48.12000     -2.4122196E-04
   48.18000     -2.5256342E-04
   48.24000     -2.6401784E-04
   48.30000     -2.7555734E-04
   48.36000     -2.8715323E-04
   48.42000     -2.9877623E-04
   48.48000     -3.1039675E-04
   48.54000     -3.2198514E-04
   48.60000     -3.3351182E-04
   48.66000     -3.4494777E-04
   48.72000     -3.5626450E-04
   48.78000     -3.6743455E-04
   48.84000     -3.7843164E-04
   48.90000     -3.8923096E-04
   48.96000     -3.9980953E-04
   49.02000     -4.1014623E-04
   49.08000     -4.2022218E-04
   49.14000     -4.3002094E-04
   49.20000     -4.3952858E-04
   49.26000     -4.4873403E-04
   49.32000     -4.5762901E-04
   49.38000     -4.6620809E-04
   49.44000     -4.7446878E-04
   49.50000     -4.8241147E-04
   49.56000     -4.9003953E-04
   49.62000     -4.9735914E-04
   49.68000     -5.0437916E-04
   49.74000     -5.1111111E-04
   49.80000     -5.1756902E-04
   49.86000     -5.2376895E-04
   49.92000     -5.2972889E-04
   49.98000     -5.3546869E-04
   50.04000     -5.4100936E-04
   50.10000     -5.4637314E-04
   50.16000     -5.5158290E-04
   50.22000     -5.5666204E-04
   50.28000     -5.6163385E-04
   50.34000     -5.6652119E-04
   50.40000     -5.7134643E-04
   50.46000     -5.7613052E-04
   50.52000     -5.8089313E-04
   50.58000     -5.8565207E-04
   50.64000     -5.9042312E-04
   50.70000     -5.9521978E-04
   50.76000     -6.0005276E-04
   50.82000     -6.0493016E-04
   50.88000     -6.0985715E-04
   50.94000     -6.1483559E-04
   51.00000     -6.1986421E-04
   51.06000     -6.2493846E-04
   51.12000     -6.3005066E-04
   51.18000     -6.3519011E-04
   51.24000     -6.4034283E-04
   51.30000     -6.4549211E-04
   51.36000     -6.5061857E-04
   51.42000     -6.5570045E-04
   51.48000     -6.6071376E-04
   51.54000     -6.6563260E-04
   51.60000     -6.7042996E-04
   51.66000     -6.7507749E-04
   51.72000     -6.7954656E-04
   51.78000     -6.8380794E-04
   51.84000     -6.8783300E-04
   51.90000     -6.9159345E-04
   51.96000     -6.9506210E-04
   52.02000     -6.9821317E-04
   52.08000     -7.0102268E-04
   52.14000     -7.0346909E-04
   52.20000     -7.0553325E-04
   52.26000     -7.0719904E-04
   52.32000     -7.0845359E-04
   52.38000     -7.0928747E-04
   52.44000     -7.0969481E-04
   52.50000     -7.0967339E-04
   52.56000     -7.0922478E-04
   52.62000     -7.0835446E-04
   52.68000     -7.0707151E-04
   52.74000     -7.0538872E-04
   52.80000     -7.0332253E-04
   52.86000     -7.0089259E-04
   52.92000     -6.9812190E-04
   52.98000     -6.9503603E-04
   53.04000     -6.9166336E-04
   53.10000     -6.8803388E-04
   53.16000     -6.8417971E-04
   53.22000     -6.8013387E-04
   53.28000     -6.7593035E-04
   53.34000     -6.7160343E-04
   53.40000     -6.6718744E-04
   53.46000     -6.6271611E-04
   53.52000     -6.5822218E-04
   53.58000     -6.5373699E-04
   53.64000     -6.4928998E-04
   53.70000     -6.4490817E-04
   53.76000     -6.4061605E-04
   53.82000     -6.3643506E-04
   53.88000     -6.3238345E-04
   53.94000     -6.2847603E-04
   54.00000     -6.2472420E-04
   54.06000     -6.2113540E-04
   54.12000     -6.1771326E-04
   54.18000     -6.1445753E-04
   54.24000     -6.1136397E-04
   54.30000     -6.0842448E-04
   54.36000     -6.0562737E-04
   54.42000     -6.0295768E-04
   54.48000     -6.0039718E-04
   54.54000     -5.9792498E-04
   54.60000     -5.9551769E-04
   54.66000     -5.9314957E-04
   54.72000     -5.9079309E-04
   54.78000     -5.8841921E-04
   54.84000     -5.8599777E-04
   54.90000     -5.8349810E-04
   54.96000     -5.8088964E-04
   55.02000     -5.7814200E-04
   55.08000     -5.7522568E-04
   55.14000     -5.7211239E-04
   55.20000     -5.6877534E-04
   55.26000     -5.6518946E-04
   55.32000     -5.6133210E-04
   55.38000     -5.5718288E-04
   55.44000     -5.5272417E-04
   55.50000     -5.4794166E-04
   55.56000     -5.4282387E-04