  -2.400000      0.0000000E+00
  -2.340000      0.0000000E+00
  -2.280000      0.0000000E+00
  -2.220000      0.0000000E+00
  -2.160000     -2.5475978E-18
  -2.100000     -1.3675440E-17
  -2.040000     -3.0057543E-17
  -1.980000     -8.0703008E-18
  -1.920000      1.6247491E-16
  -1.860000      6.3159568E-16
  -1.800000      1.4693172E-15
  -1.740000      2.4707574E-15
  -1.680000      2.9896481E-15
  -1.620000      1.9613596E-15
  -1.560000     -1.7507357E-15
  -1.500000     -8.6824621E-15
  -1.440000     -1.7961559E-14
  -1.380000     -2.6733168E-14
  -1.320000     -3.0249678E-14
  -1.260000     -2.2948887E-14
  -1.200000     -5.5540707E-16
  -1.140000      3.7185021E-14
  -1.080000      8.3991516E-14
  -1.020000      1.2595273E-13
 -0.9600000      1.4307627E-13
 -0.9000000      1.1422582E-13
 -0.8400000      2.5115584E-14
 -0.7800000     -1.2246508E-13
 -0.7200000     -3.0346228E-13
 -0.6600000     -4.6833062E-13
 -0.6000000     -5.5089744E-13
 -0.5400000     -4.8592022E-13
 -0.4800000     -2.3315556E-13
 -0.4200000      1.9903401E-13
 -0.3600000      7.3962012E-13
 -0.3000000      1.2584806E-12
 -0.2400000      1.5911323E-12
 -0.1800000      1.5810866E-12
 -0.1200000      1.1291068E-12
 -5.9999999E-02  2.3431539E-13
  0.0000000E+00 -9.8703977E-13
  5.9999999E-02 -2.3128350E-12
  0.1200000     -3.4538509E-12
  0.1800000     -4.1078482E-12
  0.2400000     -4.0120550E-12
  0.3000000     -2.9807021E-12
  0.3600000     -9.2547053E-13
  0.4200000      2.1291484E-12
  0.4800000      6.0145907E-12
  0.5400000      1.0354172E-11
  0.6000000      1.4470327E-11
  0.6600000      1.7300762E-11
  0.7200000      1.7394319E-11
  0.7800000      1.3071514E-11
  0.8400000      2.8127741E-12
  0.9000000     -1.4127557E-11
  0.9600000     -3.6981054E-11
   1.020000     -6.2800626E-11
   1.080000     -8.6139887E-11
   1.140000     -9.9338288E-11
   1.200000     -9.3573892E-11
   1.260000     -6.0662760E-11
   1.320000      4.6398792E-12
   1.380000      1.0228067E-10
   1.440000      2.2504236E-10
   1.500000      3.5769065E-10
   1.560000      4.7747634E-10
   1.620000      5.5605126E-10
   1.680000      5.6254285E-10
   1.740000      4.6727194E-10
   1.800000      2.4546731E-10
   1.860000     -1.1963547E-10
   1.920000     -6.3475025E-10
   1.980000     -1.2957240E-09
   2.040000     -2.0878532E-09
   2.100000     -2.9870471E-09
   2.160000     -3.9614725E-09
   2.220000     -4.9733746E-09
   2.280000     -5.9809033E-09
   2.340000     -6.9399300E-09
   2.400000     -7.8059488E-09
   2.460000     -8.5361611E-09
   2.520000     -9.0917522E-09
   2.580000     -9.4402024E-09
   2.640000     -9.5573283E-09
   2.700000     -9.4286552E-09
   2.760000     -9.0497734E-09
   2.820000     -8.4255314E-09
   2.880000     -7.5681639E-09
   2.940000     -6.4947532E-09
   3.000000     -5.2246412E-09
   3.060000     -3.7774113E-09
   3.120000     -2.1719366E-09
   3.180000     -4.2665582E-10
   3.240000      1.4391536E-09
   3.300000      3.4036782E-09
   3.360000      5.4412017E-09
   3.420000      7.5217628E-09
   3.480000      9.6122221E-09
   3.540000      1.1678654E-08
   3.600000      1.3689485E-08
   3.660000      1.5618445E-08
   3.720000      1.7446355E-08
   3.780000      1.9161032E-08
   3.840000      2.0755097E-08
   3.900000      2.2222244E-08
   3.960000      2.3553026E-08
   4.020000      2.4731547E-08
   4.080000      2.5734298E-08
   4.140000      2.6531893E-08
   4.200000      2.7093531E-08
   4.260000      2.7393289E-08
   4.320000      2.7416601E-08
   4.380000      2.7165228E-08
   4.440000      2.6659270E-08
   4.500000      2.5935634E-08
   4.560000      2.5043299E-08
   4.620000      2.4036645E-08
   4.680000      2.2968518E-08
   4.740000      2.1884766E-08
   4.800000      2.0821352E-08
   4.860000      1.9804340E-08
   4.920000      1.8852125E-08
   4.980000      1.7978758E-08
   5.040000      1.7196934E-08
   5.100000      1.6519627E-08
   5.160000      1.5959913E-08
   5.220000      1.5529226E-08
   5.280000      1.5234830E-08
   5.340000      1.5077564E-08
   5.400000      1.5050695E-08
   5.460000      1.5140460E-08
   5.520000      1.5328254E-08
   5.580000      1.5594059E-08
   5.640000      1.5920316E-08
   5.700000      1.6295344E-08
   5.760000      1.6715495E-08
   5.820000      1.7185460E-08
   5.880000      1.7716498E-08
   5.940000      1.8322838E-08
   6.000000      1.9016843E-08
   6.060000      1.9803895E-08
   6.120000      2.0678051E-08
   6.180000      2.1619424E-08
   6.240000      2.2594000E-08
   6.300000      2.3556032E-08
   6.360000      2.4452753E-08
   6.420000      2.5230543E-08
   6.480000      2.5841452E-08
   6.540000      2.6248824E-08
   6.600000      2.6430962E-08
   6.660000      2.6382155E-08
   6.720000      2.6110923E-08
   6.780000      2.5635980E-08
   6.840000      2.4980794E-08
   6.900000      2.4167910E-08
   6.960000      2.3214099E-08
   7.020000      2.2127093E-08
   7.080000      2.0904276E-08
   7.140000      1.9533267E-08
   7.200000      1.7994171E-08
   7.260000      1.6263114E-08
   7.320000      1.4316758E-08
   7.380000      1.2137359E-08
   7.440000      9.7177928E-09
   7.500000      7.0656818E-09
   7.560000      4.2055386E-09
   7.620000      1.1779480E-09
   7.680000     -1.9647433E-09
   7.740000     -5.1658393E-09
   7.800000     -8.3734077E-09
   7.860000     -1.1548885E-08
   7.920000     -1.4672769E-08
   7.980000     -1.7745585E-08
   8.040000     -2.0783604E-08
   8.100000     -2.3810355E-08
   8.160000     -2.6846298E-08
   8.220000     -2.9899677E-08
   8.280000     -3.2961083E-08
   8.340000     -3.6003183E-08
   8.400000     -3.8985299E-08
   8.460000     -4.1861078E-08
   8.520000     -4.4586827E-08
   8.580000     -4.7127926E-08
   8.640000     -4.9462027E-08
   8.700000     -5.1578716E-08
   8.760000     -5.3476661E-08
   8.820000     -5.5159795E-08
   8.880000     -5.6633954E-08
   8.940000     -5.7904682E-08
   9.000000     -5.8976202E-08
   9.060000     -5.9850862E-08
   9.120000     -6.0528620E-08
   9.180000     -6.1006226E-08
   9.240000     -6.1276715E-08
   9.300000     -6.1330013E-08
   9.360000     -6.1155347E-08
   9.420000     -6.0745357E-08
   9.480000     -6.0101272E-08
   9.540000     -5.9237244E-08
   9.600000     -5.8182334E-08
   9.660000     -5.6978802E-08
   9.720000     -5.5676786E-08
   9.780000     -5.4326438E-08
   9.840000     -5.2969725E-08
   9.900000     -5.1634000E-08
   9.960000     -5.0329195E-08
   10.02000     -4.9049095E-08
   10.08000     -4.7776222E-08
   10.14000     -4.6488740E-08
   10.20000     -4.5167578E-08
   10.26000     -4.3802121E-08
   10.32000     -4.2393491E-08
   10.38000     -4.0955268E-08
   10.44000     -3.9512187E-08
   10.50000     -3.8097578E-08
   10.56000     -3.6750325E-08
   10.62000     -3.5511835E-08
   10.68000     -3.4423049E-08
   10.74000     -3.3521300E-08
   10.80000     -3.2836873E-08
   10.86000     -3.2389249E-08
   10.92000     -3.2183486E-08
   10.98000     -3.2207499E-08
   11.04000     -3.2431036E-08
   11.10000     -3.2806909E-08
   11.16000     -3.3274596E-08
   11.22000     -3.3765623E-08
   11.28000     -3.4209847E-08
   11.34000     -3.4541472E-08
   11.40000     -3.4703895E-08
   11.46000     -3.4652984E-08
   11.52000     -3.4358727E-08
   11.58000     -3.3805620E-08
   11.64000     -3.2992158E-08
   11.70000     -3.1929524E-08
   11.76000     -3.0639566E-08
   11.82000     -2.9151805E-08
   11.88000     -2.7499569E-08
   11.94000     -2.5715609E-08
   12.00000     -2.3827972E-08
   12.06000     -2.1857165E-08
   12.12000     -1.9815385E-08
   12.18000     -1.7708167E-08
   12.24000     -1.5538014E-08
   12.30000     -1.3308921E-08
   12.36000     -1.1030457E-08
   12.42000     -8.7201819E-09
   12.48000     -6.4038739E-09
   12.54000     -4.1137347E-09
   12.60000     -1.8853716E-09
   12.66000      2.4545571E-10
   12.72000      2.2455737E-09
   12.78000      4.0863810E-09
   12.84000      5.7453233E-09
   12.90000      7.2072930E-09
   12.96000      8.4661975E-09
   13.02000      9.5264623E-09
   13.08000      1.0403814E-08
   13.14000      1.1124516E-08
   13.20000      1.1722573E-08
   13.26000      1.2235084E-08
   13.32000      1.2696701E-08
   13.38000      1.3134659E-08
   13.44000      1.3565782E-08
   13.50000      1.3996395E-08
   13.56000      1.4425056E-08
   13.62000      1.4847211E-08
   13.68000      1.5260246E-08
   13.74000      1.5667389E-08
   13.80000      1.6079335E-08
   13.86000      1.6513230E-08
   13.92000      1.6989409E-08
   13.98000      1.7526917E-08
   14.04000      1.8139078E-08
   14.10000      1.8830344E-08
   14.16000      1.9595292E-08
   14.22000      2.0420039E-08
   14.28000      2.1285762E-08
   14.34000      2.2173404E-08
   14.40000      2.3068296E-08
   14.46000      2.3963358E-08
   14.52000      2.4859892E-08
   14.58000      2.5765672E-08
   14.64000      2.6690751E-08
   14.70000      2.7642267E-08
   14.76000      2.8619763E-08
   14.82000      2.9612519E-08
   14.88000      3.0599768E-08
   14.94000      3.1553849E-08
   15.00000      3.2445467E-08
   15.06000      3.3249567E-08
   15.12000      3.3950286E-08
   15.18000      3.4543547E-08
   15.24000      3.5036681E-08
   15.30000      3.5445257E-08
   15.36000      3.5788052E-08
   15.42000      3.6081680E-08
   15.48000      3.6336502E-08
   15.54000      3.6555075E-08
   15.60000      3.6733670E-08
   15.66000      3.6866460E-08
   15.72000      3.6951029E-08
   15.78000      3.6993281E-08
   15.84000      3.7009883E-08
   15.90000      3.7027107E-08
   15.96000      3.7075964E-08
   16.02000      3.7185053E-08
   16.08000      3.7373372E-08
   16.14000      3.7645577E-08
   16.20000      3.7991484E-08
   16.26000      3.8390187E-08
   16.32000      3.8817348E-08
   16.38000      3.9253184E-08
   16.44000      3.9688064E-08
   16.50000      4.0123719E-08
   16.56000      4.0569457E-08
   16.62000      4.1034919E-08
   16.68000      4.1522025E-08
   16.74000      4.2019160E-08
   16.80000      4.2499913E-08
   16.86000      4.2926665E-08
   16.92000      4.3257884E-08
   16.98000      4.3456449E-08
   17.04000      4.3496385E-08
   17.10000      4.3366018E-08
   17.16000      4.3067093E-08
   17.22000      4.2610832E-08
   17.28000      4.2012704E-08
   17.34000      4.1287979E-08
   17.40000      4.0449336E-08
   17.46000      3.9506979E-08
   17.52000      3.8470663E-08
   17.58000      3.7352510E-08
   17.64000      3.6169276E-08
   17.70000      3.4943042E-08
   17.76000      3.3699791E-08
   17.82000      3.2465966E-08
   17.88000      3.1263696E-08
   17.94000      3.0105845E-08
   18.00000      2.8992241E-08
   18.06000      2.7908316E-08
   18.12000      2.6826941E-08
   18.18000      2.5713430E-08
   18.24000      2.4532731E-08
   18.30000      2.3257115E-08
   18.36000      2.1872289E-08
   18.42000      2.0380165E-08
   18.48000      1.8797396E-08
   18.54000      1.7149967E-08
   18.60000      1.5465394E-08
   18.66000      1.3764818E-08
   18.72000      1.2057366E-08
   18.78000      1.0338564E-08
   18.84000      8.5933207E-09
   18.90000      6.8026429E-09
   18.96000      4.9520508E-09
   19.02000      3.0391225E-09
   19.08000      1.0777799E-09
   19.14000     -9.0206476E-10
   19.20000     -2.8594787E-09
   19.26000     -4.7506141E-09
   19.32000     -6.5374968E-09
   19.38000     -8.1948635E-09
   19.44000     -9.7131414E-09
   19.50000     -1.1097037E-08
   19.56000     -1.2360819E-08
   19.62000     -1.3522531E-08
   19.68000     -1.4599779E-08
   19.74000     -1.5609054E-08
   19.80000     -1.6569075E-08
   19.86000     -1.7506952E-08
   19.92000     -1.8464533E-08
   19.98000     -1.9501808E-08
   20.04000     -2.0694948E-08
   20.10000     -2.2128043E-08
   20.16000     -2.3879641E-08
   20.22000     -2.6007006E-08
   20.28000     -2.8531902E-08
   20.34000     -3.1431583E-08
   20.40000     -3.4637416E-08
   20.46000     -3.8041559E-08
   20.52000     -4.1510244E-08
   20.58000     -4.4900485E-08
   20.64000     -4.8076586E-08
   20.70000     -5.0923212E-08
   20.76000     -5.3352988E-08
   20.82000     -5.5308465E-08
   20.88000     -5.6759685E-08
   20.94000     -5.7699673E-08
   21.00000     -5.8140238E-08
   21.06000     -5.8109642E-08
   21.12000     -5.7652500E-08
   21.18000     -5.6830917E-08
   21.24000     -5.5724989E-08
   21.30000     -5.4430846E-08
   21.36000     -5.3055004E-08
   21.42000     -5.1705204E-08
   21.48000     -5.0479191E-08
   21.54000     -4.9453892E-08
   21.60000     -4.8677457E-08
   21.66000     -4.8166143E-08
   21.72000     -4.7906695E-08
   21.78000     -4.7863448E-08
   21.84000     -4.7988323E-08
   21.90000     -4.8231243E-08
   21.96000     -4.8548667E-08
   22.02000     -4.8908614E-08
   22.08000     -4.9291614E-08
   22.14000     -4.9688197E-08
   22.20000     -5.0094215E-08
   22.26000     -5.0505843E-08
   22.32000     -5.0915958E-08
   22.38000     -5.1313101E-08
   22.44000     -5.1683223E-08
   22.50000     -5.2013565E-08
   22.56000     -5.2297310E-08
   22.62000     -5.2537306E-08
   22.68000     -5.2747492E-08
   22.74000     -5.2951336E-08
   22.80000     -5.3177704E-08
   22.86000     -5.3455203E-08
   22.92000     -5.3806673E-08
   22.98000     -5.4245255E-08
   23.04000     -5.4772876E-08
   23.10000     -5.5381182E-08
   23.16000     -5.6054123E-08
   23.22000     -5.6771004E-08
   23.28000     -5.7508903E-08
   23.34000     -5.8243728E-08
   23.40000     -5.8950018E-08
   23.46000     -5.9600016E-08
   23.52000     -6.0163053E-08
   23.58000     -6.0606169E-08
   23.64000     -6.0896490E-08
   23.70000     -6.1005252E-08
   23.76000     -6.0912754E-08
   23.82000     -6.0612948E-08
   23.88000     -6.0116349E-08
   23.94000     -5.9450116E-08
   24.00000     -5.8654972E-08
   24.06000     -5.7779236E-08
   24.12000     -5.6871265E-08
   24.18000     -5.5971888E-08
   24.24000     -5.5108597E-08
   24.30000     -5.4292812E-08
   24.36000     -5.3520559E-08
   24.42000     -5.2776123E-08
   24.48000     -5.2037400E-08
   24.54000     -5.1281184E-08
   24.60000     -5.0486982E-08
   24.66000     -4.9638469E-08
   24.72000     -4.8722587E-08
   24.78000     -4.7727251E-08
   24.84000     -4.6639048E-08
   24.90000     -4.5442352E-08
   24.96000     -4.4120732E-08
   25.02000     -4.2660623E-08
   25.08000     -4.1056190E-08
   25.14000     -3.9313818E-08
   25.20000     -3.7454416E-08
   25.26000     -3.5512507E-08
   25.32000     -3.3531851E-08
   25.38000     -3.1558763E-08
   25.44000     -2.9634839E-08
   25.50000     -2.7791192E-08
   25.56000     -2.6045688E-08
   25.62000     -2.4403652E-08
   25.68000     -2.2861354E-08
   25.74000     -2.1410704E-08
   25.80000     -2.0043483E-08
   25.86000     -1.8753749E-08
   25.92000     -1.7538138E-08
   25.98000     -1.6394667E-08
   26.04000     -1.5321284E-08
   26.10000     -1.4315367E-08
   26.16000     -1.3374834E-08
   26.22000     -1.2500498E-08
   26.28000     -1.1698638E-08
   26.34000     -1.0982367E-08
   26.40000     -1.0370742E-08
   26.46000     -9.8854134E-09
   26.52000     -9.5455981E-09
   26.58000     -9.3628758E-09
   26.64000     -9.3375103E-09
   26.70000     -9.4574872E-09
   26.76000     -9.7005906E-09
   26.82000     -1.0038801E-08
   26.88000     -1.0443658E-08
   26.94000     -1.0890966E-08
   27.00000     -1.1363629E-08
   27.06000     -1.1852057E-08
   27.12000     -1.2352407E-08
   27.18000     -1.2863546E-08
   27.24000     -1.3383888E-08
   27.30000     -1.3909166E-08
   27.36000     -1.4431777E-08
   27.42000     -1.4941792E-08
   27.48000     -1.5429112E-08
   27.54000     -1.5885890E-08
   27.60000     -1.6308183E-08
   27.66000     -1.6696086E-08
   27.72000     -1.7052059E-08
   27.78000     -1.7377934E-08
   27.84000     -1.7671541E-08
   27.90000     -1.7924304E-08
   27.96000     -1.8120833E-08
   28.02000     -1.8241028E-08
   28.08000     -1.8264261E-08
   28.14000     -1.8174473E-08
   28.20000     -1.7964656E-08
   28.26000     -1.7639298E-08
   28.32000     -1.7214035E-08
   28.38000     -1.6712630E-08
   28.44000     -1.6162193E-08
   28.50000     -1.5588011E-08
   28.56000     -1.5009309E-08
   28.62000     -1.4436917E-08
   28.68000     -1.3873136E-08
   28.74000     -1.3313534E-08
   28.80000     -1.2749943E-08
   28.86000     -1.2173738E-08
   28.92000     -1.1578519E-08
   28.98000     -1.0961550E-08
   29.04000     -1.0323713E-08
   29.10000     -9.6681596E-09
   29.16000     -8.9983185E-09
   29.22000     -8.3161185E-09
   29.28000     -7.6213329E-09
   29.34000     -6.9125186E-09
   29.40000     -6.1894121E-09
   29.46000     -5.4559597E-09
   29.52000     -4.7226929E-09
   29.58000     -4.0072172E-09
   29.64000     -3.3321452E-09
   29.70000     -2.7207643E-09
   29.76000     -2.1916828E-09
   29.82000     -1.7542868E-09
   29.88000     -1.4067151E-09
   29.94000     -1.1372875E-09
   30.00000     -9.2911223E-10
   30.06000     -7.6642015E-10
   30.12000     -6.4050543E-10
   30.18000     -5.5323340E-10
   30.24000     -5.1690624E-10
   30.30000     -5.5055277E-10
   30.36000     -6.7393974E-10
   30.42000     -9.0136015E-10
   30.48000     -1.2372799E-09
   30.54000     -1.6752280E-09
   30.60000     -2.2001747E-09
   30.66000     -2.7934894E-09
   30.72000     -3.4387555E-09
   30.78000     -4.1265356E-09
   30.84000     -4.8566093E-09
   30.90000     -5.6370726E-09
   30.96000     -6.4806831E-09
   31.02000     -7.3996582E-09
   31.08000     -8.4005354E-09
   31.14000     -9.4805950E-09
   31.20000     -1.0626840E-08
   31.26000     -1.1817743E-08
   31.32000     -1.3027162E-08
   31.38000     -1.4229260E-08
   31.44000     -1.5403058E-08
   31.50000     -1.6535454E-08
   31.56000     -1.7622154E-08
   31.62000     -1.8666599E-08
   31.68000     -1.9677652E-08
   31.74000     -2.0667036E-08
   31.80000     -2.1647447E-08
   31.86000     -2.2631728E-08
   31.92000     -2.3633000E-08
   31.98000     -2.4665102E-08
   32.04000     -2.5742597E-08
   32.10000     -2.6879835E-08
   32.16000     -2.8089021E-08
   32.22000     -2.9377755E-08
   32.28000     -3.0746815E-08
   32.34000     -3.2188876E-08
   32.40000     -3.3688657E-08
   32.46000     -3.5224446E-08
   32.52000     -3.6770661E-08
   32.58000     -3.8300836E-08
   32.64000     -3.9790507E-08
   32.70000     -4.1219462E-08
   32.76000     -4.2573262E-08
   32.82000     -4.3843990E-08
   32.88000     -4.5030347E-08
   32.94000     -4.6137409E-08
   33.00000     -4.7176187E-08
   33.06000     -4.8163173E-08
   33.12000     -4.9119713E-08
   33.18000     -5.0070959E-08
   33.24000     -5.1043838E-08
   33.30000     -5.2063825E-08
   33.36000     -5.3150472E-08
   33.42000     -5.4312448E-08
   33.48000     -5.5543371E-08
   33.54000     -5.6819928E-08
   33.60000     -5.8103563E-08
   33.66000     -5.9346025E-08
   33.72000     -6.0497811E-08
   33.78000     -6.1517426E-08
   33.84000     -6.2378930E-08
   33.90000     -6.3075412E-08
   33.96000     -6.3617570E-08
   34.02000     -6.4027880E-08
   34.08000     -6.4332291E-08
   34.14000     -6.4552445E-08
   34.20000     -6.4700544E-08
   34.26000     -6.4778341E-08
   34.32000     -6.4779968E-08
   34.38000     -6.4697183E-08
   34.44000     -6.4524848E-08
   34.50000     -6.4264903E-08
   34.56000     -6.3927651E-08
   34.62000     -6.3530535E-08
   34.68000     -6.3095214E-08
   34.74000     -6.2644233E-08
   34.80000     -6.2198175E-08
   34.86000     -6.1773896E-08
   34.92000     -6.1383787E-08
   34.98000     -6.1035529E-08
   35.04000     -6.0731900E-08
   35.10000     -6.0470413E-08
   35.16000     -6.0242961E-08
   35.22000     -6.0035681E-08
   35.28000     -5.9829617E-08
   35.34000     -5.9602179E-08
   35.40000     -5.9329412E-08
   35.46000     -5.8988480E-08
   35.52000     -5.8560023E-08
   35.58000     -5.8029773E-08
   35.64000     -5.7389457E-08
   35.70000     -5.6636996E-08
   35.76000     -5.5776507E-08
   35.82000     -5.4818354E-08
   35.88000     -5.3779392E-08
   35.94000     -5.2683085E-08
   36.00000     -5.1558946E-08
   36.06000     -5.0440654E-08
   36.12000     -4.9362647E-08
   36.18000     -4.8355595E-08
   36.24000     -4.7441798E-08
   36.30000     -4.6632032E-08
   36.36000     -4.5925191E-08
   36.42000     -4.5311189E-08
   36.48000     -4.4776492E-08
   36.54000     -4.4310450E-08
   36.60000     -4.3909925E-08
   36.66000     -4.3580069E-08
   36.72000     -4.3330164E-08
   36.78000     -4.3165404E-08
   36.84000     -4.3076902E-08
   36.90000     -4.3033531E-08
   36.96000     -4.2978694E-08
   37.02000     -4.2833996E-08
   37.08000     -4.2509427E-08
   37.14000     -4.1917716E-08
   37.20000     -4.0988859E-08
   37.26000     -3.9680895E-08
   37.32000     -3.7983973E-08
   37.38000     -3.5916983E-08
   37.44000     -3.3518344E-08
   37.50000     -3.0834268E-08
   37.56000     -2.7908392E-08
   37.62000     -2.4775979E-08
   37.68000     -2.1464077E-08
   37.74000     -1.7996911E-08
   37.80000     -1.4403925E-08
   37.86000     -1.0727173E-08
   37.92000     -7.0250037E-09
   37.98000     -3.3704211E-09
   38.04000      1.5569041E-10
   38.10000      3.4745491E-09
   38.16000      6.5197723E-09
   38.22000      9.2450145E-09
   38.28000      1.1626878E-08
   38.34000      1.3662468E-08
   38.40000      1.5362547E-08
   38.46000      1.6742538E-08
   38.52000      1.7814143E-08
   38.58000      1.8580177E-08
   38.64000      1.9034223E-08
   38.70000      1.9165212E-08
   38.76000      1.8965496E-08
   38.82000      1.8439788E-08
   38.88000      1.7611811E-08
   38.94000      1.6526140E-08
   39.00000      1.5244112E-08
   39.06000      1.3834644E-08
   39.12000      1.2362655E-08
   39.18000      1.0878795E-08
   39.24000      9.4138954E-09
   39.30000      7.9800957E-09
   39.36000      6.5782113E-09
   39.42000      5.2086517E-09
   39.48000      3.8818340E-09
   39.54000      2.6241129E-09
   39.60000      1.4768621E-09
   39.66000      4.8883142E-10
   39.72000     -2.9560637E-10
   39.78000     -8.4817625E-10
   39.84000     -1.1642303E-09
   39.90000     -1.2634279E-09
   39.96000     -1.1833333E-09
   40.02000     -9.6817132E-10
   40.08000     -6.5661643E-10
   40.14000     -2.7271729E-10
   40.20000      1.7711677E-10
   40.26000      7.0030182E-10
   40.32000      1.3090625E-09
   40.38000      2.0096138E-09
   40.44000      2.7935640E-09
   40.50000      3.6348111E-09
   40.56000      4.4933404E-09
   40.62000      5.3249822E-09
   40.68000      6.0941172E-09
   40.74000      6.7852350E-09
   40.80000      7.4094899E-09
   40.86000      8.0039380E-09
   40.92000      8.6234424E-09
   40.98000      9.3274997E-09
   41.04000      1.0165814E-08
   41.10000      1.1166703E-08
   41.16000      1.2331418E-08
   41.22000      1.3635554E-08
   41.28000      1.5036582E-08
   41.34000      1.6484837E-08
   41.40000      1.7934607E-08
   41.46000      1.9352276E-08
   41.52000      2.0719602E-08
   41.58000      2.2031854E-08
   41.64000      2.3291921E-08
   41.70000      2.4502606E-08
   41.76000      2.5659673E-08
   41.82000      2.6748010E-08
   41.88000      2.7742381E-08
   41.94000      2.8613016E-08
   42.00000      2.9334801E-08
   42.06000      2.9897638E-08
   42.12000      3.0314805E-08
   42.18000      3.0626513E-08
   42.24000      3.0897063E-08
   42.30000      3.1206099E-08
   42.36000      3.1636745E-08
   42.42000      3.2264595E-08
   42.48000      3.3151807E-08
   42.54000      3.4348922E-08
   42.60000      3.5904371E-08
   42.66000      3.7878884E-08
   42.72000      4.0360266E-08
   42.78000      4.3473939E-08
   42.84000      4.7386528E-08
   42.90000      5.2302788E-08
   42.96000      5.8458966E-08
   43.02000      6.6117508E-08
   43.08000      7.5567520E-08
   43.14000      8.7133486E-08
   43.20000      1.0119147E-07
   43.26000      1.1818960E-07
   43.32000      1.3866816E-07
   43.38000      1.6327587E-07
   43.44000      1.9278060E-07
   43.50000      2.2807684E-07
   43.56000      2.7019360E-07
   43.62000      3.2030781E-07
   43.68000      3.7976690E-07
   43.74000      4.5012160E-07
   43.80000      5.3316722E-07
   43.86000      6.3098861E-07
   43.92000      7.4600524E-07
   43.98000      8.8101234E-07
   44.04000      1.0392180E-06
   44.10000      1.2242781E-06
   44.16000      1.4403344E-06
   44.22000      1.6920601E-06
   44.28000      1.9847175E-06
   44.34000      2.3242274E-06
   44.40000      2.7172521E-06
   44.46000      3.1712837E-06
   44.52000      3.6947354E-06
   44.58000      4.2970319E-06
   44.64000      4.9886994E-06
   44.70000      5.7814505E-06
   44.76000      6.6882749E-06
   44.82000      7.7235372E-06
   44.88000      8.9030800E-06
   44.94000      1.0244336E-05
   45.00000      1.1766449E-05
   45.06000      1.3490387E-05
   45.12000      1.5439056E-05
   45.18000      1.7637405E-05
   45.24000      2.0112517E-05
   45.30000      2.2893695E-05
   45.36000      2.6012543E-05
   45.42000      2.9503035E-05
   45.48000      3.3401579E-05
   45.54000      3.7747093E-05
   45.60000      4.2581021E-05
   45.66000      4.7947371E-05
   45.72000      5.3892709E-05
   45.78000      6.0466129E-05
   45.84000      6.7719171E-05
   45.90000      7.5705750E-05
   45.96000      8.4482032E-05
   46.02000      9.4106239E-05
   46.08000      1.0463854E-04
   46.14000      1.1614073E-04
   46.20000      1.2867607E-04
   46.26000      1.4230888E-04
   46.32000      1.5710432E-04
   46.38000      1.7312783E-04
   46.44000      1.9044481E-04
   46.50000      2.0912009E-04
   46.56000      2.2921742E-04
   46.62000      2.5079891E-04
   46.68000      2.7392455E-04
   46.74000      2.9865140E-04
   46.80000      3.2503306E-04
   46.86000      3.5311902E-04
   46.92000      3.8295396E-04
   46.98000      4.1457696E-04
   47.04000      4.4802099E-04
   47.10000      4.8331197E-04
   47.16000      5.2046846E-04
   47.22000      5.5950054E-04
   47.28000      6.0040975E-04
   47.34000      6.4318802E-04
   47.40000      6.8781746E-04
   47.46000      7.3426979E-04
   47.52000      7.8250596E-04
   47.58000      8.3247601E-04
   47.64000      8.8411872E-04
   47.70000      9.3736156E-04
   47.76000      9.9212083E-04
   47.82000      1.0483015E-03
   47.88000      1.1057975E-03
   47.94000      1.1644923E-03
   48.00000      1.2242595E-03
   48.06000      1.2849626E-03
   48.12000      1.3464569E-03
   48.18000      1.4085895E-03
   48.24000      1.4712010E-03
   48.30000      1.5341258E-03
   48.36000      1.5971940E-03
   48.42000      1.6602323E-03
   48.48000      1.7230657E-03
   48.54000      1.7855186E-03
   48.60000      1.8474162E-03
   48.66000      1.9085867E-03
   48.72000      1.9688618E-03
   48.78000      2.0280792E-03
   48.84000      2.0860841E-03
   48.90000      2.1427302E-03
   48.96000      2.1978808E-03
   49.02000      2.2514113E-03
   49.08000      2.3032099E-03
   49.14000      2.3531772E-03
   49.20000      2.4012295E-03
   49.26000      2.4472985E-03
   49.32000      2.4913326E-03
   49.38000      2.5332966E-03
   49.44000      2.5731719E-03
   49.50000      2.6109577E-03
   49.56000      2.6466693E-03
   49.62000      2.6803382E-03
   49.68000      2.7120132E-03
   49.74000      2.7417568E-03
   49.80000      2.7696462E-03
   49.86000      2.7957717E-03
   49.92000      2.8202352E-03
   49.98000      2.8431488E-03
   50.04000      2.8646337E-03
   50.10000      2.8848178E-03
   50.16000      2.9038338E-03
   50.22000      2.9218171E-03
   50.28000      2.9389050E-03
   50.34000      2.9552330E-03
   50.40000      2.9709344E-03
   50.46000      2.9861371E-03
   50.52000      3.0009635E-03
   50.58000      3.0155270E-03
   50.64000      3.0299313E-03
   50.70000      3.0442683E-03
   50.76000      3.0586175E-03
   50.82000      3.0730439E-03
   50.88000      3.0875979E-03
   50.94000      3.1023140E-03
   51.00000      3.1172105E-03
   51.06000      3.1322897E-03
   51.12000      3.1475383E-03
   51.18000      3.1629263E-03
   51.24000      3.1784088E-03
   51.30000      3.1939263E-03
   51.36000      3.2094051E-03
   51.42000      3.2247596E-03
   51.48000      3.2398924E-03
   51.54000      3.2546972E-03
   51.60000      3.2690600E-03
   51.66000      3.2828606E-03
   51.72000      3.2959753E-03
   51.78000      3.3082778E-03
   51.84000      3.3196432E-03
   51.90000      3.3299478E-03
   51.96000      3.3390725E-03
   52.02000      3.3469042E-03
   52.08000      3.3533385E-03
   52.14000      3.3582798E-03
   52.20000      3.3616449E-03
   52.26000      3.3633634E-03
   52.32000      3.3633793E-03
   52.38000      3.3616512E-03
   52.44000      3.3581543E-03
   52.50000      3.3528816E-03
   52.56000      3.3458420E-03
   52.62000      3.3370617E-03
   52.68000      3.3265844E-03
   52.74000      3.3144697E-03
   52.80000      3.3007935E-03
   52.86000      3.2856469E-03
   52.92000      3.2691339E-03
   52.98000      3.2513719E-03
   53.04000      3.2324896E-03
   53.10000      3.2126245E-03
   53.16000      3.1919223E-03
   53.22000      3.1705343E-03
   53.28000      3.1486147E-03
   53.34000      3.1263195E-03
   53.40000      3.1038048E-03
   53.46000      3.0812232E-03
   53.52000      3.0587232E-03
   53.58000      3.0364471E-03
   53.64000      3.0145280E-03
   53.70000      2.9930896E-03
   53.76000      2.9722434E-03
   53.82000      2.9520884E-03
   53.88000      2.9327087E-03
   53.94000      2.9141740E-03
   54.00000      2.8965368E-03
   54.06000      2.8798340E-03
   54.12000      2.8640849E-03
   54.18000      2.8492911E-03
   54.24000      2.8354379E-03
   54.30000      2.8224941E-03
   54.36000      2.8104123E-03
   54.42000      2.7991298E-03
   54.48000      2.7885702E-03
   54.54000      2.7786440E-03
   54.60000      2.7692497E-03
   54.66000      2.7602760E-03
   54.72000      2.7516028E-03
   54.78000      2.7431040E-03
   54.84000      2.7346485E-03
   54.90000      2.7261015E-03
   54.96000      2.7173276E-03
   55.02000      2.7081915E-03
   55.08000      2.6985605E-03
   55.14000      2.6883062E-03
   55.20000      2.6773063E-03
   55.26000      2.6654454E-03
   55.32000      2.6526174E-03
   55.38000      2.6387256E-03
   55.44000      2.6236854E-03
   55.50000      2.6074238E-03
   55.56000      2.5898812E-03