 -0.750000000       0.00000000    
 -0.689999998       0.00000000    
 -0.629999995       0.00000000    
 -0.569999993       0.00000000    
 -0.509999990       7.93209959E-19
 -0.449999988       5.47404679E-18
 -0.389999986       1.98346314E-17
 -0.330000013       4.94881051E-17
 -0.270000011       9.36752662E-17
 -0.209999993       1.38789101E-16
 -0.150000006       1.55767136E-16
  -9.00000036E-02   1.03095073E-16
  -2.99999993E-02  -6.68669514E-17
   2.99999993E-02  -4.01673823E-16
   9.00000036E-02  -9.41364360E-16
  0.150000006      -1.70056475E-15
  0.209999993      -2.62876294E-15
  0.270000011      -3.54993562E-15
  0.330000013      -4.10898309E-15
  0.389999986      -3.77638798E-15
  0.449999988      -1.95972486E-15
  0.509999990       1.77331874E-15
  0.569999993       7.42637238E-15
  0.629999995       1.43791568E-14
  0.689999998       2.13706768E-14
  0.750000000       2.66740772E-14
  0.810000002       2.83600183E-14
  0.870000005       2.45044074E-14
  0.930000007       1.33047734E-14
  0.990000010      -6.70589081E-15
   1.04999995      -3.59921274E-14
   1.11000001      -7.26605869E-14
   1.16999996      -1.10703893E-13
   1.23000002      -1.38884021E-13
   1.28999996      -1.41791364E-13
   1.35000002      -1.04271673E-13
   1.40999997      -1.89419352E-14
   1.47000003       1.05699859E-13
   1.52999997       2.40921053E-13
   1.59000003       3.41593453E-13
   1.64999998       3.60083220E-13
   1.71000004       2.67212413E-13
   1.76999998       7.21781372E-14
   1.83000004      -1.69240842E-13
   1.88999999      -3.66453612E-13
   1.95000005      -4.26389040E-13
   2.00999999      -2.96576864E-13
   2.06999993      -8.39006622E-16
   2.13000011       3.51836561E-13
   2.19000006       5.96454797E-13
   2.25000000       5.74645745E-13
   2.30999994       2.09136650E-13
   2.36999989      -4.41745707E-13
   2.43000007      -1.17837825E-12
   2.49000001      -1.71476331E-12
   2.54999995      -1.78064692E-12
   2.60999990      -1.23448897E-12
   2.67000008      -1.41165535E-13
   2.73000002       1.22248641E-12
   2.78999996       2.44503506E-12
   2.84999990       3.11843455E-12
   2.91000009       2.98802237E-12
   2.97000003       2.05784239E-12
   3.02999997       6.08846307E-13
   3.08999991      -8.81088388E-13
   3.15000010      -1.89022517E-12
   3.21000004      -2.02733143E-12
   3.26999998      -1.16863713E-12
   3.32999992       4.86448067E-13
   3.39000010       2.45444919E-12
   3.45000005       4.08184727E-12
   3.50999999       4.69024776E-12
   3.56999993       3.70288782E-12
   3.63000011       7.15256142E-13
   3.69000006      -4.50177222E-12
   3.75000000      -1.20510711E-11
   3.80999994      -2.19773904E-11
   3.86999989      -3.43195333E-11
   3.93000007      -4.91265639E-11
   3.99000001      -6.64425043E-11
   4.05000019      -8.62870331E-11
   4.11000013      -1.08670961E-10
   4.17000008      -1.33677208E-10
   4.23000002      -1.61610197E-10
   4.28999996      -1.93178848E-10
   4.34999990      -2.29645594E-10
   4.40999985      -2.72858874E-10
   4.46999979      -3.25101140E-10
   4.53000021      -3.88732324E-10
   4.59000015      -4.65676331E-10
   4.65000010      -5.56869995E-10
   4.71000004      -6.61835586E-10
   4.76999998      -7.78537457E-10
   4.82999992      -9.03617570E-10
   4.88999987      -1.03299347E-09
   4.94999981      -1.16268040E-09
   5.01000023      -1.28960165E-09
   5.07000017      -1.41213963E-09
   5.13000011      -1.53024859E-09
   5.19000006      -1.64510239E-09
   5.25000000      -1.75841186E-09
   5.30999994      -1.87166105E-09
   5.36999989      -1.98553063E-09
   5.42999983      -2.09968354E-09
   5.48999977      -2.21293339E-09
   5.55000019      -2.32366681E-09
   5.61000013      -2.43031084E-09
   5.67000008      -2.53166665E-09
   5.73000002      -2.62702193E-09
   5.78999996      -2.71608780E-09
   5.84999990      -2.79887535E-09
   5.90999985      -2.87562441E-09
   5.96999979      -2.94682789E-09
   6.03000021      -3.01329850E-09
   6.09000015      -3.07616999E-09
   6.15000010      -3.13671333E-09
   6.21000004      -3.19591131E-09
   6.26999998      -3.25379612E-09
   6.32999992      -3.30861338E-09
   6.38999987      -3.35590800E-09
   6.44999981      -3.38764528E-09
   6.51000023      -3.39151107E-09
   6.57000017      -3.35058403E-09
   6.63000011      -3.24359317E-09
   6.69000006      -3.04595305E-09
   6.75000000      -2.73161760E-09
   6.80999994      -2.27557106E-09
   6.86999989      -1.65652581E-09
   6.92999983      -8.59234406E-10
   6.98999977       1.24151356E-10
   7.05000019       1.29398814E-09
   7.11000013       2.64425237E-09
   7.17000008       4.16439150E-09
   7.23000002       5.84122040E-09
   7.28999996       7.66020225E-09
   7.34999990       9.60571533E-09
   7.40999985       1.16603447E-08
   7.46999979       1.38035787E-08
   7.53000021       1.60105245E-08
   7.59000015       1.82511926E-08
   7.65000010       2.04906723E-08
   7.71000004       2.26902230E-08
   7.76999998       2.48090899E-08
   7.82999992       2.68066618E-08
   7.88999987       2.86446937E-08
   7.94999981       3.02892786E-08
   8.01000023       3.17123572E-08
   8.06999969       3.28925367E-08
   8.13000011       3.38151729E-08
   8.18999958       3.44715545E-08
   8.25000000       3.48575107E-08
   8.31000042       3.49717943E-08
   8.36999989       3.48148248E-08
   8.43000031       3.43883322E-08
   8.48999977       3.36961463E-08
   8.55000019       3.27459198E-08
   8.60999966       3.15511564E-08
   8.67000008       3.01327638E-08
   8.72999954       2.85193043E-08
   8.78999996       2.67457221E-08
   8.85000038       2.48506957E-08
   8.90999985       2.28732855E-08
   8.97000027       2.08496331E-08
   9.02999973       1.88103826E-08
   9.09000015       1.67791097E-08
   9.14999962       1.47716932E-08
   9.21000004       1.27964288E-08
   9.27000046       1.08546407E-08
   9.32999992       8.94171137E-09
   9.39000034       7.04854175E-09
   9.44999981       5.16342480E-09
   9.51000023       3.27416383E-09
   9.56999969       1.37011158E-09
   9.63000011      -5.56271473E-10
   9.68999958      -2.50858956E-09
   9.75000000      -4.48643300E-09
   9.81000042      -6.48578080E-09
   9.86999989      -8.49955040E-09
   9.93000031      -1.05180344E-08
   9.98999977      -1.25292319E-08
   10.0500002      -1.45192640E-08
   10.1099997      -1.64731198E-08
   10.1700001      -1.83757844E-08
   10.2299995      -2.02135144E-08
   10.2900000      -2.19748131E-08
   10.3500004      -2.36506512E-08
   10.4099998      -2.52338204E-08
   10.4700003      -2.67176112E-08
   10.5299997      -2.80944246E-08
   10.5900002      -2.93549007E-08
   10.6499996      -3.04879499E-08
   10.7100000      -3.14816084E-08
   10.7700005      -3.23243547E-08
   10.8299999      -3.30063763E-08
   10.8900003      -3.35204398E-08
   10.9499998      -3.38624666E-08
   11.0100002      -3.40320270E-08
   11.0699997      -3.40331532E-08
   11.1300001      -3.38754944E-08
   11.1899996      -3.35755459E-08
   11.2500000      -3.31574483E-08
   11.3100004      -3.26527427E-08
   11.3699999      -3.20989351E-08
   11.4300003      -3.15369455E-08
   11.4899998      -3.10080353E-08
   11.5500002      -3.05508543E-08
   11.6099997      -3.01989189E-08
   11.6700001      -2.99787821E-08
   11.7299995      -2.99085947E-08
   11.7900000      -2.99968903E-08
   11.8500004      -3.02414769E-08
   11.9099998      -3.06286125E-08
   11.9700003      -3.11327923E-08
   12.0299997      -3.17174056E-08
   12.0900002      -3.23363700E-08
   12.1499996      -3.29364944E-08
   12.2100000      -3.34603527E-08
   12.2700005      -3.38492079E-08
   12.3299999      -3.40461099E-08
   12.3900003      -3.39991288E-08
   12.4499998      -3.36650636E-08
   12.5100002      -3.30135563E-08
   12.5699997      -3.20313411E-08
   12.6300001      -3.07257970E-08
   12.6899996      -2.91270474E-08
   12.7500000      -2.72876690E-08
   12.8100004      -2.52796859E-08
   12.8699999      -2.31889388E-08
   12.9300003      -2.11075015E-08
   12.9899998      -1.91250642E-08
   13.0500002      -1.73203851E-08
   13.1099997      -1.57537841E-08
   13.1700001      -1.44615564E-08
   13.2299995      -1.34528975E-08
   13.2900000      -1.27097470E-08
   13.3500004      -1.21895818E-08
   13.4099998      -1.18308536E-08
   13.4700003      -1.15603545E-08
   13.5299997      -1.13015286E-08
   13.5900002      -1.09825988E-08
   13.6499996      -1.05435385E-08
   13.7100000      -9.94116700E-09
   13.7700005      -9.15202403E-09
   13.8299999      -8.17298140E-09
   13.8900003      -7.01972080E-09
   13.9499998      -5.72333914E-09
   14.0100002      -4.32538627E-09
   14.0699997      -2.87181412E-09
   14.1300001      -1.40650880E-09
   14.1899996       3.47207714E-11
   14.2500000       1.42874867E-09
   14.3100004       2.76754375E-09
   14.3699999       4.05797440E-09
   14.4300003       5.31911137E-09
   14.4899998       6.57763177E-09
   14.5500002       7.86224863E-09
   14.6099997       9.19819154E-09
   14.6700001       1.06026246E-08
   14.7299995       1.20816317E-08
   14.7900000       1.36291156E-08
   14.8500004       1.52276591E-08
   14.9099998       1.68511587E-08
   14.9700003       1.84687572E-08
   15.0299997       2.00494092E-08
   15.0900002       2.15661835E-08
   15.1499996       2.29994885E-08
   15.2100000       2.43385276E-08
   15.2700005       2.55807837E-08
   15.3299999       2.67298006E-08
   15.3900003       2.77920318E-08
   15.4499998       2.87737336E-08
   15.5100002       2.96787945E-08
   15.5699997       3.05080583E-08
   15.6300001       3.12601749E-08
   15.6899996       3.19334923E-08
   15.7500000       3.25282201E-08
   15.8100004       3.30481100E-08
   15.8699999       3.35009886E-08
   15.9300003       3.38979191E-08
   15.9899998       3.42512152E-08
   16.0499992       3.45717233E-08
   16.1100006       3.48661757E-08
   16.1700001       3.51353222E-08
   16.2299995       3.53734038E-08
   16.2900009       3.55693004E-08
   16.3500004       3.57091423E-08
   16.4099998       3.57798768E-08
   16.4699993       3.57728851E-08
   16.5300007       3.56867282E-08
   16.5900002       3.55282417E-08
   16.6499996       3.53116398E-08
   16.7099991       3.50558480E-08
   16.7700005       3.47808466E-08
   16.8299999       3.45039517E-08
   16.8899994       3.42370754E-08
   16.9500008       3.39856214E-08
   17.0100002       3.37490995E-08
   17.0699997       3.35231221E-08
   17.1299992       3.33020438E-08
   17.1900005       3.30813350E-08
   17.2500000       3.28591021E-08
   17.3099995       3.26363079E-08
   17.3700008       3.24158620E-08
   17.4300003       3.22009477E-08
   17.4899998       3.19932134E-08
   17.5499992       3.17915507E-08
   17.6100006       3.15918918E-08
   17.6700001       3.13882182E-08
   17.7299995       3.11745652E-08
   17.7900009       3.09474011E-08
   17.8500004       3.07075787E-08
   17.9099998       3.04610772E-08
   17.9699993       3.02180361E-08
   18.0300007       2.99901757E-08
   18.0900002       2.97871612E-08
   18.1499996       2.96130089E-08
   18.2099991       2.94636759E-08
   18.2700005       2.93266229E-08
   18.3299999       2.91826741E-08
   18.3899994       2.90096818E-08
   18.4500008       2.87869621E-08
   18.5100002       2.84993114E-08
   18.5699997       2.81394765E-08
   18.6299992       2.77085821E-08
   18.6900005       2.72145684E-08
   18.7500000       2.66693441E-08
   18.8099995       2.60855444E-08
   18.8700008       2.54738595E-08
   18.9300003       2.48415546E-08
   18.9899998       2.41923406E-08
   19.0499992       2.35273614E-08
   19.1100006       2.28467378E-08
   19.1700001       2.21510099E-08
   19.2299995       2.14418687E-08
   19.2900009       2.07218775E-08
   19.3500004       1.99931556E-08
   19.4099998       1.92553422E-08
   19.4699993       1.85033890E-08
   19.5300007       1.77258404E-08
   19.5900002       1.69041616E-08
   19.6499996       1.60134643E-08
   19.7099991       1.50246020E-08
   19.7700005       1.39072709E-08
   19.8299999       1.26334827E-08
   19.8899994       1.11806733E-08
   19.9500008       9.53387236E-09
   20.0100002       7.68661668E-09
   20.0699997       5.64069591E-09
   20.1299992       3.40511108E-09
   20.1900005       9.94775817E-10
   20.2500000      -1.57058433E-09
   20.3099995      -4.26715729E-09
   20.3700008      -7.06753189E-09
   20.4300003      -9.94133131E-09
   20.4899998      -1.28564102E-08
   20.5499992      -1.57808291E-08
   20.6100006      -1.86854265E-08
   20.6700001      -2.15464429E-08
   20.7299995      -2.43473988E-08
   20.7900009      -2.70795226E-08
   20.8500004      -2.97403862E-08
   20.9099998      -3.23309841E-08
   20.9699993      -3.48520039E-08
   21.0300007      -3.73004809E-08
   21.0900002      -3.96679205E-08
   21.1499996      -4.19405985E-08
   21.2099991      -4.41021797E-08
   21.2700005      -4.61379592E-08
   21.3299999      -4.80395776E-08
   21.3899994      -4.98088077E-08
   21.4500008      -5.14592564E-08
   21.5100002      -5.30152455E-08
   21.5699997      -5.45080958E-08
   21.6299992      -5.59704532E-08
   21.6900005      -5.74301033E-08
   21.7500000      -5.89046003E-08
   21.8099995      -6.03979018E-08
   21.8700008      -6.18996197E-08
   21.9300003      -6.33866435E-08
   21.9899998      -6.48265583E-08
   22.0499992      -6.61814710E-08
   22.1100006      -6.74113068E-08
   22.1700001      -6.84757140E-08
   22.2299995      -6.93343409E-08
   22.2900009      -6.99461893E-08
   22.3500004      -7.02687757E-08
   22.4099998      -7.02583662E-08
   22.4699993      -6.98722076E-08
   22.5300007      -6.90730033E-08
   22.5900002      -6.78352023E-08
   22.6499996      -6.61519124E-08
   22.7099991      -6.40406199E-08
   22.7700005      -6.15459683E-08
   22.8299999      -5.87381876E-08
   22.8899994      -5.57066855E-08
   22.9500008      -5.25495381E-08
   23.0100002      -4.93607502E-08
   23.0699997      -4.62178420E-08
   23.1299992      -4.31725411E-08
   23.1900005      -4.02466078E-08
   23.2500000      -3.74336153E-08
   23.3099995      -3.47061935E-08
   23.3700008      -3.20267119E-08
   23.4300003      -2.93589562E-08
   23.4899998      -2.66780695E-08
   23.5499992      -2.39769697E-08
   23.6100006      -2.12683755E-08
   23.6700001      -1.85827425E-08
   23.7299995      -1.59633107E-08
   23.7900009      -1.34598084E-08
   23.8500004      -1.11223688E-08
   23.9099998      -8.99677133E-09
   23.9699993      -7.12160730E-09
   24.0300007      -5.52739099E-09
   24.0900002      -4.23717594E-09
   24.1499996      -3.26799210E-09
   24.2099991      -2.63231081E-09
   24.2700005      -2.33888731E-09
   24.3299999      -2.39261366E-09
   24.3899994      -2.79339507E-09
   24.4500008      -3.53446161E-09
   24.5100002      -4.60078864E-09
   24.5699997      -5.96834626E-09
   24.6299992      -7.60472751E-09
   24.6900005      -9.47132062E-09
   24.7500000      -1.15267396E-08
   24.8099995      -1.37308653E-08
   24.8700008      -1.60486575E-08
   24.9300003      -1.84529476E-08
   24.9899998      -2.09257536E-08
   25.0499992      -2.34579538E-08
   25.1100006      -2.60476547E-08
   25.1700001      -2.86978015E-08
   25.2299995      -3.14136237E-08
   25.2900009      -3.42005038E-08
   25.3500004      -3.70624278E-08
   25.4099998      -4.00010265E-08
   25.4699993      -4.30148681E-08
   25.5300007      -4.60986591E-08
   25.5900002      -4.92420789E-08
   25.6499996      -5.24283550E-08
   25.7099991      -5.56328885E-08
   25.7700005      -5.88225504E-08
   25.8299999      -6.19563139E-08
   25.8899994      -6.49875318E-08
   25.9500008      -6.78677949E-08
   26.0100002      -7.05517635E-08
   26.0699997      -7.30018215E-08
   26.1299992      -7.51915579E-08
   26.1900005      -7.71070248E-08
   26.2500000      -7.87454724E-08
   26.3099995      -8.01119597E-08
   26.3700008      -8.12146013E-08
   26.4300003      -8.20598842E-08
   26.4899998      -8.26492155E-08
   26.5499992      -8.29774081E-08
   26.6100006      -8.30334770E-08
   26.6700001      -8.28033038E-08
   26.7299995      -8.22732460E-08
   26.7900009      -8.14339387E-08
   26.8500004      -8.02831934E-08
   26.9099998      -7.88274974E-08
   26.9699993      -7.70819852E-08
   27.0300007      -7.50689466E-08
   27.0900002      -7.28153893E-08
   27.1499996      -7.03502394E-08
   27.2099991      -6.77017198E-08
   27.2700005      -6.48954313E-08
   27.3299999      -6.19532798E-08
   27.3899994      -5.88933418E-08
   27.4500008      -5.57305206E-08
   27.5100002      -5.24776027E-08
   27.5699997      -4.91464256E-08
   27.6299992      -4.57488660E-08
   27.6900005      -4.22974722E-08
   27.7500000      -3.88057693E-08
   27.8099995      -3.52882630E-08
   27.8700008      -3.17603153E-08
   27.9300003      -2.82380412E-08
   27.9899998      -2.47381777E-08
   28.0499992      -2.12779447E-08
   28.1100006      -1.78748198E-08
   28.1700001      -1.45461234E-08
   28.2299995      -1.13085106E-08
   28.2900009      -8.17752888E-09
   28.3500004      -5.16745979E-09
   28.4099998      -2.29168795E-09
   28.4699993       4.36320841E-10
   28.5300007       3.00159408E-09
   28.5900002       5.38619283E-09
   28.6499996       7.56832996E-09
   28.7099991       9.52267420E-09
   28.7700005       1.12222711E-08
   28.8299999       1.26420563E-08
   28.8899994       1.37635094E-08
   28.9500008       1.45794745E-08
   29.0100002       1.50979815E-08
   29.0699997       1.53439110E-08
   29.1299992       1.53577453E-08
   29.1900005       1.51912225E-08
   29.2500000       1.49004764E-08
   29.3099995       1.45378403E-08
   29.3700008       1.41439376E-08
   29.4300003       1.37417162E-08
   29.4899998       1.33337705E-08
   29.5499992       1.29036204E-08
   29.6100006       1.24208102E-08
   29.6700001       1.18487975E-08
   29.7299995       1.11540235E-08
   29.7900009       1.03142312E-08
   29.8500004       9.32432442E-09
   29.9099998       8.19859292E-09
   29.9699993       6.96901026E-09
   30.0300007       5.68016922E-09
   30.0900002       4.38210312E-09
   30.1499996       3.12258819E-09
   30.2099991       1.94044647E-09
   30.2700005       8.60973903E-10
   30.3299999      -1.05955175E-10
   30.3899994      -9.65144964E-10
   30.4500008      -1.73317660E-09
   30.5100002      -2.43411424E-09
   30.5699997      -3.09467540E-09
   30.6299992      -3.73968856E-09
   30.6900005      -4.38852688E-09
   30.7500000      -5.05298070E-09
   30.8099995      -5.73674175E-09
   30.8700008      -6.43630793E-09
   30.9300003      -7.14282855E-09
   30.9899998      -7.84420617E-09
   31.0499992      -8.52682902E-09
   31.1100006      -9.17657417E-09
   31.1700001      -9.77916059E-09
   31.2299995      -1.03202771E-08
   31.2900009      -1.07861258E-08
   31.3500004      -1.11648149E-08
   31.4099998      -1.14486065E-08
   31.4699993      -1.16364864E-08
   31.5300007      -1.17361214E-08
   31.5900002      -1.17642793E-08
   31.6499996      -1.17451506E-08
   31.7099991      -1.17067520E-08
   31.7700005      -1.16762386E-08
   31.8299999      -1.16754206E-08
   31.8899994      -1.17177308E-08
   31.9500008      -1.18073959E-08
   32.0099983      -1.19408474E-08
   32.0699997      -1.21097212E-08
   32.1300011      -1.23043495E-08
   32.1899986      -1.25166677E-08
   32.2500000      -1.27418041E-08
   32.3100014      -1.29781315E-08
   32.3699989      -1.32260700E-08
   32.4300003      -1.34862130E-08
   32.4900017      -1.37574263E-08
   32.5499992      -1.40354253E-08
   32.6100006      -1.43121683E-08
   32.6699982      -1.45761758E-08
   32.7299995      -1.48137600E-08
   32.7900009      -1.50110058E-08
   32.8499985      -1.51562212E-08
   32.9099998      -1.52424224E-08
   32.9700012      -1.52693058E-08
   33.0299988      -1.52440798E-08
   33.0900002      -1.51807598E-08
   33.1500015      -1.50977222E-08
   33.2099991      -1.50138764E-08
   33.2700005      -1.49441952E-08
   33.3300018      -1.48957255E-08
   33.3899994      -1.48651873E-08
   33.4500008      -1.48390109E-08
   33.5099983      -1.47960542E-08
   33.5699997      -1.47125148E-08
   33.6300011      -1.45678793E-08
   33.6899986      -1.43503938E-08
   33.7500000      -1.40605483E-08
   33.8100014      -1.37116025E-08
   33.8699989      -1.33269582E-08
   33.9300003      -1.29351037E-08
   33.9900017      -1.25635209E-08
   34.0499992      -1.22332304E-08
   34.1100006      -1.19553700E-08
   34.1699982      -1.17305943E-08
   34.2299995      -1.15511680E-08
   34.2900009      -1.14049197E-08
   34.3499985      -1.12797736E-08
   34.4099998      -1.11675851E-08
   34.4700012      -1.10663851E-08
   34.5299988      -1.09807008E-08
   34.5900002      -1.09201697E-08
   34.6500015      -1.08970593E-08
   34.7099991      -1.09234142E-08
   34.7700005      -1.10085052E-08
   34.8300018      -1.11570486E-08
   34.8899994      -1.13684324E-08
   34.9500008      -1.16370256E-08
   35.0099983      -1.19534258E-08
   35.0699997      -1.23064448E-08
   35.1300011      -1.26854767E-08
   35.1899986      -1.30828353E-08
   35.2500000      -1.34956268E-08
   35.3100014      -1.39267726E-08
   35.3699989      -1.43849412E-08
   35.4300003      -1.48833514E-08
   35.4900017      -1.54376245E-08
   35.5499992      -1.60630425E-08
   35.6100006      -1.67717218E-08
   35.6699982      -1.75701835E-08
   35.7299995      -1.84577544E-08
   35.7900009      -1.94261300E-08
   35.8499985      -2.04601527E-08
   35.9099998      -2.15397122E-08
   35.9700012      -2.26424124E-08
   36.0299988      -2.37465017E-08
   36.0900002      -2.48335166E-08
   36.1500015      -2.58900847E-08
   36.2099991      -2.69085518E-08
   36.2700005      -2.78863137E-08
   36.3300018      -2.88240667E-08
   36.3899994      -2.97234930E-08
   36.4500008      -3.05850172E-08
   36.5099983      -3.14063797E-08
   36.5699997      -3.21825340E-08
   36.6300011      -3.29070389E-08
   36.6899986      -3.35747217E-08
   36.7500000      -3.41848043E-08
   36.8100014      -3.47436000E-08
   36.8699989      -3.52656464E-08
   36.9300003      -3.57726222E-08
   36.9900017      -3.62899470E-08
   37.0499992      -3.68416835E-08
   37.1100006      -3.74449591E-08
   37.1699982      -3.81055045E-08
   37.2299995      -3.88157062E-08
   37.2900009      -3.95558715E-08
   37.3499985      -4.02985982E-08
   37.4099998      -4.10151344E-08
   37.4700012      -4.16820818E-08
   37.5299988      -4.22865938E-08
   37.5900002      -4.28287734E-08
   37.6500015      -4.33207390E-08
   37.7099991      -4.37827765E-08
   37.7700005      -4.42378401E-08
   37.8300018      -4.47058994E-08
   37.8899994      -4.51996307E-08
   37.9500008      -4.57222384E-08
   38.0099983      -4.62677647E-08
   38.0699997      -4.68232599E-08
   38.1300011      -4.73721364E-08
   38.1899986      -4.78976254E-08
   38.2500000      -4.83856937E-08
   38.3100014      -4.88269158E-08
   38.3699989      -4.92172099E-08
   38.4300003      -4.95575954E-08
   38.4900017      -4.98533268E-08
   38.5499992      -5.01125932E-08
   38.6100006      -5.03452213E-08
   38.6699982      -5.05614715E-08
   38.7299995      -5.07710709E-08
   38.7900009      -5.09823970E-08
   38.8499985      -5.12017913E-08
   38.9099998      -5.14326786E-08
   38.9700012      -5.16744159E-08
   39.0299988      -5.19208605E-08
   39.0900002      -5.21588426E-08
   39.1500015      -5.23670600E-08
   39.2099991      -5.25159436E-08
   39.2700005      -5.25691561E-08
   39.3300018      -5.24868682E-08
   39.3899994      -5.22306109E-08
   39.4500008      -5.17689251E-08
   39.5099983      -5.10825586E-08
   39.5699997      -5.01679729E-08
   39.6300011      -4.90381495E-08
   39.6899986      -4.77203450E-08
   39.7500000      -4.62511913E-08
   39.8100014      -4.46701947E-08
   39.8699989      -4.30130882E-08
   39.9300003      -4.13063610E-08
   39.9900017      -3.95640143E-08
   40.0499992      -3.77868830E-08
   40.1100006      -3.59642840E-08
   40.1699982      -3.40773063E-08
   40.2299995      -3.21029177E-08
   40.2900009      -3.00180716E-08
   40.3499985      -2.78033010E-08
   40.4099998      -2.54454413E-08
   40.4700012      -2.29394548E-08
   40.5299988      -2.02893720E-08
   40.5900002      -1.75083734E-08
   40.6500015      -1.46181502E-08
   40.7099991      -1.16475585E-08
   40.7700005      -8.63071836E-09
   40.8300018      -5.60472380E-09
   40.8899994      -2.60720867E-09
   40.9500008       3.25983240E-10
   41.0099983       3.16278115E-09
   41.0699997       5.87635185E-09
   41.1300011       8.44595149E-09
   41.1899986       1.08571481E-08
   41.2500000       1.31014470E-08
   41.3100014       1.51753508E-08
   41.3699989       1.70789001E-08
   41.4300003       1.88137257E-08
   41.4900017       2.03807140E-08
   41.5499992       2.17775415E-08
   41.6100006       2.29964492E-08
   41.6699982       2.40229241E-08
   41.7299995       2.48358187E-08
   41.7900009       2.54093901E-08
   41.8499985       2.57172630E-08
   41.9099998       2.57377923E-08
   41.9700012       2.54596895E-08
   42.0299988       2.48866652E-08
   42.0900002       2.40397231E-08
   42.1500015       2.29564350E-08
   42.2099991       2.16872333E-08
   42.2700005       2.02894928E-08
   42.3300018       1.88207849E-08
   42.3899994       1.73327024E-08
   42.4500008       1.58663962E-08
   42.5099983       1.44504062E-08
   42.5699997       1.31007365E-08
   42.6300011       1.18226922E-08
   42.6899986       1.06137454E-08
   42.7500000       9.46673495E-09
   42.8100014       8.37277270E-09
   42.8699989       7.32344096E-09
   42.9300003       6.31199715E-09
   42.9900017       5.33346789E-09
   43.0499992       4.38372405E-09
   43.1100006       3.45781381E-09
   43.1699982       2.54801247E-09
   43.2299995       1.64211911E-09
   43.2900009       7.22461535E-10
   43.3499985      -2.34147923E-10
   43.4099998      -1.25552313E-09
   43.4700012      -2.37253150E-09
   43.5299988      -3.61718122E-09
   43.5900002      -5.02066788E-09
   43.6500015      -6.61153221E-09
   43.7099991      -8.41394154E-09
   43.7700005      -1.04460423E-08
   43.8300018      -1.27184148E-08
   43.8899994      -1.52328088E-08
   43.9500008      -1.79815611E-08
   44.0099983      -2.09480966E-08
   44.0699997      -2.41089193E-08
   44.1300011      -2.74371139E-08
   44.1899986      -3.09069463E-08
   44.2500000      -3.44987612E-08
   44.3100014      -3.82030265E-08
   44.3699989      -4.20224069E-08
   44.4300003      -4.59712552E-08
   44.4900017      -5.00725399E-08
   44.5499992      -5.43531193E-08
   44.6100006      -5.88389426E-08
   44.6699982      -6.35520010E-08
   44.7299995      -6.85104098E-08
   44.7900009      -7.37321812E-08
   44.8499985      -7.92421062E-08
   44.9099998      -8.50801030E-08
   44.9700012      -9.13090474E-08
   45.0299988      -9.80204149E-08
   45.0900002      -1.05336753E-07
   45.1500015      -1.13411389E-07
   45.2099991      -1.22426613E-07
   45.2700005      -1.32592390E-07
   45.3300018      -1.44147023E-07
   45.3899994      -1.57361001E-07
   45.4500008      -1.72544063E-07
   45.5099983      -1.90054394E-07
   45.5699997      -2.10309025E-07
   45.6300011      -2.33794012E-07
   45.6899986      -2.61073467E-07
   45.7500000      -2.92797324E-07
   45.8100014      -3.29707973E-07
   45.8699989      -3.72646383E-07
   45.9300003      -4.22559026E-07
   45.9900017      -4.80506287E-07
   46.0499992      -5.47673665E-07
   46.1100006      -6.25385326E-07
   46.1699982      -7.15121757E-07
   46.2299995      -8.18538183E-07
   46.2900009      -9.37485765E-07
   46.3499985      -1.07403162E-06
   46.4099998      -1.23047778E-06
   46.4700012      -1.40937902E-06
   46.5299988      -1.61355786E-06
   46.5900002      -1.84611974E-06
   46.6500015      -2.11046768E-06
   46.7099991      -2.41031762E-06
   46.7700005      -2.74971853E-06
   46.8300018      -3.13306987E-06
   46.8899994      -3.56514488E-06
   46.9500008      -4.05111268E-06
   47.0099983      -4.59655894E-06
   47.0699997      -5.20750336E-06
   47.1300011      -5.89041838E-06
   47.1899986      -6.65223388E-06
   47.2500000      -7.50034542E-06
   47.3100014      -8.44261467E-06
   47.3699989      -9.48736124E-06
   47.4300003      -1.06433517E-05
   47.4900017      -1.19197875E-05
   47.5499992      -1.33262893E-05
   47.6100006      -1.48728732E-05
   47.6699982      -1.65699312E-05
   47.7299995      -1.84282053E-05
   47.7900009      -2.04587559E-05
   47.8499985      -2.26729207E-05
   47.9099998      -2.50822723E-05
   47.9700012      -2.76985556E-05
   48.0299988      -3.05336216E-05
   48.0900002      -3.35993391E-05
   48.1500015      -3.69075169E-05
   48.2099991      -4.04698039E-05
   48.2700005      -4.42975870E-05
   48.3300018      -4.84018783E-05
   48.3899994      -5.27932098E-05
   48.4500008      -5.74815313E-05
   48.5099983      -6.24760942E-05
   48.5699997      -6.77853313E-05
   48.6300011      -7.34167261E-05
   48.6899986      -7.93767176E-05
   48.7500000      -8.56706101E-05
   48.8100014      -9.23023763E-05
   48.8699989      -9.92746136E-05
   48.9300003      -1.06588421E-04
   48.9900017      -1.14243288E-04
   49.0499992      -1.22236990E-04
   49.1100006      -1.30565531E-04
   49.1699982      -1.39223077E-04
   49.2299995      -1.48201812E-04
   49.2900009      -1.57492090E-04
   49.3499985      -1.67082209E-04
   49.4099998      -1.76958536E-04
   49.4700012      -1.87105456E-04
   49.5299988      -1.97505462E-04
   49.5900002      -2.08139172E-04
   49.6500015      -2.18985471E-04
   49.7099991      -2.30021586E-04
   49.7700005      -2.41223170E-04
   49.8300018      -2.52564554E-04
   49.8899994      -2.64018832E-04
   49.9500008      -2.75558181E-04
   50.0099983      -2.87153933E-04
   50.0699997      -2.98776838E-04
   50.1300011      -3.10397358E-04
   50.1899986      -3.21985775E-04
   50.2500000      -3.33512493E-04
   50.3100014      -3.44948377E-04
   50.3699989      -3.56265024E-04
   50.4300003      -3.67434986E-04
   50.4900017      -3.78431956E-04
   50.5499992      -3.89231252E-04
   50.6100006      -3.99809855E-04