 -0.750000000       0.00000000    
 -0.689999998       0.00000000    
 -0.629999995       0.00000000    
 -0.569999993       0.00000000    
 -0.509999990       0.00000000    
 -0.449999988       1.97328426E-20
 -0.389999986       2.17548811E-19
 -0.330000013       1.14289839E-18
 -0.270000011       3.74675470E-18
 -0.209999993       8.21404907E-18
 -0.150000006       1.10707760E-17
  -9.00000036E-02   2.37605418E-18
  -2.99999993E-02  -3.19984331E-17
   2.99999993E-02  -9.80075287E-17
   9.00000036E-02  -1.73148318E-16
  0.150000006      -1.92980694E-16
  0.209999993      -6.70656468E-17
  0.270000011       2.62865690E-16
  0.330000013       7.40619457E-16
  0.389999986       1.14347627E-15
  0.449999988       1.12587482E-15
  0.509999990       3.86460397E-16
  0.569999993      -1.09412008E-15
  0.629999995      -2.87567474E-15
  0.689999998      -4.08950810E-15
  0.750000000      -3.74930664E-15
  0.810000002      -1.26478769E-15
  0.870000005       3.06366332E-15
  0.930000007       7.84682259E-15
  0.990000010       1.09031944E-14
   1.04999995       1.00539414E-14
   1.11000001       4.18233190E-15
   1.16999996      -5.86474305E-15
   1.23000002      -1.70120266E-14
   1.28999996      -2.46709120E-14
   1.35000002      -2.44298786E-14
   1.40999997      -1.42205007E-14
   1.47000003       3.99808784E-15
   1.52999997       2.41206642E-14
   1.59000003       3.79665951E-14
   1.64999998       3.91088732E-14
   1.71000004       2.67927583E-14
   1.76999998       7.59731379E-15
   1.83000004      -6.93803798E-15
   1.88999999      -6.57333354E-15
   1.95000005       1.01419981E-14
   2.00999999       3.14646312E-14
   2.06999993       3.49434057E-14
   2.13000011      -2.37864322E-15
   2.19000006      -8.95037896E-14
   2.25000000      -2.09592773E-13
   2.30999994      -3.17857882E-13
   2.36999989      -3.53086863E-13
   2.43000007      -2.60768322E-13
   2.49000001      -1.99669992E-14
   2.54999995       3.36959410E-13
   2.60999990       7.21516922E-13
   2.67000008       1.00765045E-12
   2.73000002       1.06888012E-12
   2.78999996       8.23877262E-13
   2.84999990       2.75538517E-13
   2.91000009      -4.71926860E-13
   2.97000003      -1.22860294E-12
   3.02999997      -1.76803244E-12
   3.08999991      -1.89822550E-12
   3.15000010      -1.53187185E-12
   3.21000004      -7.29204782E-13
   3.26999998       3.06360541E-13
   3.32999992       1.28323339E-12
   3.39000010       1.91063636E-12
   3.45000005       1.99029812E-12
   3.50999999       1.47791761E-12
   3.56999993       4.94098089E-13
   3.63000011      -7.14787008E-13
   3.69000006      -1.84673674E-12
   3.75000000      -2.61845276E-12
   3.80999994      -2.82211082E-12
   3.86999989      -2.35551032E-12
   3.93000007      -1.22848509E-12
   3.99000001       4.46092815E-13
   4.05000019       2.46929842E-12
   4.11000013       4.57667411E-12
   4.17000008       6.45863614E-12
   4.23000002       7.77637156E-12
   4.28999996       8.17030037E-12
   4.34999990       7.26519973E-12
   4.40999985       4.68610133E-12
   4.46999979       1.04125598E-13
   4.53000021      -6.67620516E-12
   4.59000015      -1.55973064E-11
   4.65000010      -2.62290242E-11
   4.71000004      -3.76926858E-11
   4.76999998      -4.86612035E-11
   4.82999992      -5.74392756E-11
   4.88999987      -6.20995894E-11
   4.94999981      -6.06389661E-11
   5.01000023      -5.11302181E-11
   5.07000017      -3.18652292E-11
   5.13000011      -1.49648143E-12
   5.19000006       4.08278966E-11
   5.25000000       9.53612467E-11
   5.30999994       1.61721761E-10
   5.36999989       2.38931042E-10
   5.42999983       3.25485999E-10
   5.48999977       4.19381252E-10
   5.55000019       5.18013688E-10
   5.61000013       6.17984941E-10
   5.67000008       7.14935833E-10
   5.73000002       8.03622335E-10
   5.78999996       8.78406736E-10
   5.84999990       9.34169186E-10
   5.90999985       9.67418812E-10
   5.96999979       9.77217529E-10
   6.03000021       9.65529767E-10
   6.09000015       9.36813072E-10
   6.15000010       8.96974661E-10
   6.21000004       8.52085680E-10
   6.26999998       8.07331146E-10
   6.32999992       7.66525898E-10
   6.38999987       7.32226335E-10
   6.44999981       7.06175118E-10
   6.51000023       6.89692026E-10
   6.57000017       6.83714196E-10
   6.63000011       6.88453239E-10
   6.69000006       7.02903513E-10
   6.75000000       7.24568905E-10
   6.80999994       7.49703355E-10
   6.86999989       7.74119435E-10
   6.92999983       7.94343813E-10
   6.98999977       8.08723477E-10
   7.05000019       8.18082324E-10
   7.11000013       8.25689239E-10
   7.17000008       8.36533509E-10
   7.23000002       8.56113513E-10
   7.28999996       8.89066876E-10
   7.34999990       9.37980138E-10
   7.40999985       1.00265529E-09
   7.46999979       1.07999798E-09
   7.53000021       1.16455545E-09
   7.59000015       1.24957455E-09
   7.65000010       1.32830114E-09
   7.71000004       1.39514333E-09
   7.76999998       1.44635548E-09
   7.82999992       1.48007984E-09
   7.88999987       1.49587942E-09
   7.94999981       1.49415469E-09
   8.01000023       1.47592372E-09
   8.06999969       1.44325951E-09
   8.13000011       1.40028023E-09
   8.18999958       1.35418166E-09
   8.25000000       1.31561362E-09
   8.31000042       1.29789191E-09
   8.36999989       1.31504974E-09
   8.43000031       1.37932277E-09
   8.48999977       1.49903367E-09
   8.55000019       1.67777758E-09
   8.60999966       1.91533167E-09
   8.67000008       2.21000995E-09
   8.72999954       2.56159449E-09
   8.78999996       2.97372127E-09
   8.85000038       3.45478290E-09
   8.90999985       4.01693656E-09
   8.97000027       4.67345673E-09
   9.02999973       5.43525447E-09
   9.09000015       6.30766062E-09
   9.14999962       7.28850047E-09
   9.21000004       8.36803427E-09
   9.27000046       9.53068291E-09
   9.32999992       1.07577653E-08
   9.39000034       1.20301396E-08
   9.44999981       1.33297249E-08
   9.51000023       1.46395491E-08
   9.56999969       1.59426712E-08
   9.63000011       1.72209624E-08
   9.68999958       1.84547400E-08
   9.75000000       1.96236414E-08
   9.81000042       2.07083755E-08
   9.86999989       2.16923297E-08
   9.93000031       2.25620447E-08
   9.98999977       2.33062014E-08
   10.0500002       2.39135787E-08
   10.1099997       2.43711202E-08
   10.1700001       2.46631515E-08
   10.2299995       2.47722980E-08
   10.2900000       2.46818281E-08
   10.3500004       2.43786218E-08
   10.4099998       2.38559714E-08
   10.4700003       2.31156232E-08
   10.5299997       2.21690257E-08
   10.5900002       2.10378328E-08
   10.6499996       1.97537755E-08
   10.7100000       1.83578912E-08
   10.7700005       1.68989693E-08
   10.8299999       1.54312723E-08
   10.8900003       1.40116390E-08
   10.9499998       1.26961002E-08
   11.0100002       1.15360663E-08
   11.0699997       1.05740101E-08
   11.1300001       9.83874493E-09
   11.1899996       9.34064914E-09
   11.2500000       9.06768616E-09
   11.3100004       8.98319641E-09
   11.3699999       9.02622421E-09
   11.4300003       9.11465836E-09
   11.4899998       9.15084630E-09
   11.5500002       9.02908948E-09
   11.6099997       8.64444250E-09
   11.6700001       7.90230903E-09
   11.7299995       6.72823308E-09
   11.7900000       5.07683051E-09
   11.8500004       2.93831337E-09
   11.9099998       3.40984546E-10
   11.9700003      -2.65130895E-09
   12.0299997      -5.94651839E-09
   12.0900002      -9.43499323E-09
   12.1499996      -1.30010953E-08
   12.2100000      -1.65337806E-08
   12.2700005      -1.99350296E-08
   12.3299999      -2.31259616E-08
   12.3900003      -2.60510031E-08
   12.4499998      -2.86801853E-08
   12.5100002      -3.10092325E-08
   12.5699997      -3.30567325E-08
   12.6300001      -3.48580436E-08
   12.6899996      -3.64565658E-08
   12.7500000      -3.78938587E-08
   12.8100004      -3.92005930E-08
   12.8699999      -4.03900628E-08
   12.9300003      -4.14551735E-08
   12.9899998      -4.23689279E-08
   13.0500002      -4.30880007E-08
   13.1099997      -4.35586465E-08
   13.1700001      -4.37243095E-08
   13.2299995      -4.35341327E-08
   13.2900000      -4.29513989E-08
   13.3500004      -4.19607105E-08
   13.4099998      -4.05726830E-08
   13.4700003      -3.88253305E-08
   13.5299997      -3.67817741E-08
   13.5900002      -3.45245326E-08
   13.6499996      -3.21470424E-08
   13.7100000      -2.97433189E-08
   13.7700005      -2.73969594E-08
   13.8299999      -2.51710048E-08
   13.8900003      -2.31003856E-08
   13.9499998      -2.11885816E-08
   14.0100002      -1.94095868E-08
   14.0699997      -1.77151787E-08
   14.1300001      -1.60462221E-08
   14.1899996      -1.43458241E-08
   14.2500000      -1.25716442E-08
   14.3100004      -1.07050226E-08
   14.3699999      -8.75534401E-09
   14.4300003      -6.75906309E-09
   14.4899998      -4.77382844E-09
   14.5500002      -2.86891355E-09
   14.6099997      -1.11379217E-09
   14.6700001       4.33029140E-10
   14.7299995       1.73284309E-09
   14.7900000       2.77168666E-09
   14.8500004       3.56077501E-09
   14.9099998       4.13293932E-09
   14.9700003       4.53655291E-09
   15.0299997       4.82885243E-09
   15.0900002       5.07025799E-09
   15.1499996       5.32043076E-09
   15.2100000       5.63573455E-09
   15.2700005       6.06707573E-09
   15.3299999       6.65707489E-09
   15.3900003       7.43621165E-09
   15.4499998       8.41862846E-09
   15.5100002       9.59906110E-09
   15.5699997       1.09524541E-08
   15.6300001       1.24370363E-08
   15.6899996       1.40002818E-08
   15.7500000       1.55859770E-08
   15.8100004       1.71400778E-08
   15.8699999       1.86135942E-08
   15.9300003       1.99621706E-08
   15.9899998       2.11435971E-08
   16.0499992       2.21154970E-08
   16.1100006       2.28354455E-08
   16.1700001       2.32645476E-08
   16.2299995       2.33739161E-08
   16.2900009       2.31519977E-08
   16.3500004       2.26101413E-08
   16.4099998       2.17843166E-08
   16.4699993       2.07321893E-08
   16.5300007       1.95262881E-08
   16.5900002       1.82450783E-08
   16.6499996       1.69641847E-08
   16.7099991       1.57496753E-08
   16.7700005       1.46543684E-08
   16.8299999       1.37172780E-08
   16.8899994       1.29653248E-08
   16.9500008       1.24159545E-08
   17.0100002       1.20791253E-08
   17.0699997       1.19574732E-08
   17.1299992       1.20442030E-08
   17.1900005       1.23193056E-08
   17.2500000       1.27457582E-08
   17.3099995       1.32678917E-08
   17.3700008       1.38138931E-08
   17.4300003       1.43032333E-08
   17.4899998       1.46581165E-08
   17.5499992       1.48164450E-08
   17.6100006       1.47429704E-08
   17.6700001       1.44356633E-08
   17.7299995       1.39256908E-08
   17.7900009       1.32712374E-08
   17.8500004       1.25468596E-08
   17.9099998       1.18309069E-08
   17.9699993       1.11934435E-08
   18.0300007       1.06866533E-08
   18.0900002       1.03391029E-08
   18.1499996       1.01546584E-08
   18.2099991       1.01162962E-08
   18.2700005       1.01940634E-08
   18.3299999       1.03553699E-08
   18.3899994       1.05747651E-08
   18.4500008       1.08401732E-08
   18.5100002       1.11535039E-08
   18.5699997       1.15255174E-08
   18.6299992       1.19670229E-08
   18.6900005       1.24799540E-08
   18.7500000       1.30518636E-08
   18.8099995       1.36559537E-08
   18.8700008       1.42566376E-08
   18.9300003       1.48187045E-08
   18.9899998       1.53171644E-08
   19.0499992       1.57449715E-08
   19.1100006       1.61165268E-08
   19.1700001       1.64658864E-08
   19.2299995       1.68396213E-08
   19.2900009       1.72853376E-08
   19.3500004       1.78381629E-08
   19.4099998       1.85085920E-08
   19.4699993       1.92755714E-08
   19.5300007       2.00877963E-08
   19.5900002       2.08738520E-08
   19.6499996       2.15587281E-08
   19.7099991       2.20816236E-08
   19.7700005       2.24091927E-08
   19.8299999       2.25399539E-08
   19.8899994       2.24989094E-08
   19.9500008       2.23250218E-08
   20.0100002       2.20565664E-08
   20.0699997       2.17195169E-08
   20.1299992       2.13223341E-08
   20.1900005       2.08576587E-08
   20.2500000       2.03089314E-08
   20.3099995       1.96585876E-08
   20.3700008       1.88945375E-08
   20.4300003       1.80127966E-08
   20.4899998       1.70157470E-08
   20.5499992       1.59071476E-08
   20.6100006       1.46861616E-08
   20.6700001       1.33431799E-08
   20.7299995       1.18596875E-08
   20.7900009       1.02130304E-08
   20.8500004       8.38500736E-09
   20.9099998       6.37133857E-09
   20.9699993       4.18823021E-09
   21.0300007       1.87290494E-09
   21.0900002      -5.23001087E-10
   21.1499996      -2.94556313E-09
   21.2099991      -5.35240785E-09
   21.2700005      -7.72363862E-09
   21.3299999      -1.00661106E-08
   21.3899994      -1.24095108E-08
   21.4500008      -1.47953862E-08
   21.5100002      -1.72624262E-08
   21.5699997      -1.98325161E-08
   21.6299992      -2.25019026E-08
   21.6900005      -2.52404906E-08
   21.7500000      -2.80000219E-08
   21.8099995      -3.07292787E-08
   21.8700008      -3.33919274E-08
   21.9300003      -3.59813974E-08
   21.9899998      -3.85274035E-08
   22.0499992      -4.10910097E-08
   22.1100006      -4.37487877E-08
   22.1700001      -4.65704915E-08
   22.2299995      -4.95972401E-08
   22.2900009      -5.28275272E-08
   22.3500004      -5.62160345E-08
   22.4099998      -5.96859451E-08
   22.4699993      -6.31509849E-08
   22.5300007      -6.65400250E-08
   22.5900002      -6.98159823E-08
   22.6499996      -7.29826795E-08
   22.7099991      -7.60771499E-08
   22.7700005      -7.91496575E-08
   22.8299999      -8.22379889E-08
   22.8899994      -8.53448299E-08
   22.9500008      -8.84261553E-08
   23.0100002      -9.13950728E-08
   23.0699997      -9.41405034E-08
   23.1299992      -9.65546505E-08
   23.1900005      -9.85600508E-08
   23.2500000      -1.00127117E-07
   23.3099995      -1.01276328E-07
   23.3700008      -1.02064867E-07
   23.4300003      -1.02562851E-07
   23.4899998      -1.02827876E-07
   23.5499992      -1.02886752E-07
   23.6100006      -1.02730510E-07
   23.6700001      -1.02323767E-07
   23.7299995      -1.01624870E-07
   23.7900009      -1.00609498E-07
   23.8500004      -9.92893163E-08
   23.9099998      -9.77189956E-08
   23.9699993      -9.59882556E-08
   24.0300007      -9.42007006E-08
   24.0900002      -9.24454113E-08
   24.1499996      -9.07702287E-08
   24.2099991      -8.91657663E-08
   24.2700005      -8.75661854E-08
   24.3299999      -8.58673275E-08
   24.3899994      -8.39573602E-08
   24.4500008      -8.17503292E-08
   24.5100002      -7.92122350E-08
   24.5699997      -7.63715349E-08
   24.6299992      -7.33109502E-08
   24.6900005      -7.01434359E-08
   24.7500000      -6.69798794E-08
   24.8099995      -6.38983053E-08
   24.8700008      -6.09235684E-08
   24.9300003      -5.80235238E-08
   24.9899998      -5.51226016E-08
   25.0499992      -5.21289287E-08
   25.1100006      -4.89669958E-08
   25.1700001      -4.56059119E-08
   25.2299995      -4.20744186E-08
   25.2900009      -3.84575465E-08
   25.3500004      -3.48757361E-08
   25.4099998      -3.14530411E-08
   25.4699993      -2.82846297E-08
   25.5300007      -2.54142378E-08
   25.5900002      -2.28285497E-08
   25.6499996      -2.04696420E-08
   25.7099991      -1.82606179E-08
   25.7700005      -1.61353952E-08
   25.8299999      -1.40627865E-08
   25.8899994      -1.20572166E-08
   25.9500008      -1.01729949E-08
   26.0100002      -8.48423731E-09
   26.0699997      -7.05690040E-09
   26.1299992      -5.92194382E-09
   26.1900005      -5.05848652E-09
   26.2500000      -4.39304415E-09
   26.3099995      -3.81604304E-09
   26.3700008      -3.21112292E-09
   26.4300003      -2.48824139E-09
   26.4899998      -1.60985592E-09
   26.5499992      -6.01464212E-10
   26.6100006       4.57061555E-10
   26.6700001       1.45637424E-09
   26.7299995       2.29043251E-09
   26.7900009       2.88644242E-09
   26.8500004       3.22270632E-09
   26.9099998       3.32958661E-09
   26.9699993       3.27447158E-09
   27.0300007       3.13649484E-09
   27.0900002       2.97940184E-09
   27.1499996       2.83086377E-09
   27.2099991       2.67410161E-09
   27.2700005       2.45382248E-09
   27.3299999       2.09435314E-09
   27.3899994       1.52446122E-09
   27.4500008       7.01543879E-10
   27.5100002      -3.71885078E-10
   27.5699997      -1.64429781E-09
   27.6299992      -3.02509284E-09
   27.6900005      -4.40564296E-09
   27.7500000      -5.68553826E-09
   27.8099995      -6.79667567E-09
   27.8700008      -7.71856179E-09
   27.9300003      -8.48076365E-09
   27.9899998      -9.15208442E-09
   28.0499992      -9.81968107E-09
   28.1100006      -1.05639781E-08
   28.1700001      -1.14362511E-08
   28.2299995      -1.24448345E-08
   28.2900009      -1.35534437E-08
   28.3500004      -1.46916745E-08
   28.4099998      -1.57743578E-08
   28.4699993      -1.67241456E-08
   28.5300007      -1.74909953E-08
   28.5900002      -1.80634139E-08
   28.6499996      -1.84688584E-08
   28.7099991      -1.87638971E-08
   28.7700005      -1.90174418E-08
   28.8299999      -1.92920506E-08
   28.8899994      -1.96285228E-08
   28.9500008      -2.00378025E-08
   29.0100002      -2.05020569E-08
   29.0699997      -2.09842348E-08
   29.1299992      -2.14430766E-08
   29.1900005      -2.18490417E-08
   29.2500000      -2.21963603E-08
   29.3099995      -2.25076366E-08
   29.3700008      -2.28295960E-08
   29.4300003      -2.32213608E-08
   29.4899998      -2.37387621E-08
   29.5499992      -2.44193270E-08
   29.6100006      -2.52720600E-08
   29.6700001      -2.62745363E-08
   29.7299995      -2.73776077E-08
   29.7900009      -2.85160606E-08
   29.8500004      -2.96223437E-08
   29.9099998      -3.06401375E-08
   29.9699993      -3.15349524E-08
   30.0300007      -3.22996705E-08
   30.0900002      -3.29541336E-08
   30.1499996      -3.35388179E-08
   30.2099991      -3.41040653E-08
   30.2700005      -3.46972300E-08
   30.3299999      -3.53507801E-08
   30.3899994      -3.60742334E-08
   30.4500008      -3.68516986E-08
   30.5100002      -3.76453215E-08
   30.5699997      -3.84031793E-08
   30.6299992      -3.90691390E-08
   30.6900005      -3.95921020E-08
   30.7500000      -3.99327860E-08
   30.8099995      -4.00674693E-08
   30.8700008      -3.99891427E-08
   30.9300003      -3.97069151E-08
   30.9899998      -3.92443233E-08
   31.0499992      -3.86365429E-08
   31.1100006      -3.79262168E-08
   31.1700001      -3.71578111E-08
   31.2299995      -3.63712935E-08
   31.2900009      -3.55966776E-08
   31.3500004      -3.48513645E-08
   31.4099998      -3.41415500E-08
   31.4699993      -3.34673480E-08
   31.5300007      -3.28295648E-08
   31.5900002      -3.22352527E-08
   31.6499996      -3.16994715E-08
   31.7099991      -3.12424682E-08
   31.7700005      -3.08837436E-08
   31.8299999      -3.06359809E-08
   31.8899994      -3.05019050E-08
   31.9500008      -3.04756433E-08
   32.0099983      -3.05479233E-08
   32.0699997      -3.07126662E-08
   32.1300011      -3.09719823E-08
   32.1899986      -3.13375743E-08
   32.2500000      -3.18283249E-08
   32.3100014      -3.24653406E-08
   32.3699989      -3.32663923E-08
   32.4300003      -3.42414168E-08
   32.4900017      -3.53898031E-08
   32.5499992      -3.66995749E-08
   32.6100006      -3.81483041E-08
   32.6699982      -3.97054869E-08
   32.7299995      -4.13361789E-08
   32.7900009      -4.30052545E-08
   32.8499985      -4.46811939E-08
   32.9099998      -4.63383714E-08
   32.9700012      -4.79572293E-08
   33.0299988      -4.95229102E-08
   33.0900002      -5.10237363E-08
   33.1500015      -5.24510995E-08
   33.2099991      -5.38013154E-08
   33.2700005      -5.50786048E-08
   33.3300018      -5.62971927E-08
   33.3899994      -5.74804346E-08
   33.4500008      -5.86563438E-08
   33.5099983      -5.98503931E-08
   33.5699997      -6.10782038E-08
   33.6300011      -6.23405185E-08
   33.6899986      -6.36217905E-08
   33.7500000      -6.48920562E-08
   33.8100014      -6.61106228E-08
   33.8699989      -6.72298981E-08
   33.9300003      -6.81988723E-08
   33.9900017      -6.89667559E-08
   34.0499992      -6.94877897E-08
   34.1100006      -6.97277542E-08
   34.1699982      -6.96710103E-08
   34.2299995      -6.93259494E-08
   34.2900009      -6.87260737E-08
   34.3499985      -6.79250505E-08
   34.4099998      -6.69861961E-08
   34.4700012      -6.59686350E-08
   34.5299988      -6.49141398E-08
   34.5900002      -6.38381863E-08
   34.6500015      -6.27278496E-08
   34.7099991      -6.15466575E-08
   34.7700005      -6.02449433E-08
   34.8300018      -5.87724855E-08
   34.8899994      -5.70902934E-08
   34.9500008      -5.51789832E-08
   35.0099983      -5.30422710E-08
   35.0699997      -5.07055944E-08
   35.1300011      -4.82104703E-08
   35.1899986      -4.56059936E-08
   35.2500000      -4.29390248E-08
   35.3100014      -4.02449061E-08
   35.3699989      -3.75407616E-08
   35.4300003      -3.48232021E-08
   35.4900017      -3.20717355E-08
   35.5499992      -2.92574391E-08
   35.6100006      -2.63549254E-08
   35.6699982      -2.33539801E-08
   35.7299995      -2.02670645E-08
   35.7900009      -1.71299366E-08
   35.8499985      -1.39949865E-08
   35.9099998      -1.09193836E-08
   35.9700012      -7.95188360E-09
   36.0299988      -5.12243137E-09
   36.0900002      -2.43761300E-09
   36.1500015       1.16961774E-10
   36.2099991       2.56822030E-09
   36.2700005       4.94363395E-09
   36.3300018       7.25904981E-09
   36.3899994       9.50990042E-09
   36.4500008       1.16686998E-08
   36.5099983       1.36901477E-08
   36.5699997       1.55228381E-08
   36.6300011       1.71239556E-08
   36.6899986       1.84717148E-08
   36.7500000       1.95705478E-08
   36.8100014       2.04465245E-08
   36.8699989       2.11345554E-08
   36.9300003       2.16626201E-08
   36.9900017       2.20399450E-08
   37.0499992       2.22544152E-08
   37.1100006       2.22805365E-08
   37.1699982       2.20943672E-08
   37.2299995       2.16887486E-08
   37.2900009       2.10819664E-08
   37.3499985       2.03160067E-08
   37.4099998       1.94450180E-08
   37.4700012       1.85186799E-08
   37.5299988       1.75669648E-08
   37.5900002       1.65919651E-08
   37.6500015       1.55694870E-08
   37.7099991       1.44594825E-08
   37.7700005       1.32214524E-08
   37.8300018       1.18296333E-08
   37.8899994       1.02831725E-08
   37.9500008       8.60838156E-09
   38.0099983       6.85267443E-09
   38.0699997       5.07234921E-09
   38.1300011       3.31812244E-09
   38.1899986       1.62296387E-09
   38.2500000      -3.92954029E-12
   38.3100014      -1.57510660E-09
   38.3699989      -3.11547521E-09
   38.4300003      -4.64879557E-09
   38.4900017      -6.18492413E-09
   38.5499992      -7.71268827E-09
   38.6100006      -9.20145116E-09
   38.6699982      -1.06112346E-08
   38.7299995      -1.19078098E-08
   38.7900009      -1.30768321E-08
   38.8499985      -1.41310812E-08
   38.9099998      -1.51073394E-08
   38.9700012      -1.60535780E-08
   39.0299988      -1.70111498E-08
   39.0900002      -1.79988948E-08
   39.1500015      -1.90053218E-08
   39.2099991      -1.99918659E-08
   39.2700005      -2.09058957E-08
   39.3300018      -2.16986926E-08
   39.3899994      -2.23422134E-08
   39.4500008      -2.28393358E-08
   39.5099983      -2.32248478E-08
   39.5699997      -2.35572379E-08
   39.6300011      -2.39038336E-08
   39.6899986      -2.43232527E-08
   39.7500000      -2.48498200E-08
   39.8100014      -2.54842814E-08
   39.8699989      -2.61939057E-08
   39.9300003      -2.69226170E-08
   39.9900017      -2.76087242E-08
   40.0499992      -2.82048447E-08
   40.1100006      -2.86932593E-08
   40.1699982      -2.90910371E-08
   40.2299995      -2.94428002E-08
   40.2900009      -2.98037293E-08
   40.3499985      -3.02191268E-08
   40.4099998      -3.07082324E-08
   40.4700012      -3.12579864E-08
   40.5299988      -3.18284208E-08
   40.5900002      -3.23667351E-08
   40.6500015      -3.28242464E-08
   40.7099991      -3.31698864E-08
   40.7700005      -3.33960060E-08
   40.8300018      -3.35155548E-08
   40.8899994      -3.35529435E-08
   40.9500008      -3.35326575E-08
   41.0099983      -3.34699344E-08
   41.0699997      -3.33663301E-08
   41.1300011      -3.32107533E-08
   41.1899986      -3.29848220E-08
   41.2500000      -3.26699272E-08
   41.3100014      -3.22534675E-08
   41.3699989      -3.17325224E-08
   41.4300003      -3.11144284E-08
   41.4900017      -3.04147640E-08
   41.5499992      -2.96537781E-08
   41.6100006      -2.88523783E-08
   41.6699982      -2.80284471E-08
   41.7299995      -2.71940603E-08
   41.7900009      -2.63541224E-08
   41.8499985      -2.55068215E-08
   41.9099998      -2.46459635E-08
   41.9700012      -2.37645832E-08
   42.0299988      -2.28585222E-08
   42.0900002      -2.19284342E-08
   42.1500015      -2.09791668E-08
   42.2099991      -2.00168717E-08
   42.2700005      -1.90455864E-08
   42.3300018      -1.80656361E-08
   42.3899994      -1.70755730E-08
   42.4500008      -1.60773919E-08
   42.5099983      -1.50827049E-08
   42.5699997      -1.41163694E-08
   42.6300011      -1.32147173E-08
   42.6899986      -1.24177815E-08
   42.7500000      -1.17577938E-08
   42.8100014      -1.12481437E-08
   42.8699989      -1.08770788E-08
   42.9300003      -1.06087068E-08
   42.9900017      -1.03910693E-08
   43.0499992      -1.01687228E-08
   43.1100006      -9.89609195E-09
   43.1699982      -9.54817558E-09
   43.2299995      -9.12631659E-09
   43.2900009      -8.65807248E-09
   43.3499985      -8.19130097E-09
   43.4099998      -7.78346454E-09
   43.4700012      -7.48810081E-09
   43.5299988      -7.34144523E-09
   43.5900002      -7.35282280E-09
   43.6500015      -7.50202656E-09
   43.7099991      -7.74507480E-09
   43.7700005      -8.02692668E-09
   43.8300018      -8.29706259E-09
   43.8899994      -8.52264836E-09
   43.9500008      -8.69497896E-09
   44.0099983      -8.82771989E-09
   44.0699997      -8.94877061E-09
   44.1300011      -9.08981335E-09
   44.1899986      -9.27780075E-09
   44.2500000      -9.53093338E-09
   44.3100014      -9.85911175E-09
   44.3699989      -1.02668034E-08
   44.4300003      -1.07556906E-08
   44.4900017      -1.13253096E-08
   44.5499992      -1.19716406E-08
   44.6100006      -1.26851338E-08
   44.6699982      -1.34502489E-08
   44.7299995      -1.42480445E-08
   44.7900009      -1.50618451E-08
   44.8499985      -1.58843907E-08
   44.9099998      -1.67237300E-08
   44.9700012      -1.76051138E-08
   45.0299988      -1.85672260E-08
   45.0900002      -1.96531644E-08
   45.1500015      -2.08985451E-08
   45.2099991      -2.23204903E-08
   45.2700005      -2.39111930E-08
   45.3300018      -2.56385722E-08
   45.3899994      -2.74543979E-08
   45.4500008      -2.93080920E-08
   45.5099983      -3.11627026E-08
   45.5699997      -3.30087033E-08
   45.6300011      -3.48713982E-08
   45.6899986      -3.68090696E-08
   45.7500000      -3.89011952E-08
   45.8100014      -4.12293879E-08
   45.8699989      -4.38566694E-08
   45.9300003      -4.68123105E-08
   45.9900017      -5.00886728E-08
   46.0499992      -5.36525313E-08
   46.1100006      -5.74680890E-08
   46.1699982      -6.15240126E-08
   46.2299995      -6.58549908E-08
   46.2900009      -7.05506693E-08
   46.3499985      -7.57498881E-08
   46.4099998      -8.16243002E-08
   46.4700012      -8.83591085E-08
   46.5299988      -9.61389119E-08
   46.5900002      -1.05143755E-07
   46.6500015      -1.15556290E-07
   46.7099991      -1.27577493E-07
   46.7700005      -1.41446819E-07
   46.8300018      -1.57462935E-07
   46.8899994      -1.76001905E-07
   46.9500008      -1.97530611E-07
   47.0099983      -2.22613849E-07
   47.0699997      -2.51914855E-07
   47.1300011      -2.86190925E-07
   47.1899986      -3.26287534E-07
   47.2500000      -3.73137397E-07
   47.3100014      -4.27769038E-07
   47.3699989      -4.91328763E-07
   47.4300003      -5.65114192E-07
   47.4900017      -6.50615334E-07
   47.5499992      -7.49553521E-07
   47.6100006      -8.63913044E-07
   47.6699982      -9.95957976E-07
   47.7299995      -1.14823797E-06
   47.7900009      -1.32358628E-06
   47.8499985      -1.52512132E-06
   47.9099998      -1.75625917E-06
   47.9700012      -2.02074125E-06
   48.0299988      -2.32267780E-06
   48.0900002      -2.66660049E-06
   48.1500015      -3.05751314E-06
   48.2099991      -3.50093774E-06
   48.2700005      -4.00294630E-06
   48.3300018      -4.57018268E-06
   48.3899994      -5.20988033E-06
   48.4500008      -5.92987317E-06
   48.5099983      -6.73861132E-06
   48.5699997      -7.64517881E-06
   48.6300011      -8.65931361E-06
   48.6899986      -9.79142715E-06
   48.7500000      -1.10526253E-05
   48.8100014      -1.24547205E-05
   48.8699989      -1.40102329E-05
   48.9300003      -1.57323848E-05
   48.9900017      -1.76350713E-05
   49.0499992      -1.97328282E-05
   49.1100006      -2.20408019E-05
   49.1699982      -2.45746960E-05
   49.2299995      -2.73507449E-05
   49.2900009      -3.03856614E-05
   49.3499985      -3.36965750E-05
   49.4099998      -3.73009716E-05
   49.4700012      -4.12165755E-05
   49.5299988      -4.54612527E-05
   49.5900002      -5.00528877E-05
   49.6500015      -5.50092263E-05
   49.7099991      -6.03477238E-05
   49.7700005      -6.60854130E-05
   49.8300018      -7.22386976E-05
   49.8899994      -7.88232355E-05
   49.9500008      -8.58537533E-05
   50.0099983      -9.33438641E-05
   50.0699997      -1.01305937E-04
   50.1300011      -1.09750858E-04
   50.1899986      -1.18687887E-04
   50.2500000      -1.28124448E-04
   50.3100014      -1.38065923E-04
   50.3699989      -1.48515464E-04
   50.4300003      -1.59473842E-04
   50.4900017      -1.70939296E-04
   50.5499992      -1.82907388E-04
   50.6100006      -1.95370885E-04