 -0.750000000       0.00000000    
 -0.689999998       0.00000000    
 -0.629999995       0.00000000    
 -0.569999993       0.00000000    
 -0.509999990       0.00000000    
 -0.449999988       2.95414295E-19
 -0.389999986       1.93817847E-18
 -0.330000013       5.78920674E-18
 -0.270000011       8.65176740E-18
 -0.209999993      -6.39986796E-19
 -0.150000006      -3.62647329E-17
  -9.00000036E-02  -9.44494146E-17
  -2.99999993E-02  -1.26379407E-16
   2.99999993E-02  -3.88764002E-17
   9.00000036E-02   2.39387340E-16
  0.150000006       6.31309379E-16
  0.209999993       8.11645499E-16
  0.270000011       2.81687292E-16
  0.330000013      -1.28237315E-15
  0.389999986      -3.50350763E-15
  0.449999988      -4.95662632E-15
  0.509999990      -3.47796217E-15
  0.569999993       2.61674693E-15
  0.629999995       1.27547797E-14
  0.689999998       2.28170669E-14
  0.750000000       2.56616881E-14
  0.810000002       1.41892545E-14
  0.870000005      -1.37863997E-14
  0.930000007      -5.12712872E-14
  0.990000010      -8.16075316E-14
   1.04999995      -8.38952863E-14
   1.11000001      -4.35386522E-14
   1.16999996       3.64012375E-14
   1.23000002       1.29494898E-13
   1.28999996       1.91284732E-13
   1.35000002       1.76562134E-13
   1.40999997       6.31342919E-14
   1.47000003      -1.28403473E-13
   1.52999997      -3.30121726E-13
   1.59000003      -4.43902537E-13
   1.64999998      -3.77888286E-13
   1.71000004      -9.04792056E-14
   1.76999998       3.75601351E-13
   1.83000004       8.85901378E-13
   1.88999999       1.24261539E-12
   1.95000005       1.24556648E-12
   2.00999999       7.69499156E-13
   2.06999993      -1.68167739E-13
   2.13000011      -1.37710481E-12
   2.19000006      -2.52165476E-12
   2.25000000      -3.20925404E-12
   2.30999994      -3.11959443E-12
   2.36999989      -2.13298368E-12
   2.43000007      -4.06365263E-13
   2.49000001       1.64496726E-12
   2.54999995       3.47101471E-12
   2.60999990       4.58299848E-12
   2.67000008       4.74832543E-12
   2.73000002       4.09562705E-12
   2.78999996       3.06370771E-12
   2.84999990       2.18840441E-12
   2.91000009       1.79913322E-12
   2.97000003       1.75902099E-12
   3.02999997       1.39524124E-12
   3.08999991      -2.88803595E-13
   3.15000010      -4.14110326E-12
   3.21000004      -1.02827937E-11
   3.26999998      -1.76731269E-11
   3.32999992      -2.40698624E-11
   3.39000010      -2.65241648E-11
   3.45000005      -2.23428741E-11
   3.50999999      -1.02237090E-11
   3.56999993       8.87973896E-12
   3.63000011       3.15887490E-11
   3.69000006       5.28369085E-11
   3.75000000       6.73684303E-11
   3.80999994       7.14876630E-11
   3.86999989       6.43484224E-11
   3.93000007       4.81599413E-11
   3.99000001       2.70820311E-11
   4.05000019       5.15874322E-12
   4.11000013      -1.58386689E-11
   4.17000008      -3.75752450E-11
   4.23000002      -6.44856876E-11
   4.28999996      -1.01111619E-10
   4.34999990      -1.48135559E-10
   4.40999985      -1.98497524E-10
   4.46999979      -2.35185538E-10
   4.53000021      -2.31869635E-10
   4.59000015      -1.56614263E-10
   4.65000010       2.21936497E-11
   4.71000004       3.29391181E-10
   4.76999998       7.77970466E-10
   4.82999992       1.36680700E-09
   4.88999987       2.08159734E-09
   4.94999981       2.89830715E-09
   5.01000023       3.78766707E-09
   5.07000017       4.71913708E-09
   5.13000011       5.66328584E-09
   5.19000006       6.59247235E-09
   5.25000000       7.48059037E-09
   5.30999994       8.30308355E-09
   5.36999989       9.03820307E-09
   5.42999983       9.66973168E-09
   5.48999977       1.01904094E-08
   5.55000019       1.06045954E-08
   5.61000013       1.09286544E-08
   5.67000008       1.11881455E-08
   5.73000002       1.14121237E-08
   5.78999996       1.16259873E-08
   5.84999990       1.18450760E-08
   5.90999985       1.20711201E-08
   5.96999979       1.22926771E-08
   6.03000021       1.24892789E-08
   6.09000015       1.26376021E-08
   6.15000010       1.27172095E-08
   6.21000004       1.27136692E-08
   6.26999998       1.26180257E-08
   6.32999992       1.24233592E-08
   6.38999987       1.21206600E-08
   6.44999981       1.16969199E-08
   6.51000023       1.11376579E-08
   6.57000017       1.04342988E-08
   6.63000011       9.59438839E-09
   6.69000006       8.65070771E-09
   6.75000000       7.66473196E-09
   6.80999994       6.72115430E-09
   6.86999989       5.91311000E-09
   6.92999983       5.32132516E-09
   6.98999977       4.99328578E-09
   7.05000019       4.92941998E-09
   7.11000013       5.08161069E-09
   7.17000008       5.36543343E-09
   7.23000002       5.68281289E-09
   7.28999996       5.94796434E-09
   7.34999990       6.10822593E-09
   7.40999985       6.15317708E-09
   7.46999979       6.10975803E-09
   7.53000021       6.02622219E-09
   7.59000015       5.95166938E-09
   7.65000010       5.91911231E-09
   7.71000004       5.93804206E-09
   7.76999998       5.99824590E-09
   7.82999992       6.08193496E-09
   7.88999987       6.17805407E-09
   7.94999981       6.29212904E-09
   8.01000023       6.44732490E-09
   8.06999969       6.67633282E-09
   8.13000011       7.00761582E-09
   8.18999958       7.45177253E-09
   8.25000000       7.99353650E-09
   8.31000042       8.59247518E-09
   8.36999989       9.19191567E-09
   8.43000031       9.73258452E-09
   8.48999977       1.01659934E-08
   8.55000019       1.04632694E-08
   8.60999966       1.06173825E-08
   8.67000008       1.06394760E-08
   8.72999954       1.05520872E-08
   8.78999996       1.03825846E-08
   8.85000038       1.01591064E-08
   8.90999985       9.90929738E-09
   8.97000027       9.66024505E-09
   9.02999973       9.43719769E-09
   9.09000015       9.25938881E-09
   9.14999962       9.13320797E-09
   9.21000004       9.04522057E-09
   9.27000046       8.95884877E-09
   9.32999992       8.81809203E-09
   9.39000034       8.55941984E-09
   9.44999981       8.12949263E-09
   9.51000023       7.50335527E-09
   9.56999969       6.69638256E-09
   9.63000011       5.76454884E-09
   9.68999958       4.79132733E-09
   9.75000000       3.86433463E-09
   9.81000042       3.04895997E-09
   9.86999989       2.36783304E-09
   9.93000031       1.79336235E-09
   9.98999977       1.25620370E-09
   10.0500002       6.67015443E-10
   10.1099997      -5.56685843E-11
   10.1700001      -9.60494129E-10
   10.2299995      -2.04896788E-09
   10.2900000      -3.27556471E-09
   10.3500004      -4.56122207E-09
   10.4099998      -5.81516346E-09
   10.4700003      -6.95807501E-09
   10.5299997      -7.94013033E-09
   10.5900002      -8.74971207E-09
   10.6499996      -9.41173894E-09
   10.7100000      -9.97732652E-09
   10.7700005      -1.05083080E-08
   10.8299999      -1.10607576E-08
   10.8900003      -1.16713572E-08
   10.9499998      -1.23493766E-08
   11.0100002      -1.30757174E-08
   11.0699997      -1.38089309E-08
   11.1300001      -1.44966581E-08
   11.1899996      -1.50897268E-08
   11.2500000      -1.55555195E-08
   11.3100004      -1.58873092E-08
   11.3699999      -1.61072773E-08
   11.4300003      -1.62625255E-08
   11.4899998      -1.64152123E-08
   11.5500002      -1.66294232E-08
   11.6099997      -1.69580741E-08
   11.6700001      -1.74328623E-08
   11.7299995      -1.80592501E-08
   11.7900000      -1.88171541E-08
   11.8500004      -1.96666257E-08
   11.9099998      -2.05569997E-08
   11.9700003      -2.14375078E-08
   12.0299997      -2.22672440E-08
   12.0900002      -2.30225083E-08
   12.1499996      -2.36999167E-08
   12.2100000      -2.43143283E-08
   12.2700005      -2.48918539E-08
   12.3299999      -2.54595101E-08
   12.3900003      -2.60344581E-08
   12.4499998      -2.66161795E-08
   12.5100002      -2.71842779E-08
   12.5699997      -2.77027308E-08
   12.6300001      -2.81289712E-08
   12.6899996      -2.84243367E-08
   12.7500000      -2.85619652E-08
   12.8100004      -2.85295183E-08
   12.8699999      -2.83266406E-08
   12.9300003      -2.79594907E-08
   12.9899998      -2.74357692E-08
   13.0500002      -2.67629066E-08
   13.1099997      -2.59497615E-08
   13.1700001      -2.50097862E-08
   13.2299995      -2.39624711E-08
   13.2900000      -2.28308483E-08
   13.3500004      -2.16352749E-08
   13.4099998      -2.03864143E-08
   13.4700003      -1.90814049E-08
   13.5299997      -1.77060535E-08
   13.5900002      -1.62428275E-08
   13.6499996      -1.46810875E-08
   13.7100000      -1.30244207E-08
   13.7700005      -1.12910286E-08
   13.8299999      -9.50658219E-09
   13.8900003      -7.69295294E-09
   13.9499998      -5.85867799E-09
   14.0100002      -3.99644984E-09
   14.0699997      -2.08949458E-09
   14.1300001      -1.24201122E-10
   14.1899996       1.89704630E-09
   14.2500000       3.94923294E-09
   14.3100004       5.98788130E-09
   14.3699999       7.96098121E-09
   14.4300003       9.82451898E-09
   14.4899998       1.15549037E-08
   14.5500002       1.31532660E-08
   14.6099997       1.46405883E-08
   14.6700001       1.60468012E-08
   14.7299995       1.73992589E-08
   14.7900000       1.87154079E-08
   14.8500004       2.00016572E-08
   14.9099998       2.12570157E-08
   14.9700003       2.24780532E-08
   15.0299997       2.36619186E-08
   15.0900002       2.48062264E-08
   15.1499996       2.59070614E-08
   15.2100000       2.69575544E-08
   15.2700005       2.79489072E-08
   15.3299999       2.88737745E-08
   15.3900003       2.97300300E-08
   15.4499998       3.05225321E-08
   15.5100002       3.12616599E-08
   15.5699997       3.19595941E-08
   15.6300001       3.26269998E-08
   15.6899996       3.32723822E-08
   15.7500000       3.39048540E-08
   15.8100004       3.45381892E-08
   15.8699999       3.51927092E-08
   15.9300003       3.58920786E-08
   15.9899998       3.66547717E-08
   16.0499992       3.74833817E-08
   16.1100006       3.83568732E-08
   16.1700001       3.92305211E-08
   16.2299995       4.00451476E-08
   16.2900009       4.07430640E-08
   16.3500004       4.12848848E-08
   16.4099998       4.16607122E-08
   16.4699993       4.18915249E-08
   16.5300007       4.20206199E-08
   16.5900002       4.20991100E-08
   16.6499996       4.21711803E-08
   16.7099991       4.22642721E-08
   16.7700005       4.23861870E-08
   16.8299999       4.25280291E-08
   16.8899994       4.26697575E-08
   16.9500008       4.27852278E-08
   17.0100002       4.28453681E-08
   17.0699997       4.28203322E-08
   17.1299992       4.26822417E-08
   17.1900005       4.24096811E-08
   17.2500000       4.19929087E-08
   17.3099995       4.14372536E-08
   17.3700008       4.07621101E-08
   17.4300003       3.99946103E-08
   17.4899998       3.91601169E-08
   17.5499992       3.82736687E-08
   17.6100006       3.73365658E-08
   17.6700001       3.63398840E-08
   17.7299995       3.52731604E-08
   17.7900009       3.41337554E-08
   17.8500004       3.29320855E-08
   17.9099998       3.16902309E-08
   17.9699993       3.04351317E-08
   18.0300007       2.91903905E-08
   18.0900002       2.79711045E-08
   18.1499996       2.67840274E-08
   18.2099991       2.56319463E-08
   18.2700005       2.45186129E-08
   18.3299999       2.34505375E-08
   18.3899994       2.24342038E-08
   18.4500008       2.14704858E-08
   18.5100002       2.05502175E-08
   18.5699997       1.96544256E-08
   18.6299992       1.87601774E-08
   18.6900005       1.78495387E-08
   18.7500000       1.69171823E-08
   18.8099995       1.59726259E-08
   18.8700008       1.50359707E-08
   18.9300003       1.41294949E-08
   18.9899998       1.32696334E-08
   19.0499992       1.24633823E-08
   19.1100006       1.17104539E-08
   19.1700001       1.10090088E-08
   19.2299995       1.03606919E-08
   19.2900009       9.77120962E-09
   19.3500004       9.24550303E-09
   19.4099998       8.78021389E-09
   19.4699993       8.35824387E-09
   19.5300007       7.94968980E-09
   19.5900002       7.52018359E-09
   19.6499996       7.04359726E-09
   19.7099991       6.51326015E-09
   19.7700005       5.94605254E-09
   19.8299999       5.37691802E-09
   19.8899994       4.84592100E-09
   19.9500008       4.38359393E-09
   20.0100002       4.00105593E-09
   20.0699997       3.68892583E-09
   20.1299992       3.42478823E-09
   20.1900005       3.18507842E-09
   20.2500000       2.95575120E-09
   20.3099995       2.73742207E-09
   20.3700008       2.54388621E-09
   20.4300003       2.39606157E-09
   20.4899998       2.31491915E-09
   20.5499992       2.31635156E-09
   20.6100006       2.40901277E-09
   20.6700001       2.59436739E-09
   20.7299995       2.86753599E-09
   20.7900009       3.21811933E-09
   20.8500004       3.63122221E-09
   20.9099998       4.08933287E-09
   20.9699993       4.57516292E-09
   21.0300007       5.07444931E-09
   21.0900002       5.57705615E-09
   21.1499996       6.07525008E-09
   21.2099991       6.55963950E-09
   21.2700005       7.01492331E-09
   21.3299999       7.41813633E-09
   21.3899994       7.74084707E-09
   21.4500008       7.95437938E-09
   21.5100002       8.03499933E-09
   21.5699997       7.96564059E-09
   21.6299992       7.73254882E-09
   21.6900005       7.31835081E-09
   21.7500000       6.69560318E-09
   21.8099995       5.82527315E-09
   21.8700008       4.66231365E-09
   21.9300003       3.16672977E-09
   21.9899998       1.31536537E-09
   22.0499992      -8.91088370E-10
   22.1100006      -3.42912054E-09
   22.1700001      -6.26073637E-09
   22.2299995      -9.34479960E-09
   22.2900009      -1.26458861E-08
   22.3500004      -1.61369105E-08
   22.4099998      -1.97954204E-08
   22.4699993      -2.35968809E-08
   22.5300007      -2.75095839E-08
   22.5900002      -3.14942916E-08
   22.6499996      -3.55086414E-08
   22.7099991      -3.95131963E-08
   22.7700005      -4.34750014E-08
   22.8299999      -4.73660826E-08
   22.8899994      -5.11574179E-08
   22.9500008      -5.48121086E-08
   23.0100002      -5.82823532E-08
   23.0699997      -6.15133473E-08
   23.1299992      -6.44535660E-08
   23.1900005      -6.70673543E-08
   23.2500000      -6.93441109E-08
   23.3099995      -7.12995316E-08
   23.3700008      -7.29678789E-08
   23.4300003      -7.43886730E-08
   23.4899998      -7.55936043E-08
   23.5499992      -7.65993207E-08
   23.6100006      -7.74087283E-08
   23.6700001      -7.80191840E-08
   23.7299995      -7.84324072E-08
   23.7900009      -7.86608112E-08
   23.8500004      -7.87265364E-08
   23.9099998      -7.86538550E-08
   23.9699993      -7.84588750E-08
   24.0300007      -7.81418379E-08
   24.0900002      -7.76856766E-08
   24.1499996      -7.70616069E-08
   24.2099991      -7.62389121E-08
   24.2700005      -7.51949472E-08
   24.3299999      -7.39216688E-08
   24.3899994      -7.24271985E-08
   24.4500008      -7.07332504E-08
   24.5100002      -6.88701860E-08
   24.5699997      -6.68714932E-08
   24.6299992      -6.47684573E-08
   24.6900005      -6.25854426E-08
   24.7500000      -6.03361769E-08
   24.8099995      -5.80221915E-08
   24.8700008      -5.56347572E-08
   24.9300003      -5.31607398E-08
   24.9899998      -5.05909661E-08
   25.0499992      -4.79280331E-08
   25.1100006      -4.51897684E-08
   25.1700001      -4.24061568E-08
   25.2299995      -3.96104589E-08
   25.2900009      -3.68281690E-08
   25.3500004      -3.40689503E-08
   25.4099998      -3.13254525E-08
   25.4699993      -2.85797892E-08
   25.5300007      -2.58148507E-08
   25.5900002      -2.30253789E-08
   25.6499996      -2.02240500E-08
   25.7099991      -1.74402857E-08
   25.7700005      -1.47129215E-08
   25.8299999      -1.20804140E-08
   25.8899994      -9.57264579E-09
   25.9500008      -7.20700699E-09
   26.0100002      -4.98883068E-09
   26.0699997      -2.91436164E-09
   26.1299992      -9.73889525E-10
   26.1900005       8.46285708E-10
   26.2500000       2.56264898E-09
   26.3099995       4.19245794E-09
   26.3700008       5.74952397E-09
   26.4300003       7.23792581E-09
   26.4899998       8.64578098E-09
   26.5499992       9.94241844E-09
   26.6100006       1.10817799E-08
   26.6700001       1.20126806E-08
   26.7299995       1.26934721E-08
   26.7900009       1.31062849E-08
   26.8500004       1.32654403E-08
   26.9099998       1.32163480E-08
   26.9699993       1.30244446E-08
   27.0300007       1.27572486E-08
   27.0900002       1.24648789E-08
   27.1499996       1.21647163E-08
   27.2099991       1.18342749E-08
   27.2700005       1.14137872E-08
   27.3299999       1.08173772E-08
   27.3899994       9.94988270E-09
   27.4500008       8.72564510E-09
   27.5100002       7.08563785E-09
   27.5699997       5.00994046E-09
   27.6299992       2.52352983E-09
   27.6900005      -3.05373504E-10
   27.7500000      -3.37370554E-09
   27.8099995      -6.55660770E-09
   27.8700008      -9.72212444E-09
   27.9300003      -1.27445539E-08
   27.9899998      -1.55143720E-08
   28.0499992      -1.79442061E-08
   28.1100006      -1.99716492E-08
   28.1700001      -2.15602807E-08
   28.2299995      -2.26998171E-08
   28.2900009      -2.34053736E-08
   28.3500004      -2.37150104E-08
   28.4099998      -2.36848035E-08
   28.4699993      -2.33815900E-08
   28.5300007      -2.28747155E-08
   28.5900002      -2.22287468E-08
   28.6499996      -2.14985931E-08
   28.7099991      -2.07270343E-08
   28.7700005      -1.99431565E-08
   28.8299999      -1.91597458E-08
   28.8899994      -1.83689011E-08
   28.9500008      -1.75374915E-08
   29.0100002      -1.66061795E-08
   29.0699997      -1.54960809E-08
   29.1299992      -1.41248462E-08
   29.1900005      -1.24296706E-08
   29.2500000      -1.03905178E-08
   29.3099995      -8.04492384E-09
   29.3700008      -5.48764056E-09
   29.4300003      -2.85367130E-09
   29.4899998      -2.89693575E-10
   29.5499992       2.07646522E-09
   29.6100006       4.15813606E-09
   29.6700001       5.91755489E-09
   29.7299995       7.35912309E-09
   29.7900009       8.51400017E-09
   29.8500004       9.42438749E-09
   29.9099998       1.01340385E-08
   29.9699993       1.06868310E-08
   30.0300007       1.11301759E-08
   30.0900002       1.15175096E-08
   30.1499996       1.19051160E-08
   30.2099991       1.23423911E-08
   30.2700005       1.28589797E-08
   30.3299999       1.34546516E-08
   30.3899994       1.40969130E-08
   30.4500008       1.47279779E-08
   30.5100002       1.52784949E-08
   30.5699997       1.56828026E-08
   30.6299992       1.58905706E-08
   30.6900005       1.58721161E-08
   30.7500000       1.56180562E-08
   30.8099995       1.51360826E-08
   30.8700008       1.44478465E-08
   30.9300003       1.35871137E-08
   30.9899998       1.25982220E-08
   31.0499992       1.15327978E-08
   31.1100006       1.04434887E-08
   31.1700001       9.37559097E-09
   31.2299995       8.35942515E-09
   31.2900009       7.40677741E-09
   31.3500004       6.51305943E-09
   31.4099998       5.66406921E-09
   31.4699993       4.84384977E-09
   31.5300007       4.03971923E-09
   31.5900002       3.24235816E-09
   31.6499996       2.44190557E-09
   31.7099991       1.62344993E-09
   31.7700005       7.65734476E-10
   31.8299999      -1.55060131E-10
   31.8899994      -1.15769849E-09
   31.9500008      -2.24816499E-09
   32.0099983      -3.41593065E-09
   32.0699997      -4.63638283E-09
   32.1300011      -5.87848925E-09
   32.1899986      -7.11424075E-09
   32.2500000      -8.32583691E-09
   32.3100014      -9.50814627E-09
   32.3699989      -1.06666045E-08
   32.4300003      -1.18129675E-08
   32.4900017      -1.29618014E-08
   32.5499992      -1.41294105E-08
   32.6100006      -1.53346242E-08
   32.6699982      -1.65992571E-08
   32.7299995      -1.79459310E-08
   32.7900009      -1.93925480E-08
   32.8499985      -2.09451390E-08
   32.9099998      -2.25925536E-08
   32.9700012      -2.43064040E-08
   33.0299988      -2.60476227E-08
   33.0900002      -2.77776859E-08
   33.1500015      -2.94698737E-08
   33.2099991      -3.11152561E-08
   33.2700005      -3.27202478E-08
   33.3300018      -3.42963702E-08
   33.3899994      -3.58469094E-08
   33.4500008      -3.73569513E-08
   33.5099983      -3.87918284E-08
   33.5699997      -4.01051352E-08
   33.6300011      -4.12527328E-08
   33.6899986      -4.22064552E-08
   33.7500000      -4.29616094E-08
   33.8100014      -4.35359020E-08
   33.8699989      -4.39617232E-08
   33.9300003      -4.42767032E-08
   33.9900017      -4.45170620E-08
   34.0499992      -4.47154953E-08
   34.1100006      -4.49017108E-08
   34.1699982      -4.51018103E-08
   34.2299995      -4.53339553E-08
   34.2900009      -4.56010198E-08
   34.3499985      -4.58844198E-08
   34.4099998      -4.61441232E-08
   34.4700012      -4.63276351E-08
   34.5299988      -4.63860133E-08
   34.5900002      -4.62908467E-08
   34.6500015      -4.60448319E-08
   34.7099991      -4.56811158E-08
   34.7700005      -4.52516140E-08
   34.8300018      -4.48094291E-08
   34.8899994      -4.43926886E-08
   34.9500008      -4.40155006E-08
   35.0099983      -4.36678818E-08
   35.0699997      -4.33221032E-08
   35.1300011      -4.29408864E-08
   35.1899986      -4.24837054E-08
   35.2500000      -4.19101021E-08
   35.3100014      -4.11817389E-08
   35.3699989      -4.02657427E-08
   35.4300003      -3.91406054E-08
   35.4900017      -3.78032858E-08
   35.5499992      -3.62741552E-08
   35.6100006      -3.45964644E-08
   35.6699982      -3.28290390E-08
   35.7299995      -3.10342365E-08
   35.7900009      -2.92655145E-08
   35.8499985      -2.75590413E-08
   35.9099998      -2.59318327E-08
   35.9700012      -2.43856295E-08
   36.0299988      -2.29132251E-08
   36.0900002      -2.15035634E-08
   36.1500015      -2.01436148E-08
   36.2099991      -1.88177065E-08
   36.2700005      -1.75069435E-08
   36.3300018      -1.61912670E-08
   36.3899994      -1.48547592E-08
   36.4500008      -1.34921212E-08
   36.5099983      -1.21127348E-08
   36.5699997      -1.07393587E-08
   36.6300011      -9.40122291E-09
   36.6899986      -8.12443446E-09
   36.7500000      -6.92440283E-09
   36.8100014      -5.80415671E-09
   36.8699989      -4.75933026E-09
   36.9300003      -3.78687837E-09
   36.9900017      -2.89237478E-09
   37.0499992      -2.09137596E-09
   37.1100006      -1.40353784E-09
   37.1699982      -8.42219960E-10
   37.2299995      -4.05004363E-10
   37.2900009      -7.03365213E-11
   37.3499985       1.97482974E-10
   37.4099998       4.36906317E-10
   37.4700012       6.76416645E-10
   37.5299988       9.25992893E-10
   37.5900002       1.17593379E-09
   37.6500015       1.40245748E-09
   37.7099991       1.57640911E-09
   37.7700005       1.67058323E-09
   37.8300018       1.66286285E-09
   37.8899994       1.53537294E-09
   37.9500008       1.27227984E-09
   38.0099983       8.59313731E-10
   38.0699997       2.86349472E-10
   38.1300011      -4.48293541E-10
   38.1899986      -1.33500311E-09
   38.2500000      -2.35432851E-09
   38.3100014      -3.48315887E-09
   38.3699989      -4.70293271E-09
   38.4300003      -6.00537531E-09
   38.4900017      -7.39201722E-09
   38.5499992      -8.86693385E-09
   38.6100006      -1.04260529E-08
   38.6699982      -1.20487105E-08
   38.7299995      -1.36964733E-08
   38.7900009      -1.53207171E-08
   38.8499985      -1.68759620E-08
   38.9099998      -1.83328197E-08
   38.9700012      -1.96845882E-08
   39.0299988      -2.09447766E-08
   39.0900002      -2.21373568E-08
   39.1500015      -2.32851534E-08
   39.2099991      -2.44021159E-08
   39.2700005      -2.54926924E-08
   39.3300018      -2.65572737E-08
   39.3899994      -2.75993042E-08
   39.4500008      -2.86290440E-08
   39.5099983      -2.96610789E-08
   39.5699997      -3.07065982E-08
   39.6300011      -3.17646389E-08
   39.6899986      -3.28174856E-08
   39.7500000      -3.38333876E-08
   39.8100014      -3.47762530E-08
   39.8699989      -3.56183705E-08
   39.9300003      -3.63507624E-08
   39.9900017      -3.69868616E-08
   40.0499992      -3.75581664E-08
   40.1100006      -3.81041723E-08
   40.1699982      -3.86608860E-08
   40.2299995      -3.92523347E-08
   40.2900009      -3.98874995E-08
   40.3499985      -4.05624405E-08
   40.4099998      -4.12652703E-08
   40.4700012      -4.19812025E-08
   40.5299988      -4.26959978E-08
   40.5900002      -4.33978862E-08
   40.6500015      -4.40790942E-08
   40.7099991      -4.47381119E-08
   40.7700005      -4.53824427E-08
   40.8300018      -4.60300171E-08
   40.8899994      -4.67069867E-08
   40.9500008      -4.74406860E-08
   41.0099983      -4.82490421E-08
   41.0699997      -4.91301400E-08
   41.1300011      -5.00566983E-08
   41.1899986      -5.09788691E-08
   41.2500000      -5.18354284E-08
   41.3100014      -5.25696997E-08
   41.3699989      -5.31441771E-08
   41.4300003      -5.35481561E-08
   41.4900017      -5.37955813E-08
   41.5499992      -5.39146541E-08
   41.6100006      -5.39340093E-08
   41.6699982      -5.38716591E-08
   41.7299995      -5.37309397E-08
   41.7900009      -5.35044435E-08
   41.8499985      -5.31831859E-08
   41.9099998      -5.27662465E-08
   41.9700012      -5.22663157E-08
   42.0299988      -5.17090086E-08
   42.0900002      -5.11267118E-08
   42.1500015      -5.05499429E-08
   42.2099991      -4.99999508E-08
   42.2700005      -4.94848464E-08
   42.3300018      -4.89997447E-08
   42.3899994      -4.85294294E-08
   42.4500008      -4.80515503E-08
   42.5099983      -4.75391566E-08
   42.5699997      -4.69627288E-08
   42.6300011      -4.62930032E-08
   42.6899986      -4.55054874E-08
   42.7500000      -4.45863293E-08
   42.8100014      -4.35373160E-08
   42.8699989      -4.23770814E-08
   42.9300003      -4.11366869E-08
   42.9900017      -3.98502209E-08
   43.0499992      -3.85441474E-08
   43.1100006      -3.72301159E-08
   43.1699982      -3.59050745E-08
   43.2299995      -3.45587168E-08
   43.2900009      -3.31846870E-08
   43.3499985      -3.17896074E-08
   43.4099998      -3.03951104E-08
   43.4700012      -2.90316375E-08
   43.5299988      -2.77272214E-08
   43.5900002      -2.64972098E-08
   43.6500015      -2.53401939E-08
   43.7099991      -2.42419400E-08
   43.7700005      -2.31847803E-08
   43.8300018      -2.21571472E-08
   43.8899994      -2.11583657E-08
   43.9500008      -2.01970050E-08
   44.0099983      -1.92849381E-08
   44.0699997      -1.84315461E-08
   44.1300011      -1.76418613E-08
   44.1899986      -1.69194347E-08
   44.2500000      -1.62713185E-08
   44.3100014      -1.57109348E-08
   44.3699989      -1.52557220E-08
   44.4300003      -1.49197614E-08
   44.4900017      -1.47048986E-08
   44.5499992      -1.45953107E-08
   44.6100006      -1.45590988E-08
   44.6699982      -1.45569272E-08
   44.7299995      -1.45541117E-08
   44.7900009      -1.45307579E-08
   44.8499985      -1.44856012E-08
   44.9099998      -1.44325085E-08
   44.9700012      -1.43922980E-08
   45.0299988      -1.43846197E-08
   45.0900002      -1.44240779E-08
   45.1500015      -1.45218459E-08
   45.2099991      -1.46905785E-08
   45.2700005      -1.49483270E-08
   45.3300018      -1.53178004E-08
   45.3899994      -1.58202020E-08
   45.4500008      -1.64665650E-08
   45.5099983      -1.72515815E-08
   45.5699997      -1.81541804E-08
   45.6300011      -1.91458138E-08
   45.6899986      -2.02032311E-08
   45.7500000      -2.13199502E-08
   45.8100014      -2.25112533E-08
   45.8699989      -2.38107667E-08
   45.9300003      -2.52611478E-08
   45.9900017      -2.69040594E-08
   46.0499992      -2.87744140E-08
   46.1100006      -3.09008037E-08
   46.1699982      -3.33103820E-08
   46.2299995      -3.60343400E-08
   46.2900009      -3.91107022E-08
   46.3499985      -4.25841016E-08
   46.4099998      -4.65048871E-08
   46.4700012      -5.09307299E-08
   46.5299988      -5.59323112E-08
   46.5900002      -6.16013125E-08
   46.6500015      -6.80570835E-08
   46.7099991      -7.54485185E-08
   46.7700005      -8.39510008E-08
   46.8300018      -9.37616988E-08
   46.8899994      -1.05098657E-07
   46.9500008      -1.18207566E-07
   47.0099983      -1.33376048E-07
   47.0699997      -1.50951067E-07
   47.1300011      -1.71352738E-07
   47.1899986      -1.95079778E-07
   47.2500000      -2.22706220E-07
   47.3100014      -2.54874038E-07
   47.3699989      -2.92288945E-07
   47.4300003      -3.35724536E-07
   47.4900017      -3.86037186E-07
   47.5499992      -4.44186981E-07
   47.6100006      -5.11260055E-07
   47.6699982      -5.88485818E-07
   47.7299995      -6.77248977E-07
   47.7900009      -7.79097604E-07
   47.8499985      -8.95753828E-07
   47.9099998      -1.02912998E-06
   47.9700012      -1.18135165E-06
   48.0299988      -1.35478240E-06
   48.0900002      -1.55204771E-06
   48.1500015      -1.77605034E-06
   48.2099991      -2.02997785E-06
   48.2700005      -2.31730837E-06
   48.3300018      -2.64181676E-06
   48.3899994      -3.00758848E-06
   48.4500008      -3.41903956E-06
   48.5099983      -3.88093849E-06
   48.5699997      -4.39842506E-06
   48.6300011      -4.97701467E-06
   48.6899986      -5.62259811E-06
   48.7500000      -6.34142998E-06
   48.8100014      -7.14012276E-06
   48.8699989      -8.02564409E-06
   48.9300003      -9.00532541E-06
   48.9900017      -1.00868756E-05
   49.0499992      -1.12783810E-05
   49.1100006      -1.25882916E-05
   49.1699982      -1.40253942E-05
   49.2299995      -1.55987655E-05
   49.2900009      -1.73177286E-05
   49.3499985      -1.91917879E-05
   49.4099998      -2.12305986E-05
   49.4700012      -2.34439067E-05
   49.5299988      -2.58414912E-05
   49.5900002      -2.84330872E-05
   49.6500015      -3.12283046E-05
   49.7099991      -3.42365311E-05
   49.7700005      -3.74668598E-05
   49.8300018      -4.09279928E-05
   49.8899994      -4.46281738E-05
   49.9500008      -4.85751116E-05
   50.0099983      -5.27758712E-05
   50.0699997      -5.72367608E-05
   50.1300011      -6.19632265E-05
   50.1899986      -6.69596702E-05
   50.2500000      -7.22293989E-05
   50.3100014      -7.77744572E-05
   50.3699989      -8.35955871E-05
   50.4300003      -8.96921192E-05
   50.4900017      -9.60619363E-05
   50.5499992      -1.02701408E-04
   50.6100006      -1.09605338E-04