  -2.400000      0.0000000E+00
  -2.340000      0.0000000E+00
  -2.280000      0.0000000E+00
  -2.220000      0.0000000E+00
  -2.160000      0.0000000E+00
  -2.100000      3.4702080E-19
  -2.040000      2.1873755E-18
  -1.980000      6.0489489E-18
  -1.920000      7.0660994E-18
  -1.860000     -8.7427002E-18
  -1.800000     -5.5776398E-17
  -1.740000     -1.2073365E-16
  -1.680000     -1.3151063E-16
  -1.620000      3.1751695E-17
  -1.560000      4.4019259E-16
  -1.500000      9.5297623E-16
  -1.440000      1.1091129E-15
  -1.380000      2.5782531E-16
  -1.320000     -1.9716729E-15
  -1.260000     -5.0154024E-15
  -1.200000     -6.9944106E-15
  -1.140000     -5.1727468E-15
  -1.080000      2.5044799E-15
  -1.020000      1.5284571E-14
 -0.9600000      2.8162785E-14
 -0.9000000      3.2620835E-14
 -0.8400000      2.0272646E-14
 -0.7800000     -1.1551201E-14
 -0.7200000     -5.5058951E-14
 -0.6600000     -9.1587375E-14
 -0.6000000     -9.7720484E-14
 -0.5400000     -5.6914339E-14
 -0.4800000      2.8153810E-14
 -0.4200000      1.2944526E-13
 -0.3600000      1.9932604E-13
 -0.3000000      1.8908104E-13
 -0.2400000      7.4337461E-14
 -0.1800000     -1.2373495E-13
 -0.1200000     -3.3340285E-13
 -5.9999999E-02 -4.5053300E-13
  0.0000000E+00 -3.7760143E-13
  5.9999999E-02 -7.1110578E-14
  0.1200000      4.2148368E-13
  0.1800000      9.5380323E-13
  0.2400000      1.3119286E-12
  0.3000000      1.2818649E-12
  0.3600000      7.3484795E-13
  0.4200000     -2.9881360E-13
  0.4800000     -1.5990289E-12
  0.5400000     -2.7907782E-12
  0.6000000     -3.4466074E-12
  0.6600000     -3.2322177E-12
  0.7200000     -2.0468442E-12
  0.7800000     -1.0025624E-13
  0.8400000      2.1189506E-12
  0.9000000      3.9925849E-12
  0.9600000      4.9980992E-12
   1.020000      4.9242260E-12
   1.080000      3.9763856E-12
   1.140000      2.7006563E-12
   1.200000      1.7263556E-12
   1.260000      1.4163575E-12
   1.320000      1.5819651E-12
   1.380000      1.4268745E-12
   1.440000     -1.8631869E-13
   1.500000     -4.1884330E-12
   1.560000     -1.0665132E-11
   1.620000     -1.8412874E-11
   1.680000     -2.4957970E-11
   1.740000     -2.7160630E-11
   1.800000     -2.2288310E-11
   1.860000     -9.2048712E-12
   1.920000      1.0806341E-11
   1.980000      3.4004414E-11
   2.040000      5.5093340E-11
   2.100000      6.8837894E-11
   2.160000      7.1817663E-11
   2.220000      6.3594879E-11
   2.280000      4.6725721E-11
   2.340000      2.5483834E-11
   2.400000      3.7366451E-12
   2.460000     -1.7117283E-11
   2.520000     -3.9105493E-11
   2.580000     -6.6796298E-11
   2.640000     -1.0451442E-10
   2.700000     -1.5241185E-10
   2.760000     -2.0276200E-10
   2.820000     -2.3797994E-10
   2.880000     -2.3142739E-10
   2.940000     -1.5116224E-10
   3.000000      3.4229512E-11
   3.060000      3.4934317E-10
   3.120000      8.0701157E-10
   3.180000      1.4060512E-09
   3.240000      2.1321016E-09
   3.300000      2.9609140E-09
   3.360000      3.8627173E-09
   3.420000      4.8061475E-09
   3.480000      5.7607079E-09
   3.540000      6.6976051E-09
   3.600000      7.5896711E-09
   3.660000      8.4115221E-09
   3.720000      9.1409404E-09
   3.780000      9.7616910E-09
   3.840000      1.0267041E-08
   3.900000      1.0662480E-08
   3.960000      1.0966049E-08
   4.020000      1.1205338E-08
   4.080000      1.1411389E-08
   4.140000      1.1611115E-08
   4.200000      1.1820529E-08
   4.260000      1.2041105E-08
   4.320000      1.2260455E-08
   4.380000      1.2456991E-08
   4.440000      1.2606644E-08
   4.500000      1.2688903E-08
   4.560000      1.2689826E-08
   4.620000      1.2600990E-08
   4.680000      1.2415389E-08
   4.740000      1.2122848E-08
   4.800000      1.1708169E-08
   4.860000      1.1154296E-08
   4.920000      1.0450644E-08
   4.980000      9.6041761E-09
   5.040000      8.6488408E-09
   5.100000      7.6486089E-09
   5.160000      6.6910060E-09
   5.220000      5.8712200E-09
   5.280000      5.2705373E-09
   5.340000      4.9355315E-09
   5.400000      4.8649720E-09
   5.460000      5.0093449E-09
   5.520000      5.2838720E-09
   5.580000      5.5912865E-09
   5.640000      5.8472138E-09
   5.700000      6.0000755E-09
   5.760000      6.0394481E-09
   5.820000      5.9910072E-09
   5.880000      5.9009846E-09
   5.940000      5.8166343E-09
   6.000000      5.7701568E-09
   6.060000      5.7716449E-09
   6.120000      5.8126548E-09
   6.180000      5.8776468E-09
   6.240000      5.9575460E-09
   6.300000      6.0591301E-09
   6.360000      6.2060406E-09
   6.420000      6.4308976E-09
   6.480000      6.7617947E-09
   6.540000      7.2087203E-09
   6.600000      7.7554292E-09
   6.660000      8.3600078E-09
   6.720000      8.9639176E-09
   6.780000      9.5061106E-09
   6.840000      9.9370991E-09
   6.900000      1.0228347E-08
   6.960000      1.0374563E-08
   7.020000      1.0389430E-08
   7.080000      1.0297733E-08
   7.140000      1.0127692E-08
   7.200000      9.9063158E-09
   7.260000      9.6584509E-09
   7.320000      9.4078425E-09
   7.380000      9.1773424E-09
   7.440000      8.9858920E-09
   7.500000      8.8419707E-09
   7.560000      8.7358494E-09
   7.620000      8.6348049E-09
   7.680000      8.4853431E-09
   7.740000      8.2242222E-09
   7.800000      7.7962916E-09
   7.860000      7.1736324E-09
   7.920000      6.3687571E-09
   7.980000      5.4358407E-09
   8.040000      4.4578874E-09
   8.100000      3.5229815E-09
   8.160000      2.6972227E-09
   8.220000      2.0036648E-09
   8.280000      1.4147942E-09
   8.340000      8.6136798E-10
   8.400000      2.5466851E-10
   8.460000     -4.8536458E-10
   8.520000     -1.4053911E-09
   8.580000     -2.5049414E-09
   8.640000     -3.7372052E-09
   8.700000     -5.0229416E-09
   8.760000     -6.2722401E-09
   8.820000     -7.4071882E-09
   8.880000     -8.3792182E-09
   8.940000     -9.1772909E-09
   9.000000     -9.8260937E-09
   9.060000     -1.0375978E-08
   9.120000     -1.0888001E-08
   9.180000     -1.1417943E-08
   9.240000     -1.2002897E-08
   9.300000     -1.2653142E-08
   9.360000     -1.3350828E-08
   9.420000     -1.4055615E-08
   9.480000     -1.4715867E-08
   9.540000     -1.5282714E-08
   9.600000     -1.5723524E-08
   9.660000     -1.6031356E-08
   9.720000     -1.6227997E-08
   9.780000     -1.6359936E-08
   9.840000     -1.6488508E-08
   9.900000     -1.6676928E-08
   9.960000     -1.6977500E-08
   10.02000     -1.7421927E-08
   10.08000     -1.8016443E-08
   10.14000     -1.8742304E-08
   10.20000     -1.9560957E-08
   10.26000     -2.0422620E-08
   10.32000     -2.1276517E-08
   10.38000     -2.2080918E-08
   10.44000     -2.2810958E-08
   10.50000     -2.3462345E-08
   10.56000     -2.4049726E-08
   10.62000     -2.4599698E-08
   10.68000     -2.5140093E-08
   10.74000     -2.5688715E-08
   10.80000     -2.6245218E-08
   10.86000     -2.6788957E-08
   10.92000     -2.7283599E-08
   10.98000     -2.7686605E-08
   11.04000     -2.7959873E-08
   11.10000     -2.8077469E-08
   11.16000     -2.8027991E-08
   11.22000     -2.7811657E-08
   11.28000     -2.7434726E-08
   11.34000     -2.6904713E-08
   11.40000     -2.6228921E-08
   11.46000     -2.5416426E-08
   11.52000     -2.4481263E-08
   11.58000     -2.3443603E-08
   11.64000     -2.2326853E-08
   11.70000     -2.1151079E-08
   11.76000     -1.9925832E-08
   11.82000     -1.8646476E-08
   11.88000     -1.7296736E-08
   11.94000     -1.5857134E-08
   12.00000     -1.4315612E-08
   12.06000     -1.2675123E-08
   12.12000     -1.0954060E-08
   12.18000     -9.1789385E-09
   12.24000     -7.3728033E-09
   12.30000     -5.5452847E-09
   12.36000     -3.6897281E-09
   12.42000     -1.7894191E-09
   12.48000      1.6969885E-10
   12.54000      2.1858844E-09
   12.60000      4.2346131E-09
   12.66000      6.2715357E-09
   12.72000      8.2444442E-09
   12.78000      1.0109066E-08
   12.84000      1.1841768E-08
   12.90000      1.3443933E-08
   12.96000      1.4936862E-08
   13.02000      1.6350414E-08
   13.08000      1.7711088E-08
   13.14000      1.9034655E-08
   13.20000      2.0325491E-08
   13.26000      2.1580979E-08
   13.32000      2.2797188E-08
   13.38000      2.3972124E-08
   13.44000      2.5105228E-08
   13.50000      2.6194529E-08
   13.56000      2.7234377E-08
   13.62000      2.8216080E-08
   13.68000      2.9131488E-08
   13.74000      2.9977407E-08
   13.80000      3.0757946E-08
   13.86000      3.1483289E-08
   13.92000      3.2165769E-08
   13.98000      3.2816107E-08
   14.04000      3.3442660E-08
   14.10000      3.4054384E-08
   14.16000      3.4665359E-08
   14.22000      3.5296942E-08
   14.28000      3.5974381E-08
   14.34000      3.6717509E-08
   14.40000      3.7529261E-08
   14.46000      3.8387544E-08
   14.52000      3.9245577E-08
   14.58000      4.0042128E-08
   14.64000      4.0718444E-08
   14.70000      4.1235527E-08
   14.76000      4.1584912E-08
   14.82000      4.1789153E-08
   14.88000      4.1892473E-08
   14.94000      4.1946024E-08
   15.00000      4.1993641E-08
   15.06000      4.2062734E-08
   15.12000      4.2161890E-08
   15.18000      4.2283663E-08
   15.24000      4.2409436E-08
   15.30000      4.2513726E-08
   15.36000      4.2567063E-08
   15.42000      4.2538332E-08
   15.48000      4.2398167E-08
   15.54000      4.2123951E-08
   15.60000      4.1705214E-08
   15.66000      4.1146858E-08
   15.72000      4.0467832E-08
   15.78000      3.9694694E-08
   15.84000      3.8852285E-08
   15.90000      3.7955427E-08
   15.96000      3.7005677E-08
   16.02000      3.5994731E-08
   16.08000      3.4912826E-08
   16.14000      3.3757857E-08
   16.20000      3.2540534E-08
   16.26000      3.1283193E-08
   16.32000      3.0013208E-08
   16.38000      2.8754853E-08
   16.44000      2.7523948E-08
   16.50000      2.6327697E-08
   16.56000      2.5168822E-08
   16.62000      2.4050493E-08
   16.68000      2.2978378E-08
   16.74000      2.1958201E-08
   16.80000      2.0990427E-08
   16.86000      2.0065867E-08
   16.92000      1.9165785E-08
   16.98000      1.8267555E-08
   17.04000      1.7353500E-08
   17.10000      1.6418481E-08
   17.16000      1.5472191E-08
   17.22000      1.4534955E-08
   17.28000      1.3629351E-08
   17.34000      1.2772171E-08
   17.40000      1.1970818E-08
   17.46000      1.1225437E-08
   17.52000      1.0534629E-08
   17.58000      9.9004387E-09
   17.64000      9.3288524E-09
   17.70000      8.8248946E-09
   17.76000      8.3850233E-09
   17.82000      7.9916793E-09
   17.88000      7.6142541E-09
   17.94000      7.2175239E-09
   18.00000      6.7744996E-09
   18.06000      6.2778005E-09
   18.12000      5.7438649E-09
   18.18000      5.2074669E-09
   18.24000      4.7086317E-09
   18.30000      4.2777426E-09
   18.36000      3.9254622E-09
   18.42000      3.6416878E-09
   18.48000      3.4033674E-09
   18.54000      3.1869534E-09
   18.60000      2.9795491E-09
   18.66000      2.7840921E-09
   18.72000      2.6172973E-09
   18.78000      2.5025557E-09
   18.84000      2.4617957E-09
   18.90000      2.5097877E-09
   18.96000      2.6522560E-09
   19.02000      2.8869365E-09
   19.08000      3.2057077E-09
   19.14000      3.5963885E-09
   19.20000      4.0440185E-09
   19.26000      4.5322808E-09
   19.32000      5.0455156E-09
   19.38000      5.5707923E-09
   19.44000      6.0986891E-09
   19.50000      6.6216770E-09
   19.56000      7.1303652E-09
   19.62000      7.6095210E-09
   19.68000      8.0364035E-09
   19.74000      8.3829041E-09
   19.80000      8.6206873E-09
   19.86000      8.7263006E-09
   19.92000      8.6828100E-09
   19.98000      8.4762304E-09
   20.04000      8.0882900E-09
   20.10000      7.4897581E-09
   20.16000      6.6390053E-09
   20.22000      5.4880922E-09
   20.28000      3.9946682E-09
   20.34000      2.1345379E-09
   20.40000     -9.0995614E-11
   20.46000     -2.6564753E-09
   20.52000     -5.5214282E-09
   20.58000     -8.6425569E-09
   20.64000     -1.1983039E-08
   20.70000     -1.5514994E-08
   20.76000     -1.9215229E-08
   20.82000     -2.3058051E-08
   20.88000     -2.7010181E-08
   20.94000     -3.1030989E-08
   21.00000     -3.5077743E-08
   21.06000     -3.9112219E-08
   21.12000     -4.3104077E-08
   21.18000     -4.7028443E-08
   21.24000     -5.0858592E-08
   21.30000     -5.4558107E-08
   21.36000     -5.8077617E-08
   21.42000     -6.1359252E-08
   21.48000     -6.4348029E-08
   21.54000     -6.7005601E-08
   21.60000     -6.9320023E-08
   21.66000     -7.1307120E-08
   21.72000     -7.3002333E-08
   21.78000     -7.4446866E-08
   21.84000     -7.5674080E-08
   21.90000     -7.6701973E-08
   21.96000     -7.7534317E-08
   22.02000     -7.8168718E-08
   22.08000     -7.8606675E-08
   22.14000     -7.8860019E-08
   22.20000     -7.8950350E-08
   22.26000     -7.8901806E-08
   22.32000     -7.8730864E-08
   22.38000     -7.8438426E-08
   22.44000     -7.8007957E-08
   22.50000     -7.7410441E-08
   22.56000     -7.6613965E-08
   22.62000     -7.5593867E-08
   22.68000     -7.4339830E-08
   22.74000     -7.2858271E-08
   22.80000     -7.1170234E-08
   22.86000     -6.9306608E-08
   22.92000     -6.7302331E-08
   22.98000     -6.5190569E-08
   23.04000     -6.2997522E-08
   23.10000     -6.0738337E-08
   23.16000     -5.8415441E-08
   23.22000     -5.6020436E-08
   23.28000     -5.3539964E-08
   23.34000     -5.0964264E-08
   23.40000     -4.8295131E-08
   23.46000     -4.5549662E-08
   23.52000     -4.2757311E-08
   23.58000     -3.9951036E-08
   23.64000     -3.7156084E-08
   23.70000     -3.4381763E-08
   23.76000     -3.1620182E-08
   23.82000     -2.8852972E-08
   23.88000     -2.6062915E-08
   23.94000     -2.3245336E-08
   24.00000     -2.0414189E-08
   24.06000     -1.7600568E-08
   24.12000     -1.4844916E-08
   24.18000     -1.2186854E-08
   24.24000     -9.6569561E-09
   24.30000     -7.2730098E-09
   24.36000     -5.0406959E-09
   24.42000     -2.9565521E-09
   24.48000     -1.0108108E-09
   24.54000      8.1102591E-10
   24.60000      2.5271245E-09
   24.66000      4.1569481E-09
   24.72000      5.7162239E-09
   24.78000      7.2097595E-09
   24.84000      8.6247001E-09
   24.90000      9.9278781E-09
   24.96000      1.1070039E-08
   25.02000      1.1997169E-08
   25.08000      1.2666038E-08
   25.14000      1.3058766E-08
   25.20000      1.3191038E-08
   25.26000      1.3110474E-08
   25.32000      1.2885024E-08
   25.38000      1.2584620E-08
   25.44000      1.2261455E-08
   25.50000      1.1934452E-08
   25.56000      1.1581935E-08
   25.62000      1.1144059E-08
   25.68000      1.0533961E-08
   25.74000      9.6548307E-09
   25.80000      8.4191605E-09
   25.86000      6.7664248E-09
   25.92000      4.6760125E-09
   25.98000      2.1732300E-09
   26.04000     -6.7242401E-10
   26.10000     -3.7559853E-09
   26.16000     -6.9505668E-09
   26.22000     -1.0122609E-08
   26.28000     -1.3145710E-08
   26.34000     -1.5910858E-08
   26.40000     -1.8332384E-08
   26.46000     -2.0350386E-08
   26.52000     -2.1931040E-08
   26.58000     -2.3065979E-08
   26.64000     -2.3770960E-08
   26.70000     -2.4083267E-08
   26.76000     -2.4057126E-08
   26.82000     -2.3757117E-08
   26.88000     -2.3250651E-08
   26.94000     -2.2601162E-08
   27.00000     -2.1863340E-08
   27.06000     -2.1080435E-08
   27.12000     -2.0282322E-08
   27.18000     -1.9482592E-08
   27.24000     -1.8674054E-08
   27.30000     -1.7824236E-08
   27.36000     -1.6874543E-08
   27.42000     -1.5747000E-08
   27.48000     -1.4360253E-08
   27.54000     -1.2652393E-08
   27.60000     -1.0603904E-08
   27.66000     -8.2522744E-09
   27.72000     -5.6915828E-09
   27.78000     -3.0556588E-09
   27.84000     -4.8977677E-10
   27.90000      1.8795674E-09
   27.96000      3.9667003E-09
   28.02000      5.7343703E-09
   28.08000      7.1869657E-09
   28.14000      8.3551619E-09
   28.20000      9.2803019E-09
   28.26000      1.0005053E-08
   28.32000      1.0572139E-08
   28.38000      1.1027966E-08
   28.44000      1.1425304E-08
   28.50000      1.1820240E-08
   28.56000      1.2262444E-08
   28.62000      1.2782215E-08
   28.68000      1.3380170E-08
   28.74000      1.4024724E-08
   28.80000      1.4658974E-08
   28.86000      1.5214420E-08
   28.92000      1.5626203E-08
   28.98000      1.5844636E-08
   29.04000      1.5840349E-08
   29.10000      1.5603732E-08
   29.16000      1.5141616E-08
   29.22000      1.4474204E-08
   29.28000      1.3633447E-08
   29.34000      1.2661797E-08
   29.40000      1.1609225E-08
   29.46000      1.0527189E-08
   29.52000      9.4604378E-09
   29.58000      8.4395140E-09
   29.64000      7.4772206E-09
   29.70000      6.5706813E-09
   29.76000      5.7078231E-09
   29.82000      4.8748081E-09
   29.88000      4.0606185E-09
   29.94000      3.2568377E-09
   30.00000      2.4536695E-09
   30.06000      1.6355910E-09
   30.12000      7.8031004E-10
   30.18000     -1.3723189E-10
   30.24000     -1.1371160E-09
   30.30000     -2.2266311E-09
   30.36000     -3.3963885E-09
   30.42000     -4.6224957E-09
   30.48000     -5.8739453E-09
   30.54000     -7.1219355E-09
   30.60000     -8.3472189E-09
   30.66000     -9.5429860E-09
   30.72000     -1.0713287E-08
   30.78000     -1.1869123E-08
   30.84000     -1.3024988E-08
   30.90000     -1.4197584E-08
   30.96000     -1.5406323E-08
   31.02000     -1.6673658E-08
   31.08000     -1.8022957E-08
   31.14000     -1.9473081E-08
   31.20000     -2.1031195E-08
   31.26000     -2.2687177E-08
   31.32000     -2.4413140E-08
   31.38000     -2.6169666E-08
   31.44000     -2.7917048E-08
   31.50000     -2.9626976E-08
   31.56000     -3.1289169E-08
   31.62000     -3.2909423E-08
   31.68000     -3.4499561E-08
   31.74000     -3.6063835E-08
   31.80000     -3.7588503E-08
   31.86000     -3.9039868E-08
   31.92000     -4.0372083E-08
   31.98000     -4.1541174E-08
   32.04000     -4.2518856E-08
   32.10000     -4.3300034E-08
   32.16000     -4.3901665E-08
   32.22000     -4.4354938E-08
   32.28000     -4.4695799E-08
   32.34000     -4.4958536E-08
   32.40000     -4.5174016E-08
   32.46000     -4.5370601E-08
   32.52000     -4.5573831E-08
   32.58000     -4.5802107E-08
   32.64000     -4.6059142E-08
   32.70000     -4.6327436E-08
   32.76000     -4.6567926E-08
   32.82000     -4.6728740E-08
   32.88000     -4.6761176E-08
   32.94000     -4.6636909E-08
   33.00000     -4.6358963E-08
   33.06000     -4.5961382E-08
   33.12000     -4.5497682E-08
   33.18000     -4.5022993E-08
   33.24000     -4.4577281E-08
   33.30000     -4.4175653E-08
   33.36000     -4.3807766E-08
   33.42000     -4.3444185E-08
   33.48000     -4.3045105E-08
   33.54000     -4.2567450E-08
   33.60000     -4.1969013E-08
   33.66000     -4.1210988E-08
   33.72000     -4.0261384E-08
   33.78000     -3.9100598E-08
   33.84000     -3.7727990E-08
   33.90000     -3.6166174E-08
   33.96000     -3.4459852E-08
   34.02000     -3.2668062E-08
   34.08000     -3.0851950E-08
   34.14000     -2.9062559E-08
   34.20000     -2.7333158E-08
   34.26000     -2.5678366E-08
   34.32000     -2.4098885E-08
   34.38000     -2.2588175E-08
   34.44000     -2.1137149E-08
   34.50000     -1.9735074E-08
   34.56000     -1.8367864E-08
   34.62000     -1.7016937E-08
   34.68000     -1.5661502E-08
   34.74000     -1.4284709E-08
   34.80000     -1.2881093E-08
   34.86000     -1.1461125E-08
   34.92000     -1.0049691E-08
   34.98000     -8.6783469E-09
   35.04000     -7.3748132E-09
   35.10000     -6.1548358E-09
   35.16000     -5.0205280E-09
   35.22000     -3.9658250E-09
   35.28000     -2.9857699E-09
   35.34000     -2.0842157E-09
   35.40000     -1.2753431E-09
   35.46000     -5.7781047E-10
   35.52000     -4.4266708E-12
   35.58000      4.4720330E-10
   35.64000      7.9797080E-10
   35.70000      1.0824267E-09
   35.76000      1.3377959E-09
   35.82000      1.5917454E-09
   35.88000      1.8541466E-09
   35.94000      2.1158084E-09
   36.00000      2.3536268E-09
   36.06000      2.5387457E-09
   36.12000      2.6435636E-09
   36.18000      2.6449862E-09
   36.24000      2.5240479E-09
   36.30000      2.2642712E-09
   36.36000      1.8515083E-09
   36.42000      1.2764501E-09
   36.48000      5.3853422E-10
   36.54000     -3.5168451E-10
   36.60000     -1.3743070E-09
   36.66000     -2.5063087E-09
   36.72000     -3.7295780E-09
   36.78000     -5.0364060E-09
   36.84000     -6.4288237E-09
   36.90000     -7.9112814E-09
   36.96000     -9.4799653E-09
   37.02000     -1.1114366E-08
   37.08000     -1.2776100E-08
   37.14000     -1.4416500E-08
   37.20000     -1.5989954E-08
   37.26000     -1.7466927E-08
   37.32000     -1.8840645E-08
   37.38000     -2.0124611E-08
   37.44000     -2.1342883E-08
   37.50000     -2.2518373E-08
   37.56000     -2.3665114E-08
   37.62000     -2.4787640E-08
   37.68000     -2.5886470E-08
   37.74000     -2.6965283E-08
   37.80000     -2.8034655E-08
   37.86000     -2.9109483E-08
   37.92000     -3.0201146E-08
   37.98000     -3.1308669E-08
   38.04000     -3.2414075E-08
   38.10000     -3.3485140E-08
   38.16000     -3.4485122E-08
   38.22000     -3.5385540E-08
   38.28000     -3.6176587E-08
   38.34000     -3.6870855E-08
   38.40000     -3.7499206E-08
   38.46000     -3.8100829E-08
   38.52000     -3.8711857E-08
   38.58000     -3.9356816E-08
   38.64000     -4.0045336E-08
   38.70000     -4.0773934E-08
   38.76000     -4.1530729E-08
   38.82000     -4.2300435E-08
   38.88000     -4.3067914E-08
   38.94000     -4.3820371E-08
   39.00000     -4.4549139E-08
   39.06000     -4.5252058E-08
   39.12000     -4.5936197E-08
   39.18000     -4.6619203E-08
   39.24000     -4.7327088E-08
   39.30000     -4.8087223E-08
   39.36000     -4.8917848E-08
   39.42000     -4.9817615E-08
   39.48000     -5.0759912E-08
   39.54000     -5.1695348E-08
   39.60000     -5.2562704E-08
   39.66000     -5.3304753E-08
   39.72000     -5.3883042E-08
   39.78000     -5.4285845E-08
   39.84000     -5.4526407E-08
   39.90000     -5.4632697E-08
   39.96000     -5.4633659E-08
   40.02000     -5.4547936E-08
   40.08000     -5.4379687E-08
   40.14000     -5.4122349E-08
   40.20000     -5.3767796E-08
   40.26000     -5.3315915E-08
   40.32000     -5.2780127E-08
   40.38000     -5.2186625E-08
   40.44000     -5.1568072E-08
   40.50000     -5.0955052E-08
   40.56000     -5.0368719E-08
   40.62000     -4.9817189E-08
   40.68000     -4.9295810E-08
   40.74000     -4.8789850E-08
   40.80000     -4.8277542E-08
   40.86000     -4.7732367E-08
   40.92000     -4.7124878E-08
   40.98000     -4.6425413E-08
   41.04000     -4.5608783E-08
   41.10000     -4.4660400E-08
   41.16000     -4.3581657E-08
   41.22000     -4.2391434E-08
   41.28000     -4.1121780E-08
   41.34000     -3.9808352E-08
   41.40000     -3.8479318E-08
   41.46000     -3.7147640E-08
   41.52000     -3.5810682E-08
   41.58000     -3.4457532E-08
   41.64000     -3.3080440E-08
   41.70000     -3.1684390E-08
   41.76000     -3.0289737E-08
   41.82000     -2.8926362E-08
   41.88000     -2.7622420E-08
   41.94000     -2.6393648E-08
   42.00000     -2.5238807E-08
   42.06000     -2.4143390E-08
   42.12000     -2.3089177E-08
   42.18000     -2.2064262E-08
   42.24000     -2.1068310E-08
   42.30000     -2.0111038E-08
   42.36000     -1.9205906E-08
   42.42000     -1.8363615E-08
   42.48000     -1.7589615E-08
   42.54000     -1.6886707E-08
   42.60000     -1.6260282E-08
   42.66000     -1.5721785E-08
   42.72000     -1.5286947E-08
   42.78000     -1.4968709E-08
   42.84000     -1.4768298E-08
   42.90000     -1.4669608E-08
   42.96000     -1.4640675E-08
   43.02000     -1.4642410E-08
   43.08000     -1.4640838E-08
   43.14000     -1.4617253E-08
   43.20000     -1.4571769E-08
   43.26000     -1.4519314E-08
   43.32000     -1.4481015E-08
   43.38000     -1.4476028E-08
   43.44000     -1.4518027E-08
   43.50000     -1.4617420E-08
   43.56000     -1.4786676E-08
   43.62000     -1.5044192E-08
   43.68000     -1.5413084E-08
   43.74000     -1.5914509E-08
   43.80000     -1.6558820E-08
   43.86000     -1.7339751E-08
   43.92000     -1.8235694E-08
   43.98000     -1.9218552E-08
   44.04000     -2.0266546E-08
   44.10000     -2.1375103E-08
   44.16000     -2.2560943E-08
   44.22000     -2.3858034E-08
   44.28000     -2.5308188E-08
   44.34000     -2.6951618E-08
   44.40000     -2.8821919E-08
   44.46000     -3.0947049E-08
   44.52000     -3.3354265E-08
   44.58000     -3.6075168E-08
   44.64000     -3.9148095E-08
   44.70000     -4.2617675E-08
   44.76000     -4.6534016E-08
   44.82000     -5.0954657E-08
   44.88000     -5.5950363E-08
   44.94000     -6.1613079E-08
   45.00000     -6.8062306E-08
   45.06000     -7.5446849E-08
   45.12000     -8.3941778E-08
   45.18000     -9.3744099E-08
   45.24000     -1.0507213E-07
   45.30000     -1.1817226E-07
   45.36000     -1.3333313E-07
   45.42000     -1.5090241E-07
   45.48000     -1.7130048E-07
   45.54000     -1.9502588E-07
   45.60000     -2.2265247E-07
   45.66000     -2.5482248E-07
   45.72000     -2.9224199E-07
   45.78000     -3.3568526E-07
   45.84000     -3.8600851E-07
   45.90000     -4.4417121E-07
   45.96000     -5.1125829E-07
   46.02000     -5.8849832E-07
   46.08000     -6.7727581E-07
   46.14000     -7.7913950E-07
   46.20000     -8.9581198E-07
   46.26000     -1.0292056E-06
   46.32000     -1.1814448E-06
   46.38000     -1.3548924E-06
   46.44000     -1.5521736E-06
   46.50000     -1.7761918E-06
   46.56000     -2.0301375E-06
   46.62000     -2.3174905E-06
   46.68000     -2.6420259E-06
   46.74000     -3.0078277E-06
   46.80000     -3.4193099E-06
   46.86000     -3.8812391E-06
   46.92000     -4.3987529E-06
   46.98000     -4.9773671E-06
   47.04000     -5.6229728E-06
   47.10000     -6.3418233E-06
   47.16000     -7.1405311E-06
   47.22000     -8.0260652E-06
   47.28000     -9.0057601E-06
   47.34000     -1.0087325E-05
   47.40000     -1.1278848E-05
   47.46000     -1.2588774E-05
   47.52000     -1.4025888E-05
   47.58000     -1.5599267E-05
   47.64000     -1.7318231E-05
   47.70000     -1.9192295E-05
   47.76000     -2.1231113E-05
   47.82000     -2.3444427E-05
   47.88000     -2.5842011E-05
   47.94000     -2.8433598E-05
   48.00000     -3.1228788E-05
   48.06000     -3.4236989E-05
   48.12000     -3.7467293E-05
   48.18000     -4.0928415E-05
   48.24000     -4.4628603E-05
   48.30000     -4.8575555E-05
   48.36000     -5.2776315E-05
   48.42000     -5.7237194E-05
   48.48000     -6.1963619E-05
   48.54000     -6.6960019E-05
   48.60000     -7.2229705E-05
   48.66000     -7.7774719E-05
   48.72000     -8.3595813E-05
   48.78000     -8.9692337E-05
   48.84000     -9.6062162E-05
   48.90000     -1.0270165E-04
   48.96000     -1.0960557E-04
   49.02000     -1.1676705E-04
   49.08000     -1.2417747E-04
   49.14000     -1.3182644E-04
   49.20000     -1.3970176E-04
   49.26000     -1.4778950E-04
   49.32000     -1.5607399E-04
   49.38000     -1.6453795E-04
   49.44000     -1.7316252E-04
   49.50000     -1.8192733E-04
   49.56000     -1.9081064E-04
   49.62000     -1.9978939E-04
   49.68000     -2.0883940E-04
   49.74000     -2.1793562E-04
   49.80000     -2.2705219E-04
   49.86000     -2.3616270E-04
   49.92000     -2.4524034E-04
   49.98000     -2.5425805E-04
   50.04000     -2.6318885E-04
   50.10000     -2.7200615E-04
   50.16000     -2.8068398E-04
   50.22000     -2.8919731E-04
   50.28000     -2.9752223E-04
   50.34000     -3.0563617E-04
   50.40000     -3.1351828E-04
   50.46000     -3.2114942E-04
   50.52000     -3.2851257E-04
   50.58000     -3.3559292E-04
   50.64000     -3.4237810E-04
   50.70000     -3.4885830E-04
   50.76000     -3.5502657E-04
   50.82000     -3.6087862E-04
   50.88000     -3.6641312E-04
   50.94000     -3.7163167E-04
   51.00000     -3.7653878E-04
   51.06000     -3.8114184E-04
   51.12000     -3.8545107E-04
   51.18000     -3.8947936E-04
   51.24000     -3.9324220E-04
   51.30000     -3.9675739E-04
   51.36000     -4.0004493E-04
   51.42000     -4.0312667E-04
   51.48000     -4.0602617E-04
   51.54000     -4.0876845E-04
   51.60000     -4.1137970E-04
   51.66000     -4.1388677E-04
   51.72000     -4.1631691E-04
   51.78000     -4.1869743E-04
   51.84000     -4.2105521E-04
   51.90000     -4.2341635E-04
   51.96000     -4.2580595E-04
   52.02000     -4.2824764E-04
   52.08000     -4.3076335E-04
   52.14000     -4.3337309E-04
   52.20000     -4.3609456E-04
   52.26000     -4.3894284E-04
   52.32000     -4.4193017E-04
   52.38000     -4.4506593E-04
   52.44000     -4.4835632E-04
   52.50000     -4.5180423E-04
   52.56000     -4.5540929E-04
   52.62000     -4.5916779E-04
   52.68000     -4.6307282E-04
   52.74000     -4.6711450E-04
   52.80000     -4.7127969E-04
   52.86000     -4.7555257E-04
   52.92000     -4.7991445E-04
   52.98000     -4.8434408E-04
   53.04000     -4.8881816E-04
   53.10000     -4.9331150E-04
   53.16000     -4.9779739E-04
   53.22000     -5.0224835E-04
   53.28000     -5.0663587E-04
   53.34000     -5.1093113E-04
   53.40000     -5.1510549E-04
   53.46000     -5.1913050E-04
   53.52000     -5.2297849E-04
   53.58000     -5.2662322E-04
   53.64000     -5.3004018E-04
   53.70000     -5.3320674E-04
   53.76000     -5.3610228E-04
   53.82000     -5.3870899E-04
   53.88000     -5.4101163E-04
   53.94000     -5.4299779E-04
   54.00000     -5.4465845E-04
   54.06000     -5.4598774E-04
   54.12000     -5.4698315E-04
   54.18000     -5.4764538E-04
   54.24000     -5.4797850E-04
   54.30000     -5.4798968E-04
   54.36000     -5.4768927E-04
   54.42000     -5.4709060E-04
   54.48000     -5.4620951E-04
   54.54000     -5.4506457E-04
   54.60000     -5.4367637E-04
   54.66000     -5.4206763E-04
   54.72000     -5.4026261E-04
   54.78000     -5.3828687E-04
   54.84000     -5.3616666E-04
   54.90000     -5.3392875E-04
   54.96000     -5.3159974E-04
   55.02000     -5.2920618E-04
   55.08000     -5.2677363E-04
   55.14000     -5.2432669E-04
   55.20000     -5.2188872E-04
   55.26000     -5.1948125E-04
   55.32000     -5.1712390E-04
   55.38000     -5.1483401E-04
   55.44000     -5.1262637E-04
   55.50000     -5.1051297E-04
   55.56000     -5.0850329E-04