  -2.400000      0.0000000E+00
  -2.340000      0.0000000E+00
  -2.280000      0.0000000E+00
  -2.220000      0.0000000E+00
  -2.160000      0.0000000E+00
  -2.100000      6.1124630E-19
  -2.040000      4.6638953E-18
  -1.980000      1.7713481E-17
  -1.920000      4.2522960E-17
  -1.860000      6.4613083E-17
  -1.800000      3.6404798E-17
  -1.740000     -1.1832992E-16
  -1.680000     -4.5474917E-16
  -1.620000     -9.1094603E-16
  -1.560000     -1.2162281E-15
  -1.500000     -9.0375472E-16
  -1.440000      4.7827811E-16
  -1.380000      2.9656908E-15
  -1.320000      5.7767198E-15
  -1.260000      7.2500303E-15
  -1.200000      5.4301241E-15
  -1.140000     -7.0440975E-16
  -1.080000     -9.8865736E-15
  -1.020000     -1.8018778E-14
 -0.9600000     -1.9331701E-14
 -0.9000000     -9.3965346E-15
 -0.8400000      1.1089811E-14
 -0.7800000      3.3915108E-14
 -0.7200000      4.4650098E-14
 -0.6600000      2.8591065E-14
 -0.6000000     -2.0205271E-14
 -0.5400000     -9.0878111E-14
 -0.4800000     -1.5380377E-13
 -0.4200000     -1.6821222E-13
 -0.3600000     -9.8803425E-14
 -0.3000000      6.4149417E-14
 -0.2400000      2.9008889E-13
 -0.1800000      5.0745302E-13
 -0.1200000      6.2106700E-13
 -5.9999999E-02  5.4454997E-13
  0.0000000E+00  2.3760106E-13
  5.9999999E-02 -2.6576701E-13
  0.1200000     -8.5073788E-13
  0.1800000     -1.3435359E-12
  0.2400000     -1.5591798E-12
  0.3000000     -1.3635293E-12
  0.3600000     -7.3120140E-13
  0.4200000      2.2157512E-13
  0.4800000      1.2468958E-12
  0.5400000      2.0259491E-12
  0.6000000      2.2726816E-12
  0.6600000      1.8529624E-12
  0.7200000      8.7522220E-13
  0.7800000     -2.9603232E-13
  0.8400000     -1.1363805E-12
  0.9000000     -1.1610929E-12
  0.9600000     -1.6989727E-13
   1.020000      1.5652142E-12
   1.080000      3.2801858E-12
   1.140000      3.9337483E-12
   1.200000      2.6293737E-12
   1.260000     -8.9498580E-13
   1.320000     -5.9257816E-12
   1.380000     -1.0789364E-11
   1.440000     -1.3318214E-11
   1.500000     -1.1671743E-11
   1.560000     -5.2249845E-12
   1.620000      4.8582171E-12
   1.680000      1.5687110E-11
   1.740000      2.3435883E-11
   1.800000      2.4653848E-11
   1.860000      1.7624723E-11
   1.920000      3.2235664E-12
   1.980000     -1.5128718E-11
   2.040000     -3.2471980E-11
   2.100000     -4.3937791E-11
   2.160000     -4.6389104E-11
   2.220000     -3.9418753E-11
   2.280000     -2.5295576E-11
   2.340000     -7.8674732E-12
   2.400000      9.1346028E-12
   2.460000      2.3675653E-11
   2.520000      3.6165543E-11
   2.580000      4.8949612E-11
   2.640000      6.4582797E-11
   2.700000      8.3424441E-11
   2.760000      1.0143947E-10
   2.820000      1.0916467E-10
   2.880000      9.2539698E-11
   2.940000      3.5749573E-11
   3.000000     -7.4483107E-11
   3.060000     -2.4436789E-10
   3.120000     -4.6982518E-10
   3.180000     -7.3594381E-10
   3.240000     -1.0197337E-09
   3.300000     -1.2956353E-09
   3.360000     -1.5420719E-09
   3.420000     -1.7466536E-09
   3.480000     -1.9078470E-09
   3.540000     -2.0321349E-09
   3.600000     -2.1275239E-09
   3.660000     -2.1959972E-09
   3.720000     -2.2283357E-09
   3.780000     -2.2040769E-09
   3.840000     -2.0973374E-09
   3.900000     -1.8865600E-09
   3.960000     -1.5641218E-09
   4.020000     -1.1412952E-09
   4.080000     -6.4566957E-10
   4.140000     -1.1134662E-10
   4.200000      4.3439735E-10
   4.260000      9.8229569E-10
   4.320000      1.5449632E-09
   4.380000      2.1512943E-09
   4.440000      2.8334877E-09
   4.500000      3.6123442E-09
   4.560000      4.4875827E-09
   4.620000      5.4378635E-09
   4.680000      6.4307821E-09
   4.740000      7.4383402E-09
   4.800000      8.4504732E-09
   4.860000      9.4797921E-09
   4.920000      1.0554455E-08
   4.980000      1.1701603E-08
   5.040000      1.2928375E-08
   5.100000      1.4209106E-08
   5.160000      1.5484973E-08
   5.220000      1.6677168E-08
   5.280000      1.7708825E-08
   5.340000      1.8527105E-08
   5.400000      1.9116767E-08
   5.460000      1.9500064E-08
   5.520000      1.9723622E-08
   5.580000      1.9838136E-08
   5.640000      1.9879481E-08
   5.700000      1.9858733E-08
   5.760000      1.9764599E-08
   5.820000      1.9576397E-08
   5.880000      1.9281526E-08
   5.940000      1.8889725E-08
   6.000000      1.8437982E-08
   6.060000      1.7983792E-08
   6.120000      1.7589178E-08
   6.180000      1.7301399E-08
   6.240000      1.7137738E-08
   6.300000      1.7080406E-08
   6.360000      1.7084075E-08
   6.420000      1.7094033E-08
   6.480000      1.7068784E-08
   6.540000      1.6998721E-08
   6.600000      1.6913255E-08
   6.660000      1.6872443E-08
   6.720000      1.6944783E-08
   6.780000      1.7178651E-08
   6.840000      1.7578168E-08
   6.900000      1.8093747E-08
   6.960000      1.8632607E-08
   7.020000      1.9086908E-08
   7.080000      1.9369768E-08
   7.140000      1.9445437E-08
   7.200000      1.9341638E-08
   7.260000      1.9138808E-08
   7.320000      1.8940526E-08
   7.380000      1.8837127E-08
   7.440000      1.8877465E-08
   7.500000      1.9059897E-08
   7.560000      1.9344977E-08
   7.620000      1.9682474E-08
   7.680000      2.0038977E-08
   7.740000      2.0412532E-08
   7.800000      2.0827233E-08
   7.860000      2.1310889E-08
   7.920000      2.1867477E-08
   7.980000      2.2459338E-08
   8.040000      2.3009765E-08
   8.100000      2.3426972E-08
   8.160000      2.3639695E-08
   8.220000      2.3628177E-08
   8.280000      2.3435426E-08
   8.340000      2.3151987E-08
   8.400000      2.2879519E-08
   8.460000      2.2688237E-08
   8.520000      2.2586443E-08
   8.580000      2.2515032E-08
   8.640000      2.2368761E-08
   8.700000      2.2034538E-08
   8.760000      2.1430205E-08
   8.820000      2.0528514E-08
   8.880000      1.9358799E-08
   8.940000      1.7989327E-08
   9.000000      1.6501069E-08
   9.060000      1.4965376E-08
   9.120000      1.3433698E-08
   9.180000      1.1939961E-08
   9.240000      1.0509848E-08
   9.300000      9.1689607E-09
   9.360000      7.9442435E-09
   9.420000      6.8580803E-09
   9.480000      5.9189613E-09
   9.540000      5.1142361E-09
   9.600000      4.4088631E-09
   9.660000      3.7505488E-09
   9.720000      3.0786043E-09
   9.780000      2.3326958E-09
   9.840000      1.4587529E-09
   9.900000      4.1146034E-10
   9.960000     -8.4540114E-10
   10.02000     -2.3389732E-09
   10.08000     -4.0866550E-09
   10.14000     -6.0948899E-09
   10.20000     -8.3582457E-09
   10.26000     -1.0859410E-08
   10.32000     -1.3569935E-08
   10.38000     -1.6450882E-08
   10.44000     -1.9452663E-08
   10.50000     -2.2514280E-08
   10.56000     -2.5563317E-08
   10.62000     -2.8518652E-08
   10.68000     -3.1297098E-08
   10.74000     -3.3823458E-08
   10.80000     -3.6041506E-08
   10.86000     -3.7922167E-08
   10.92000     -3.9465895E-08
   10.98000     -4.0698325E-08
   11.04000     -4.1661291E-08
   11.10000     -4.2403219E-08
   11.16000     -4.2972854E-08
   11.22000     -4.3418066E-08
   11.28000     -4.3788130E-08
   11.34000     -4.4135351E-08
   11.40000     -4.4511815E-08
   11.46000     -4.4959759E-08
   11.52000     -4.5498471E-08
   11.58000     -4.6113854E-08
   11.64000     -4.6757375E-08
   11.70000     -4.7357478E-08
   11.76000     -4.7840711E-08
   11.82000     -4.8154455E-08
   11.88000     -4.8281276E-08
   11.94000     -4.8238231E-08
   12.00000     -4.8061381E-08
   12.06000     -4.7783015E-08
   12.12000     -4.7413035E-08
   12.18000     -4.6933927E-08
   12.24000     -4.6311943E-08
   12.30000     -4.5518554E-08
   12.36000     -4.4550724E-08
   12.42000     -4.3438732E-08
   12.48000     -4.2236614E-08
   12.54000     -4.0999232E-08
   12.60000     -3.9757154E-08
   12.66000     -3.8502176E-08
   12.72000     -3.7191374E-08
   12.78000     -3.5768469E-08
   12.84000     -3.4192865E-08
   12.90000     -3.2462584E-08
   12.96000     -3.0620168E-08
   13.02000     -2.8738631E-08
   13.08000     -2.6893781E-08
   13.14000     -2.5135659E-08
   13.20000     -2.3471985E-08
   13.26000     -2.1870857E-08
   13.32000     -2.0280943E-08
   13.38000     -1.8659666E-08
   13.44000     -1.6996593E-08
   13.50000     -1.5322060E-08
   13.56000     -1.3698176E-08
   13.62000     -1.2197397E-08
   13.68000     -1.0879007E-08
   13.74000     -9.7737543E-09
   13.80000     -8.8820986E-09
   13.86000     -8.1845011E-09
   13.92000     -7.6566185E-09
   13.98000     -7.2806601E-09
   14.04000     -7.0471016E-09
   14.10000     -6.9465798E-09
   14.16000     -6.9570496E-09
   14.22000     -7.0336692E-09
   14.28000     -7.1073756E-09
   14.34000     -7.0938775E-09
   14.40000     -6.9100796E-09
   14.46000     -6.4919981E-09
   14.52000     -5.8080953E-09
   14.58000     -4.8642406E-09
   14.64000     -3.6998118E-09
   14.70000     -2.3773310E-09
   14.76000     -9.6950969E-10
   14.82000      4.5241827E-10
   14.88000      1.8263238E-09
   14.94000      3.1017307E-09
   15.00000      4.2380464E-09
   15.06000      5.2007163E-09
   15.12000      5.9582237E-09
   15.18000      6.4824439E-09
   15.24000      6.7532433E-09
   15.30000      6.7659935E-09
   15.36000      6.5387571E-09
   15.42000      6.1153123E-09
   15.48000      5.5614615E-09
   15.54000      4.9547055E-09
   15.60000      4.3702779E-09
   15.66000      3.8682555E-09
   15.72000      3.4861907E-09
   15.78000      3.2395409E-09
   15.84000      3.1290399E-09
   15.90000      3.1514893E-09
   15.96000      3.3092966E-09
   16.02000      3.6148349E-09
   16.08000      4.0879655E-09
   16.14000      4.7479052E-09
   16.20000      5.6029439E-09
   16.26000      6.6424399E-09
   16.32000      7.8346911E-09
   16.38000      9.1318846E-09
   16.44000      1.0480328E-08
   16.50000      1.1831729E-08
   16.56000      1.3150714E-08
   16.62000      1.4415326E-08
   16.68000      1.5610613E-08
   16.74000      1.6718856E-08
   16.80000      1.7711828E-08
   16.86000      1.8549713E-08
   16.92000      1.9187947E-08
   16.98000      1.9589196E-08
   17.04000      1.9734809E-08
   17.10000      1.9630205E-08
   17.16000      1.9301481E-08
   17.22000      1.8785022E-08
   17.28000      1.8115244E-08
   17.34000      1.7316516E-08
   17.40000      1.6402979E-08
   17.46000      1.5386018E-08
   17.52000      1.4285233E-08
   17.58000      1.3137125E-08
   17.64000      1.1996771E-08
   17.70000      1.0931057E-08
   17.76000      1.0005794E-08
   17.82000      9.2716359E-09
   17.88000      8.7541361E-09
   17.94000      8.4515062E-09
   18.00000      8.3404839E-09
   18.06000      8.3876257E-09
   18.12000      8.5613445E-09
   18.18000      8.8399394E-09
   18.24000      9.2127124E-09
   18.30000      9.6742196E-09
   18.36000      1.0214745E-08
   18.42000      1.0811832E-08
   18.48000      1.1427363E-08
   18.54000      1.2012292E-08
   18.60000      1.2517635E-08
   18.66000      1.2907259E-08
   18.72000      1.3166932E-08
   18.78000      1.3305553E-08
   18.84000      1.3347960E-08
   18.90000      1.3322614E-08
   18.96000      1.3249797E-08
   19.02000      1.3135676E-08
   19.08000      1.2974620E-08
   19.14000      1.2758069E-08
   19.20000      1.2484948E-08
   19.26000      1.2167949E-08
   19.32000      1.1832086E-08
   19.38000      1.1506033E-08
   19.44000      1.1210512E-08
   19.50000      1.0949662E-08
   19.56000      1.0710028E-08
   19.62000      1.0467998E-08
   19.68000      1.0202283E-08
   19.74000      9.9054978E-09
   19.80000      9.5892236E-09
   19.86000      9.2802797E-09
   19.92000      9.0103329E-09
   19.98000      8.8043670E-09
   20.04000      8.6740366E-09
   20.10000      8.6192680E-09
   20.16000      8.6369560E-09
   20.22000      8.7315337E-09
   20.28000      8.9207912E-09
   20.34000      9.2323811E-09
   20.40000      9.6910941E-09
   20.46000      1.0301935E-08
   20.52000      1.1036875E-08
   20.58000      1.1832245E-08
   20.64000      1.2599520E-08
   20.70000      1.3246416E-08
   20.76000      1.3700561E-08
   20.82000      1.3926611E-08
   20.88000      1.3930256E-08
   20.94000      1.3747959E-08
   21.00000      1.3427205E-08
   21.06000      1.3005780E-08
   21.12000      1.2498656E-08
   21.18000      1.1897380E-08
   21.24000      1.1181144E-08
   21.30000      1.0333593E-08
   21.36000      9.3571773E-09
   21.42000      8.2784526E-09
   21.48000      7.1423543E-09
   21.54000      5.9987504E-09
   21.60000      4.8879891E-09
   21.66000      3.8320458E-09
   21.72000      2.8344298E-09
   21.78000      1.8872366E-09
   21.84000      9.8018293E-10
   21.90000      1.0604596E-10
   21.96000     -7.4021406E-10
   22.02000     -1.5670469E-09
   22.08000     -2.3918023E-09
   22.14000     -3.2411132E-09
   22.20000     -4.1441992E-09
   22.26000     -5.1215472E-09
   22.32000     -6.1746834E-09
   22.38000     -7.2827868E-09
   22.44000     -8.4085920E-09
   22.50000     -9.5111741E-09
   22.56000     -1.0559458E-08
   22.62000     -1.1539819E-08
   22.68000     -1.2454178E-08
   22.74000     -1.3309989E-08
   22.80000     -1.4107730E-08
   22.86000     -1.4832891E-08
   22.92000     -1.5457141E-08
   22.98000     -1.5948808E-08
   23.04000     -1.6288164E-08
   23.10000     -1.6480545E-08
   23.16000     -1.6561216E-08
   23.22000     -1.6589393E-08
   23.28000     -1.6633374E-08
   23.34000     -1.6752240E-08
   23.40000     -1.6980685E-08
   23.46000     -1.7321987E-08
   23.52000     -1.7750844E-08
   23.58000     -1.8224190E-08
   23.64000     -1.8695681E-08
   23.70000     -1.9128773E-08
   23.76000     -1.9504485E-08
   23.82000     -1.9822107E-08
   23.88000     -2.0093552E-08
   23.94000     -2.0333827E-08
   24.00000     -2.0551109E-08
   24.06000     -2.0739686E-08
   24.12000     -2.0878247E-08
   24.18000     -2.0934454E-08
   24.24000     -2.0874934E-08
   24.30000     -2.0678133E-08
   24.36000     -2.0346185E-08
   24.42000     -1.9911729E-08
   24.48000     -1.9436762E-08
   24.54000     -1.9003002E-08
   24.60000     -1.8696198E-08
   24.66000     -1.8589267E-08
   24.72000     -1.8729787E-08
   24.78000     -1.9135921E-08
   24.84000     -1.9801426E-08
   24.90000     -2.0706706E-08
   24.96000     -2.1830347E-08
   25.02000     -2.3155623E-08
   25.08000     -2.4669088E-08
   25.14000     -2.6352632E-08
   25.20000     -2.8173785E-08
   25.26000     -3.0080432E-08
   25.32000     -3.2004134E-08
   25.38000     -3.3872183E-08
   25.44000     -3.5624165E-08
   25.50000     -3.7226229E-08
   25.56000     -3.8677214E-08
   25.62000     -4.0004284E-08
   25.68000     -4.1250395E-08
   25.74000     -4.2459376E-08
   25.80000     -4.3664713E-08
   25.86000     -4.4885585E-08
   25.92000     -4.6129401E-08
   25.98000     -4.7396632E-08
   26.04000     -4.8683095E-08
   26.10000     -4.9976720E-08
   26.16000     -5.1250108E-08
   26.22000     -5.2453352E-08
   26.28000     -5.3512643E-08
   26.34000     -5.4337864E-08
   26.40000     -5.4838111E-08
   26.46000     -5.4940113E-08
   26.52000     -5.4602697E-08
   26.58000     -5.3822145E-08
   26.64000     -5.2627431E-08
   26.70000     -5.1068767E-08
   26.76000     -4.9205511E-08
   26.82000     -4.7098883E-08
   26.88000     -4.4811635E-08
   26.94000     -4.2412417E-08
   27.00000     -3.9979842E-08
   27.06000     -3.7600845E-08
   27.12000     -3.5361161E-08
   27.18000     -3.3329776E-08
   27.24000     -3.1542925E-08
   27.30000     -2.9994300E-08
   27.36000     -2.8636100E-08
   27.42000     -2.7391444E-08
   27.48000     -2.6174323E-08
   27.54000     -2.4910511E-08
   27.60000     -2.3552881E-08
   27.66000     -2.2087132E-08
   27.72000     -2.0527670E-08
   27.78000     -1.8906871E-08
   27.84000     -1.7262524E-08
   27.90000     -1.5628020E-08
   27.96000     -1.4027831E-08
   28.02000     -1.2478495E-08
   28.08000     -1.0993173E-08
   28.14000     -9.5871231E-09
   28.20000     -8.2813729E-09
   28.26000     -7.1028738E-09
   28.32000     -6.0806271E-09
   28.38000     -5.2385696E-09
   28.44000     -4.5872333E-09
   28.50000     -4.1169677E-09
   28.56000     -3.7956811E-09
   28.62000     -3.5730541E-09
   28.68000     -3.3911551E-09
   28.74000     -3.1987681E-09
   28.80000     -2.9646052E-09
   28.86000     -2.6841427E-09
   28.92000     -2.3767330E-09
   28.98000     -2.0734598E-09
   29.04000     -1.8004134E-09
   29.10000     -1.5645756E-09
   29.16000     -1.3488276E-09
   29.22000     -1.1186515E-09
   29.28000     -8.3759422E-10
   29.34000     -4.8412030E-10
   29.40000     -6.1516896E-11
   29.46000      4.0426074E-10
   29.52000      8.7791352E-10
   29.58000      1.3326208E-09
   29.64000      1.7631632E-09
   29.70000      2.1873425E-09
   29.76000      2.6346445E-09
   29.82000      3.1277778E-09
   29.88000      3.6666599E-09
   29.94000      4.2234336E-09
   30.00000      4.7515929E-09
   30.06000      5.2050306E-09
   30.12000      5.5575820E-09
   30.18000      5.8131553E-09
   30.24000      6.0011818E-09
   30.30000      6.1594698E-09
   30.36000      6.3129177E-09
   30.42000      6.4586234E-09
   30.48000      6.5647523E-09
   30.54000      6.5836914E-09
   30.60000      6.4730807E-09
   30.66000      6.2146794E-09
   30.72000      5.8223595E-09
   30.78000      5.3359619E-09
   30.84000      4.8044386E-09
   30.90000      4.2663393E-09
   30.96000      3.7362873E-09
   31.02000      3.2027025E-09
   31.08000      2.6366966E-09
   31.14000      2.0073854E-09
   31.20000      1.2968858E-09
   31.26000      5.0935234E-10
   31.32000     -3.2847569E-10
   31.38000     -1.1742833E-09
   31.44000     -1.9814965E-09
   31.50000     -2.7109861E-09
   31.56000     -3.3399274E-09
   31.62000     -3.8659049E-09
   31.68000     -4.3057033E-09
   31.74000     -4.6894524E-09
   31.80000     -5.0517959E-09
   31.86000     -5.4225482E-09
   31.92000     -5.8195346E-09
   31.98000     -6.2457040E-09
   32.04000     -6.6910104E-09
   32.10000     -7.1375843E-09
   32.16000     -7.5651734E-09
   32.22000     -7.9538349E-09
   32.28000     -8.2825240E-09
   32.34000     -8.5250100E-09
   32.40000     -8.6469134E-09
   32.46000     -8.6080858E-09
   32.52000     -8.3723224E-09
   32.58000     -7.9223330E-09
   32.64000     -7.2739108E-09
   32.70000     -6.4816743E-09
   32.76000     -5.6310703E-09
   32.82000     -4.8169788E-09
   32.88000     -4.1158192E-09
   32.94000     -3.5622818E-09
   33.00000     -3.1410639E-09
   33.06000     -2.7980545E-09
   33.12000     -2.4666686E-09
   33.18000     -2.0976685E-09
   33.24000     -1.6786535E-09
   33.30000     -1.2340264E-09
   33.36000     -8.0571783E-10
   33.42000     -4.2474183E-10
   33.48000     -8.8733285E-11
   33.54000      2.4190630E-10
   33.60000      6.2580602E-10
   33.66000      1.1083302E-09
   33.72000      1.6909808E-09
   33.78000      2.3184128E-09
   33.84000      2.8910807E-09
   33.90000      3.2993810E-09
   33.96000      3.4647345E-09
   34.02000      3.3694612E-09
   34.08000      3.0622695E-09
   34.14000      2.6371993E-09
   34.20000      2.1955868E-09
   34.26000      1.8076075E-09
   34.32000      1.4892250E-09
   34.38000      1.2027878E-09
   34.44000      8.7893365E-10
   34.50000      4.4882278E-10
   34.56000     -1.2743902E-10
   34.62000     -8.4724333E-10
   34.68000     -1.6705680E-09
   34.74000     -2.5395837E-09
   34.80000     -3.4034362E-09
   34.86000     -4.2380308E-09
   34.92000     -5.0538378E-09
   34.98000     -5.8901111E-09
   35.04000     -6.7990076E-09
   35.10000     -7.8262063E-09
   35.16000     -8.9949532E-09
   35.22000     -1.0298496E-08
   35.28000     -1.1702632E-08
   35.34000     -1.3156775E-08
   35.40000     -1.4609542E-08
   35.46000     -1.6023654E-08
   35.52000     -1.7385405E-08
   35.58000     -1.8705670E-08
   35.64000     -2.0012163E-08
   35.70000     -2.1335747E-08
   35.76000     -2.2695872E-08
   35.82000     -2.4090847E-08
   35.88000     -2.5496949E-08
   35.94000     -2.6876812E-08
   36.00000     -2.8193417E-08
   36.06000     -2.9423315E-08
   36.12000     -3.0562916E-08
   36.18000     -3.1624957E-08
   36.24000     -3.2627234E-08
   36.30000     -3.3579784E-08
   36.36000     -3.4477612E-08
   36.42000     -3.5303295E-08
   36.48000     -3.6038237E-08
   36.54000     -3.6676390E-08
   36.60000     -3.7232429E-08
   36.66000     -3.7738943E-08
   36.72000     -3.8232997E-08
   36.78000     -3.8738410E-08
   36.84000     -3.9252757E-08
   36.90000     -3.9746205E-08
   36.96000     -4.0173301E-08
   37.02000     -4.0492349E-08
   37.08000     -4.0682966E-08
   37.14000     -4.0753527E-08
   37.20000     -4.0735411E-08
   37.26000     -4.0667537E-08
   37.32000     -4.0579437E-08
   37.38000     -4.0481208E-08
   37.44000     -4.0364579E-08
   37.50000     -4.0213333E-08
   37.56000     -4.0016385E-08
   37.62000     -3.9775987E-08
   37.68000     -3.9506563E-08
   37.74000     -3.9224975E-08
   37.80000     -3.8937820E-08
   37.86000     -3.8632884E-08
   37.92000     -3.8279786E-08
   37.98000     -3.7840248E-08
   38.04000     -3.7283726E-08
   38.10000     -3.6601687E-08
   38.16000     -3.5814470E-08
   38.22000     -3.4967918E-08
   38.28000     -3.4121115E-08
   38.34000     -3.3329595E-08
   38.40000     -3.2629735E-08
   38.46000     -3.2028975E-08
   38.52000     -3.1504467E-08
   38.58000     -3.1010256E-08
   38.64000     -3.0490931E-08
   38.70000     -2.9898061E-08
   38.76000     -2.9204937E-08
   38.82000     -2.8415093E-08
   38.88000     -2.7561438E-08
   38.94000     -2.6695480E-08
   39.00000     -2.5869522E-08
   39.06000     -2.5118085E-08
   39.12000     -2.4445818E-08
   39.18000     -2.3827575E-08
   39.24000     -2.3221487E-08
   39.30000     -2.2590077E-08
   39.36000     -2.1920112E-08
   39.42000     -2.1231500E-08
   39.48000     -2.0570065E-08
   39.54000     -1.9986416E-08
   39.60000     -1.9510441E-08
   39.66000     -1.9133941E-08
   39.72000     -1.8810903E-08
   39.78000     -1.8476662E-08
   39.84000     -1.8077689E-08
   39.90000     -1.7597861E-08
   39.96000     -1.7067972E-08
   40.02000     -1.6553074E-08
   40.08000     -1.6123167E-08
   40.14000     -1.5821183E-08
   40.20000     -1.5643783E-08
   40.26000     -1.5544178E-08
   40.32000     -1.5455099E-08
   40.38000     -1.5320220E-08
   40.44000     -1.5118491E-08
   40.50000     -1.4870150E-08
   40.56000     -1.4622945E-08
   40.62000     -1.4426945E-08
   40.68000     -1.4311216E-08
   40.74000     -1.4273208E-08
   40.80000     -1.4284091E-08
   40.86000     -1.4304814E-08
   40.92000     -1.4303247E-08
   40.98000     -1.4264066E-08
   41.04000     -1.4188716E-08
   41.10000     -1.4088714E-08
   41.16000     -1.3978333E-08
   41.22000     -1.3870939E-08
   41.28000     -1.3779009E-08
   41.34000     -1.3714249E-08
   41.40000     -1.3684185E-08
   41.46000     -1.3685057E-08
   41.52000     -1.3695361E-08
   41.58000     -1.3676345E-08
   41.64000     -1.3583258E-08
   41.70000     -1.3384890E-08
   41.76000     -1.3082595E-08
   41.82000     -1.2717748E-08
   41.88000     -1.2360619E-08
   41.94000     -1.2082674E-08
   42.00000     -1.1923747E-08
   42.06000     -1.1870017E-08
   42.12000     -1.1855193E-08
   42.18000     -1.1786798E-08
   42.24000     -1.1586914E-08
   42.30000     -1.1228820E-08
   42.36000     -1.0751800E-08
   42.42000     -1.0246366E-08
   42.48000     -9.8161177E-09
   42.54000     -9.5337853E-09
   42.60000     -9.4116110E-09
   42.66000     -9.3990717E-09
   42.72000     -9.4075387E-09
   42.78000     -9.3487920E-09
   42.84000     -9.1686525E-09
   42.90000     -8.8609058E-09
   42.96000     -8.4576932E-09
   43.02000     -8.0045206E-09
   43.08000     -7.5348208E-09
   43.14000     -7.0573245E-09
   43.20000     -6.5608758E-09
   43.26000     -6.0309246E-09
   43.32000     -5.4655400E-09
   43.38000     -4.8798250E-09
   43.44000     -4.2951882E-09
   43.50000     -3.7195587E-09
   43.56000     -3.1307104E-09
   43.62000     -2.4738871E-09
   43.68000     -1.6772983E-09
   43.74000     -6.7895456E-10
   43.80000      5.4867444E-10
   43.86000      1.9895894E-09
   43.92000      3.5968977E-09
   43.98000      5.3225855E-09
   44.04000      7.1514328E-09
   44.10000      9.1243386E-09
   44.16000      1.1342048E-08
   44.22000      1.3950268E-08
   44.28000      1.7116079E-08
   44.34000      2.1008908E-08
   44.40000      2.5795933E-08
   44.46000      3.1653837E-08
   44.52000      3.8791033E-08
   44.58000      4.7470508E-08
   44.64000      5.8024828E-08
   44.70000      7.0859997E-08
   44.76000      8.6450662E-08
   44.82000      1.0533313E-07
   44.88000      1.2810301E-07
   44.94000      1.5542273E-07
   45.00000      1.8804081E-07
   45.06000      2.2682227E-07
   45.12000      2.7278685E-07
   45.18000      3.2715084E-07
   45.24000      3.9136657E-07
   45.30000      4.6715542E-07
   45.36000      5.5653214E-07
   45.42000      6.6182179E-07
   45.48000      7.8567541E-07
   45.54000      9.3109122E-07
   45.60000      1.1014512E-06
   45.66000      1.3005746E-06
   45.72000      1.5327913E-06
   45.78000      1.8030257E-06
   45.84000      2.1168860E-06
   45.90000      2.4807439E-06
   45.96000      2.9018072E-06
   46.02000      3.3881795E-06
   46.08000      3.9489169E-06
   46.14000      4.5940919E-06
   46.20000      5.3348790E-06
   46.26000      6.1836590E-06
   46.32000      7.1541444E-06
   46.38000      8.2615115E-06
   46.44000      9.5225250E-06
   46.50000      1.0955646E-05
   46.56000      1.2581117E-05
   46.62000      1.4421046E-05
   46.68000      1.6499485E-05
   46.74000      1.8842520E-05
   46.80000      2.1478381E-05
   46.86000      2.4437557E-05
   46.92000      2.7752891E-05
   46.98000      3.1459669E-05
   47.04000      3.5595669E-05
   47.10000      4.0201208E-05
   47.16000      4.5319124E-05
   47.22000      5.0994786E-05
   47.28000      5.7276033E-05
   47.34000      6.4213134E-05
   47.40000      7.1858696E-05
   47.46000      8.0267535E-05
   47.52000      8.9496534E-05
   47.58000      9.9604469E-05
   47.64000      1.1065174E-04
   47.70000      1.2270016E-04
   47.76000      1.3581254E-04
   47.82000      1.5005247E-04
   47.88000      1.6548387E-04
   47.94000      1.8217051E-04
   48.00000      2.0017556E-04
   48.06000      2.1956107E-04
   48.12000      2.4038744E-04
   48.18000      2.6271265E-04
   48.24000      2.8659191E-04
   48.30000      3.1207668E-04
   48.36000      3.3921422E-04
   48.42000      3.6804695E-04
   48.48000      3.9861165E-04
   48.54000      4.3093888E-04
   48.60000      4.6505214E-04
   48.66000      5.0096738E-04
   48.72000      5.3869211E-04
   48.78000      5.7822507E-04
   48.84000      6.1955536E-04
   48.90000      6.6266238E-04
   48.96000      7.0751488E-04
   49.02000      7.5407099E-04
   49.08000      8.0227765E-04
   49.14000      8.5207052E-04
   49.20000      9.0337417E-04
   49.26000      9.5610169E-04
   49.32000      1.0101552E-03
   49.38000      1.0654259E-03
   49.44000      1.1217946E-03
   49.50000      1.1791320E-03
   49.56000      1.2372996E-03
   49.62000      1.2961506E-03
   49.68000      1.3555306E-03
   49.74000      1.4152788E-03
   49.80000      1.4752292E-03
   49.86000      1.5352113E-03
   49.92000      1.5950523E-03
   49.98000      1.6545779E-03
   50.04000      1.7136143E-03
   50.10000      1.7719893E-03
   50.16000      1.8295340E-03
   50.22000      1.8860848E-03
   50.28000      1.9414849E-03
   50.34000      1.9955847E-03
   50.40000      2.0482454E-03
   50.46000      2.0993382E-03
   50.52000      2.1487479E-03
   50.58000      2.1963727E-03
   50.64000      2.2421253E-03
   50.70000      2.2859348E-03
   50.76000      2.3277460E-03
   50.82000      2.3675226E-03
   50.88000      2.4052446E-03
   50.94000      2.4409108E-03
   51.00000      2.4745378E-03
   51.06000      2.5061595E-03
   51.12000      2.5358279E-03
   51.18000      2.5636109E-03
   51.24000      2.5895927E-03
   51.30000      2.6138718E-03
   51.36000      2.6365607E-03
   51.42000      2.6577835E-03
   51.48000      2.6776756E-03
   51.54000      2.6963800E-03
   51.60000      2.7140479E-03
   51.66000      2.7308348E-03
   51.72000      2.7468987E-03
   51.78000      2.7623980E-03
   51.84000      2.7774901E-03
   51.90000      2.7923293E-03
   51.96000      2.8070642E-03
   52.02000      2.8218362E-03
   52.08000      2.8367760E-03
   52.14000      2.8520045E-03
   52.20000      2.8676295E-03
   52.26000      2.8837442E-03
   52.32000      2.9004265E-03
   52.38000      2.9177384E-03
   52.44000      2.9357241E-03
   52.50000      2.9544104E-03
   52.56000      2.9738061E-03
   52.62000      2.9939013E-03
   52.68000      3.0146684E-03
   52.74000      3.0360622E-03
   52.80000      3.0580214E-03
   52.86000      3.0804682E-03
   52.92000      3.1033102E-03
   52.98000      3.1264420E-03
   53.04000      3.1497465E-03
   53.10000      3.1730961E-03
   53.16000      3.1963550E-03
   53.22000      3.2193810E-03
   53.28000      3.2420277E-03
   53.34000      3.2641469E-03
   53.40000      3.2855901E-03
   53.46000      3.3062110E-03
   53.52000      3.3258663E-03
   53.58000      3.3444189E-03
   53.64000      3.3617401E-03
   53.70000      3.3777088E-03
   53.76000      3.3922165E-03
   53.82000      3.4051659E-03
   53.88000      3.4164730E-03
   53.94000      3.4260692E-03
   54.00000      3.4339000E-03
   54.06000      3.4399265E-03
   54.12000      3.4441263E-03
   54.18000      3.4464919E-03
   54.24000      3.4470316E-03
   54.30000      3.4457687E-03
   54.36000      3.4427408E-03
   54.42000      3.4379989E-03
   54.48000      3.4316068E-03
   54.54000      3.4236389E-03
   54.60000      3.4141797E-03
   54.66000      3.4033221E-03
   54.72000      3.3911648E-03
   54.78000      3.3778118E-03
   54.84000      3.3633702E-03
   54.90000      3.3479484E-03
   54.96000      3.3316545E-03
   55.02000      3.3145940E-03
   55.08000      3.2968689E-03
   55.14000      3.2785756E-03
   55.20000      3.2598039E-03
   55.26000      3.2406354E-03
   55.32000      3.2211437E-03
   55.38000      3.2013911E-03
   55.44000      3.1814300E-03
   55.50000      3.1613002E-03
   55.56000      3.1410297E-03