 -0.750000000       0.00000000    
 -0.689999998       0.00000000    
 -0.629999995       0.00000000    
 -0.569999993       0.00000000    
 -0.509999990       0.00000000    
 -0.449999988       4.67626242E-19
 -0.389999986       3.61788989E-18
 -0.330000013       1.40468916E-17
 -0.270000011       3.49879069E-17
 -0.209999993       5.73764038E-17
 -0.150000006       4.61117292E-17
  -9.00000036E-02  -6.08088526E-17
  -2.99999993E-02  -3.19262626E-16
   2.99999993E-02  -7.05286536E-16
   9.00000036E-02  -1.03255032E-15
  0.150000006      -9.38108577E-16
  0.209999993      -2.31022181E-17
  0.270000011       1.83395656E-15
  0.330000013       4.12136417E-15
  0.389999986       5.57501162E-15
  0.449999988       4.58776211E-15
  0.509999990       2.04604223E-16
  0.569999993      -6.68792736E-15
  0.629999995      -1.27916688E-14
  0.689999998      -1.32921458E-14
  0.750000000      -4.45598919E-15
  0.810000002       1.29646338E-14
  0.870000005       3.14916923E-14
  0.930000007       3.80296143E-14
  0.990000010       1.93190377E-14
   1.04999995      -2.96390923E-14
   1.11000001      -9.80261540E-14
   1.16999996      -1.57378274E-13
   1.23000002      -1.68843523E-13
   1.28999996      -9.89728319E-14
   1.35000002       6.12397774E-14
   1.40999997       2.82522541E-13
   1.47000003       4.96780893E-13
   1.52999997       6.13572832E-13
   1.59000003       5.50502732E-13
   1.64999998       2.67951812E-13
   1.71000004      -2.04744709E-13
   1.76999998      -7.63165247E-13
   1.83000004      -1.24746491E-12
   1.88999999      -1.48543211E-12
   1.95000005      -1.34846095E-12
   2.00999999      -8.04173622E-13
   2.06999993       5.25963753E-14
   2.13000011       1.00601558E-12
   2.19000006       1.77015065E-12
   2.25000000       2.07877053E-12
   2.30999994       1.79170914E-12
   2.36999989       9.80487935E-13
   2.43000007      -4.98949365E-14
   2.49000001      -8.34918831E-13
   2.54999995      -9.20768019E-13
   2.60999990      -8.58467960E-14
   2.67000008       1.47387105E-12
   2.73000002       3.09870077E-12
   2.78999996       3.83051446E-12
   2.84999990       2.78215688E-12
   2.91000009      -4.00534044E-13
   2.97000003      -5.17870512E-12
   3.02999997      -1.00684322E-11
   3.08999991      -1.30140438E-11
   3.15000010      -1.21322362E-11
   3.21000004      -6.58179457E-12
   3.26999998       2.80466557E-12
   3.32999992       1.34614412E-11
   3.39000010       2.17447501E-11
   3.45000005       2.41497811E-11
   3.50999999       1.86653921E-11
   3.56999993       5.72308477E-12
   3.63000011      -1.16938048E-11
   3.69000006      -2.89016571E-11
   3.75000000      -4.10554889E-11
   3.80999994      -4.47956498E-11
   3.86999989      -3.93461999E-11
   3.93000007      -2.66078028E-11
   3.99000001      -1.01905559E-11
   4.05000019       6.22292712E-12
   4.11000013       2.04883055E-11
   4.17000008       3.28495842E-11
   4.23000002       4.55490194E-11
   4.28999996       6.11821913E-11
   4.34999990       8.03000166E-11
   4.40999985       9.91445676E-11
   4.46999979       1.08511082E-10
   4.53000021       9.44822068E-11
   4.59000015       4.12165545E-11
   4.65000010      -6.47625981E-11
   4.71000004      -2.30006028E-10
   4.76999998      -4.50874588E-10
   4.82999992      -7.12951087E-10
   4.88999987      -9.93734428E-10
   4.94999981      -1.26806265E-09
   5.01000023      -1.51455648E-09
   5.07000017      -1.72073222E-09
   5.13000011      -1.88466642E-09
   5.19000006      -2.01227857E-09
   5.25000000      -2.11107998E-09
   5.30999994      -2.18289209E-09
   5.36999989      -2.21881180E-09
   5.42999983      -2.19908358E-09
   5.48999977      -2.09860151E-09
   5.55000019      -1.89623695E-09
   5.61000013      -1.58415603E-09
   5.67000008      -1.17280230E-09
   5.73000002      -6.88692547E-10
   5.78999996      -1.65157554E-10
   5.84999990       3.70583675E-10
   5.90999985       9.08616404E-10
   5.96999979       1.46070400E-09
   6.03000021       2.05547313E-09
   6.09000015       2.72608669E-09
   6.15000010       3.49563667E-09
   6.21000004       4.36682424E-09
   6.26999998       5.32081978E-09
   6.32999992       6.32607877E-09
   6.38999987       7.35318739E-09
   6.44999981       8.38869862E-09
   6.51000023       9.44099110E-09
   6.57000017       1.05346238E-08
   6.63000011       1.16949090E-08
   6.69000006       1.29292497E-08
   6.75000000       1.42137031E-08
   6.80999994       1.54914392E-08
   6.86999989       1.66847691E-08
   6.92999983       1.77165518E-08
   6.98999977       1.85326261E-08
   7.05000019       1.91163458E-08
   7.11000013       1.94895442E-08
   7.17000008       1.96999395E-08
   7.23000002       1.98006340E-08
   7.28999996       1.98303081E-08
   7.34999990       1.98021137E-08
   7.40999985       1.97053325E-08
   7.46999979       1.95182963E-08
   7.53000021       1.92265137E-08
   7.59000015       1.88379090E-08
   7.65000010       1.83885493E-08
   7.71000004       1.79361752E-08
   7.76999998       1.75438473E-08
   7.82999992       1.72599517E-08
   7.88999987       1.71023622E-08
   7.94999981       1.70531056E-08
   8.01000023       1.70661192E-08
   8.06999969       1.70858243E-08
   8.13000011       1.70700076E-08
   8.18999958       1.70084604E-08
   8.25000000       1.69298637E-08
   8.31000042       1.68932459E-08
   8.36999989       1.69660481E-08
   8.43000031       1.71962142E-08
   8.48999977       1.75887873E-08
   8.55000019       1.80966886E-08
   8.60999966       1.86306259E-08
   8.67000008       1.90858742E-08
   8.72999954       1.93767633E-08
   8.78999996       1.94660572E-08
   8.85000038       1.93777314E-08
   8.90999985       1.91878691E-08
   8.97000027       1.89971363E-08
   9.02999973       1.88958875E-08
   9.09000015       1.89359479E-08
   9.14999962       1.91201828E-08
   9.21000004       1.94129548E-08
   9.27000046       1.97652454E-08
   9.32999992       2.01416270E-08
   9.39000034       2.05357704E-08
   9.44999981       2.09669562E-08
   9.51000023       2.14596607E-08
   9.56999969       2.20171348E-08
   9.63000011       2.26034143E-08
   9.68999958       2.31446862E-08
   9.75000000       2.35517277E-08
   9.81000042       2.37543691E-08
   9.86999989       2.37322819E-08
   9.93000031       2.35269262E-08
   9.98999977       2.32274822E-08
   10.0500002       2.29354793E-08
   10.1099997       2.27226540E-08
   10.1700001       2.26001138E-08
   10.2299995       2.25118288E-08
   10.2900000       2.23547509E-08
   10.3500004       2.20162875E-08
   10.4099998       2.14130349E-08
   10.4700003       2.05154134E-08
   10.5299997       1.93504572E-08
   10.5900002       1.79851440E-08
   10.6499996       1.65006053E-08
   10.7100000       1.49694870E-08
   10.7700005       1.34448488E-08
   10.8299999       1.19616423E-08
   10.8900003       1.05455182E-08
   10.9499998       9.22111365E-09
   11.0100002       8.01408362E-09
   11.0699997       6.94585056E-09
   11.1300001       6.02457995E-09
   11.1899996       5.23778043E-09
   11.2500000       4.55055638E-09
   11.3100004       3.91030142E-09
   11.3699999       3.25544147E-09
   11.4300003       2.52448307E-09
   11.4899998       1.66240044E-09
   11.5500002       6.23475160E-10
   11.6099997      -6.28378849E-10
   11.6700001      -2.11997930E-09
   11.7299995      -3.86862409E-09
   11.7900000      -5.88103921E-09
   11.8500004      -8.15223444E-09
   11.9099998      -1.06650138E-08
   11.9700003      -1.33903022E-08
   12.0299997      -1.62877658E-08
   12.0900002      -1.93061105E-08
   12.1499996      -2.23830163E-08
   12.2100000      -2.54457291E-08
   12.2700005      -2.84138331E-08
   12.3299999      -3.12053885E-08
   12.3900003      -3.37462360E-08
   12.4499998      -3.59802890E-08
   12.5100002      -3.78776193E-08
   12.5699997      -3.94372570E-08
   12.6300001      -4.06835774E-08
   12.6899996      -4.16578594E-08
   12.7500000      -4.24086828E-08
   12.8100004      -4.29851958E-08
   12.8699999      -4.34353282E-08
   12.9300003      -4.38078054E-08
   12.9899998      -4.41540706E-08
   13.0500002      -4.45257875E-08
   13.1099997      -4.49658728E-08
   13.1700001      -4.54954865E-08
   13.2299995      -4.61029614E-08
   13.2900000      -4.67416115E-08
   13.3500004      -4.73401975E-08
   13.4099998      -4.78238711E-08
   13.4700003      -4.81375828E-08
   13.5299997      -4.82616507E-08
   13.5900002      -4.82121223E-08
   13.6499996      -4.80255764E-08
   13.7100000      -4.77358384E-08
   13.7700005      -4.73544084E-08
   13.8299999      -4.68647237E-08
   13.8900003      -4.62332785E-08
   13.9499998      -4.54316016E-08
   14.0100002      -4.44571988E-08
   14.0699997      -4.33416325E-08
   14.1300001      -4.21405559E-08
   14.1899996      -4.09099528E-08
   14.2500000      -3.96803905E-08
   14.3100004      -3.84424865E-08
   14.3699999      -3.71515192E-08
   14.4300003      -3.57496752E-08
   14.4899998      -3.41955335E-08
   14.5500002      -3.24869873E-08
   14.6099997      -3.06666159E-08
   14.6700001      -2.88071131E-08
   14.7299995      -2.69835549E-08
   14.7900000      -2.52453027E-08
   14.8500004      -2.36000375E-08
   14.9099998      -2.20166747E-08
   14.9700003      -2.04451460E-08
   15.0299997      -1.88436697E-08
   15.0900002      -1.72013781E-08
   15.1499996      -1.55468136E-08
   15.2100000      -1.39396601E-08
   15.2700005      -1.24505108E-08
   15.3299999      -1.11382530E-08
   15.3900003      -1.00348192E-08
   15.4499998      -9.14268306E-09
   15.5100002      -8.44402681E-09
   15.5699997      -7.91517429E-09
   15.6300001      -7.53799778E-09
   15.6899996      -7.30239957E-09
   15.7500000      -7.19910842E-09
   15.8100004      -7.20720816E-09
   15.8699999      -7.28357019E-09
   15.9300003      -7.36044070E-09
   15.9899998      -7.35356842E-09
   16.0499992      -7.17847159E-09
   16.1100006      -6.76901823E-09
   16.1700001      -6.09180617E-09
   16.2299995      -5.15185894E-09
   16.2900009      -3.98869071E-09
   16.3500004      -2.66520983E-09
   16.4099998      -1.25390320E-09
   16.4699993       1.75175402E-10
   16.5300007       1.56156643E-09
   16.5900002       2.85596857E-09
   16.6499996       4.01762357E-09
   16.7099991       5.01033259E-09
   16.7700005       5.80014214E-09
   16.8299999       6.35674713E-09
   16.8899994       6.65885924E-09
   16.9500008       6.70176803E-09
   17.0100002       6.50393206E-09
   17.0699997       6.10928508E-09
   17.1299992       5.58322499E-09
   17.1900005       5.00257391E-09
   17.2500000       4.44219772E-09
   17.3099995       3.96249300E-09
   17.3700008       3.60183816E-09
   17.4300003       3.37637407E-09
   17.4899998       3.28672622E-09
   17.5499992       3.32864225E-09
   17.6100006       3.50301410E-09
   17.6700001       3.82106258E-09
   17.7299995       4.30249569E-09
   17.7900009       4.96742381E-09
   17.8500004       5.82555781E-09
   17.9099998       6.86750434E-09
   17.9699993       8.06219091E-09
   18.0300007       9.36182065E-09
   18.0900002       1.07124158E-08
   18.1499996       1.20653789E-08
   18.2099991       1.33850344E-08
   18.2700005       1.46489727E-08
   18.3299999       1.58415574E-08
   18.3899994       1.69443304E-08
   18.4500008       1.79286985E-08
   18.5100002       1.87551521E-08
   18.5699997       1.93800300E-08
   18.6299992       1.97669774E-08
   18.6900005       1.98977368E-08
   18.7500000       1.97771666E-08
   18.8099995       1.94300913E-08
   18.8700008       1.88916243E-08
   18.9300003       1.81956938E-08
   18.9899998       1.73672881E-08
   19.0499992       1.64220104E-08
   19.1100006       1.53728550E-08
   19.1700001       1.42405403E-08
   19.2299995       1.30619435E-08
   19.2900009       1.18920100E-08
   19.3500004       1.07974243E-08
   19.4099998       9.84403759E-09
   19.4699993       9.08278786E-09
   19.5300007       8.53954329E-09
   19.5900002       8.21265456E-09
   19.6499996       8.07880873E-09
   19.7099991       8.10447975E-09
   19.7700005       8.25814173E-09
   19.8299999       8.51833892E-09
   19.8899994       8.87467166E-09
   19.9500008       9.32190858E-09
   20.0100002       9.85044046E-09
   20.0699997       1.04379136E-08
   20.1299992       1.10464198E-08
   20.1900005       1.16271766E-08
   20.2500000       1.21312684E-08
   20.3099995       1.25221540E-08
   20.3700008       1.27846436E-08
   20.4300003       1.29264057E-08
   20.4899998       1.29713120E-08
   20.5499992       1.29475772E-08
   20.6100006       1.28760629E-08
   20.6700001       1.27639792E-08
   20.7299995       1.26066100E-08
   20.7900009       1.23956854E-08
   20.8500004       1.21297434E-08
   20.9099998       1.18207613E-08
   20.9699993       1.14932650E-08
   21.0300007       1.11760006E-08
   21.0900002       1.08902327E-08
   21.1499996       1.06407168E-08
   21.2099991       1.04141886E-08
   21.2700005       1.01865743E-08
   21.3299999       9.93566118E-09
   21.3899994       9.65313962E-09
   21.4500008       9.35020683E-09
   21.5100002       9.05412190E-09
   21.5699997       8.79773854E-09
   21.6299992       8.60757954E-09
   21.6900005       8.49665582E-09
   21.7500000       8.46561221E-09
   21.8099995       8.51120685E-09
   21.8700008       8.63696936E-09
   21.9300003       8.85935858E-09
   21.9899998       9.20473564E-09
   22.0499992       9.69703784E-09
   22.1100006       1.03410374E-08
   22.1700001       1.11089875E-08
   22.2299995       1.19376660E-08
   22.2900009       1.27387567E-08
   22.3500004       1.34196849E-08
   22.4099998       1.39072958E-08
   22.4699993       1.41652503E-08
   22.5300007       1.41983758E-08
   22.5900002       1.40426701E-08
   22.6499996       1.37455496E-08
   22.7099991       1.33449163E-08
   22.7700005       1.28557751E-08
   22.8299999       1.22694521E-08
   22.8899994       1.15647270E-08
   22.9500008       1.07248948E-08
   23.0100002       9.75243886E-09
   23.0699997       8.67452776E-09
   23.1299992       7.53726148E-09
   23.1900005       6.39194120E-09
   23.2500000       5.28020605E-09
   23.3099995       4.22474944E-09
   23.3700008       3.22898042E-09
   23.4300003       2.28409158E-09
   23.4899998       1.37839529E-09
   23.5499992       5.03253439E-10
   23.6100006      -3.47300688E-10
   23.6700001      -1.18185794E-09
   23.7299995      -2.01716621E-09
   23.7900009      -2.87889224E-09
   23.8500004      -3.79546261E-09
   23.9099998      -4.78717466E-09
   23.9699993      -5.85608939E-09
   24.0300007      -6.98237779E-09
   24.0900002      -8.12971646E-09
   24.1499996      -9.25757604E-09
   24.2099991      -1.03344844E-08
   24.2700005      -1.13457190E-08
   24.3299999      -1.22917498E-08
   24.3899994      -1.31786111E-08
   24.4500008      -1.40056571E-08
   24.5100002      -1.47575996E-08
   24.5699997      -1.54055844E-08
   24.6299992      -1.59175855E-08
   24.6900005      -1.62736740E-08
   24.7500000      -1.64792375E-08
   24.8099995      -1.65699703E-08
   24.8700008      -1.66059735E-08
   24.9300003      -1.66568270E-08
   24.9899998      -1.67831402E-08
   25.0499992      -1.70211045E-08
   25.1100006      -1.73751804E-08
   25.1700001      -1.78206037E-08
   25.2299995      -1.83140330E-08
   25.2900009      -1.88079756E-08
   25.3500004      -1.92641174E-08
   25.4099998      -1.96615630E-08
   25.4699993      -1.99981880E-08
   25.5300007      -2.02854586E-08
   25.5900002      -2.05390194E-08
   25.6499996      -2.07683719E-08
   25.7099991      -2.09690931E-08
   25.7700005      -2.11203801E-08
   25.8299999      -2.11892921E-08
   25.8899994      -2.11410285E-08
   25.9500008      -2.09525517E-08
   26.0100002      -2.06253112E-08
   26.0699997      -2.01924628E-08
   26.1299992      -1.97174277E-08
   26.1900005      -1.92833518E-08
   26.2500000      -1.89764542E-08
   26.3099995      -1.88686560E-08
   26.3700008      -1.90054088E-08
   26.4300003      -1.94026306E-08
   26.4899998      -2.00529158E-08
   26.5499992      -2.09373088E-08
   26.6100006      -2.20366640E-08
   26.6700001      -2.33371988E-08
   26.7299995      -2.48278713E-08
   26.7900009      -2.64915681E-08
   26.8500004      -2.82953607E-08
   26.9099998      -3.01859231E-08
   26.9699993      -3.20938476E-08
   27.0300007      -3.39464101E-08
   27.0900002      -3.56841419E-08
   27.1499996      -3.72745177E-08
   27.2099991      -3.87172463E-08
   27.2700005      -4.00393603E-08
   27.3299999      -4.12827390E-08
   27.3899994      -4.24897699E-08
   27.4500008      -4.36929106E-08
   27.5100002      -4.49111610E-08
   27.5699997      -4.61525111E-08
   27.6299992      -4.74182649E-08
   27.6900005      -4.87046563E-08
   27.7500000      -4.99993043E-08
   27.8099995      -5.12738758E-08
   27.8700008      -5.24774109E-08
   27.9300003      -5.35353983E-08
   27.9899998      -5.43575602E-08
   28.0499992      -5.48531780E-08
   28.1100006      -5.49491226E-08
   28.1700001      -5.46039978E-08
   28.2299995      -5.38135900E-08
   28.2900009      -5.26064774E-08
   28.3500004      -5.10330125E-08
   28.4099998      -4.91534173E-08
   28.4699993      -4.70302446E-08
   28.5300007      -4.47274502E-08
   28.5900002      -4.23142197E-08
   28.6499996      -3.98687554E-08
   28.7099991      -3.74769726E-08
   28.7700005      -3.52235539E-08
   28.8299999      -3.31769563E-08
   28.8899994      -3.13736699E-08
   28.9500008      -2.98081240E-08
   29.0100002      -2.84332540E-08
   29.0699997      -2.71724900E-08
   29.1299992      -2.59396753E-08
   29.1900005      -2.46603271E-08
   29.2500000      -2.32874537E-08
   29.3099995      -2.18075282E-08
   29.3700008      -2.02362305E-08
   29.4300003      -1.86071105E-08
   29.4899998      -1.69584382E-08
   29.5499992      -1.53230992E-08
   29.6100006      -1.37243523E-08
   29.6700001      -1.21774653E-08
   29.7299995      -1.06950200E-08
   29.7900009      -9.29268129E-09
   29.8500004      -7.99257371E-09
   29.9099998      -6.82264689E-09
   29.9699993      -5.81196291E-09
   30.0300007      -4.98318853E-09
   30.0900002      -4.34457714E-09
   30.1499996      -3.88413168E-09
   30.2099991      -3.56839203E-09
   30.2700005      -3.34723937E-09
   30.3299999      -3.16430793E-09
   30.3899994      -2.97039904E-09
   30.4500008      -2.73558709E-09
   30.5100002      -2.45540677E-09
   30.5699997      -2.14815077E-09
   30.6299992      -1.84366444E-09
   30.6900005      -1.56772773E-09
   30.7500000      -1.32851130E-09
   30.8099995      -1.11118925E-09
   30.8700008      -8.83455142E-10
   30.9300003      -6.09682582E-10
   30.9899998      -2.67157324E-10
   31.0499992       1.43515505E-10
   31.1100006       5.99174321E-10
   31.1700001       1.06591880E-09
   31.2299995       1.51617985E-09
   31.2900009       1.94228211E-09
   31.3500004       2.35921016E-09
   31.4099998       2.79471624E-09
   31.4699993       3.27155458E-09
   31.5300007       3.79107012E-09
   31.5900002       4.32707692E-09
   31.6499996       4.83389639E-09
   31.7099991       5.26507682E-09
   31.7700005       5.59353053E-09
   31.8299999       5.82270987E-09
   31.8899994       5.98278715E-09
   31.9500008       6.11340489E-09
   32.0099983       6.24150998E-09
   32.0699997       6.36543174E-09
   32.1300011       6.45324771E-09
   32.1899986       6.45631060E-09
   32.2500000       6.33123820E-09
   32.3100014       6.05963457E-09
   32.3699989       5.65622704E-09
   32.4300003       5.16204990E-09
   32.4900017       4.62656402E-09
   32.5499992       4.08751832E-09
   32.6100006       3.55767438E-09
   32.6699982       3.02355896E-09
   32.7299995       2.45551868E-09
   32.7900009       1.82358306E-09
   32.8499985       1.11201570E-09
   32.9099998       3.27154553E-10
   32.9700012      -5.03262987E-10
   33.0299988      -1.33762901E-09
   33.0900002      -2.13129114E-09
   33.1500015      -2.84708257E-09
   33.2099991      -3.46303364E-09
   33.2700005      -3.97602928E-09
   33.3300018      -4.40110348E-09
   33.3899994      -4.76671325E-09
   33.4500008      -5.10701081E-09
   33.5099983      -5.45296963E-09
   33.5699997      -5.82483484E-09
   33.6300011      -6.22822771E-09
   33.6899986      -6.65494593E-09
   33.7500000      -7.08748438E-09
   33.8100014      -7.50454188E-09
   33.8699989      -7.88435450E-09
   33.9300003      -8.20414492E-09
   33.9900017      -8.43669490E-09
   34.0499992      -8.54757420E-09
   34.1100006      -8.49722248E-09
   34.1699982      -8.25013924E-09
   34.2299995      -7.78938514E-09
   34.2900009      -7.13061343E-09
   34.3499985      -6.32806518E-09
   34.4099998      -5.46708012E-09
   34.4700012      -4.64314054E-09
   34.5299988      -3.93406374E-09
   34.5900002      -3.37633321E-09
   34.6500015      -2.95608094E-09
   34.7099991      -2.61950972E-09
   34.7700005      -2.29886732E-09
   34.8300018      -1.94253857E-09
   34.8899994      -1.53537094E-09
   34.9500008      -1.09968168E-09
   35.0099983      -6.76756540E-10
   35.0699997      -2.98554403E-10
   35.1300011       3.52804938E-11
   35.1899986       3.62204572E-10
   35.2500000       7.39474926E-10
   35.3100014       1.21232813E-09
   35.3699989       1.78326742E-09
   35.4300003       2.39849163E-09
   35.4900017       2.95979641E-09
   35.5499992       3.35815664E-09
   35.6100006       3.51465279E-09
   35.6699982       3.41061113E-09
   35.7299995       3.09362247E-09
   35.7900009       2.65702771E-09
   35.8499985       2.20222351E-09
   35.9099998       1.80022219E-09
   35.9700012       1.46831458E-09
   36.0299988       1.17021626E-09
   36.0900002       8.37534209E-10
   36.1500015       4.01727873E-10
   36.2099991      -1.77512727E-10
   36.2700005      -8.98546071E-10
   36.3300018      -1.72258652E-09
   36.3899994      -2.59298960E-09
   36.4500008      -3.45972784E-09
   36.5099983      -4.29891145E-09
   36.5699997      -5.12043519E-09
   36.6300011      -5.96221605E-09
   36.6899986      -6.87457069E-09
   36.7500000      -7.90133647E-09
   36.8100014      -9.06449493E-09
   36.8699989      -1.03570263E-08
   36.9300003      -1.17454997E-08
   36.9900017      -1.31807605E-08
   37.0499992      -1.46128762E-08
   37.1100006      -1.60055205E-08
   37.1699982      -1.73452985E-08
   37.2299995      -1.86430658E-08
   37.2900009      -1.99267376E-08
   37.3499985      -2.12279545E-08
   37.4099998      -2.25674519E-08
   37.4700012      -2.39447893E-08
   37.5299988      -2.53368011E-08
   37.5900002      -2.67055960E-08
   37.6500015      -2.80127388E-08
   37.7099991      -2.92331794E-08
   37.7700005      -3.03623509E-08
   37.8300018      -3.14131157E-08
   37.8899994      -3.24043725E-08
   37.9500008      -3.33476322E-08
   38.0099983      -3.42389441E-08
   38.0699997      -3.50610101E-08
   38.1300011      -3.57944572E-08
   38.1899986      -3.64320663E-08
   38.2500000      -3.69875508E-08
   38.3100014      -3.74932085E-08
   38.3699989      -3.79865881E-08
   38.4300003      -3.84924483E-08
   38.4900017      -3.90093078E-08
   38.5499992      -3.95079098E-08
   38.6100006      -3.99428437E-08
   38.6699982      -4.02720346E-08
   38.7299995      -4.04746139E-08
   38.7900009      -4.05586995E-08
   38.8499985      -4.05557898E-08
   38.9099998      -4.05052560E-08
   38.9700012      -4.04370901E-08
   39.0299988      -4.03614919E-08
   39.0900002      -4.02697253E-08
   39.1500015      -4.01445490E-08
   39.2099991      -3.99736813E-08
   39.2700005      -3.97584827E-08
   39.3300018      -3.95131465E-08
   39.3899994      -3.92549602E-08
   39.4500008      -3.89912280E-08
   39.5099983      -3.87101480E-08
   39.5699997      -3.83810743E-08
   39.6300011      -3.79647425E-08
   39.6899986      -3.74292952E-08
   39.7500000      -3.67650870E-08
   39.8100014      -3.59919170E-08
   39.8699989      -3.51557077E-08
   39.9300003      -3.43159208E-08
   39.9900017      -3.35284760E-08
   40.0499992      -3.28300089E-08
   40.1100006      -3.22282716E-08
   40.1699982      -3.17010951E-08
   40.2299995      -3.12037152E-08
   40.2900009      -3.06821768E-08
   40.3499985      -3.00893035E-08
   40.4099998      -2.93989242E-08
   40.4700012      -2.86142452E-08
   40.5299988      -2.77672942E-08
   40.5900002      -2.69086868E-08
   40.6500015      -2.60903406E-08
   40.7099991      -2.53469512E-08
   40.7700005      -2.46836116E-08
   40.8300018      -2.40754243E-08
   40.8899994      -2.34803128E-08
   40.9500008      -2.28602506E-08
   41.0099983      -2.22014815E-08
   41.0699997      -2.15237517E-08
   41.1300011      -2.08730455E-08
   41.1899986      -2.03001491E-08
   41.2500000      -1.98347330E-08
   41.3100014      -1.94678886E-08
   41.3699989      -1.91526919E-08
   41.4300003      -1.88239007E-08
   41.4900017      -1.84281568E-08
   41.5499992      -1.79502244E-08
   41.6100006      -1.74220105E-08
   41.6699982      -1.69092687E-08
   41.7299995      -1.64819252E-08
   41.7900009      -1.61821827E-08
   41.8499985      -1.60058402E-08
   41.9099998      -1.59056519E-08
   41.9700012      -1.58145319E-08
   42.0299988      -1.56767364E-08
   42.0900002      -1.54717181E-08
   42.1500015      -1.52197295E-08
   42.2099991      -1.49679646E-08
   42.2700005      -1.47656234E-08
   42.3300018      -1.46409675E-08
   42.3899994      -1.45910279E-08
   42.4500008      -1.45870178E-08
   42.5099983      -1.45903094E-08
   42.5699997      -1.45694266E-08
   42.6300011      -1.45098218E-08
   42.6899986      -1.44137227E-08
   42.7500000      -1.42933443E-08
   42.8100014      -1.41634384E-08
   42.8699989      -1.40375738E-08
   42.9300003      -1.39281386E-08
   42.9900017      -1.38465284E-08
   43.0499992      -1.37998137E-08
   43.1100006      -1.37836924E-08
   43.1699982      -1.37760390E-08
   43.2299995      -1.37375036E-08
   43.2900009      -1.36229685E-08
   43.3499985      -1.34013334E-08
   43.4099998      -1.30746542E-08
   43.4700012      -1.26853710E-08
   43.5299988      -1.23046835E-08
   43.5900002      -1.20043362E-08
   43.6500015      -1.18236096E-08
   43.7099991      -1.17476420E-08
   43.7700005      -1.17093473E-08
   43.8300018      -1.16163417E-08
   43.8899994      -1.13918581E-08
   43.9500008      -1.10108891E-08
   44.0099983      -1.05141620E-08
   44.0699997      -9.99266891E-09
   44.1300011      -9.54941015E-09
   44.1899986      -9.25588939E-09
   44.2500000      -9.12324971E-09
   44.3100014      -9.10057540E-09
   44.3699989      -9.09970854E-09
   44.4300003      -9.03347619E-09
   44.4900017      -8.84882123E-09
   44.5499992      -8.54026094E-09
   44.6100006      -8.13998469E-09
   44.6699982      -7.69285080E-09
   44.7299995      -7.23120097E-09
   44.7900009      -6.76269352E-09
   44.8499985      -6.27562668E-09
   44.9099998      -5.75571990E-09
   44.9700012      -5.20197174E-09
   45.0299988      -4.63049110E-09
   45.0900002      -4.06311029E-09
   45.1500015      -3.50731533E-09
   45.2099991      -2.93994962E-09
   45.2700005      -2.30564945E-09
   45.3300018      -1.53295820E-09
   45.3899994      -5.61017732E-10
   45.4500008       6.36706798E-10
   45.5099983       2.04444772E-09
   45.5699997       3.61714325E-09
   45.6300011       5.30944932E-09
   45.6899986       7.10819226E-09
   45.7500000       9.05456954E-09
   45.8100014       1.12479572E-08
   45.8699989       1.38322802E-08
   45.9300003       1.69739423E-08
   45.9900017       2.08434123E-08
   46.0499992       2.56098698E-08
   46.1100006       3.14515098E-08
   46.1699982       3.85767258E-08
   46.2299995       4.72472408E-08
   46.2900009       5.77942956E-08
   46.3499985       7.06236705E-08
   46.4099998       8.62108749E-08
   46.4700012       1.05092973E-07
   46.5299988       1.27865064E-07
   46.5900002       1.55187578E-07
   46.6500015       1.87806990E-07
   46.7099991       2.26587787E-07
   46.7700005       2.72551318E-07
   46.8300018       3.26916506E-07
   46.8899994       3.91137206E-07
   46.9500008       4.66934040E-07
   47.0099983       5.56319037E-07
   47.0699997       6.61614934E-07
   47.1300011       7.85472707E-07
   47.1899986       9.30893464E-07
   47.2500000       1.10126223E-06
   47.3100014       1.30039984E-06
   47.3699989       1.53263477E-06
   47.4300003       1.80288805E-06
   47.4900017       2.11676456E-06
   47.5499992       2.48063634E-06
   47.6100006       2.90171306E-06
   47.6699982       3.38809969E-06
   47.7299995       3.94885319E-06
   47.7900009       4.59404419E-06
   47.8499985       5.33484445E-06
   47.9099998       6.18363401E-06
   47.9700012       7.15412534E-06
   48.0299988       8.26149790E-06
   48.0900002       9.52251867E-06
   48.1500015       1.09556449E-05
   48.2099991       1.25811184E-05
   48.2700005       1.44210435E-05
   48.3300018       1.64994726E-05
   48.3899994       1.88425001E-05
   48.4500008       2.14783558E-05
   48.5099983       2.44375242E-05
   48.5699997       2.77528507E-05
   48.6300011       3.14596145E-05
   48.6899986       3.55955999E-05
   48.7500000       4.02011174E-05
   48.8100014       4.53190150E-05
   48.8699989       5.09946658E-05
   48.9300003       5.72759018E-05
   48.9900017       6.42129962E-05
   49.0499992       7.18585507E-05
   49.1100006       8.02673894E-05
   49.1699982       8.94963814E-05
   49.2299995       9.96043091E-05
   49.2900009       1.10651563E-04
   49.3499985       1.22699930E-04
   49.4099998       1.35812283E-04
   49.4700012       1.50052190E-04
   49.5299988       1.65483551E-04
   49.5900002       1.82170144E-04
   49.6500015       2.00175156E-04
   49.7099991       2.19560665E-04
   49.7700005       2.40387017E-04
   49.8300018       2.62712216E-04
   49.8899994       2.86591414E-04
   49.9500008       3.12076125E-04
   50.0099983       3.39213613E-04
   50.0699997       3.68046341E-04
   50.1300011       3.98611068E-04
   50.1899986       4.30938293E-04
   50.2500000       4.65051562E-04
   50.3100014       5.00966737E-04
   50.3699989       5.38691471E-04
   50.4300003       5.78224310E-04
   50.4900017       6.19554601E-04
   50.5499992       6.62661565E-04
   50.6100006       7.07514060E-04