  -2.400000      0.0000000E+00
  -2.340000      0.0000000E+00
  -2.280000      0.0000000E+00
  -2.220000      0.0000000E+00
  -2.160000      0.0000000E+00
  -2.100000      0.0000000E+00
  -2.040000      5.2766656E-22
  -1.980000      3.7487038E-21
  -1.920000      1.0198655E-20
  -1.860000     -7.1960053E-22
  -1.800000     -1.1046484E-19
  -1.740000     -4.8385222E-19
  -1.680000     -1.2766906E-18
  -1.620000     -2.3284702E-18
  -1.560000     -2.6973919E-18
  -1.500000     -4.2043473E-19
  -1.440000      6.8402034E-18
  -1.380000      1.9787027E-17
  -1.320000      3.4606057E-17
  -1.260000      4.1217599E-17
  -1.200000      2.5621067E-17
  -1.140000     -2.1846282E-17
  -1.080000     -9.4561203E-17
  -1.020000     -1.6175116E-16
 -0.9600000     -1.7549514E-16
 -0.9000000     -9.8854522E-17
 -0.8400000      5.2651819E-17
 -0.7800000      1.8260181E-16
 -0.7200000      1.3497287E-16
 -0.6600000     -2.1119370E-16
 -0.6000000     -7.9333249E-16
 -0.5400000     -1.2427447E-15
 -0.4800000     -9.0888869E-16
 -0.4200000      8.7052800E-16
 -0.3600000      4.2665240E-15
 -0.3000000      8.4138866E-15
 -0.2400000      1.1175031E-14
 -0.1800000      9.5831775E-15
 -0.1200000      1.1199639E-15
 -5.9999999E-02 -1.4458681E-14
  0.0000000E+00 -3.3540750E-14
  5.9999999E-02 -4.8399920E-14
  0.1200000     -4.9122195E-14
  0.1800000     -2.7743431E-14
  0.2400000      1.6620699E-14
  0.3000000      7.3985082E-14
  0.3600000      1.2367276E-13
  0.4200000      1.4005877E-13
  0.4800000      1.0317518E-13
  0.5400000      1.0654488E-14
  0.6000000     -1.1452513E-13
  0.6600000     -2.2590243E-13
  0.7200000     -2.6748973E-13
  0.7800000     -1.9717364E-13
  0.8400000     -1.1445347E-14
  0.9000000      2.3984981E-13
  0.9600000      4.5878264E-13
   1.020000      5.2831540E-13
   1.080000      3.5887645E-13
   1.140000     -6.3137951E-14
   1.200000     -6.4554931E-13
   1.260000     -1.1969385E-12
   1.320000     -1.4759486E-12
   1.380000     -1.2733264E-12
   1.440000     -5.0109054E-13
   1.500000      7.4479794E-13
   1.560000      2.1776116E-12
   1.620000      3.3813167E-12
   1.680000      3.9281018E-12
   1.740000      3.5162470E-12
   1.800000      2.0800750E-12
   1.860000     -1.7103697E-13
   1.920000     -2.8041792E-12
   1.980000     -5.2901143E-12
   2.040000     -7.1589024E-12
   2.100000     -8.1206118E-12
   2.160000     -8.0976779E-12
   2.220000     -7.1512687E-12
   2.280000     -5.3340756E-12
   2.340000     -2.5460352E-12
   2.400000      1.5139164E-12
   2.460000      7.2313561E-12
   2.520000      1.4789813E-11
   2.580000      2.3791335E-11
   2.640000      3.2930995E-11
   2.700000      3.9896510E-11
   2.760000      4.1623382E-11
   2.820000      3.4935294E-11
   2.880000      1.7467234E-11
   2.940000     -1.1348721E-11
   3.000000     -4.9514354E-11
   3.060000     -9.2167274E-11
   3.120000     -1.3190385E-10
   3.180000     -1.5972322E-10
   3.240000     -1.6644715E-10
   3.300000     -1.4437471E-10
   3.360000     -8.8907548E-11
   3.420000      7.9336419E-14
   3.480000      1.1727755E-10
   3.540000      2.5149480E-10
   3.600000      3.8579284E-10
   3.660000      4.9830556E-10
   3.720000      5.6384331E-10
   3.780000      5.5635746E-10
   3.840000      4.5222634E-10
   3.900000      2.3412577E-10
   3.960000     -1.0498598E-10
   4.020000     -5.5844041E-10
   4.080000     -1.1037348E-09
   4.140000     -1.7023486E-09
   4.200000     -2.3018434E-09
   4.260000     -2.8401566E-09
   4.320000     -3.2515495E-09
   4.380000     -3.4733290E-09
   4.440000     -3.4523147E-09
   4.500000     -3.1501382E-09
   4.560000     -2.5467628E-09
   4.620000     -1.6420330E-09
   4.680000     -4.5543913E-10
   4.740000      9.7546926E-10
   4.800000      2.5975588E-09
   4.860000      4.3451402E-09
   4.920000      6.1434493E-09
   4.980000      7.9126803E-09
   5.040000      9.5727355E-09
   5.100000      1.1048743E-08
   5.160000      1.2277116E-08
   5.220000      1.3211577E-08
   5.280000      1.3828244E-08
   5.340000      1.4128801E-08
   5.400000      1.4140818E-08
   5.460000      1.3914750E-08
   5.520000      1.3517641E-08
   5.580000      1.3024294E-08
   5.640000      1.2507170E-08
   5.700000      1.2026689E-08
   5.760000      1.1623599E-08
   5.820000      1.1314755E-08
   5.880000      1.1093042E-08
   5.940000      1.0931342E-08
   6.000000      1.0789631E-08
   6.060000      1.0623653E-08
   6.120000      1.0393321E-08
   6.180000      1.0069068E-08
   6.240000      9.6349755E-09
   6.300000      9.0882510E-09
   6.360000      8.4356468E-09
   6.420000      7.6881337E-09
   6.480000      6.8556010E-09
   6.540000      5.9432375E-09
   6.600000      4.9506470E-09
   6.660000      3.8738039E-09
   6.720000      2.7089972E-09
   6.780000      1.4572258E-09
   6.840000      1.2739564E-10
   6.900000     -1.2628318E-09
   6.960000     -2.6887690E-09
   7.020000     -4.1222057E-09
   7.080000     -5.5352056E-09
   7.140000     -6.9026460E-09
   7.200000     -8.2025799E-09
   7.260000     -9.4145820E-09
   7.320000     -1.0517296E-08
   7.380000     -1.1487024E-08
   7.440000     -1.2298997E-08
   7.500000     -1.2931999E-08
   7.560000     -1.3375569E-08
   7.620000     -1.3637721E-08
   7.680000     -1.3750370E-08
   7.740000     -1.3770009E-08
   7.800000     -1.3772373E-08
   7.860000     -1.3841675E-08
   7.920000     -1.4056721E-08
   7.980000     -1.4477363E-08
   8.040000     -1.5134757E-08
   8.100000     -1.6027940E-08
   8.160000     -1.7127382E-08
   8.220000     -1.8384329E-08
   8.280000     -1.9743155E-08
   8.340000     -2.1153351E-08
   8.400000     -2.2578236E-08
   8.460000     -2.3998576E-08
   8.520000     -2.5411017E-08
   8.580000     -2.6822676E-08
   8.640000     -2.8244058E-08
   8.700000     -2.9682694E-08
   8.760000     -3.1139226E-08
   8.820000     -3.2606529E-08
   8.880000     -3.4071530E-08
   8.940000     -3.5518333E-08
   9.000000     -3.6931155E-08
   9.060000     -3.8295706E-08
   9.120000     -3.9598518E-08
   9.180000     -4.0824563E-08
   9.240000     -4.1954390E-08
   9.300000     -4.2962363E-08
   9.360000     -4.3817408E-08
   9.420000     -4.4486953E-08
   9.480000     -4.4943491E-08
   9.540000     -4.5172062E-08
   9.600000     -4.5176321E-08
   9.660000     -4.4980769E-08
   9.720000     -4.4627665E-08
   9.780000     -4.4168853E-08
   9.840000     -4.3654321E-08
   9.900000     -4.3120622E-08
   9.960000     -4.2582702E-08
   10.02000     -4.2031587E-08
   10.08000     -4.1438827E-08
   10.14000     -4.0766299E-08
   10.20000     -3.9978321E-08
   10.26000     -3.9052271E-08
   10.32000     -3.7984442E-08
   10.38000     -3.6789476E-08
   10.44000     -3.5493855E-08
   10.50000     -3.4125815E-08
   10.56000     -3.2705124E-08
   10.62000     -3.1236123E-08
   10.68000     -2.9706186E-08
   10.74000     -2.8089936E-08
   10.80000     -2.6357695E-08
   10.86000     -2.4485235E-08
   10.92000     -2.2461737E-08
   10.98000     -2.0293459E-08
   11.04000     -1.8002284E-08
   11.10000     -1.5620053E-08
   11.16000     -1.3181062E-08
   11.22000     -1.0715675E-08
   11.28000     -8.2474374E-09
   11.34000     -5.7946772E-09
   11.40000     -3.3757310E-09
   11.46000     -1.0153343E-09
   11.52000      1.2509367E-09
   11.58000      3.3768139E-09
   11.64000      5.3111733E-09
   11.70000      7.0085306E-09
   11.76000      8.4412832E-09
   11.82000      9.6097370E-09
   11.88000      1.0546245E-08
   11.94000      1.1311325E-08
   12.00000      1.1981999E-08
   12.06000      1.2635026E-08
   12.12000      1.3329480E-08
   12.18000      1.4093496E-08
   12.24000      1.4919037E-08
   12.30000      1.5766233E-08
   12.36000      1.6576148E-08
   12.42000      1.7288311E-08
   12.48000      1.7858033E-08
   12.54000      1.8268622E-08
   12.60000      1.8535230E-08
   12.66000      1.8699597E-08
   12.72000      1.8817675E-08
   12.78000      1.8944105E-08
   12.84000      1.9118250E-08
   12.90000      1.9355678E-08
   12.96000      1.9647160E-08
   13.02000      1.9964761E-08
   13.08000      2.0272561E-08
   13.14000      2.0538348E-08
   13.20000      2.0742577E-08
   13.26000      2.0882126E-08
   13.32000      2.0968134E-08
   13.38000      2.1019046E-08
   13.44000      2.1051502E-08
   13.50000      2.1072116E-08
   13.56000      2.1072889E-08
   13.62000      2.1031747E-08
   13.68000      2.0918167E-08
   13.74000      2.0702251E-08
   13.80000      2.0364684E-08
   13.86000      1.9904640E-08
   13.92000      1.9343336E-08
   13.98000      1.8722142E-08
   14.04000      1.8095699E-08
   14.10000      1.7521861E-08
   14.16000      1.7051143E-08
   14.22000      1.6718323E-08
   14.28000      1.6538117E-08
   14.34000      1.6505547E-08
   14.40000      1.6600239E-08
   14.46000      1.6792907E-08
   14.52000      1.7051940E-08
   14.58000      1.7348434E-08
   14.64000      1.7658895E-08
   14.70000      1.7965917E-08
   14.76000      1.8257788E-08
   14.82000      1.8528091E-08
   14.88000      1.8775994E-08
   14.94000      1.9007013E-08
   15.00000      1.9233472E-08
   15.06000      1.9473640E-08
   15.12000      1.9748924E-08
   15.18000      2.0079332E-08
   15.24000      2.0478424E-08
   15.30000      2.0949384E-08
   15.36000      2.1483750E-08
   15.42000      2.2063441E-08
   15.48000      2.2665489E-08
   15.54000      2.3267875E-08
   15.60000      2.3854410E-08
   15.66000      2.4417085E-08
   15.72000      2.4955289E-08
   15.78000      2.5472714E-08
   15.84000      2.5973590E-08
   15.90000      2.6460096E-08
   15.96000      2.6932131E-08
   16.02000      2.7389500E-08
   16.08000      2.7835348E-08
   16.14000      2.8279164E-08
   16.20000      2.8737688E-08
   16.26000      2.9233062E-08
   16.32000      2.9788632E-08
   16.38000      3.0423895E-08
   16.44000      3.1150346E-08
   16.50000      3.1969741E-08
   16.56000      3.2875136E-08
   16.62000      3.3854239E-08
   16.68000      3.4893432E-08
   16.74000      3.5980992E-08
   16.80000      3.7108158E-08
   16.86000      3.8267906E-08
   16.92000      3.9452061E-08
   16.98000      4.0648207E-08
   17.04000      4.1837843E-08
   17.10000      4.2996692E-08
   17.16000      4.4097369E-08
   17.22000      4.5113506E-08
   17.28000      4.6023999E-08
   17.34000      4.6815931E-08
   17.40000      4.7485173E-08
   17.46000      4.8034522E-08
   17.52000      4.8470071E-08
   17.58000      4.8797080E-08
   17.64000      4.9016840E-08
   17.70000      4.9125624E-08
   17.76000      4.9116153E-08
   17.82000      4.8981043E-08
   17.88000      4.8717038E-08
   17.94000      4.8328332E-08
   18.00000      4.7827548E-08
   18.06000      4.7233492E-08
   18.12000      4.6565866E-08
   18.18000      4.5838249E-08
   18.24000      4.5051436E-08
   18.30000      4.4189417E-08
   18.36000      4.3219870E-08
   18.42000      4.2099686E-08
   18.48000      4.0784624E-08
   18.54000      3.9240838E-08
   18.60000      3.7455226E-08
   18.66000      3.5441655E-08
   18.72000      3.3241367E-08
   18.78000      3.0917317E-08
   18.84000      2.8543973E-08
   18.90000      2.6195359E-08
   18.96000      2.3934325E-08
   19.02000      2.1805464E-08
   19.08000      1.9832745E-08
   19.14000      1.8021336E-08
   19.20000      1.6361959E-08
   19.26000      1.4835600E-08
   19.32000      1.3416742E-08
   19.38000      1.2074374E-08
   19.44000      1.0771229E-08
   19.50000      9.4626991E-09
   19.56000      8.0971523E-09
   19.62000      6.6189481E-09
   19.68000      4.9742943E-09
   19.74000      3.1189107E-09
   19.80000      1.0254796E-09
   19.86000     -1.3113174E-09
   19.92000     -3.8737769E-09
   19.98000     -6.6245658E-09
   20.04000     -9.5135508E-09
   20.10000     -1.2486113E-08
   20.16000     -1.5490720E-08
   20.22000     -1.8484087E-08
   20.28000     -2.1433292E-08
   20.34000     -2.4315396E-08
   20.40000     -2.7115806E-08
   20.46000     -2.9826730E-08
   20.52000     -3.2446504E-08
   20.58000     -3.4979781E-08
   20.64000     -3.7437864E-08
   20.70000     -3.9838188E-08
   20.76000     -4.2202444E-08
   20.82000     -4.4553360E-08
   20.88000     -4.6910930E-08
   20.94000     -4.9289191E-08
   21.00000     -5.1694403E-08
   21.06000     -5.4124943E-08
   21.12000     -5.6572617E-08
   21.18000     -5.9024469E-08
   21.24000     -6.1464426E-08
   21.30000     -6.3874296E-08
   21.36000     -6.6234257E-08
   21.42000     -6.8523313E-08
   21.48000     -7.0720120E-08
   21.54000     -7.2804347E-08
   21.60000     -7.4758127E-08
   21.66000     -7.6566799E-08
   21.72000     -7.8218477E-08
   21.78000     -7.9701906E-08
   21.84000     -8.1003577E-08
   21.90000     -8.2104883E-08
   21.96000     -8.2981124E-08
   22.02000     -8.3603176E-08
   22.08000     -8.3942240E-08
   22.14000     -8.3976914E-08
   22.20000     -8.3700726E-08
   22.26000     -8.3128249E-08
   22.32000     -8.2297646E-08
   22.38000     -8.1268894E-08
   22.44000     -8.0117708E-08
   22.50000     -7.8926554E-08
   22.56000     -7.7774835E-08
   22.62000     -7.6730274E-08
   22.68000     -7.5843012E-08
   22.74000     -7.5142822E-08
   22.80000     -7.4639061E-08
   22.86000     -7.4322152E-08
   22.92000     -7.4165648E-08
   22.98000     -7.4128380E-08
   23.04000     -7.4157114E-08
   23.10000     -7.4190488E-08
   23.16000     -7.4164980E-08
   23.22000     -7.4022836E-08
   23.28000     -7.3720543E-08
   23.34000     -7.3235761E-08
   23.40000     -7.2570280E-08
   23.46000     -7.1747415E-08
   23.52000     -7.0804369E-08
   23.58000     -6.9781677E-08
   23.64000     -6.8713419E-08
   23.70000     -6.7621478E-08
   23.76000     -6.6516037E-08
   23.82000     -6.5401814E-08
   23.88000     -6.4287107E-08
   23.94000     -6.3191791E-08
   24.00000     -6.2150271E-08
   24.06000     -6.1207658E-08
   24.12000     -6.0409945E-08
   24.18000     -5.9791482E-08
   24.24000     -5.9364204E-08
   24.30000     -5.9112498E-08
   24.36000     -5.8995482E-08
   24.42000     -5.8955912E-08
   24.48000     -5.8932446E-08
   24.54000     -5.8871279E-08
   24.60000     -5.8733523E-08
   24.66000     -5.8496727E-08
   24.72000     -5.8151247E-08
   24.78000     -5.7693924E-08
   24.84000     -5.7122314E-08
   24.90000     -5.6431954E-08
   24.96000     -5.5617637E-08
   25.02000     -5.4677681E-08
   25.08000     -5.3618944E-08
   25.14000     -5.2459988E-08
   25.20000     -5.1230565E-08
   25.26000     -4.9967078E-08
   25.32000     -4.8705349E-08
   25.38000     -4.7472820E-08
   25.44000     -4.6282686E-08
   25.50000     -4.5131603E-08
   25.56000     -4.4001347E-08
   25.62000     -4.2863622E-08
   25.68000     -4.1686420E-08
   25.74000     -4.0440160E-08
   25.80000     -3.9102247E-08
   25.86000     -3.7659593E-08
   25.92000     -3.6109082E-08
   25.98000     -3.4456534E-08
   26.04000     -3.2714727E-08
   26.10000     -3.0900885E-08
   26.16000     -2.9034016E-08
   26.22000     -2.7132286E-08
   26.28000     -2.5210882E-08
   26.34000     -2.3280744E-08
   26.40000     -2.1348546E-08
   26.46000     -1.9417973E-08
   26.52000     -1.7491962E-08
   26.58000     -1.5575148E-08
   26.64000     -1.3675663E-08
   26.70000     -1.1805612E-08
   26.76000     -9.9800603E-09
   26.82000     -8.2149851E-09
   26.88000     -6.5249952E-09
   26.94000     -4.9217377E-09
   27.00000     -3.4134837E-09
   27.06000     -2.0057962E-09
   27.12000     -7.0258915E-10
   27.18000      4.9335619E-10
   27.24000      1.5810999E-09
   27.30000      2.5634852E-09
   27.36000      3.4494918E-09
   27.42000      4.2556332E-09
   27.48000      5.0050502E-09
   27.54000      5.7236984E-09
   27.60000      6.4342212E-09
   27.66000      7.1493047E-09
   27.72000      7.8669542E-09
   27.78000      8.5698035E-09
   27.84000      9.2292973E-09
   27.90000      9.8137765E-09
   27.96000      1.0297839E-08
   28.02000      1.0669623E-08
   28.08000      1.0933254E-08
   28.14000      1.1105392E-08
   28.20000      1.1207144E-08
   28.26000      1.1254451E-08
   28.32000      1.1250749E-08
   28.38000      1.1184790E-08
   28.44000      1.1034505E-08
   28.50000      1.0775267E-08
   28.56000      1.0389216E-08
   28.62000      9.8718846E-09
   28.68000      9.2335473E-09
   28.74000      8.4949301E-09
   28.80000      7.6791773E-09
   28.86000      6.8034254E-09
   28.92000      5.8733018E-09
   28.98000      4.8823643E-09
   29.04000      3.8164525E-09
   29.10000      2.6610301E-09
   29.16000      1.4086090E-09
   29.22000      6.3507810E-11
   29.28000     -1.3576474E-09
   29.34000     -2.8297009E-09
   29.40000     -4.3256372E-09
   29.46000     -5.8239924E-09
   29.52000     -7.3147928E-09
   29.58000     -8.8023722E-09
   29.64000     -1.0304291E-08
   29.70000     -1.1846537E-08
   29.76000     -1.3456049E-08
   29.82000     -1.5152288E-08
   29.88000     -1.6939948E-08
   29.94000     -1.8804871E-08
   30.00000     -2.0714602E-08
   30.06000     -2.2623947E-08
   30.12000     -2.4484361E-08
   30.18000     -2.6254648E-08
   30.24000     -2.7909818E-08
   30.30000     -2.9445145E-08
   30.36000     -3.0874052E-08
   30.42000     -3.2220470E-08
   30.48000     -3.3508492E-08
   30.54000     -3.4753111E-08
   30.60000     -3.5955651E-08
   30.66000     -3.7105600E-08
   30.72000     -3.8188002E-08
   30.78000     -3.9193100E-08
   30.84000     -4.0123908E-08
   30.90000     -4.0998039E-08
   30.96000     -4.1842377E-08
   31.02000     -4.2682302E-08
   31.08000     -4.3529614E-08
   31.14000     -4.4374207E-08
   31.20000     -4.5183342E-08
   31.26000     -4.5909552E-08
   31.32000     -4.6504752E-08
   31.38000     -4.6935533E-08
   31.44000     -4.7193971E-08
   31.50000     -4.7299803E-08
   31.56000     -4.7293099E-08
   31.62000     -4.7220123E-08
   31.68000     -4.7117723E-08
   31.74000     -4.7002160E-08
   31.80000     -4.6866507E-08
   31.86000     -4.6687433E-08
   31.92000     -4.6438551E-08
   31.98000     -4.6105043E-08
   32.04000     -4.5693721E-08
   32.10000     -4.5234636E-08
   32.16000     -4.4773582E-08
   32.22000     -4.4358174E-08
   32.28000     -4.4022691E-08
   32.34000     -4.3777039E-08
   32.40000     -4.3603457E-08
   32.46000     -4.3461654E-08
   32.52000     -4.3300098E-08
   32.58000     -4.3069154E-08
   32.64000     -4.2731902E-08
   32.70000     -4.2269697E-08
   32.76000     -4.1682053E-08
   32.82000     -4.0982414E-08
   32.88000     -4.0192418E-08
   32.94000     -3.9337280E-08
   33.00000     -3.8443378E-08
   33.06000     -3.7537990E-08
   33.12000     -3.6649975E-08
   33.18000     -3.5809993E-08
   33.24000     -3.5049599E-08
   33.30000     -3.4399203E-08
   33.36000     -3.3885708E-08
   33.42000     -3.3530668E-08
   33.48000     -3.3349341E-08
   33.54000     -3.3350425E-08
   33.60000     -3.3535827E-08
   33.66000     -3.3899877E-08
   33.72000     -3.4428052E-08
   33.78000     -3.5095866E-08
   33.84000     -3.5869075E-08
   33.90000     -3.6706023E-08
   33.96000     -3.7562220E-08
   34.02000     -3.8395928E-08
   34.08000     -3.9172914E-08
   34.14000     -3.9868350E-08
   34.20000     -4.0464744E-08
   34.26000     -4.0946528E-08
   34.32000     -4.1293408E-08
   34.38000     -4.1475698E-08
   34.44000     -4.1454342E-08
   34.50000     -4.1186841E-08
   34.56000     -4.0637808E-08
   34.62000     -3.9790766E-08
   34.68000     -3.8656676E-08
   34.74000     -3.7275530E-08
   34.80000     -3.5709601E-08
   34.86000     -3.4030069E-08
   34.92000     -3.2301571E-08
   34.98000     -3.0570000E-08
   35.04000     -2.8858135E-08
   35.10000     -2.7170417E-08
   35.16000     -2.5504836E-08
   35.22000     -2.3866845E-08
   35.28000     -2.2279403E-08
   35.34000     -2.0784789E-08
   35.40000     -1.9437094E-08
   35.46000     -1.8288212E-08
   35.52000     -1.7372752E-08
   35.58000     -1.6697900E-08
   35.64000     -1.6242238E-08
   35.70000     -1.5964018E-08
   35.76000     -1.5815679E-08
   35.82000     -1.5758985E-08
   35.88000     -1.5775141E-08
   35.94000     -1.5866368E-08
   36.00000     -1.6048959E-08
   36.06000     -1.6341152E-08
   36.12000     -1.6751086E-08
   36.18000     -1.7269766E-08
   36.24000     -1.7871731E-08
   36.30000     -1.8522748E-08
   36.36000     -1.9191054E-08
   36.42000     -1.9857172E-08
   36.48000     -2.0518083E-08
   36.54000     -2.1183876E-08
   36.60000     -2.1868168E-08
   36.66000     -2.2576177E-08
   36.72000     -2.3295328E-08
   36.78000     -2.3992467E-08
   36.84000     -2.4619164E-08
   36.90000     -2.5123684E-08
   36.96000     -2.5465589E-08
   37.02000     -2.5628012E-08
   37.08000     -2.5623356E-08
   37.14000     -2.5490364E-08
   37.20000     -2.5283304E-08
   37.26000     -2.5056513E-08
   37.32000     -2.4848811E-08
   37.38000     -2.4672302E-08
   37.44000     -2.4508571E-08
   37.50000     -2.4313223E-08
   37.56000     -2.4027313E-08
   37.62000     -2.3592481E-08
   37.68000     -2.2965754E-08
   37.74000     -2.2130175E-08
   37.80000     -2.1098703E-08
   37.86000     -1.9910591E-08
   37.92000     -1.8621478E-08
   37.98000     -1.7290008E-08
   38.04000     -1.5964547E-08
   38.10000     -1.4673468E-08
   38.16000     -1.3421301E-08
   38.22000     -1.2191446E-08
   38.28000     -1.0954256E-08
   38.34000     -9.6779518E-09
   38.40000     -8.3391418E-09
   38.46000     -6.9300135E-09
   38.52000     -5.4603402E-09
   38.58000     -3.9540584E-09
   38.64000     -2.4417743E-09
   38.70000     -9.5180985E-10
   38.76000      4.9720839E-10
   38.82000      1.8996866E-09
   38.88000      3.2611533E-09
   38.94000      4.5917026E-09
   39.00000      5.8970642E-09
   39.06000      7.1705788E-09
   39.12000      8.3892226E-09
   39.18000      9.5156025E-09
   39.24000      1.0505794E-08
   39.30000      1.1320802E-08
   39.36000      1.1937996E-08
   39.42000      1.2358730E-08
   39.48000      1.2609503E-08
   39.54000      1.2736102E-08
   39.60000      1.2792433E-08
   39.66000      1.2827308E-08
   39.72000      1.2872913E-08
   39.78000      1.2937951E-08
   39.84000      1.3006910E-08
   39.90000      1.3045253E-08
   39.96000      1.3008952E-08
   40.02000      1.2856136E-08
   40.08000      1.2558414E-08
   40.14000      1.2109751E-08
   40.20000      1.1531101E-08
   40.26000      1.0869617E-08
   40.32000      1.0192005E-08
   40.38000      9.5727435E-09
   40.44000      9.0791943E-09
   40.50000      8.7567837E-09
   40.56000      8.6180094E-09
   40.62000      8.6384127E-09
   40.68000      8.7610017E-09
   40.74000      8.9081702E-09
   40.80000      8.9978345E-09
   40.86000      8.9591143E-09
   40.92000      8.7431236E-09
   40.98000      8.3261753E-09
   41.04000      7.7054754E-09
   41.10000      6.8900405E-09
   41.16000      5.8911493E-09
   41.22000      4.7165027E-09
   41.28000      3.3704639E-09
   41.34000      1.8600586E-09
   41.40000      2.0387174E-10
   41.46000     -1.5603840E-09
   41.52000     -3.3734608E-09
   41.58000     -5.1592179E-09
   41.64000     -6.8354300E-09
   41.70000     -8.3274072E-09
   41.76000     -9.5798551E-09
   41.82000     -1.0562958E-08
   41.88000     -1.1270724E-08
   41.94000     -1.1712465E-08
   42.00000     -1.1900677E-08
   42.06000     -1.1839735E-08
   42.12000     -1.1519236E-08
   42.18000     -1.0913767E-08
   42.24000     -9.9882875E-09
   42.30000     -8.7060812E-09
   42.36000     -7.0352781E-09
   42.42000     -4.9505378E-09
   42.48000     -2.4283466E-09
   42.54000      5.6330851E-10
   42.60000      4.0781893E-09
   42.66000      8.2044380E-09
   42.72000      1.3073547E-08
   42.78000      1.8864197E-08
   42.84000      2.5801510E-08
   42.90000      3.4153970E-08
   42.96000      4.4231133E-08
   43.02000      5.6385137E-08
   43.08000      7.1017901E-08
   43.14000      8.8594518E-08
   43.20000      1.0966211E-07
   43.26000      1.3487237E-07
   43.32000      1.6500577E-07
   43.38000      2.0099577E-07
   43.44000      2.4395123E-07
   43.50000      2.9517682E-07
   43.56000      3.5619115E-07
   43.62000      4.2874456E-07
   43.68000      5.1483869E-07
   43.74000      6.1675115E-07
   43.80000      7.3706912E-07
   43.86000      8.7873246E-07
   43.92000      1.0450884E-06
   43.98000      1.2399544E-06
   44.04000      1.4676845E-06
   44.10000      1.7332375E-06
   44.16000      2.0422394E-06
   44.22000      2.4010453E-06
   44.28000      2.8167974E-06
   44.34000      3.2974904E-06
   44.40000      3.8520466E-06
   44.46000      4.4904054E-06
   44.52000      5.2236301E-06
   44.58000      6.0640268E-06
   44.64000      7.0252727E-06
   44.70000      8.1225398E-06
   44.76000      9.3726139E-06
   44.82000      1.0794006E-05
   44.88000      1.2407042E-05
   44.94000      1.4233970E-05
   45.00000      1.6299042E-05
   45.06000      1.8628632E-05
   45.12000      2.1251328E-05
   45.18000      2.4198042E-05
   45.24000      2.7502123E-05
   45.30000      3.1199434E-05
   45.36000      3.5328441E-05
   45.42000      3.9930237E-05
   45.48000      4.5048575E-05
   45.54000      5.0729835E-05
   45.60000      5.7023019E-05
   45.66000      6.3979664E-05
   45.72000      7.1653776E-05
   45.78000      8.0101781E-05
   45.84000      8.9382331E-05
   45.90000      9.9556200E-05
   45.96000      1.1068605E-04
   46.02000      1.2283619E-04
   46.08000      1.3607225E-04
   46.14000      1.5046087E-04
   46.20000      1.6606918E-04
   46.26000      1.8296448E-04
   46.32000      2.0121364E-04
   46.38000      2.2088268E-04
   46.44000      2.4203611E-04
   46.50000      2.6473645E-04
   46.56000      2.8904344E-04
   46.62000      3.1501357E-04
   46.68000      3.4269923E-04
   46.74000      3.7214806E-04
   46.80000      4.0340217E-04
   46.86000      4.3649742E-04
   46.92000      4.7146264E-04
   46.98000      5.0831895E-04
   47.04000      5.4707902E-04
   47.10000      5.8774644E-04
   47.16000      6.3031493E-04
   47.22000      6.7476800E-04
   47.28000      7.2107842E-04
   47.34000      7.6920778E-04
   47.40000      8.1910583E-04
   47.46000      8.7071059E-04
   47.52000      9.2394784E-04
   47.58000      9.7873155E-04
   47.64000      1.0349631E-03
   47.70000      1.0925325E-03
   47.76000      1.1513183E-03
   47.82000      1.2111877E-03
   47.88000      1.2719975E-03
   47.94000      1.3335954E-03
   48.00000      1.3958198E-03
   48.06000      1.4585019E-03
   48.12000      1.5214660E-03
   48.18000      1.5845306E-03
   48.24000      1.6475107E-03
   48.30000      1.7102186E-03
   48.36000      1.7724658E-03
   48.42000      1.8340643E-03
   48.48000      1.8948282E-03
   48.54000      1.9545762E-03
   48.60000      2.0131331E-03
   48.66000      2.0703301E-03
   48.72000      2.1260080E-03
   48.78000      2.1800187E-03
   48.84000      2.2322256E-03
   48.90000      2.2825063E-03
   48.96000      2.3307533E-03
   49.02000      2.3768747E-03
   49.08000      2.4207958E-03
   49.14000      2.4624602E-03
   49.20000      2.5018295E-03
   49.26000      2.5388852E-03
   49.32000      2.5736270E-03
   49.38000      2.6060743E-03
   49.44000      2.6362652E-03
   49.50000      2.6642559E-03
   49.56000      2.6901199E-03
   49.62000      2.7139471E-03
   49.68000      2.7358432E-03
   49.74000      2.7559279E-03
   49.80000      2.7743329E-03
   49.86000      2.7912015E-03
   49.92000      2.8066842E-03
   49.98000      2.8209402E-03
   50.04000      2.8341315E-03
   50.10000      2.8464228E-03
   50.16000      2.8579799E-03
   50.22000      2.8689650E-03
   50.28000      2.8795369E-03
   50.34000      2.8898476E-03
   50.40000      2.9000412E-03
   50.46000      2.9102513E-03
   50.52000      2.9205990E-03
   50.58000      2.9311916E-03
   50.64000      2.9421211E-03
   50.70000      2.9534623E-03
   50.76000      2.9652738E-03
   50.82000      2.9775957E-03
   50.88000      2.9904488E-03
   50.94000      3.0038364E-03
   51.00000      3.0177427E-03
   51.06000      3.0321332E-03
   51.12000      3.0469568E-03
   51.18000      3.0621451E-03
   51.24000      3.0776155E-03
   51.30000      3.0932704E-03
   51.36000      3.1090009E-03
   51.42000      3.1246874E-03
   51.48000      3.1402020E-03
   51.54000      3.1554105E-03
   51.60000      3.1701741E-03
   51.66000      3.1843525E-03
   51.72000      3.1978067E-03
   51.78000      3.2104000E-03
   51.84000      3.2220010E-03
   51.90000      3.2324851E-03
   51.96000      3.2417378E-03
   52.02000      3.2496557E-03
   52.08000      3.2561475E-03
   52.14000      3.2611371E-03
   52.20000      3.2645643E-03
   52.26000      3.2663853E-03
   52.32000      3.2665741E-03
   52.38000      3.2651231E-03
   52.44000      3.2620425E-03
   52.50000      3.2573624E-03
   52.56000      3.2511293E-03
   52.62000      3.2434079E-03
   52.68000      3.2342782E-03
   52.74000      3.2238357E-03
   52.80000      3.2121902E-03
   52.86000      3.1994632E-03
   52.92000      3.1857870E-03
   52.98000      3.1713024E-03
   53.04000      3.1561558E-03
   53.10000      3.1404991E-03
   53.16000      3.1244848E-03
   53.22000      3.1082649E-03
   53.28000      3.0919886E-03
   53.34000      3.0757997E-03
   53.40000      3.0598352E-03
   53.46000      3.0442222E-03
   53.52000      3.0290778E-03
   53.58000      3.0145054E-03
   53.64000      3.0005942E-03
   53.70000      2.9874172E-03
   53.76000      2.9750303E-03
   53.82000      2.9634722E-03
   53.88000      2.9527617E-03
   53.94000      2.9429009E-03
   54.00000      2.9338717E-03
   54.06000      2.9256390E-03
   54.12000      2.9181496E-03
   54.18000      2.9113335E-03
   54.24000      2.9051045E-03
   54.30000      2.8993613E-03
   54.36000      2.8939901E-03
   54.42000      2.8888651E-03
   54.48000      2.8838511E-03
   54.54000      2.8788063E-03
   54.60000      2.8735828E-03
   54.66000      2.8680298E-03
   54.72000      2.8619948E-03
   54.78000      2.8553267E-03
   54.84000      2.8478776E-03
   54.90000      2.8395038E-03
   54.96000      2.8300704E-03
   55.02000      2.8194510E-03
   55.08000      2.8075306E-03
   55.14000      2.7942066E-03
   55.20000      2.7793904E-03
   55.26000      2.7630078E-03
   55.32000      2.7450009E-03
   55.38000      2.7253274E-03
   55.44000      2.7039624E-03
   55.50000      2.6808979E-03
   55.56000      2.6561436E-03