 -0.750000000       0.00000000    
 -0.689999998       0.00000000    
 -0.629999995       0.00000000    
 -0.569999993       0.00000000    
 -0.509999990       0.00000000    
 -0.449999988       0.00000000    
 -0.389999986       7.84009916E-23
 -0.330000013       6.20411056E-22
 -0.270000011       2.10483680E-21
 -0.209999993       2.48014920E-21
 -0.150000006      -9.80364445E-21
  -9.00000036E-02  -6.33691823E-20
  -2.99999993E-02  -1.95514503E-19
   2.99999993E-02  -4.00695879E-19
   9.00000036E-02  -5.23811709E-19
  0.150000006      -1.49574236E-19
  0.209999993       1.36145305E-18
  0.270000011       4.48316879E-18
  0.330000013       8.68999225E-18
  0.389999986       1.14636992E-17
  0.449999988       7.95845191E-18
  0.509999990      -7.54671201E-18
  0.569999993      -3.77214642E-17
  0.629999995      -7.66072215E-17
  0.689999998      -1.05398599E-16
  0.750000000      -9.41416174E-17
  0.810000002      -1.30274122E-17
  0.870000005       1.47456419E-16
  0.930000007       3.55254115E-16
  0.990000010       5.28072262E-16
   1.04999995       5.50939399E-16
   1.11000001       3.23908972E-16
   1.16999996      -1.73994543E-16
   1.23000002      -8.36236983E-16
   1.28999996      -1.43264495E-15
   1.35000002      -1.68592506E-15
   1.40999997      -1.40325227E-15
   1.47000003      -6.02572568E-16
   1.52999997       4.47690000E-16
   1.59000003       1.33240432E-15
   1.64999998       1.72115856E-15
   1.71000004       1.61911788E-15
   1.76999998       1.47073020E-15
   1.83000004       1.97852306E-15
   1.88999999       3.63238983E-15
   1.95000005       6.13794675E-15
   2.00999999       8.08534283E-15
   2.06999993       7.19889406E-15
   2.13000011       1.29347903E-15
   2.19000006      -1.03140161E-14
   2.25000000      -2.55641235E-14
   2.30999994      -3.93602421E-14
   2.36999989      -4.47576783E-14
   2.43000007      -3.55586227E-14
   2.49000001      -9.46810549E-15
   2.54999995       2.95803014E-14
   2.60999990       7.12922898E-14
   2.67000008       1.01703104E-13
   2.73000002       1.08089034E-13
   2.78999996       8.42927209E-14
   2.84999990       3.40936386E-14
   2.91000009      -2.92447781E-14
   2.97000003      -8.76015569E-14
   3.02999997      -1.25180994E-13
   3.08999991      -1.35121352E-13
   3.15000010      -1.22184611E-13
   3.21000004      -9.96157977E-14
   3.26999998      -8.09392836E-14
   3.32999992      -7.02858182E-14
   3.39000010      -5.64363585E-14
   3.45000005      -1.50704915E-14
   3.50999999       7.94509925E-14
   3.56999993       2.36088547E-13
   3.63000011       4.30484180E-13
   3.69000006       5.98991180E-13
   3.75000000       6.50451860E-13
   3.80999994       4.96600807E-13
   3.86999989       9.35952365E-14
   3.93000007      -5.20201774E-13
   3.99000001      -1.20790726E-12
   4.05000019      -1.75291205E-12
   4.11000013      -1.91542051E-12
   4.17000008      -1.51448147E-12
   4.23000002      -5.09852306E-13
   4.28999996       9.47840114E-13
   4.34999990       2.52447434E-12
   4.40999985       3.77589973E-12
   4.46999979       4.27221539E-12
   4.53000021       3.73596640E-12
   4.59000015       2.14720125E-12
   4.65000010      -2.24561214E-13
   4.71000004      -2.87798431E-12
   4.76999998      -5.21189905E-12
   4.82999992      -6.68858849E-12
   4.88999987      -6.97329954E-12
   4.94999981      -6.00426870E-12
   5.01000023      -3.97493453E-12
   5.07000017      -1.24427844E-12
   5.13000011       1.78209086E-12
   5.19000006       4.74968936E-12
   5.25000000       7.39536210E-12
   5.30999994       9.52280615E-12
   5.36999989       1.09374896E-11
   5.42999983       1.13842789E-11
   5.48999977       1.05294462E-11
   5.55000019       8.00707504E-12
   5.61000013       3.51713819E-12
   5.67000008      -3.06616841E-12
   5.73000002      -1.16289200E-11
   5.78999996      -2.18348794E-11
   5.84999990      -3.32319484E-11
   5.90999985      -4.54117022E-11
   5.96999979      -5.81535237E-11
   6.03000021      -7.14795376E-11
   6.09000015      -8.55739715E-11
   6.15000010      -1.00575062E-10
   6.21000004      -1.16307429E-10
   6.26999998      -1.32062847E-10
   6.32999992      -1.46535575E-10
   6.38999987      -1.57969596E-10
   6.44999981      -1.64496236E-10
   6.51000023      -1.64561545E-10
   6.57000017      -1.57298244E-10
   6.63000011      -1.42710024E-10
   6.69000006      -1.21601507E-10
   6.75000000      -9.52828649E-11
   6.80999994      -6.51601689E-11
   6.86999989      -3.23591952E-11
   6.92999983       2.49421859E-12
   6.98999977       3.92861021E-11
   7.05000019       7.82538062E-11
   7.11000013       1.19750182E-10
   7.17000008       1.64041017E-10
   7.23000002       2.11205789E-10
   7.28999996       2.61146715E-10
   7.34999990       3.13655518E-10
   7.40999985       3.68466646E-10
   7.46999979       4.25254360E-10
   7.53000021       4.83584950E-10
   7.59000015       5.42884127E-10
   7.65000010       6.02496664E-10
   7.71000004       6.61878663E-10
   7.76999998       7.20891680E-10
   7.82999992       7.80095044E-10
   7.88999987       8.40898018E-10
   7.94999981       9.05455488E-10
   8.01000023       9.76270842E-10
   8.06999969       1.05557652E-09
   8.13000011       1.14464105E-09
   8.18999958       1.24318722E-09
   8.25000000       1.34906231E-09
   8.31000042       1.45822077E-09
   8.36999989       1.56498869E-09
   8.43000031       1.66251568E-09
   8.48999977       1.74331083E-09
   8.55000019       1.79979620E-09
   8.60999966       1.82485360E-09
   8.67000008       1.81237680E-09
   8.72999954       1.75782289E-09
   8.78999996       1.65871372E-09
   8.85000038       1.51497914E-09
   8.90999985       1.32900879E-09
   8.97000027       1.10531961E-09
   9.02999973       8.49834425E-10
   9.09000015       5.68900205E-10
   9.14999962       2.68278871E-10
   9.21000004      -4.76110679E-11
   9.27000046      -3.75975168E-10
   9.32999992      -7.15344728E-10
   9.39000034      -1.06475362E-09
   9.44999981      -1.42257695E-09
   9.51000023      -1.78528115E-09
   9.56999969      -2.14631757E-09
   9.63000011      -2.49533327E-09
   9.68999958      -2.81779111E-09
   9.75000000      -3.09505976E-09
   9.81000042      -3.30499828E-09
   9.86999989      -3.42305451E-09
   9.93000031      -3.42382322E-09
   9.98999977      -3.28290262E-09
   10.0500002      -2.97874259E-09
   10.1099997      -2.49408738E-09
   10.1700001      -1.81663784E-09
   10.2299995      -9.38746081E-10
   10.2900000       1.43734483E-10
   10.3500004       1.43297973E-09
   10.4099998       2.93043034E-09
   10.4700003       4.63706140E-09
   10.5299997       6.55228760E-09
   10.5900002       8.67158256E-09
   10.6499996       1.09833751E-08
   10.7100000       1.34661313E-08
   10.7700005       1.60866307E-08
   10.8299999       1.88001437E-08
   10.8900003       2.15528075E-08
   10.9499998       2.42858746E-08
   11.0100002       2.69410645E-08
   11.0699997       2.94659568E-08
   11.1300001       3.18183950E-08
   11.1899996       3.39689947E-08
   11.2500000       3.59013121E-08
   11.3100004       3.76095848E-08
   11.3699999       3.90944344E-08
   11.4300003       4.03572749E-08
   11.4899998       4.13946424E-08
   11.5500002       4.21936335E-08
   11.6099997       4.27296385E-08
   11.6700001       4.29672475E-08
   11.7299995       4.28643823E-08
   11.7900000       4.23791313E-08
   11.8500004       4.14778647E-08
   11.9099998       4.01429787E-08
   11.9700003       3.83785483E-08
   12.0299997       3.62127217E-08
   12.0900002       3.36964767E-08
   12.1499996       3.08991268E-08
   12.2100000       2.79017236E-08
   12.2700005       2.47896512E-08
   12.3299999       2.16456915E-08
   12.3900003       1.85444602E-08
   12.4499998       1.55486486E-08
   12.5100002       1.27071678E-08
   12.5699997       1.00549409E-08
   12.6300001       7.61402230E-09
   12.6899996       5.39562528E-09
   12.7500000       3.40263928E-09
   12.8100004       1.63221558E-09
   12.8699999       7.80394291E-11
   12.9300003      -1.26801158E-09
   12.9899998      -2.41496867E-09
   13.0500002      -3.37262906E-09
   13.1099997      -4.15200319E-09
   13.1700001      -4.76609818E-09
   13.2299995      -5.23076560E-09
   13.2900000      -5.56536461E-09
   13.3500004      -5.79306825E-09
   13.4099998      -5.94069283E-09
   13.4700003      -6.03798211E-09
   13.5299997      -6.11634832E-09
   13.5900002      -6.20712237E-09
   13.6499996      -6.33946406E-09
   13.7100000      -6.53816290E-09
   13.7700005      -6.82160683E-09
   13.8299999      -7.20020665E-09
   13.8900003      -7.67551089E-09
   13.9499998      -8.24017654E-09
   14.0100002      -8.87888962E-09
   14.0699997      -9.57023616E-09
   14.1300001      -1.02894351E-08
   14.1899996      -1.10116938E-08
   14.2500000      -1.17157288E-08
   14.3100004      -1.23868222E-08
   14.3699999      -1.30186502E-08
   14.4300003      -1.36133043E-08
   14.4899998      -1.41792622E-08
   14.5500002      -1.47277044E-08
   14.6099997      -1.52681192E-08
   14.6700001      -1.58044777E-08
   14.7299995      -1.63331517E-08
   14.7900000      -1.68432610E-08
   14.8500004      -1.73191843E-08
   14.9099998      -1.77443749E-08
   14.9700003      -1.81050357E-08
   15.0299997      -1.83923916E-08
   15.0900002      -1.86028029E-08
   15.1499996      -1.87357205E-08
   15.2100000      -1.87902192E-08
   15.2700005      -1.87612113E-08
   15.3299999      -1.86364684E-08
   15.3900003      -1.83953084E-08
   15.4499998      -1.80093167E-08
   15.5100002      -1.74451387E-08
   15.5699997      -1.66689347E-08
   15.6300001      -1.56518958E-08
   15.6899996      -1.43759422E-08
   15.7500000      -1.28385862E-08
   15.8100004      -1.10559339E-08
   15.8699999      -9.06297171E-09
   15.9300003      -6.91078839E-09
   15.9899998      -4.66104355E-09
   16.0499992      -2.37869302E-09
   16.1100006      -1.24426275E-10
   16.1700001       2.05164330E-09
   16.2299995       4.11389678E-09
   16.2900009       6.04229422E-09
   16.3500004       7.83095899E-09
   16.4099998       9.48514511E-09
   16.4699993       1.10176588E-08
   16.5300007       1.24455610E-08
   16.5900002       1.37875329E-08
   16.6499996       1.50617812E-08
   16.7099991       1.62841243E-08
   16.7700005       1.74659434E-08
   16.8299999       1.86119866E-08
   16.8899994       1.97184509E-08
   16.9500008       2.07720063E-08
   17.0100002       2.17504130E-08
   17.0699997       2.26250751E-08
   17.1299992       2.33653310E-08
   17.1900005       2.39436808E-08
   17.2500000       2.43408511E-08
   17.3099995       2.45494860E-08
   17.3700008       2.45755754E-08
   17.4300003       2.44372771E-08
   17.4899998       2.41614604E-08
   17.5499992       2.37788278E-08
   17.6100006       2.33188899E-08
   17.6700001       2.28059633E-08
   17.7299995       2.22571455E-08
   17.7900009       2.16826219E-08
   17.8500004       2.10879723E-08
   17.9099998       2.04776800E-08
   17.9699993       1.98587031E-08
   18.0300007       1.92430356E-08
   18.0900002       1.86485458E-08
   18.1499996       1.80979800E-08
   18.2099991       1.76164647E-08
   18.2700005       1.72283503E-08
   18.3299999       1.69542798E-08
   18.3899994       1.68092207E-08
   18.4500008       1.68018683E-08
   18.5100002       1.69353349E-08
   18.5699997       1.72087731E-08
   18.6299992       1.76192536E-08
   18.6900005       1.81632274E-08
   18.7500000       1.88370581E-08
   18.8099995       1.96363654E-08
   18.8700008       2.05542907E-08
   18.9300003       2.15791935E-08
   18.9899998       2.26925607E-08
   19.0499992       2.38679672E-08
   19.1100006       2.50717633E-08
   19.1700001       2.62656972E-08
   19.2299995       2.74111009E-08
   19.2900009       2.84737407E-08
   19.3500004       2.94280973E-08
   19.4099998       3.02599616E-08
   19.4699993       3.09665822E-08
   19.5300007       3.15545030E-08
   19.5900002       3.20357536E-08
   19.6499996       3.24236922E-08
   19.7099991       3.27297478E-08
   19.7700005       3.29619247E-08
   19.8299999       3.31251790E-08
   19.8899994       3.32230918E-08
   19.9500008       3.32596635E-08
   20.0100002       3.32401520E-08
   20.0699997       3.31701990E-08
   20.1299992       3.30532508E-08
   20.1900005       3.28871401E-08
   20.2500000       3.26610206E-08
   20.3099995       3.23540803E-08
   20.3700008       3.19369171E-08
   20.4300003       3.13757056E-08
   20.4899998       3.06383967E-08
   20.5499992       2.97015852E-08
   20.6100006       2.85562276E-08
   20.6700001       2.72107652E-08
   20.7299995       2.56906123E-08
   20.7900009       2.40339713E-08
   20.8500004       2.22847358E-08
   20.9099998       2.04840482E-08
   20.9699993       1.86623463E-08
   21.0300007       1.68337735E-08
   21.0900002       1.49942387E-08
   21.1499996       1.31236240E-08
   21.2099991       1.11916529E-08
   21.2700005       9.16597376E-09
   21.3299999       7.02048153E-09
   21.3899994       4.74177009E-09
   21.4500008       2.33210673E-09
   21.5100002      -1.91744787E-10
   21.5699997      -2.80336443E-09
   21.6299992      -5.47364198E-09
   21.6900005      -8.17774737E-09
   21.7500000      -1.09000418E-08
   21.8099995      -1.36355647E-08
   21.8700008      -1.63878493E-08
   21.9300003      -1.91639629E-08
   21.9899998      -2.19684804E-08
   22.0499992      -2.47982790E-08
   22.1100006      -2.76396577E-08
   22.1700001      -3.04683709E-08
   22.2299995      -3.32523129E-08
   22.2900009      -3.59558641E-08
   22.3500004      -3.85446413E-08
   22.4099998      -4.09896082E-08
   22.4699993      -4.32698180E-08
   22.5300007      -4.53736284E-08
   22.5900002      -4.72984922E-08
   22.6499996      -4.90495289E-08
   22.7099991      -5.06372935E-08
   22.7700005      -5.20751158E-08
   22.8299999      -5.33764499E-08
   22.8899994      -5.45528813E-08
   22.9500008      -5.56131461E-08
   23.0100002      -5.65634828E-08
   23.0699997      -5.74091281E-08
   23.1299992      -5.81562887E-08
   23.1900005      -5.88136899E-08
   23.2500000      -5.93929350E-08
   23.3099995      -5.99071086E-08
   23.3700008      -6.03678671E-08
   23.4300003      -6.07816375E-08
   23.4899998      -6.11461815E-08
   23.5499992      -6.14485387E-08
   23.6100006      -6.16651974E-08
   23.6700001      -6.17647800E-08
   23.7299995      -6.17129317E-08
   23.7900009      -6.14784597E-08
   23.8500004      -6.10395361E-08
   23.9099998      -6.03887145E-08
   23.9699993      -5.95355907E-08
   24.0300007      -5.85063802E-08
   24.0900002      -5.73404613E-08
   24.1499996      -5.60845415E-08
   24.2099991      -5.47858328E-08
   24.2700005      -5.34858202E-08
   24.3299999      -5.22161443E-08
   24.3899994      -5.09973539E-08
   24.4500008      -4.98405868E-08
   24.5100002      -4.87511969E-08
   24.5699997      -4.77329571E-08
   24.6299992      -4.67913743E-08
   24.6900005      -4.59351170E-08
   24.7500000      -4.51754261E-08
   24.8099995      -4.45239152E-08
   24.8700008      -4.39897576E-08
   24.9300003      -4.35772449E-08
   24.9899998      -4.32844267E-08
   25.0499992      -4.31032170E-08
   25.1100006      -4.30208864E-08
   25.1700001      -4.30226663E-08
   25.2299995      -4.30950493E-08
   25.2900009      -4.32293490E-08
   25.3500004      -4.34249152E-08
   25.4099998      -4.36912941E-08
   25.4699993      -4.40486794E-08
   25.5300007      -4.45259012E-08
   25.5900002      -4.51558719E-08
   25.6499996      -4.59688607E-08
   25.7099991      -4.69847912E-08
   25.7700005      -4.82062461E-08
   25.8299999      -4.96140267E-08
   25.8899994      -5.11667118E-08
   25.9500008      -5.28047401E-08
   26.0100002      -5.44584786E-08
   26.0699997      -5.60587381E-08
   26.1299992      -5.75474672E-08
   26.1900005      -5.88863216E-08
   26.2500000      -6.00613177E-08
   26.3099995      -6.10827016E-08
   26.3700008      -6.19802165E-08
   26.4300003      -6.27951664E-08
   26.4899998      -6.35709867E-08
   26.5499992      -6.43446114E-08
   26.6100006      -6.51402843E-08
   26.6700001      -6.59667947E-08
   26.7299995      -6.68182736E-08
   26.7900009      -6.76776182E-08
   26.8500004      -6.85212456E-08
   26.9099998      -6.93235052E-08
   26.9699993      -7.00595493E-08
   27.0300007      -7.07060082E-08
   27.0900002      -7.12397394E-08
   27.1499996      -7.16354265E-08
   27.2099991      -7.18634539E-08
   27.2700005      -7.18892039E-08
   27.3299999      -7.16747053E-08
   27.3899994      -7.11826473E-08
   27.4500008      -7.03821073E-08
   27.5100002      -6.92546820E-08
   27.5699997      -6.77993626E-08
   27.6299992      -6.60346871E-08
   27.6900005      -6.39974260E-08
   27.7500000      -6.17376301E-08
   27.8099995      -5.93113150E-08
   27.8700008      -5.67722651E-08
   27.9300003      -5.41649250E-08
   27.9899998      -5.15199332E-08
   28.0499992      -4.88530176E-08
   28.1100006      -4.61669778E-08
   28.1700001      -4.34556782E-08
   28.2299995      -4.07085174E-08
   28.2900009      -3.79140737E-08
   28.3500004      -3.50620404E-08
   28.4099998      -3.21436211E-08
   28.4699993      -2.91509146E-08
   28.5300007      -2.60764423E-08
   28.5900002      -2.29136798E-08
   28.6499996      -1.96591081E-08
   28.7099991      -1.63156262E-08
   28.7700005      -1.28965381E-08
   28.8299999      -9.42896161E-09
   28.8899994      -5.95538907E-09
   28.9500008      -2.53238119E-09
   29.0100002       7.74040942E-10
   29.0699997       3.89594179E-09
   29.1299992       6.77280410E-09
   29.1900005       9.36083389E-09
   29.2500000       1.16402186E-08
   29.3099995       1.36186200E-08
   29.3700008       1.53299791E-08
   29.4300003       1.68288565E-08
   29.4899998       1.81815487E-08
   29.5499992       1.94559586E-08
   29.6100006       2.07122586E-08
   29.6700001       2.19959357E-08
   29.7299995       2.33339605E-08
   29.7900009       2.47339109E-08
   29.8500004       2.61853668E-08
   29.9099998       2.76627024E-08
   29.9699993       2.91286160E-08
   30.0300007       3.05381782E-08
   30.0900002       3.18433173E-08
   30.1499996       3.29977716E-08
   30.2099991       3.39622126E-08
   30.2700005       3.47089326E-08
   30.3299999       3.52252059E-08
   30.3899994       3.55146703E-08
   30.4500008       3.55961909E-08
   30.5100002       3.55004701E-08
   30.5699997       3.52650105E-08
   30.6299992       3.49283873E-08
   30.6900005       3.45248452E-08
   30.7500000       3.40800383E-08
   30.8099995       3.36084298E-08
   30.8700008       3.31125527E-08
   30.9300003       3.25840865E-08
   30.9899998       3.20064188E-08
   31.0499992       3.13582227E-08
   31.1100006       3.06173895E-08
   31.1700001       2.97645606E-08
   31.2299995       2.87856938E-08
   31.2900009       2.76732823E-08
   31.3500004       2.64263242E-08
   31.4099998       2.50494860E-08
   31.4699993       2.35520670E-08
   31.5300007       2.19473169E-08
   31.5900002       2.02522017E-08
   31.6499996       1.84873574E-08
   31.7099991       1.66766458E-08
   31.7700005       1.48457486E-08
   31.8299999       1.30195996E-08
   31.8899994       1.12190097E-08
   31.9500008       9.45727585E-09
   32.0099983       7.73773579E-09
   32.0699997       6.05305583E-09
   32.1300011       4.38650005E-09
   32.1899986       2.71493827E-09
   32.2500000       1.01294984E-09
   32.3100014      -7.42736928E-10
   32.3699989      -2.56913180E-09
   32.4300003      -4.47370141E-09
   32.4900017      -6.45231424E-09
   32.5499992      -8.48880166E-09
   32.6100006      -1.05564739E-08
   32.6699982      -1.26217223E-08
   32.7299995      -1.46494106E-08
   32.7900009      -1.66091159E-08
   32.8499985      -1.84808062E-08
   32.9099998      -2.02583763E-08
   32.9700012      -2.19498748E-08
   33.0299988      -2.35741844E-08
   33.0900002      -2.51549874E-08
   33.1500015      -2.67137050E-08
   33.2099991      -2.82633685E-08
   33.2700005      -2.98049976E-08
   33.3300018      -3.13270689E-08
   33.3899994      -3.28076801E-08
   33.4500008      -3.42182531E-08
   33.5099983      -3.55274210E-08
   33.5699997      -3.67041011E-08
   33.6300011      -3.77194738E-08
   33.6899986      -3.85481229E-08
   33.7500000      -3.91691621E-08
   33.8100014      -3.95677837E-08
   33.8699989      -3.97374649E-08
   33.9300003      -3.96823800E-08
   33.9900017      -3.94190707E-08
   34.0499992      -3.89764949E-08
   34.1100006      -3.83937326E-08
   34.1699982      -3.77152993E-08
   34.2299995      -3.69848649E-08
   34.2900009      -3.62386281E-08
   34.3499985      -3.54999763E-08
   34.4099998      -3.47767504E-08
   34.4700012      -3.40617987E-08
   34.5299988      -3.33366827E-08
   34.5900002      -3.25775389E-08
   34.6500015      -3.17616582E-08
   34.7099991      -3.08733483E-08
   34.7700005      -2.99079659E-08
   34.8300018      -2.88737034E-08
   34.8899994      -2.77911152E-08
   34.9500008      -2.66907669E-08
   35.0099983      -2.56094079E-08
   35.0699997      -2.45850114E-08
   35.1300011      -2.36511166E-08
   35.1899986      -2.28310899E-08
   35.2500000      -2.21333689E-08
   35.3100014      -2.15489404E-08
   35.3699989      -2.10521875E-08
   35.4300003      -2.06055883E-08
   35.4900017      -2.01676471E-08
   35.5499992      -1.97022541E-08
   35.6100006      -1.91870679E-08
   35.6699982      -1.86184934E-08
   35.7299995      -1.80118942E-08
   35.7900009      -1.73970882E-08
   35.8499985      -1.68107537E-08
   35.9099998      -1.62882223E-08
   35.9700012      -1.58571307E-08
   36.0299988      -1.55344608E-08
   36.0900002      -1.53272151E-08
   36.1500015      -1.52355977E-08
   36.2099991      -1.52570028E-08
   36.2700005      -1.53891975E-08
   36.3300018      -1.56317856E-08
   36.3899994      -1.59860463E-08
   36.4500008      -1.64538978E-08
   36.5099983      -1.70369479E-08
   36.5699997      -1.77362640E-08
   36.6300011      -1.85528268E-08
   36.6899986      -1.94881693E-08
   36.7500000      -2.05444266E-08
   36.8100014      -2.17233165E-08
   36.8699989      -2.30241302E-08
   36.9300003      -2.44412934E-08
   36.9900017      -2.59624979E-08
   37.0499992      -2.75682073E-08
   37.1100006      -2.92329201E-08
   37.1699982      -3.09279855E-08
   37.2299995      -3.26251417E-08
   37.2900009      -3.42997453E-08
   37.3499985      -3.59327075E-08
   37.4099998      -3.75106275E-08
   37.4700012      -3.90242327E-08
   37.5299988      -4.04657001E-08
   37.5900002      -4.18259027E-08
   37.6500015      -4.30924949E-08
   37.7099991      -4.42495534E-08
   37.7700005      -4.52789166E-08
   37.8300018      -4.61627678E-08
   37.8899994      -4.68866617E-08
   37.9500008      -4.74420077E-08
   38.0099983      -4.78272248E-08
   38.0699997      -4.80474256E-08
   38.1300011      -4.81127351E-08
   38.1899986      -4.80360711E-08
   38.2500000      -4.78310334E-08
   38.3100014      -4.75104969E-08
   38.3699989      -4.70860861E-08
   38.4300003      -4.65682817E-08
   38.4900017      -4.59668215E-08
   38.5499992      -4.52911095E-08
   38.6100006      -4.45506565E-08
   38.6699982      -4.37556800E-08
   38.7299995      -4.29180211E-08
   38.7900009      -4.20523101E-08
   38.8499985      -4.11767545E-08
   38.9099998      -4.03129121E-08
   38.9700012      -3.94837549E-08
   39.0299988      -3.87100272E-08
   39.0900002      -3.80056591E-08
   39.1500015      -3.73736846E-08
   39.2099991      -3.68043018E-08
   39.2700005      -3.62762904E-08
   39.3300018      -3.57619179E-08
   39.3899994      -3.52342120E-08
   39.4500008      -3.46744926E-08
   39.5099983      -3.40778818E-08
   39.5699997      -3.34549455E-08
   39.6300011      -3.28291208E-08
   39.6899986      -3.22307336E-08
   39.7500000      -3.16897903E-08
   39.8100014      -3.12298276E-08
   39.8699989      -3.08645092E-08
   39.9300003      -3.05976151E-08
   39.9900017      -3.04255963E-08
   40.0499992      -3.03410630E-08
   40.1100006      -3.03355101E-08
   40.1699982      -3.04003223E-08
   40.2299995      -3.05260990E-08
   40.2900009      -3.07014183E-08
   40.3499985      -3.09123358E-08
   40.4099998      -3.11436139E-08
   40.4700012      -3.13814859E-08
   40.5299988      -3.16169064E-08
   40.5900002      -3.18476587E-08
   40.6500015      -3.20780131E-08
   40.7099991      -3.23157856E-08
   40.7700005      -3.25677512E-08
   40.8300018      -3.28353238E-08
   40.8899994      -3.31123893E-08
   40.9500008      -3.33861934E-08
   41.0099983      -3.36409904E-08
   41.0699997      -3.38628006E-08
   41.1300011      -3.40432464E-08
   41.1899986      -3.41809105E-08
   41.2500000      -3.42797328E-08
   41.3100014      -3.43454971E-08
   41.3699989      -3.43820297E-08
   41.4300003      -3.43890036E-08
   41.4900017      -3.43621593E-08
   41.5499992      -3.42956952E-08
   41.6100006      -3.41854935E-08
   41.6699982      -3.40314763E-08
   41.7299995      -3.38379671E-08
   41.7900009      -3.36118866E-08
   41.8499985      -3.33597825E-08
   41.9099998      -3.30852785E-08
   41.9700012      -3.27882681E-08
   42.0299988      -3.24664491E-08
   42.0900002      -3.21183897E-08
   42.1500015      -3.17465592E-08
   42.2099991      -3.13585815E-08
   42.2700005      -3.09656230E-08
   42.3300018      -3.05781427E-08
   42.3899994      -3.02004999E-08
   42.4500008      -2.98267082E-08
   42.5099983      -2.94392635E-08
   42.5699997      -2.90120514E-08
   42.6300011      -2.85167658E-08
   42.6899986      -2.79309518E-08
   42.7500000      -2.72451555E-08
   42.8100014      -2.64669975E-08
   42.8699989      -2.56210519E-08
   42.9300003      -2.47447343E-08
   42.9900017      -2.38816096E-08
   43.0499992      -2.30739428E-08
   43.1100006      -2.23562662E-08
   43.1699982      -2.17509939E-08
   43.2299995      -2.12663807E-08
   43.2900009      -2.08965183E-08
   43.3499985      -2.06228083E-08
   43.4099998      -2.04164348E-08
   43.4700012      -2.02415329E-08
   43.5299988      -2.00589216E-08
   43.5900002      -1.98301624E-08
   43.6500015      -1.95217513E-08
   43.7099991      -1.91089153E-08
   43.7700005      -1.85786249E-08
   43.8300018      -1.79314359E-08
   43.8899994      -1.71820922E-08
   43.9500008      -1.63589373E-08
   44.0099983      -1.55024100E-08
   44.0699997      -1.46628025E-08
   44.1300011      -1.38974530E-08
   44.1899986      -1.32674618E-08
   44.2500000      -1.28340822E-08
   44.3100014      -1.26551258E-08
   44.3699989      -1.27819844E-08
   44.4300003      -1.32580116E-08
   44.4900017      -1.41190073E-08
   44.5499992      -1.53962745E-08
   44.6100006      -1.71221330E-08
   44.6699982      -1.93371665E-08
   44.7299995      -2.20978595E-08
   44.7900009      -2.54831320E-08
   44.8499985      -2.95984250E-08
   44.9099998      -3.45767894E-08
   44.9700012      -4.05773015E-08
   45.0299988      -4.77821089E-08
   45.0900002      -5.63939047E-08
   45.1500015      -6.66356073E-08
   45.2099991      -7.87533168E-08
   45.2700005      -9.30225497E-08
   45.3300018      -1.09756726E-07
   45.3899994      -1.29316419E-07
   45.4500008      -1.52117579E-07
   45.5099983      -1.78638231E-07
   45.5699997      -2.09423447E-07
   45.6300011      -2.45090348E-07
   45.6899986      -2.86334455E-07
   45.7500000      -3.33939454E-07
   45.8100014      -3.88790909E-07
   45.8699989      -4.51893584E-07
   45.9300003      -5.24391339E-07
   45.9900017      -6.07586855E-07
   46.0499992      -7.02960335E-07
   46.1100006      -8.12184851E-07
   46.1699982      -9.37140271E-07
   46.2299995      -1.07992491E-06
   46.2900009      -1.24286908E-06
   46.3499985      -1.42854913E-06
   46.4099998      -1.63980542E-06
   46.4700012      -1.87976252E-06
   46.5299988      -2.15185196E-06
   46.5900002      -2.45983392E-06
   46.6500015      -2.80782001E-06
   46.7099991      -3.20029335E-06
   46.7700005      -3.64212610E-06
   46.8300018      -4.13859516E-06
   46.8899994      -4.69539691E-06
   46.9500008      -5.31865635E-06
   47.0099983      -6.01493639E-06
   47.0699997      -6.79124742E-06
   47.1300011      -7.65504774E-06
   47.1899986      -8.61424905E-06
   47.2500000      -9.67721371E-06
   47.3100014      -1.08527538E-05
   47.3699989      -1.21501180E-05
   47.4300003      -1.35789815E-05
   47.4900017      -1.51494205E-05
   47.5499992      -1.68718907E-05
   47.6100006      -1.87571914E-05
   47.6699982      -2.08164165E-05
   47.7299995      -2.30609057E-05
   47.7900009      -2.55021787E-05
   47.8499985      -2.81518733E-05
   47.9099998      -3.10216528E-05
   47.9700012      -3.41231535E-05
   48.0299988      -3.74678784E-05
   48.0900002      -4.10671164E-05
   48.1500015      -4.49318577E-05
   48.2099991      -4.90726670E-05
   48.2700005      -5.34995925E-05
   48.3300018      -5.82220418E-05
   48.3899994      -6.32486626E-05
   48.4500008      -6.85872001E-05
   48.5099983      -7.42443954E-05
   48.5699997      -8.02258437E-05
   48.6300011      -8.65358961E-05
   48.6899986      -9.31775139E-05
   48.7500000      -1.00152181E-04
   48.8100014      -1.07459811E-04
   48.8699989      -1.15098621E-04
   48.9300003      -1.23065052E-04
   48.9900017      -1.31353750E-04
   49.0499992      -1.39957425E-04
   49.1100006      -1.48866835E-04
   49.1699982      -1.58070790E-04
   49.2299995      -1.67556049E-04
   49.2900009      -1.77307389E-04
   49.3499985      -1.87307596E-04
   49.4099998      -1.97537520E-04
   49.4700012      -2.07976147E-04
   49.5299988      -2.18600719E-04
   49.5900002      -2.29386831E-04
   49.6500015      -2.40308553E-04
   49.7099991      -2.51338643E-04
   49.7700005      -2.62448681E-04
   49.8300018      -2.73609330E-04
   49.8899994      -2.84790469E-04
   49.9500008      -2.95961567E-04
   50.0099983      -3.07091832E-04
   50.0699997      -3.18150443E-04
   50.1300011      -3.29106959E-04
   50.1899986      -3.39931430E-04
   50.2500000      -3.50594666E-04
   50.3100014      -3.61068785E-04
   50.3699989      -3.71327100E-04
   50.4300003      -3.81344667E-04
   50.4900017      -3.91098496E-04
   50.5499992      -4.00567660E-04
   50.6100006      -4.09733679E-04