  -2.400000      0.0000000E+00
  -2.340000      0.0000000E+00
  -2.280000      0.0000000E+00
  -2.220000      0.0000000E+00
  -2.160000      0.0000000E+00
  -2.100000      0.0000000E+00
  -2.040000      2.0838556E-22
  -1.980000      1.8836175E-21
  -1.920000      8.5228781E-21
  -1.860000      2.4971785E-20
  -1.800000      5.0048592E-20
  -1.740000      5.9711758E-20
  -1.680000     -1.5583419E-20
  -1.620000     -3.0603579E-19
  -1.560000     -9.8731761E-19
  -1.500000     -2.2008174E-18
  -1.440000     -3.8571006E-18
  -1.380000     -5.2604807E-18
  -1.320000     -4.5539022E-18
  -1.260000      1.7829878E-18
  -1.200000      1.8705040E-17
  -1.140000      5.0509888E-17
  -1.080000      9.5838330E-17
  -1.020000      1.4007864E-16
 -0.9600000      1.4842061E-16
 -0.9000000      6.6390634E-17
 -0.8400000     -1.6363695E-16
 -0.7800000     -5.6518205E-16
 -0.7200000     -1.0761209E-15
 -0.6600000     -1.5059167E-15
 -0.6000000     -1.5384186E-15
 -0.5400000     -8.1558648E-16
 -0.4800000      8.8937687E-16
 -0.4200000      3.4524697E-15
 -0.3600000      6.2334700E-15
 -0.3000000      8.0947017E-15
 -0.2400000      7.6996413E-15
 -0.1800000      4.0743411E-15
 -0.1200000     -2.7480277E-15
 -5.9999999E-02 -1.1316541E-14
  0.0000000E+00 -1.8917070E-14
  5.9999999E-02 -2.2445114E-14
  0.1200000     -1.9796830E-14
  0.1800000     -1.1185024E-14
  0.2400000      4.2253233E-16
  0.3000000      1.0356159E-14
  0.3600000      1.4747581E-14
  0.4200000      1.3510179E-14
  0.4800000      1.2058799E-14
  0.5400000      1.9982951E-14
  0.6000000      4.5918713E-14
  0.6600000      8.9860743E-14
  0.7200000      1.3638243E-13
  0.7800000      1.5349894E-13
  0.8400000      1.0105617E-13
  0.9000000     -5.0905498E-14
  0.9600000     -2.9862571E-13
   1.020000     -5.8580864E-13
   1.080000     -8.0153869E-13
   1.140000     -8.0396258E-13
   1.200000     -4.7019306E-13
   1.260000      2.3920506E-13
   1.320000      1.2239508E-12
   1.380000      2.2236895E-12
   1.440000      2.8556951E-12
   1.500000      2.7161359E-12
   1.560000      1.5264836E-12
   1.620000     -7.1670583E-13
   1.680000     -3.6437524E-12
   1.740000     -6.5164280E-12
   1.800000     -8.3618572E-12
   1.860000     -8.2231479E-12
   1.920000     -5.4710281E-12
   1.980000     -8.8483061E-14
   2.040000      7.1677247E-12
   2.100000      1.4802132E-11
   2.160000      2.0835448E-11
   2.220000      2.3238019E-11
   2.280000      2.0442131E-11
   2.340000      1.1801267E-11
   2.400000     -2.1283357E-12
   2.460000     -1.9561483E-11
   2.520000     -3.7718734E-11
   2.580000     -5.3255261E-11
   2.640000     -6.2771448E-11
   2.700000     -6.3291795E-11
   2.760000     -5.2641804E-11
   2.820000     -2.9721087E-11
   2.880000      5.2693657E-12
   2.940000      5.0569576E-11
   3.000000      1.0253872E-10
   3.060000      1.5532965E-10
   3.120000      2.0073199E-10
   3.180000      2.2843287E-10
   3.240000      2.2693829E-10
   3.300000      1.8528332E-10
   3.360000      9.5452438E-11
   3.420000     -4.4818215E-11
   3.480000     -2.2940003E-10
   3.540000     -4.4194193E-10
   3.600000     -6.5545031E-10
   3.660000     -8.3366608E-10
   3.720000     -9.3429531E-10
   3.780000     -9.1377461E-10
   3.840000     -7.3292639E-10
   3.900000     -3.6265224E-10
   3.960000      2.1121847E-10
   4.020000      9.8466713E-10
   4.080000      1.9342696E-09
   4.140000      3.0181262E-09
   4.200000      4.1786907E-09
   4.260000      5.3469944E-09
   4.320000      6.4476344E-09
   4.380000      7.4039361E-09
   4.440000      8.1428748E-09
   4.500000      8.5995495E-09
   4.560000      8.7212513E-09
   4.620000      8.4712406E-09
   4.680000      7.8323668E-09
   4.740000      6.8104078E-09
   4.800000      5.4367875E-09
   4.860000      3.7699661E-09
   4.920000      1.8946344E-09
   4.980000     -8.2148982E-11
   5.040000     -2.0384248E-09
   5.100000     -3.8483638E-09
   5.160000     -5.3959939E-09
   5.220000     -6.5899126E-09
   5.280000     -7.3765851E-09
   5.340000     -7.7495486E-09
   5.400000     -7.7521412E-09
   5.460000     -7.4722903E-09
   5.520000     -7.0293629E-09
   5.580000     -6.5547083E-09
   5.640000     -6.1691297E-09
   5.700000     -5.9614402E-09
   5.760000     -5.9724119E-09
   5.820000     -6.1875292E-09
   5.880000     -6.5402470E-09
   5.940000     -6.9252550E-09
   6.000000     -7.2190764E-09
   6.060000     -7.3037465E-09
   6.120000     -7.0886812E-09
   6.180000     -6.5263426E-09
   6.240000     -5.6187925E-09
   6.300000     -4.4143413E-09
   6.360000     -2.9956839E-09
   6.420000     -1.4626987E-09
   6.480000      8.5998778E-11
   6.540000      1.5687588E-09
   6.600000      2.9308691E-09
   6.660000      4.1474602E-09
   6.720000      5.2197988E-09
   6.780000      6.1669221E-09
   6.840000      7.0154091E-09
   6.900000      7.7901250E-09
   6.960000      8.5080778E-09
   7.020000      9.1763983E-09
   7.080000      9.7941433E-09
   7.140000      1.0356676E-08
   7.200000      1.0860816E-08
   7.260000      1.1309001E-08
   7.320000      1.1711276E-08
   7.380000      1.2084653E-08
   7.440000      1.2450251E-08
   7.500000      1.2829129E-08
   7.560000      1.3238021E-08
   7.620000      1.3685964E-08
   7.680000      1.4172460E-08
   7.740000      1.4687243E-08
   7.800000      1.5211366E-08
   7.860000      1.5719033E-08
   7.920000      1.6179737E-08
   7.980000      1.6560492E-08
   8.040000      1.6828256E-08
   8.100000      1.6952869E-08
   8.160000      1.6910770E-08
   8.220000      1.6689405E-08
   8.280000      1.6291727E-08
   8.340000      1.5739625E-08
   8.400000      1.5074916E-08
   8.460000      1.4356618E-08
   8.520000      1.3654053E-08
   8.580000      1.3036268E-08
   8.640000      1.2559570E-08
   8.700000      1.2255753E-08
   8.760000      1.2123898E-08
   8.820000      1.2128061E-08
   8.880000      1.2201897E-08
   8.940000      1.2259637E-08
   9.000000      1.2211188E-08
   9.060000      1.1978137E-08
   9.120000      1.1507170E-08
   9.180000      1.0778131E-08
   9.240000      9.8053103E-09
   9.300000      8.6321732E-09
   9.360000      7.3212032E-09
   9.420000      5.9414509E-09
   9.480000      4.5565702E-09
   9.540000      3.2156622E-09
   9.600000      1.9483219E-09
   9.660000      7.6420259E-10
   9.720000     -3.4359665E-10
   9.780000     -1.3926812E-09
   9.840000     -2.4047140E-09
   9.900000     -3.3995182E-09
   9.960000     -4.3910369E-09
   10.02000     -5.3856133E-09
   10.08000     -6.3823897E-09
   10.14000     -7.3750734E-09
   10.20000     -8.3540632E-09
   10.26000     -9.3079988E-09
   10.32000     -1.0224148E-08
   10.38000     -1.1087555E-08
   10.44000     -1.1879413E-08
   10.50000     -1.2575394E-08
   10.56000     -1.3144772E-08
   10.62000     -1.3550943E-08
   10.68000     -1.3753592E-08
   10.74000     -1.3712376E-08
   10.80000     -1.3391666E-08
   10.86000     -1.2765735E-08
   10.92000     -1.1823717E-08
   10.98000     -1.0573655E-08
   11.04000     -9.0449594E-09
   11.10000     -7.2886439E-09
   11.16000     -5.3747495E-09
   11.22000     -3.3866290E-09
   11.28000     -1.4121936E-09
   11.34000      4.6711524E-10
   11.40000      2.1881073E-09
   11.46000      3.7162202E-09
   11.52000      5.0520672E-09
   11.58000      6.2320531E-09
   11.64000      7.3219639E-09
   11.70000      8.4039495E-09
   11.76000      9.5590407E-09
   11.82000      1.0848730E-08
   11.88000      1.2299804E-08
   11.94000      1.3896160E-08
   12.00000      1.5579870E-08
   12.06000      1.7261568E-08
   12.12000      1.8837961E-08
   12.18000      2.0212475E-08
   12.24000      2.1314339E-08
   12.30000      2.2111843E-08
   12.36000      2.2617101E-08
   12.42000      2.2881629E-08
   12.48000      2.2984326E-08
   12.54000      2.3014914E-08
   12.60000      2.3056760E-08
   12.66000      2.3172769E-08
   12.72000      2.3397090E-08
   12.78000      2.3733852E-08
   12.84000      2.4162478E-08
   12.90000      2.4647695E-08
   12.96000      2.5151374E-08
   13.02000      2.5643134E-08
   13.08000      2.6107214E-08
   13.14000      2.6544242E-08
   13.20000      2.6968070E-08
   13.26000      2.7399203E-08
   13.32000      2.7857192E-08
   13.38000      2.8354510E-08
   13.44000      2.8893641E-08
   13.50000      2.9467996E-08
   13.56000      3.0065820E-08
   13.62000      3.0675420E-08
   13.68000      3.1289677E-08
   13.74000      3.1908229E-08
   13.80000      3.2536676E-08
   13.86000      3.3183177E-08
   13.92000      3.3853727E-08
   13.98000      3.4547547E-08
   14.04000      3.5254075E-08
   14.10000      3.5952187E-08
   14.16000      3.6611784E-08
   14.22000      3.7197069E-08
   14.28000      3.7670642E-08
   14.34000      3.7997427E-08
   14.40000      3.8147775E-08
   14.46000      3.8099401E-08
   14.52000      3.7838191E-08
   14.58000      3.7358319E-08
   14.64000      3.6662055E-08
   14.70000      3.5759715E-08
   14.76000      3.4669934E-08
   14.82000      3.3420147E-08
   14.88000      3.2046778E-08
   14.94000      3.0594517E-08
   15.00000      2.9114123E-08
   15.06000      2.7658373E-08
   15.12000      2.6276544E-08
   15.18000      2.5008221E-08
   15.24000      2.3877877E-08
   15.30000      2.2891657E-08
   15.36000      2.2037520E-08
   15.42000      2.1289020E-08
   15.48000      2.0612038E-08
   15.54000      1.9972809E-08
   15.60000      1.9345245E-08
   15.66000      1.8715605E-08
   15.72000      1.8083503E-08
   15.78000      1.7459330E-08
   15.84000      1.6859310E-08
   15.90000      1.6300046E-08
   15.96000      1.5794356E-08
   16.02000      1.5349524E-08
   16.08000      1.4967952E-08
   16.14000      1.4649350E-08
   16.20000      1.4393007E-08
   16.26000      1.4198983E-08
   16.32000      1.4067775E-08
   16.38000      1.3998937E-08
   16.44000      1.3989738E-08
   16.50000      1.4035003E-08
   16.56000      1.4128672E-08
   16.62000      1.4266712E-08
   16.68000      1.4450275E-08
   16.74000      1.4687711E-08
   16.80000      1.4994463E-08
   16.86000      1.5390730E-08
   16.92000      1.5897642E-08
   16.98000      1.6533170E-08
   17.04000      1.7308885E-08
   17.10000      1.8228068E-08
   17.16000      1.9284975E-08
   17.22000      2.0464618E-08
   17.28000      2.1742574E-08
   17.34000      2.3084770E-08
   17.40000      2.4447864E-08
   17.46000      2.5781009E-08
   17.52000      2.7029520E-08
   17.58000      2.8140200E-08
   17.64000      2.9067166E-08
   17.70000      2.9776608E-08
   17.76000      3.0248987E-08
   17.82000      3.0478084E-08
   17.88000      3.0467234E-08
   17.94000      3.0224136E-08
   18.00000      2.9755705E-08
   18.06000      2.9064443E-08
   18.12000      2.8146784E-08
   18.18000      2.6993447E-08
   18.24000      2.5591175E-08
   18.30000      2.3925294E-08
   18.36000      2.1982716E-08
   18.42000      1.9755118E-08
   18.48000      1.7242208E-08
   18.54000      1.4454711E-08
   18.60000      1.1416589E-08
   18.66000      8.1660181E-09
   18.72000      4.7548130E-09
   18.78000      1.2464126E-09
   18.84000     -2.2871536E-09
   18.90000     -5.7688387E-09
   18.96000     -9.1204262E-09
   19.02000     -1.2266777E-08
   19.08000     -1.5140804E-08
   19.14000     -1.7689397E-08
   19.20000     -1.9879911E-08
   19.26000     -2.1706214E-08
   19.32000     -2.3192637E-08
   19.38000     -2.4394314E-08
   19.44000     -2.5392904E-08
   19.50000     -2.6287891E-08
   19.56000     -2.7184797E-08
   19.62000     -2.8182393E-08
   19.68000     -2.9361276E-08
   19.74000     -3.0775581E-08
   19.80000     -3.2448796E-08
   19.86000     -3.4373642E-08
   19.92000     -3.6515303E-08
   19.98000     -3.8816918E-08
   20.04000     -4.1206320E-08
   20.10000     -4.3603169E-08
   20.16000     -4.5926001E-08
   20.22000     -4.8098830E-08
   20.28000     -5.0057171E-08
   20.34000     -5.1753233E-08
   20.40000     -5.3160029E-08
   20.46000     -5.4274103E-08
   20.52000     -5.5116399E-08
   20.58000     -5.5730890E-08
   20.64000     -5.6180681E-08
   20.70000     -5.6541651E-08
   20.76000     -5.6894056E-08
   20.82000     -5.7313152E-08
   20.88000     -5.7860117E-08
   20.94000     -5.8574820E-08
   21.00000     -5.9471624E-08
   21.06000     -6.0539016E-08
   21.12000     -6.1743094E-08
   21.18000     -6.3034243E-08
   21.24000     -6.4355802E-08
   21.30000     -6.5653126E-08
   21.36000     -6.6881313E-08
   21.42000     -6.8010301E-08
   21.48000     -6.9026107E-08
   21.54000     -6.9928177E-08
   21.60000     -7.0723459E-08
   21.66000     -7.1418683E-08
   21.72000     -7.2013073E-08
   21.78000     -7.2493535E-08
   21.84000     -7.2833942E-08
   21.90000     -7.2998930E-08
   21.96000     -7.2951337E-08
   22.02000     -7.2661209E-08
   22.08000     -7.2113870E-08
   22.14000     -7.1314879E-08
   22.20000     -7.0290575E-08
   22.26000     -6.9084230E-08
   22.32000     -6.7749141E-08
   22.38000     -6.6340640E-08
   22.44000     -6.4909059E-08
   22.50000     -6.3495193E-08
   22.56000     -6.2129018E-08
   22.62000     -6.0831212E-08
   22.68000     -5.9616390E-08
   22.74000     -5.8496717E-08
   22.80000     -5.7484293E-08
   22.86000     -5.6591695E-08
   22.92000     -5.5830451E-08
   22.98000     -5.5208272E-08
   23.04000     -5.4726328E-08
   23.10000     -5.4377875E-08
   23.16000     -5.4149147E-08
   23.22000     -5.4022593E-08
   23.28000     -5.3981573E-08
   23.34000     -5.4015153E-08
   23.40000     -5.4121511E-08
   23.46000     -5.4308842E-08
   23.52000     -5.4593603E-08
   23.58000     -5.4996494E-08
   23.64000     -5.5537338E-08
   23.70000     -5.6229901E-08
   23.76000     -5.7077784E-08
   23.82000     -5.8072082E-08
   23.88000     -5.9191230E-08
   23.94000     -6.0403380E-08
   24.00000     -6.1671130E-08
   24.06000     -6.2958101E-08
   24.12000     -6.4236197E-08
   24.18000     -6.5491967E-08
   24.24000     -6.6729903E-08
   24.30000     -6.7971484E-08
   24.36000     -6.9249324E-08
   24.42000     -7.0597437E-08
   24.48000     -7.2040024E-08
   24.54000     -7.3581624E-08
   24.60000     -7.5201577E-08
   24.66000     -7.6854086E-08
   24.72000     -7.8474194E-08
   24.78000     -7.9987842E-08
   24.84000     -8.1323591E-08
   24.90000     -8.2423185E-08
   24.96000     -8.3248814E-08
   25.02000     -8.3785999E-08
   25.08000     -8.4041837E-08
   25.14000     -8.4039605E-08
   25.20000     -8.3810946E-08
   25.26000     -8.3387306E-08
   25.32000     -8.2792305E-08
   25.38000     -8.2036401E-08
   25.44000     -8.1114756E-08
   25.50000     -8.0008761E-08
   25.56000     -7.8690576E-08
   25.62000     -7.7129670E-08
   25.68000     -7.5299681E-08
   25.74000     -7.3183898E-08
   25.80000     -7.0778349E-08
   25.86000     -6.8091786E-08
   25.92000     -6.5143062E-08
   25.98000     -6.1956825E-08
   26.04000     -5.8558697E-08
   26.10000     -5.4971231E-08
   26.16000     -5.1211376E-08
   26.22000     -4.7289877E-08
   26.28000     -4.3212523E-08
   26.34000     -3.8982854E-08
   26.40000     -3.4605602E-08
   26.46000     -3.0090209E-08
   26.52000     -2.5453611E-08
   26.58000     -2.0721691E-08
   26.64000     -1.5929084E-08
   26.70000     -1.1117315E-08
   26.76000     -6.3316796E-09
   26.82000     -1.6175292E-09
   26.88000      2.9832121E-09
   26.94000      7.4346143E-09
   27.00000      1.1708002E-08
   27.06000      1.5781936E-08
   27.12000      1.9641352E-08
   27.18000      2.3276481E-08
   27.24000      2.6682171E-08
   27.30000      2.9857883E-08
   27.36000      3.2808245E-08
   27.42000      3.5543543E-08
   27.48000      3.8079360E-08
   27.54000      4.0434667E-08
   27.60000      4.2628212E-08
   27.66000      4.4673651E-08
   27.72000      4.6574741E-08
   27.78000      4.8322061E-08
   27.84000      4.9892737E-08
   27.90000      5.1253824E-08
   27.96000      5.2368875E-08
   28.02000      5.3206097E-08
   28.08000      5.3745865E-08
   28.14000      5.3985342E-08
   28.20000      5.3938756E-08
   28.26000      5.3633304E-08
   28.32000      5.3101925E-08
   28.38000      5.2375139E-08
   28.44000      5.1474295E-08
   28.50000      5.0407859E-08
   28.56000      4.9171312E-08
   28.62000      4.7750106E-08
   28.68000      4.6124516E-08
   28.74000      4.4274959E-08
   28.80000      4.2187001E-08
   28.86000      3.9855422E-08
   28.92000      3.7287286E-08
   28.98000      3.4503710E-08
   29.04000      3.1539937E-08
   29.10000      2.8443070E-08
   29.16000      2.5267342E-08
   29.22000      2.2067127E-08
   29.28000      1.8889130E-08
   29.34000      1.5765535E-08
   29.40000      1.2710107E-08
   29.46000      9.7184056E-09
   29.52000      6.7720567E-09
   29.58000      3.8457006E-09
   29.64000      9.1441693E-10
   29.70000     -2.0406239E-09
   29.76000     -5.0297184E-09
   29.82000     -8.0555802E-09
   29.88000     -1.1116634E-08
   29.94000     -1.4210827E-08
   30.00000     -1.7338200E-08
   30.06000     -2.0501044E-08
   30.12000     -2.3701599E-08
   30.18000     -2.6938194E-08
   30.24000     -3.0201353E-08
   30.30000     -3.3471427E-08
   30.36000     -3.6718671E-08
   30.42000     -3.9906006E-08
   30.48000     -4.2993626E-08
   30.54000     -4.5944265E-08
   30.60000     -4.8727752E-08
   30.66000     -5.1323891E-08
   30.72000     -5.3723326E-08
   30.78000     -5.5926609E-08
   30.84000     -5.7942025E-08
   30.90000     -5.9782728E-08
   30.96000     -6.1463432E-08
   31.02000     -6.2996818E-08
   31.08000     -6.4389766E-08
   31.14000     -6.5640045E-08
   31.20000     -6.6734401E-08
   31.26000     -6.7649161E-08
   31.32000     -6.8354069E-08
   31.38000     -6.8819176E-08
   31.44000     -6.9023059E-08
   31.50000     -6.8960013E-08
   31.56000     -6.8643530E-08
   31.62000     -6.8104519E-08
   31.68000     -6.7384505E-08
   31.74000     -6.6525999E-08
   31.80000     -6.5563484E-08
   31.86000     -6.4518090E-08
   31.92000     -6.3397863E-08
   31.98000     -6.2202986E-08
   32.04000     -6.0933445E-08
   32.10000     -5.9595745E-08
   32.16000     -5.8205714E-08
   32.22000     -5.6786256E-08
   32.28000     -5.5361145E-08
   32.34000     -5.3947524E-08
   32.40000     -5.2550281E-08
   32.46000     -5.1160661E-08
   32.52000     -4.9759752E-08
   32.58000     -4.8325635E-08
   32.64000     -4.6841834E-08
   32.70000     -4.5304272E-08
   32.76000     -4.3724700E-08
   32.82000     -4.2129752E-08
   32.88000     -4.0556010E-08
   32.94000     -3.9042646E-08
   33.00000     -3.7623515E-08
   33.06000     -3.6320845E-08
   33.12000     -3.5141969E-08
   33.18000     -3.4079910E-08
   33.24000     -3.3117558E-08
   33.30000     -3.2234325E-08
   33.36000     -3.1413325E-08
   33.42000     -3.0647037E-08
   33.48000     -2.9939720E-08
   33.54000     -2.9305788E-08
   33.60000     -2.8764715E-08
   33.66000     -2.8334007E-08
   33.72000     -2.8022473E-08
   33.78000     -2.7825935E-08
   33.84000     -2.7726697E-08
   33.90000     -2.7696940E-08
   33.96000     -2.7704989E-08
   34.02000     -2.7722560E-08
   34.08000     -2.7730819E-08
   34.14000     -2.7723466E-08
   34.20000     -2.7705999E-08
   34.26000     -2.7691385E-08
   34.32000     -2.7693586E-08
   34.38000     -2.7721072E-08
   34.44000     -2.7772556E-08
   34.50000     -2.7836608E-08
   34.56000     -2.7895441E-08
   34.62000     -2.7931742E-08
   34.68000     -2.7936062E-08
   34.74000     -2.7911907E-08
   34.80000     -2.7876263E-08
   34.86000     -2.7854908E-08
   34.92000     -2.7873874E-08
   34.98000     -2.7950023E-08
   35.04000     -2.8084246E-08
   35.10000     -2.8259880E-08
   35.16000     -2.8447017E-08
   35.22000     -2.8611071E-08
   35.28000     -2.8722244E-08
   35.34000     -2.8762306E-08
   35.40000     -2.8726234E-08
   35.46000     -2.8618393E-08
   35.52000     -2.8445255E-08
   35.58000     -2.8207912E-08
   35.64000     -2.7897805E-08
   35.70000     -2.7497535E-08
   35.76000     -2.6986799E-08
   35.82000     -2.6351323E-08
   35.88000     -2.5591742E-08
   35.94000     -2.4729257E-08
   36.00000     -2.3806077E-08
   36.06000     -2.2880206E-08
   36.12000     -2.2015737E-08
   36.18000     -2.1270926E-08
   36.24000     -2.0686908E-08
   36.30000     -2.0279614E-08
   36.36000     -2.0036891E-08
   36.42000     -1.9921616E-08
   36.48000     -1.9880384E-08
   36.54000     -1.9855960E-08
   36.60000     -1.9800781E-08
   36.66000     -1.9688255E-08
   36.72000     -1.9519007E-08
   36.78000     -1.9320394E-08
   36.84000     -1.9139213E-08
   36.90000     -1.9029425E-08
   36.96000     -1.9037994E-08
   37.02000     -1.9192512E-08
   37.08000     -1.9493797E-08
   37.14000     -1.9915317E-08
   37.20000     -2.0409503E-08
   37.26000     -2.0919208E-08
   37.32000     -2.1391175E-08
   37.38000     -2.1787956E-08
   37.44000     -2.2094968E-08
   37.50000     -2.2320837E-08
   37.56000     -2.2490967E-08
   37.62000     -2.2636334E-08
   37.68000     -2.2780968E-08
   37.74000     -2.2932200E-08
   37.80000     -2.3076899E-08
   37.86000     -2.3185070E-08
   37.92000     -2.3219743E-08
   37.98000     -2.3149868E-08
   38.04000     -2.2961888E-08
   38.10000     -2.2666040E-08
   38.16000     -2.2295271E-08
   38.22000     -2.1897216E-08
   38.28000     -2.1521869E-08
   38.34000     -2.1208956E-08
   38.40000     -2.0978666E-08
   38.46000     -2.0828125E-08
   38.52000     -2.0733943E-08
   38.58000     -2.0659451E-08
   38.64000     -2.0564348E-08
   38.70000     -2.0414289E-08
   38.76000     -2.0188669E-08
   38.82000     -1.9885510E-08
   38.88000     -1.9522970E-08
   38.94000     -1.9137310E-08
   39.00000     -1.8777342E-08
   39.06000     -1.8495763E-08
   39.12000     -1.8338488E-08
   39.18000     -1.8333928E-08
   39.24000     -1.8484911E-08
   39.30000     -1.8765817E-08
   39.36000     -1.9126626E-08
   39.42000     -1.9503705E-08
   39.48000     -1.9835024E-08
   39.54000     -2.0075788E-08
   39.60000     -2.0209923E-08
   39.66000     -2.0253815E-08
   39.72000     -2.0250965E-08
   39.78000     -2.0259083E-08
   39.84000     -2.0333628E-08
   39.90000     -2.0512923E-08
   39.96000     -2.0809489E-08
   40.02000     -2.1210090E-08
   40.08000     -2.1683979E-08
   40.14000     -2.2196184E-08
   40.20000     -2.2721048E-08
   40.26000     -2.3251401E-08
   40.32000     -2.3800473E-08
   40.38000     -2.4396327E-08
   40.44000     -2.5071143E-08
   40.50000     -2.5849264E-08
   40.56000     -2.6738093E-08
   40.62000     -2.7724605E-08
   40.68000     -2.8778178E-08
   40.74000     -2.9858402E-08
   40.80000     -3.0925062E-08
   40.86000     -3.1947241E-08
   40.92000     -3.2909064E-08
   40.98000     -3.3810920E-08
   41.04000     -3.4666272E-08
   41.10000     -3.5495276E-08
   41.16000     -3.6317140E-08
   41.22000     -3.7143135E-08
   41.28000     -3.7972132E-08
   41.34000     -3.8789889E-08
   41.40000     -3.9572541E-08
   41.46000     -4.0293756E-08
   41.52000     -4.0933898E-08
   41.58000     -4.1488772E-08
   41.64000     -4.1975344E-08
   41.70000     -4.2432312E-08
   41.76000     -4.2914820E-08
   41.82000     -4.3484381E-08
   41.88000     -4.4196444E-08
   41.94000     -4.5089173E-08
   42.00000     -4.6176361E-08
   42.06000     -4.7446473E-08
   42.12000     -4.8867705E-08
   42.18000     -5.0397297E-08
   42.24000     -5.1992291E-08
   42.30000     -5.3618791E-08
   42.36000     -5.5257559E-08
   42.42000     -5.6905211E-08
   42.48000     -5.8571555E-08
   42.54000     -6.0274559E-08
   42.60000     -6.2034999E-08
   42.66000     -6.3872477E-08
   42.72000     -6.5804080E-08
   42.78000     -6.7846123E-08
   42.84000     -7.0018785E-08
   42.90000     -7.2352641E-08
   42.96000     -7.4895901E-08
   43.02000     -7.7720799E-08
   43.08000     -8.0928025E-08
   43.14000     -8.4648498E-08
   43.20000     -8.9042672E-08
   43.26000     -9.4298485E-08
   43.32000     -1.0062959E-07
   43.38000     -1.0827575E-07
   43.44000     -1.1750681E-07
   43.50000     -1.2863069E-07
   43.56000     -1.4200444E-07
   43.62000     -1.5804683E-07
   43.68000     -1.7725034E-07
   43.74000     -2.0019101E-07
   43.80000     -2.2753551E-07
   43.86000     -2.6004633E-07
   43.92000     -2.9858646E-07
   43.98000     -3.4412551E-07
   44.04000     -3.9774838E-07
   44.10000     -4.6066759E-07
   44.16000     -5.3423872E-07
   44.22000     -6.1997866E-07
   44.28000     -7.1958647E-07
   44.34000     -8.3496576E-07
   44.40000     -9.6824931E-07
   44.46000     -1.1218254E-06
   44.52000     -1.2983654E-06
   44.58000     -1.5008512E-06
   44.64000     -1.7326023E-06
   44.70000     -1.9973006E-06
   44.76000     -2.2990146E-06
   44.82000     -2.6422201E-06
   44.88000     -3.0318254E-06
   44.94000     -3.4731936E-06
   45.00000     -3.9721704E-06
   45.06000     -4.5351162E-06
   45.12000     -5.1689344E-06
   45.18000     -5.8811020E-06
   45.24000     -6.6796965E-06
   45.30000     -7.5734110E-06
   45.36000     -8.5715674E-06
   45.42000     -9.6841222E-06
   45.48000     -1.0921667E-05
   45.54000     -1.2295426E-05
   45.60000     -1.3817257E-05
   45.66000     -1.5499647E-05
   45.72000     -1.7355695E-05
   45.78000     -1.9399109E-05
   45.84000     -2.1644171E-05
   45.90000     -2.4105688E-05
   45.96000     -2.6798940E-05
   46.02000     -2.9739616E-05
   46.08000     -3.2943724E-05
   46.14000     -3.6427507E-05
   46.20000     -4.0207342E-05
   46.26000     -4.4299653E-05
   46.32000     -4.8720787E-05
   46.38000     -5.3486914E-05
   46.44000     -5.8613889E-05
   46.50000     -6.4117135E-05
   46.56000     -7.0011469E-05
   46.62000     -7.6310986E-05
   46.68000     -8.3028870E-05
   46.74000     -9.0177207E-05
   46.80000     -9.7766839E-05
   46.86000     -1.0580717E-04
   46.92000     -1.1430596E-04
   46.98000     -1.2326923E-04
   47.04000     -1.3270100E-04
   47.10000     -1.4260322E-04
   47.16000     -1.5297558E-04
   47.22000     -1.6381539E-04
   47.28000     -1.7511749E-04
   47.34000     -1.8687412E-04
   47.40000     -1.9907489E-04
   47.46000     -2.1170660E-04
   47.52000     -2.2475333E-04
   47.58000     -2.3819627E-04
   47.64000     -2.5201385E-04
   47.70000     -2.6618174E-04
   47.76000     -2.8067300E-04
   47.82000     -2.9545801E-04
   47.88000     -3.1050478E-04
   47.94000     -3.2577917E-04
   48.00000     -3.4124483E-04
   48.06000     -3.5686369E-04
   48.12000     -3.7259603E-04
   48.18000     -3.8840095E-04
   48.24000     -4.0423658E-04
   48.30000     -4.2006036E-04
   48.36000     -4.3582957E-04
   48.42000     -4.5150158E-04
   48.48000     -4.6703423E-04
   48.54000     -4.8238615E-04
   48.60000     -4.9751723E-04
   48.66000     -5.1238923E-04
   48.72000     -5.2696565E-04
   48.78000     -5.4121262E-04
   48.84000     -5.5509893E-04
   48.90000     -5.6859647E-04
   48.96000     -5.8168068E-04
   49.02000     -5.9433043E-04
   49.08000     -6.0652854E-04
   49.14000     -6.1826216E-04
   49.20000     -6.2952237E-04
   49.26000     -6.4030476E-04
   49.32000     -6.5060914E-04
   49.38000     -6.6043960E-04
   49.44000     -6.6980446E-04
   49.50000     -6.7871629E-04
   49.56000     -6.8719155E-04
   49.62000     -6.9525070E-04
   49.68000     -7.0291758E-04
   49.74000     -7.1021926E-04
   49.80000     -7.1718561E-04
   49.86000     -7.2384911E-04
   49.92000     -7.3024386E-04
   49.98000     -7.3640561E-04
   50.04000     -7.4237108E-04
   50.10000     -7.4817764E-04
   50.16000     -7.5386232E-04
   50.22000     -7.5946184E-04
   50.28000     -7.6501170E-04
   50.34000     -7.7054597E-04
   50.40000     -7.7609631E-04
   50.46000     -7.8169198E-04
   50.52000     -7.8735920E-04
   50.58000     -7.9312059E-04
   50.64000     -7.9899526E-04
   50.70000     -8.0499839E-04
   50.76000     -8.1114075E-04
   50.82000     -8.1742893E-04
   50.88000     -8.2386489E-04
   50.94000     -8.3044625E-04
   51.00000     -8.3716586E-04
   51.06000     -8.4401225E-04
   51.12000     -8.5096929E-04
   51.18000     -8.5801678E-04
   51.24000     -8.6513069E-04
   51.30000     -8.7228330E-04
   51.36000     -8.7944412E-04
   51.42000     -8.8657968E-04
   51.48000     -8.9365453E-04
   51.54000     -9.0063154E-04
   51.60000     -9.0747239E-04
   51.66000     -9.1413793E-04
   51.72000     -9.2058914E-04
   51.78000     -9.2678738E-04
   51.84000     -9.3269523E-04
   51.90000     -9.3827693E-04
   51.96000     -9.4349886E-04
   52.02000     -9.4833004E-04
   52.08000     -9.5274224E-04
   52.14000     -9.5671084E-04
   52.20000     -9.6021494E-04
   52.26000     -9.6323766E-04
   52.32000     -9.6576667E-04
   52.38000     -9.6779410E-04
   52.44000     -9.6931658E-04
   52.50000     -9.7033539E-04
   52.56000     -9.7085640E-04
   52.62000     -9.7088987E-04
   52.68000     -9.7045046E-04
   52.74000     -9.6955692E-04
   52.80000     -9.6823170E-04
   52.86000     -9.6650090E-04
   52.92000     -9.6439355E-04
   52.98000     -9.6194126E-04
   53.04000     -9.5917779E-04
   53.10000     -9.5613825E-04
   53.16000     -9.5285877E-04
   53.22000     -9.4937609E-04
   53.28000     -9.4572693E-04
   53.34000     -9.4194763E-04
   53.40000     -9.3807338E-04
   53.46000     -9.3413773E-04
   53.52000     -9.3017193E-04
   53.58000     -9.2620449E-04
   53.64000     -9.2226121E-04
   53.70000     -9.1836427E-04
   53.76000     -9.1453228E-04
   53.82000     -9.1078022E-04
   53.88000     -9.0711890E-04
   53.94000     -9.0355484E-04
   54.00000     -9.0009032E-04
   54.06000     -8.9672301E-04
   54.12000     -8.9344621E-04
   54.18000     -8.9024904E-04
   54.24000     -8.8711671E-04
   54.30000     -8.8403077E-04
   54.36000     -8.8096946E-04
   54.42000     -8.7790791E-04
   54.48000     -8.7481836E-04
   54.54000     -8.7167061E-04
   54.60000     -8.6843257E-04
   54.66000     -8.6507056E-04
   54.72000     -8.6154998E-04
   54.78000     -8.5783598E-04
   54.84000     -8.5389358E-04
   54.90000     -8.4968877E-04
   54.96000     -8.4518851E-04
   55.02000     -8.4036135E-04
   55.08000     -8.3517784E-04
   55.14000     -8.2961086E-04
   55.20000     -8.2363613E-04
   55.26000     -8.1723247E-04
   55.32000     -8.1038231E-04
   55.38000     -8.0307154E-04
   55.44000     -7.9529017E-04
   55.50000     -7.8703207E-04
   55.56000     -7.7829539E-04