 -0.750000000       0.00000000    
 -0.689999998       0.00000000    
 -0.629999995       0.00000000    
 -0.569999993       0.00000000    
 -0.509999990       0.00000000    
 -0.449999988       0.00000000    
 -0.389999986       4.23366956E-22
 -0.330000013       2.68017727E-21
 -0.270000011       4.66142125E-21
 -0.209999993      -1.95890829E-20
 -0.150000006      -1.56058634E-19
  -9.00000036E-02  -5.59503157E-19
  -2.99999993E-02  -1.33607743E-18
   2.99999993E-02  -2.21496965E-18
   9.00000036E-02  -2.10439732E-18
  0.150000006       1.03837120E-18
  0.209999993       9.34899629E-18
  0.270000011       2.28113649E-17
  0.330000013       3.63137550E-17
  0.389999986       3.82606205E-17
  0.449999988       1.38481962E-17
  0.509999990      -4.53426431E-17
  0.569999993      -1.28261527E-16
  0.629999995      -1.96514847E-16
  0.689999998      -1.93347314E-16
  0.750000000      -7.59588376E-17
  0.810000002       1.37590550E-16
  0.870000005       3.35546676E-16
  0.930000007       3.33515729E-16
  0.990000010      -2.42965991E-17
   1.04999995      -7.02686251E-16
   1.11000001      -1.33474689E-15
   1.16999996      -1.23138590E-15
   1.23000002       3.49872094E-16
   1.28999996       3.68105061E-15
   1.35000002       7.97493463E-15
   1.40999997       1.10942978E-14
   1.47000003       9.95579148E-15
   1.52999997       1.81614409E-15
   1.59000003      -1.38228874E-14
   1.64999998      -3.34904901E-14
   1.71000004      -4.93332521E-14
   1.76999998      -5.09600059E-14
   1.83000004      -2.96618571E-14
   1.88999999       1.61682665E-14
   1.95000005       7.68041230E-14
   2.00999999       1.30939381E-13
   2.06999993       1.51268727E-13
   2.13000011       1.15408727E-13
   2.19000006       1.86964210E-14
   2.25000000      -1.16866627E-13
   2.30999994      -2.43388480E-13
   2.36999989      -3.00647094E-13
   2.43000007      -2.40250257E-13
   2.49000001      -5.23541205E-14
   2.54999995       2.16858879E-13
   2.60999990       4.67986815E-13
   2.67000008       5.76388655E-13
   2.73000002       4.40126912E-13
   2.78999996       3.22713556E-14
   2.84999990      -5.64084098E-13
   2.91000009      -1.15771292E-12
   2.97000003      -1.49667279E-12
   3.02999997      -1.35271080E-12
   3.08999991      -6.16915644E-13
   3.15000010       6.29098499E-13
   3.21000004       2.09934045E-12
   3.26999998       3.36293450E-12
   3.32999992       3.96661827E-12
   3.39000010       3.58339747E-12
   3.45000005       2.13486021E-12
   3.50999999      -1.61761744E-13
   3.56999993      -2.84628592E-12
   3.63000011      -5.35437536E-12
   3.69000006      -7.19125107E-12
   3.75000000      -8.06885548E-12
   3.80999994      -7.94401003E-12
   3.86999989      -6.93445518E-12
   3.93000007      -5.14676322E-12
   3.99000001      -2.50200707E-12
   4.05000019       1.33376676E-12
   4.11000013       6.83294480E-12
   4.17000008       1.42934059E-11
   4.23000002       2.34129990E-11
   4.28999996       3.29151845E-11
   4.34999990       4.04180404E-11
   4.40999985       4.26936923E-11
   4.46999979       3.63516890E-11
   4.53000021       1.88323836E-11
   4.59000015      -1.05338533E-11
   4.65000010      -4.97081022E-11
   4.71000004      -9.36392144E-11
   4.76999998      -1.34628711E-10
   4.82999992      -1.63350791E-10
   4.88999987      -1.70355910E-10
   4.94999981      -1.47789406E-10
   5.01000023      -9.10426387E-11
   5.07000017      -1.10311303E-13
   5.13000011       1.19487753E-10
   5.19000006       2.56296206E-10
   5.25000000       3.93084149E-10
   5.30999994       5.07660469E-10
   5.36999989       5.74461867E-10
   5.42999983       5.67009217E-10
   5.48999977       4.61217758E-10
   5.55000019       2.39337383E-10
   5.61000013      -1.05956133E-10
   5.67000008      -5.68017688E-10
   5.73000002      -1.12402210E-09
   5.78999996      -1.73475878E-09
   5.84999990      -2.34678832E-09
   5.90999985      -2.89686142E-09
   5.96999979      -3.31802985E-09
   6.03000021      -3.54652019E-09
   6.09000015      -3.52831497E-09
   6.15000010      -3.22450244E-09
   6.21000004      -2.61480126E-09
   6.26999998      -1.69908876E-09
   6.32999992      -4.97154318E-10
   6.38999987       9.52885104E-10
   6.44999981       2.59704569E-09
   6.51000023       4.36851044E-09
   6.57000017       6.19115959E-09
   6.63000011       7.98371769E-09
   6.69000006       9.66464775E-09
   6.75000000       1.11578284E-08
   6.80999994       1.23987256E-08
   6.86999989       1.33404612E-08
   6.92999983       1.39588918E-08
   6.98999977       1.42557415E-08
   7.05000019       1.42589149E-08
   7.11000013       1.40195153E-08
   7.17000008       1.36056046E-08
   7.23000002       1.30933762E-08
   7.28999996       1.25569715E-08
   7.34999990       1.20585462E-08
   7.40999985       1.16403056E-08
   7.46999979       1.13199610E-08
   7.53000021       1.10904441E-08
   7.59000015       1.09239062E-08
   7.65000010       1.07790825E-08
   7.71000004       1.06103952E-08
   7.76999998       1.03767626E-08
   7.82999992       1.00482023E-08
   7.88999987       9.60892610E-09
   7.94999981       9.05658659E-09
   8.01000023       8.39836467E-09
   8.06999969       7.64541142E-09
   8.13000011       6.80754075E-09
   8.18999958       5.88981930E-09
   8.25000000       4.89199170E-09
   8.31000042       3.81066556E-09
   8.36999989       2.64325850E-09
   8.43000031       1.39212797E-09
   8.48999977       6.73534978E-11
   8.55000019      -1.31280553E-09
   8.60999966      -2.72382028E-09
   8.67000008      -4.13829371E-09
   8.72999954      -5.52943513E-09
   8.78999996      -6.87321489E-09
   8.85000038      -8.14847834E-09
   8.90999985      -9.33524547E-09
   8.97000027      -1.04124354E-08
   9.02999973      -1.13567005E-08
   9.09000015      -1.21438744E-08
   9.14999962      -1.27535982E-08
   9.21000004      -1.31763631E-08
   9.27000046      -1.34209834E-08
   9.32999992      -1.35198333E-08
   9.39000034      -1.35294762E-08
   9.44999981      -1.35254359E-08
   9.51000023      -1.35916300E-08
   9.56999969      -1.38066731E-08
   9.63000011      -1.42304044E-08
   9.68999958      -1.48940869E-08
   9.75000000      -1.57968163E-08
   9.81000042      -1.69088636E-08
   9.86999989      -1.81808542E-08
   9.93000031      -1.95560723E-08
   9.98999977      -2.09825703E-08
   10.0500002      -2.24220660E-08
   10.1099997      -2.38538469E-08
   10.1700001      -2.52734580E-08
   10.2299995      -2.66874274E-08
   10.2900000      -2.81061983E-08
   10.3500004      -2.95376417E-08
   10.4099998      -3.09829034E-08
   10.4700003      -3.24353984E-08
   10.5299997      -3.38825465E-08
   10.5900002      -3.53090250E-08
   10.6499996      -3.66998840E-08
   10.7100000      -3.80421099E-08
   10.7700005      -3.93239716E-08
   10.8299999      -4.05324556E-08
   10.8900003      -4.16500114E-08
   10.9499998      -4.26523918E-08
   11.0100002      -4.35090826E-08
   11.0699997      -4.41871855E-08
   11.1300001      -4.46581581E-08
   11.1899996      -4.49056756E-08
   11.2500000      -4.49320048E-08
   11.3100004      -4.47604691E-08
   11.3699999      -4.44323760E-08
   11.4300003      -4.39987566E-08
   11.4899998      -4.35088232E-08
   11.5500002      -4.29984190E-08
   11.6099997      -4.24819682E-08
   11.6700001      -4.19503685E-08
   11.7299995      -4.13755501E-08
   11.7900000      -4.07201775E-08
   11.8500004      -3.99494375E-08
   11.9099998      -3.90412573E-08
   11.9700003      -3.79918497E-08
   12.0299997      -3.68151092E-08
   12.0900002      -3.55363881E-08
   12.1499996      -3.41828930E-08
   12.2100000      -3.27739826E-08
   12.2700005      -3.13144035E-08
   12.3299999      -2.97925755E-08
   12.3900003      -2.81842940E-08
   12.4499998      -2.64605227E-08
   12.5100002      -2.45967282E-08
   12.5699997      -2.25808314E-08
   12.6300001      -2.04173407E-08
   12.6899996      -1.81266220E-08
   12.7500000      -1.57398716E-08
   12.8100004      -1.32918982E-08
   12.8699999      -1.08144542E-08
   12.9300003      -8.33272118E-09
   12.9899998      -5.86620397E-09
   13.0500002      -3.43351370E-09
   13.1099997      -1.05881670E-09
   13.1700001       1.22325383E-09
   13.2299995       3.36712414E-09
   13.2900000       5.32168132E-09
   13.3500004       7.04076530E-09
   13.4099998       8.49580140E-09
   13.4700003       9.68638147E-09
   13.5299997       1.06447811E-08
   13.5900002       1.14320313E-08
   13.6499996       1.21258097E-08
   13.7100000       1.28030582E-08
   13.7700005       1.35221212E-08
   13.8299999       1.43095154E-08
   13.8900003       1.51552069E-08
   13.9499998       1.60177311E-08
   14.0100002       1.68376300E-08
   14.0699997       1.75552390E-08
   14.1300001       1.81277358E-08
   14.1899996       1.85406872E-08
   14.2500000       1.88111571E-08
   14.3100004       1.89819680E-08
   14.3699999       1.91092244E-08
   14.4300003       1.92470448E-08
   14.4899998       1.94339798E-08
   14.5500002       1.96848102E-08
   14.6099997       1.99896419E-08
   14.6700001       2.03199466E-08
   14.7299995       2.06392112E-08
   14.7900000       2.09146513E-08
   14.8500004       2.11263540E-08
   14.9099998       2.12712212E-08
   14.9700003       2.13608651E-08
   15.0299997       2.14144684E-08
   15.0900002       2.14492513E-08
   15.1499996       2.14718519E-08
   15.2100000       2.14735127E-08
   15.2700005       2.14308074E-08
   15.3299999       2.13117524E-08
   15.3900003       2.10855493E-08
   15.4499998       2.07329585E-08
   15.5100002       2.02542072E-08
   15.5699997       1.96720720E-08
   15.6300001       1.90292386E-08
   15.6899996       1.83807529E-08
   15.7500000       1.77837336E-08
   15.8100004       1.72871388E-08
   15.8699999       1.69241385E-08
   15.9300003       1.67086522E-08
   15.9899998       1.66362799E-08
   16.0499992       1.66886096E-08
   16.1100006       1.68391558E-08
   16.1700001       1.70590937E-08
   16.2299995       1.73215007E-08
   16.2900009       1.76036767E-08
   16.3500004       1.78879063E-08
   16.4099998       1.81615558E-08
   16.4699993       1.84172837E-08
   16.5300007       1.86537221E-08
   16.5900002       1.88763227E-08
   16.6499996       1.90975911E-08
   16.7099991       1.93358414E-08
   16.7700005       1.96121093E-08
   16.8299999       1.99455794E-08
   16.8899994       2.03487129E-08
   16.9500008       2.08236255E-08
   17.0100002       2.13610729E-08
   17.0699997       2.19425687E-08
   17.1299992       2.25450449E-08
   17.1900005       2.31465513E-08
   17.2500000       2.37310136E-08
   17.3099995       2.42905305E-08
   17.3700008       2.48246472E-08
   17.4300003       2.53372772E-08
   17.4899998       2.58328647E-08
   17.5499992       2.63136393E-08
   17.6100006       2.67792046E-08
   17.6700001       2.72286247E-08
   17.7299995       2.76639867E-08
   17.7900009       2.80936803E-08
   17.8500004       2.85337318E-08
   17.9099998       2.90062410E-08
   17.9699993       2.95352542E-08
   18.0300007       3.01414538E-08
   18.0900002       3.08375938E-08
   18.1499996       3.16262678E-08
   18.2099991       3.25007434E-08
   18.2700005       3.34483090E-08
   18.3299999       3.44546365E-08
   18.3899994       3.55074228E-08
   18.4500008       3.65977932E-08
   18.5100002       3.77191327E-08
   18.5699997       3.88640515E-08
   18.6299992       4.00209288E-08
   18.6900005       4.11717451E-08
   18.7500000       4.22923172E-08
   18.8099995       4.33550476E-08
   18.8700008       4.43333263E-08
   18.9300003       4.52060895E-08
   18.9899998       4.59608209E-08
   19.0499992       4.65941348E-08
   19.1100006       4.71096797E-08
   19.1700001       4.75142734E-08
   19.2299995       4.78136322E-08
   19.2900009       4.80092552E-08
   19.3500004       4.80975260E-08
   19.4099998       4.80713140E-08
   19.4699993       4.79235389E-08
   19.5300007       4.76513726E-08
   19.5900002       4.72594905E-08
   19.6499996       4.67609347E-08
   19.7099991       4.61748257E-08
   19.7700005       4.55210980E-08
   19.8299999       4.48134685E-08
   19.8899994       4.40527117E-08
   19.9500008       4.32225420E-08
   20.0100002       4.22898729E-08
   20.0699997       4.12102601E-08
   20.1299992       3.99377029E-08
   20.1900005       3.84365464E-08
   20.2500000       3.66923807E-08
   20.3099995       3.47187878E-08
   20.3700008       3.25579492E-08
   20.4300003       3.02747480E-08
   20.4899998       2.79459780E-08
   20.5499992       2.56475214E-08
   20.6100006       2.34429365E-08
   20.6700001       2.13760902E-08
   20.7299995       1.94690042E-08
   20.7900009       1.77243340E-08
   20.8500004       1.61304978E-08
   20.9099998       1.46669485E-08
   20.9699993       1.33075968E-08
   21.0300007       1.20215571E-08
   21.0900002       1.07719114E-08
   21.1499996       9.51415480E-09
   21.2099991       8.19633073E-09
   21.2700005       6.76218326E-09
   21.3299999       5.15738474E-09
   21.3899994       3.33757799E-09
   21.4500008       1.27600530E-09
   21.5100002      -1.03156350E-09
   21.5699997      -3.56615271E-09
   21.6299992      -6.28937924E-09
   21.6900005      -9.15059672E-09
   21.7500000      -1.20953336E-08
   21.8099995      -1.50728336E-08
   21.8700008      -1.80411046E-08
   21.9300003      -2.09689368E-08
   21.9899998      -2.38353746E-08
   22.0499992      -2.66278555E-08
   22.1100006      -2.93402440E-08
   22.1700001      -3.19715880E-08
   22.2299995      -3.45257902E-08
   22.2900009      -3.70116773E-08
   22.3500004      -3.94428561E-08
   22.4099998      -4.18367172E-08
   22.4699993      -4.42124453E-08
   22.5300007      -4.65883332E-08
   22.5900002      -4.89790253E-08
   22.6499996      -5.13933180E-08
   22.7099991      -5.38328884E-08
   22.7700005      -5.62921869E-08
   22.8299999      -5.87592126E-08
   22.8899994      -6.12168236E-08
   22.9500008      -6.36444071E-08
   23.0100002      -6.60195028E-08
   23.0699997      -6.83194799E-08
   23.1299992      -7.05230505E-08
   23.1900005      -7.26114848E-08
   23.2500000      -7.45692930E-08
   23.3099995      -7.63840688E-08
   23.3700008      -7.80451046E-08
   23.4300003      -7.95411310E-08
   23.4899998      -8.08575891E-08
   23.5499992      -8.19744344E-08
   23.6100006      -8.28656042E-08
   23.6700001      -8.35010709E-08
   23.7299995      -8.38516101E-08
   23.7900009      -8.38957703E-08
   23.8500004      -8.36272918E-08
   23.9099998      -8.30611455E-08
   23.9699993      -8.22361557E-08
   24.0300007      -8.12131447E-08
   24.0900002      -8.00686948E-08
   24.1499996      -7.88858188E-08
   24.2099991      -7.77438558E-08
   24.2700005      -7.67097177E-08
   24.3299999      -7.58321548E-08
   24.3899994      -7.51395319E-08
   24.4500008      -7.46402478E-08
   24.5100002      -7.43247028E-08
   24.5699997      -7.41672679E-08
   24.6299992      -7.41280246E-08
   24.6900005      -7.41546842E-08
   24.7500000      -7.41859409E-08
   24.8099995      -7.41571853E-08
   24.8700008      -7.40087671E-08
   24.9300003      -7.36952614E-08
   24.9899998      -7.31932701E-08
   25.0499992      -7.25048821E-08
   25.1100006      -7.16551867E-08
   25.1700001      -7.06839387E-08
   25.2299995      -6.96341758E-08
   25.2900009      -6.85413966E-08
   25.3500004      -6.74274432E-08
   25.4099998      -6.63010908E-08
   25.4699993      -6.51649970E-08
   25.5300007      -6.40256985E-08
   25.5900002      -6.29023162E-08
   25.6499996      -6.18298586E-08
   25.7099991      -6.08550295E-08
   25.7700005      -6.00257835E-08
   25.8299999      -5.93780776E-08
   25.8899994      -5.89245808E-08
   25.9500008      -5.86495119E-08
   26.0100002      -5.85112829E-08
   26.0699997      -5.84518922E-08
   26.1299992      -5.84096753E-08
   26.1900005      -5.83311497E-08
   26.2500000      -5.81782622E-08
   26.3099995      -5.79296255E-08
   26.3700008      -5.75764503E-08
   26.4300003      -5.71159582E-08
   26.4899998      -5.65454918E-08
   26.5499992      -5.58599424E-08
   26.6100006      -5.50532349E-08
   26.6700001      -5.41228999E-08
   26.7299995      -5.30752970E-08
   26.7900009      -5.19288790E-08
   26.8500004      -5.07135880E-08
   26.9099998      -4.94661769E-08
   26.9699993      -4.82227307E-08
   27.0300007      -4.70107615E-08
   27.0900002      -4.58433220E-08
   27.1499996      -4.47168347E-08
   27.2099991      -4.36129355E-08
   27.2700005      -4.25034479E-08
   27.3299999      -4.13567385E-08
   27.3899994      -4.01436715E-08
   27.4500008      -3.88419501E-08
   27.5100002      -3.74383511E-08
   27.5699997      -3.59291192E-08
   27.6299992      -3.43190827E-08
   27.6900005      -3.26199050E-08
   27.7500000      -3.08479500E-08
   27.8099995      -2.90217237E-08
   27.8700008      -2.71592349E-08
   27.9300003      -2.52756234E-08
   27.9899998      -2.33816735E-08
   28.0499992      -2.14836877E-08
   28.1100006      -1.95849044E-08
   28.1700001      -1.76879826E-08
   28.2299995      -1.57977276E-08
   28.2900009      -1.39229455E-08
   28.3500004      -1.20767378E-08
   28.4099998      -1.02751043E-08
   28.4699993      -8.53447979E-09
   28.5300007      -6.86922741E-09
   28.5900002      -5.29011102E-09
   28.6499996      -3.80420895E-09
   28.7099991      -2.41600140E-09
   28.7700005      -1.12874809E-09
   28.8299999       5.49304040E-11
   28.8899994       1.13394827E-09
   28.9500008       2.11101447E-09
   29.0100002       2.99525538E-09
   29.0699997       3.80367382E-09
   29.1299992       4.56006877E-09
   29.1900005       5.29088506E-09
   29.2500000       6.01876371E-09
   29.3099995       6.75573686E-09
   29.3700008       7.49859108E-09
   29.4300003       8.22847745E-09
   29.4899998       8.91548524E-09
   29.5499992       9.52705470E-09
   29.6100006       1.00374926E-08
   29.6700001       1.04351914E-08
   29.7299995       1.07248299E-08
   29.7900009       1.09236193E-08
   29.8500004       1.10529443E-08
   29.9099998       1.11286136E-08
   29.9699993       1.11535234E-08
   30.0300007       1.11156417E-08
   30.0900002       1.09921006E-08
   30.1499996       1.07576952E-08
   30.2099991       1.03943556E-08
   30.2700005       9.89776705E-09
   30.3299999       9.27856725E-09
   30.3899994       8.55777937E-09
   30.4500008       7.75852715E-09
   30.5100002       6.89747415E-09
   30.5699997       5.97941074E-09
   30.6299992       4.99700192E-09
   30.6900005       3.93554433E-09
   30.7500000       2.78063772E-09
   30.8099995       1.52568913E-09
   30.8700008       1.76430870E-10
   30.9300003      -1.24904931E-09
   30.9899998      -2.72458300E-09
   31.0499992      -4.22288826E-09
   31.1100006      -5.72292524E-09
   31.1700001      -7.21545801E-09
   31.2299995      -8.70536088E-09
   31.2900009      -1.02101332E-08
   31.3500004      -1.17550041E-08
   31.4099998      -1.33657059E-08
   31.4699993      -1.50604986E-08
   31.5300007      -1.68433214E-08
   31.5900002      -1.86999198E-08
   31.6499996      -2.05983568E-08
   31.7099991      -2.24942731E-08
   31.7700005      -2.43399878E-08
   31.8299999      -2.60950088E-08
   31.8899994      -2.77348366E-08
   31.9500008      -2.92551281E-08
   32.0099983      -3.06696109E-08
   32.0699997      -3.20024256E-08
   32.1300011      -3.32776295E-08
   32.1899986      -3.45098599E-08
   32.2500000      -3.56998271E-08
   32.3100014      -3.68364006E-08
   32.3699989      -3.79043250E-08
   32.4300003      -3.88941217E-08
   32.4900017      -3.98096951E-08
   32.5499992      -4.06698355E-08
   32.6100006      -4.15023997E-08
   32.6699982      -4.23330562E-08
   32.7299995      -4.31730420E-08
   32.7900009      -4.40110277E-08
   32.8499985      -4.48129320E-08
   32.9099998      -4.55304310E-08
   32.9700012      -4.61154173E-08
   33.0299988      -4.65352699E-08
   33.0900002      -4.67832209E-08
   33.1500015      -4.68799293E-08
   33.2099991      -4.68656332E-08
   33.2700005      -4.67859529E-08
   33.3300018      -4.66766110E-08
   33.3899994      -4.65529091E-08
   33.4500008      -4.64077061E-08
   33.5099983      -4.62184673E-08
   33.5699997      -4.59604266E-08
   33.6300011      -4.56205100E-08
   33.6899986      -4.52067219E-08
   33.7500000      -4.47492745E-08
   33.8100014      -4.42930244E-08
   33.8699989      -4.38840573E-08
   33.9300003      -4.35552145E-08
   33.9900017      -4.33156373E-08
   34.0499992      -4.31476472E-08
   34.1100006      -4.30116813E-08
   34.1699982      -4.28569926E-08
   34.2299995      -4.26343547E-08
   34.2900009      -4.23066062E-08
   34.3499985      -4.18544133E-08
   34.4099998      -4.12765466E-08
   34.4700012      -4.05860021E-08
   34.5299988      -3.98044797E-08
   34.5900002      -3.89575483E-08
   34.6500015      -3.80719669E-08
   34.7099991      -3.71752300E-08
   34.7700005      -3.62962247E-08
   34.8300018      -3.54657494E-08
   34.8899994      -3.47158142E-08
   34.9500008      -3.40776545E-08
   35.0099983      -3.35791377E-08
   35.0699997      -3.32423831E-08
   35.1300011      -3.30824221E-08
   35.1899986      -3.31068470E-08
   35.2500000      -3.33159562E-08
   35.3100014      -3.37026194E-08
   35.3699989      -3.42516309E-08
   35.4300003      -3.49388358E-08
   35.4900017      -3.57310874E-08
   35.5499992      -3.65879735E-08
   35.6100006      -3.74657674E-08
   35.6699982      -3.83227494E-08
   35.7299995      -3.91241315E-08
   35.7900009      -3.98444087E-08
   35.8499985      -4.04657854E-08
   35.9099998      -4.09728678E-08
   35.9700012      -4.13458032E-08
   36.0299988      -4.15551256E-08
   36.0900002      -4.15614920E-08
   36.1500015      -4.13216021E-08
   36.2099991      -4.07991934E-08
   36.2700005      -3.99773725E-08
   36.3300018      -3.88674728E-08
   36.3899994      -3.75105422E-08
   36.4500008      -3.59700003E-08
   36.5099983      -3.43176225E-08
   36.5699997      -3.26175780E-08
   36.6300011      -3.09143466E-08
   36.6899986      -2.92288806E-08
   36.7500000      -2.75641394E-08
   36.8100014      -2.59175508E-08
   36.8699989      -2.42949643E-08
   36.9300003      -2.27203021E-08
   36.9900017      -2.12366729E-08
   37.0499992      -1.98983852E-08
   37.1100006      -1.87568236E-08
   37.1699982      -1.78457125E-08
   37.2299995      -1.71715460E-08
   37.2900009      -1.67128675E-08
   37.3499985      -1.64286487E-08
   37.4099998      -1.62724803E-08
   37.4700012      -1.62071885E-08
   37.5299988      -1.62144804E-08
   37.5900002      -1.62963492E-08
   37.6500015      -1.64683325E-08
   37.7099991      -1.67478351E-08
   37.7700005      -1.71425647E-08
   37.8300018      -1.76437958E-08
   37.8899994      -1.82270199E-08
   37.9500008      -1.88594047E-08
   38.0099983      -1.95106296E-08
   38.0699997      -2.01623518E-08
   38.1300011      -2.08121236E-08
   38.1899986      -2.14699565E-08
   38.2500000      -2.21488410E-08
   38.3100014      -2.28530048E-08
   38.3699989      -2.35688411E-08
   38.4300003      -2.42624179E-08
   38.4900017      -2.48850824E-08
   38.5499992      -2.53855532E-08
   38.6100006      -2.57244572E-08
   38.6699982      -2.58863189E-08
   38.7299995      -2.58848196E-08
   38.7900009      -2.57594248E-08
   38.8499985      -2.55643382E-08
   38.9099998      -2.53530139E-08
   38.9700012      -2.51628958E-08
   39.0299988      -2.50046259E-08
   39.0900002      -2.48586431E-08
   39.1500015      -2.46799239E-08
   39.2099991      -2.44093403E-08
   39.2700005      -2.39885907E-08
   39.3300018      -2.33747617E-08
   39.3899994      -2.25508980E-08
   39.4500008      -2.15300027E-08
   39.5099983      -2.03516421E-08
   39.5699997      -1.90721803E-08
   39.6300011      -1.77512973E-08
   39.6899986      -1.64383867E-08
   39.7500000      -1.51623816E-08
   39.8100014      -1.39275684E-08
   39.8699989      -1.27162618E-08
   39.9300003      -1.14972059E-08
   39.9900017      -1.02370201E-08
   40.0499992      -8.91121310E-09
   40.1100006      -7.51157359E-09
   40.1699982      -6.04798966E-09
   40.2299995      -4.54455851E-09
   40.2900009      -3.03161962E-09
   40.3499985      -1.53658231E-09
   40.4099998      -7.66968711E-11
   40.4700012       1.34378175E-09
   40.5299988       2.73110468E-09
   40.5900002       4.09510115E-09
   40.6500015       5.44026468E-09
   40.7099991       6.75810252E-09
   40.7700005       8.02372124E-09
   40.8300018       9.19830789E-09
   40.8899994       1.02372137E-08
   40.9500008       1.11013705E-08
   41.0099983       1.17685097E-08
   41.0699997       1.22405073E-08
   41.1300011       1.25443336E-08
   41.1899986       1.27260797E-08
   41.2500000       1.28397089E-08
   41.3100014       1.29337883E-08
   41.3699989       1.30399469E-08
   41.4300003       1.31660478E-08
   41.4900017       1.32956153E-08
   41.5499992       1.33932287E-08
   41.6100006       1.34142493E-08
   41.6699982       1.33165221E-08
   41.7299995       1.30715883E-08
   41.7900009       1.26733148E-08
   41.8499985       1.21423094E-08
   41.9099998       1.15250618E-08
   41.9700012       1.08874554E-08
   42.0299988       1.03032924E-08
   42.0900002       9.83967841E-09
   42.1500015       9.54233403E-09
   42.2099991       9.42445322E-09
   42.2700005       9.46235978E-09
   42.3300018       9.59958513E-09
   42.3899994       9.75858505E-09
   42.4500008       9.85692061E-09
   42.5099983       9.82318404E-09
   42.5699997       9.60808855E-09
   42.6300011       9.18787801E-09
   42.6899986       8.56002202E-09
   42.7500000       7.73397613E-09
   42.8100014       6.72141764E-09
   42.8699989       5.53029578E-09
   42.9300003       4.16512558E-09
   42.9900017       2.63316968E-09
   43.0499992       9.53507939E-10
   43.1100006      -8.35363501E-10
   43.1699982      -2.67328959E-09
   43.2299995      -4.48336923E-09
   43.2900009      -6.18299989E-09
   43.3499985      -7.69754749E-09
   43.4099998      -8.97206931E-09
   43.4700012      -9.97715155E-09
   43.5299988      -1.07071036E-08
   43.5900002      -1.11714415E-08
   43.6500015      -1.13829364E-08
   43.7099991      -1.13464855E-08
   43.7700005      -1.10524896E-08
   43.8300018      -1.04764526E-08
   43.8899994      -9.58404645E-09
   43.9500008      -8.33877056E-09
   44.0099983      -6.70836808E-09
   44.0699997      -4.66664751E-09
   44.1300011      -2.18909646E-09
   44.1899986       7.57097218E-10
   44.2500000       4.22605284E-09
   44.3100014       8.30579694E-09
   44.3699989       1.31274129E-08
   44.4300003       1.88692155E-08
   44.4900017       2.57563428E-08
   44.5499992       3.40578801E-08
   44.6100006       4.40845653E-08
   44.6699982       5.61899824E-08
   44.7299995       7.07772685E-08
   44.7900009       8.83121061E-08
   44.8499985       1.09341308E-07
   44.9099998       1.34515574E-07
   44.9700012       1.64614164E-07
   45.0299988       2.00569573E-07
   45.0900002       2.43490462E-07
   45.1500015       2.94682025E-07
   45.2099991       3.55664042E-07
   45.2700005       4.28188173E-07
   45.3300018       5.14257067E-07
   45.3899994       6.16148952E-07
   45.4500008       7.36450488E-07
   45.5099983       8.78100764E-07
   45.5699997       1.04444541E-06
   45.6300011       1.23930056E-06
   45.6899986       1.46701973E-06
   45.7500000       1.73256183E-06
   45.8100014       2.04155458E-06
   45.8699989       2.40035479E-06
   45.9300003       2.81610619E-06
   45.9900017       3.29680392E-06
   46.0499992       3.85136900E-06
   46.1100006       4.48973969E-06
   46.1699982       5.22297660E-06
   46.2299995       6.06338699E-06
   46.2900009       7.02464695E-06
   46.3499985       8.12193048E-06
   46.4099998       9.37202731E-06
   46.4700012       1.07934457E-05
   46.5299988       1.24065136E-05
   46.5900002       1.42334757E-05
   46.6500015       1.62985871E-05
   46.7099991       1.86282159E-05
   46.7700005       2.12509476E-05
   46.8300018       2.41976995E-05
   46.8899994       2.75018137E-05
   46.9500008       3.11991644E-05
   47.0099983       3.53282121E-05
   47.0699997       3.99300479E-05
   47.1300011       4.50484222E-05
   47.1899986       5.07297264E-05
   47.2500000       5.70229458E-05
   47.3100014       6.39796272E-05
   47.3699989       7.16537761E-05
   47.4300003       8.01018032E-05
   47.4900017       8.93823890E-05
   47.5499992       9.95562805E-05
   47.6100006       1.10686167E-04
   47.6699982       1.22836354E-04
   47.7299995       1.36072442E-04
   47.7900009       1.50461055E-04
   47.8499985       1.66069352E-04
   47.9099998       1.82964635E-04
   47.9700012       2.01213799E-04
   48.0299988       2.20882823E-04
   48.0900002       2.42036287E-04
   48.1500015       2.64736620E-04
   48.2099991       2.89043674E-04
   48.2700005       3.15013807E-04
   48.3300018       3.42699466E-04
   48.3899994       3.72148264E-04
   48.4500008       4.03402344E-04
   48.5099983       4.36497561E-04
   48.5699997       4.71462787E-04
   48.6300011       5.08319121E-04
   48.6899986       5.47079195E-04
   48.7500000       5.87746617E-04
   48.8100014       6.30315160E-04
   48.8699989       6.74768176E-04
   48.9300003       7.21078541E-04
   48.9900017       7.69207778E-04
   49.0499992       8.19105713E-04
   49.1100006       8.70710355E-04
   49.1699982       9.23947606E-04
   49.2299995       9.78731201E-04
   49.2900009       1.03496283E-03
   49.3499985       1.09253230E-03
   49.4099998       1.15131808E-03
   49.4700012       1.21118734E-03
   49.5299988       1.27199723E-03
   49.5900002       1.33359514E-03
   49.6500015       1.39581959E-03
   49.7099991       1.45850168E-03
   49.7700005       1.52146560E-03
   49.8300018       1.58452999E-03
   49.8899994       1.64750998E-03
   49.9500008       1.71021791E-03
   50.0099983       1.77246495E-03
   50.0699997       1.83406333E-03
   50.1300011       1.89482735E-03
   50.1899986       1.95457553E-03
   50.2500000       2.01313221E-03
   50.3100014       2.07032915E-03
   50.3699989       2.12600734E-03
   50.4300003       2.18001800E-03
   50.4900017       2.23222515E-03
   50.5499992       2.28250585E-03
   50.6100006       2.33075279E-03