 -0.750000000       0.00000000    
 -0.689999998       0.00000000    
 -0.629999995       0.00000000    
 -0.569999993       0.00000000    
 -0.509999990       0.00000000    
 -0.449999988       0.00000000    
 -0.389999986       2.11165985E-22
 -0.330000013       1.91752017E-21
 -0.270000011       8.74434274E-21
 -0.209999993       2.59657261E-20
 -0.150000006       5.33749761E-20
  -9.00000036E-02   6.82212040E-20
  -2.99999993E-02   6.61184487E-22
   2.99999993E-02  -2.86173085E-19
   9.00000036E-02  -9.87693770E-19
  0.150000006      -2.28083060E-18
  0.209999993      -4.11521403E-18
  0.270000011      -5.80029964E-18
  0.330000013      -5.39029227E-18
  0.389999986       8.74261665E-19
  0.449999988       1.83440106E-17
  0.509999990       5.17777543E-17
  0.569999993       1.00131179E-16
  0.629999995       1.48639711E-16
  0.689999998       1.61470685E-16
  0.750000000       8.18253415E-17
  0.810000002      -1.51864127E-16
  0.870000005      -5.68450746E-16
  0.930000007      -1.11095412E-15
  0.990000010      -1.58990435E-15
   1.04999995      -1.67975676E-15
   1.11000001      -9.95732969E-16
   1.16999996       7.35233386E-16
   1.23000002       3.44489485E-15
   1.28999996       6.53010395E-15
   1.35000002       8.82765710E-15
   1.40999997       8.86977327E-15
   1.47000003       5.43383960E-15
   1.52999997      -1.75932788E-15
   1.59000003      -1.14999325E-14
   1.64999998      -2.10534579E-14
   1.71000004      -2.68660792E-14
   1.76999998      -2.59244208E-14
   1.83000004      -1.72749236E-14
   1.88999999      -2.91628150E-15
   1.95000005       1.26665493E-14
   2.00999999       2.45340772E-14
   2.06999993       3.02142412E-14
   2.13000011       3.19815924E-14
   2.19000006       3.66713631E-14
   2.25000000       5.19267687E-14
   2.30999994       7.95368139E-14
   2.36999989       1.08732759E-13
   2.43000007       1.13860269E-13
   2.49000001       6.05132806E-14
   2.54999995      -7.86570787E-14
   2.60999990      -3.02177500E-13
   2.67000008      -5.60924788E-13
   2.73000002      -7.53890494E-13
   2.78999996      -7.48126387E-13
   2.84999990      -4.24721862E-13
   2.91000009       2.59068916E-13
   2.97000003       1.21300322E-12
   3.02999997       2.18977917E-12
   3.08999991       2.81707275E-12
   3.15000010       2.69351425E-12
   3.21000004       1.53275255E-12
   3.26999998      -6.84540640E-13
   3.32999992      -3.60610456E-12
   3.39000010      -6.50417220E-12
   3.45000005      -8.40259633E-12
   3.50999999      -8.32590594E-12
   3.56999993      -5.61618720E-12
   3.63000011      -2.28515720E-13
   3.69000006       7.09518208E-12
   3.75000000       1.48524838E-11
   3.80999994       2.10343444E-11
   3.86999989       2.35663086E-11
   3.93000007       2.08346777E-11
   3.99000001       1.21603474E-11
   4.05000019      -1.90986094E-12
   4.11000013      -1.95752459E-11
   4.17000008      -3.80214749E-11
   4.23000002      -5.38582026E-11
   4.28999996      -6.36366376E-11
   4.34999990      -6.43305340E-11
   4.40999985      -5.37115213E-11
   4.46999979      -3.06219598E-11
   4.53000021       4.79041503E-12
   4.59000015       5.07963324E-11
   4.65000010       1.03735978E-10
   4.71000004       1.57666449E-10
   4.76999998       2.04190914E-10
   4.82999992       2.32729863E-10
   4.88999987       2.31481986E-10
   4.94999981       1.89198074E-10
   5.01000023       9.76755760E-11
   5.07000017      -4.53726431E-11
   5.13000011      -2.33634223E-10
   5.19000006      -4.50356835E-10
   5.25000000      -6.67951028E-10
   5.30999994      -8.49418591E-10
   5.36999989      -9.51655754E-10
   5.42999983      -9.30306110E-10
   5.48999977      -7.45512818E-10
   5.55000019      -3.67713693E-10
   5.61000013       2.17418916E-10
   5.67000008       1.00565012E-09
   5.73000002       1.97294558E-09
   5.78999996       3.07643755E-09
   5.84999990       4.25734914E-09
   5.90999985       5.44534862E-09
   5.96999979       6.56367716E-09
   6.03000021       7.53442730E-09
   6.09000015       8.28352764E-09
   6.15000010       8.74525874E-09
   6.21000004       8.86631835E-09
   6.26999998       8.60962768E-09
   6.32999992       7.95798805E-09
   6.38999987       6.91749680E-09
   6.44999981       5.52033086E-09
   6.51000023       3.82617049E-09
   6.57000017       1.92135285E-09
   6.63000011      -8.51084064E-11
   6.69000006      -2.06917683E-09
   6.75000000      -3.90303745E-09
   6.80999994      -5.46903545E-09
   6.86999989      -6.67456579E-09
   6.92999983      -7.46550022E-09
   6.98999977      -7.83547094E-09
   7.05000019      -7.82862664E-09
   7.11000013      -7.53437934E-09
   7.17000008      -7.07410708E-09
   7.23000002      -6.58146115E-09
   7.28999996      -6.17948848E-09
   7.34999990      -5.95881300E-09
   7.40999985      -5.96125060E-09
   7.46999979      -6.17236928E-09
   7.53000021      -6.52475407E-09
   7.59000015      -6.91148072E-09
   7.65000010      -7.20706606E-09
   7.71000004      -7.29153138E-09
   7.76999998      -7.07260073E-09
   7.82999992      -6.50155441E-09
   7.88999987      -5.57985036E-09
   7.94999981      -4.35575132E-09
   8.01000023      -2.91242030E-09
   8.06999969      -1.35069889E-09
   8.13000011       2.29356936E-10
   8.18999958       1.74422432E-09
   8.25000000       3.13703108E-09
   8.31000042       4.38071890E-09
   8.36999989       5.47467005E-09
   8.43000031       6.43666809E-09
   8.48999977       7.29287075E-09
   8.55000019       8.06856981E-09
   8.60999966       8.78186057E-09
   8.67000008       9.44131351E-09
   8.72999954       1.00474784E-08
   8.78999996       1.05970663E-08
   8.85000038       1.10880780E-08
   8.90999985       1.15240777E-08
   8.97000027       1.19163053E-08
   9.02999973       1.22830626E-08
   9.09000015       1.26466766E-08
   9.14999962       1.30290037E-08
   9.21000004       1.34467655E-08
   9.27000046       1.39079095E-08
   9.32999992       1.44097907E-08
   9.39000034       1.49393244E-08
   9.44999981       1.54747184E-08
   9.51000023       1.59880695E-08
   9.56999969       1.64480625E-08
   9.63000011       1.68223977E-08
   9.68999958       1.70799233E-08
   9.75000000       1.71929297E-08
   9.81000042       1.71400636E-08
   9.86999989       1.69101178E-08
   9.93000031       1.65062595E-08
   9.98999977       1.59496700E-08
   10.0500002       1.52810298E-08
   10.1099997       1.45584265E-08
   10.1700001       1.38508511E-08
   10.2299995       1.32277105E-08
   10.2900000       1.27460718E-08
   10.3500004       1.24383908E-08
   10.4099998       1.23038619E-08
   10.4700003       1.23058639E-08
   10.5299997       1.23767023E-08
   10.5900002       1.24289530E-08
   10.6499996       1.23710437E-08
   10.7100000       1.21236408E-08
   10.7700005       1.16332330E-08
   10.8299999       1.08801119E-08
   10.8900003       9.87943505E-09
   10.9499998       8.67572503E-09
   11.0100002       7.33256789E-09
   11.0699997       5.92015592E-09
   11.1300001       4.50335946E-09
   11.1899996       3.13256088E-09
   11.2500000       1.83856275E-09
   11.3100004       6.31872943E-10
   11.3699999      -4.94211283E-10
   11.4300003      -1.55793900E-09
   11.4899998      -2.58238453E-09
   11.5500002      -3.58918451E-09
   11.6099997      -4.59392258E-09
   11.6700001      -5.60384850E-09
   11.7299995      -6.61795729E-09
   11.7900000      -7.62883534E-09
   11.8500004      -8.62527028E-09
   11.9099998      -9.59449853E-09
   11.9700003      -1.05232081E-08
   12.0299997      -1.13969492E-08
   12.0900002      -1.21982575E-08
   12.1499996      -1.29043203E-08
   12.2100000      -1.34852822E-08
   12.2700005      -1.39041445E-08
   12.3299999      -1.41188039E-08
   12.3900003      -1.40861669E-08
   12.4499998      -1.37677656E-08
   12.5100002      -1.31359208E-08
   12.5699997      -1.21794361E-08
   12.6300001      -1.09078782E-08
   12.6899996      -9.35371158E-09
   12.7500000      -7.57176721E-09
   12.8100004      -5.63571412E-09
   12.8699999      -3.63147423E-09
   12.9300003      -1.64789316E-09
   12.9899998       2.34461867E-10
   13.0500002       1.95484851E-09
   13.1099997       3.48214879E-09
   13.1700001       4.82061946E-09
   13.2299995       6.00965233E-09
   13.2900000       7.11663839E-09
   13.3500004       8.22353385E-09
   13.4099998       9.40939504E-09
   13.4700003       1.07324514E-08
   13.5299997       1.22157697E-08
   13.5900002       1.38400162E-08
   13.6499996       1.55452948E-08
   13.7100000       1.72419199E-08
   13.7700005       1.88277820E-08
   13.8299999       2.02084482E-08
   13.8900003       2.13154649E-08
   13.9499998       2.21189111E-08
   14.0100002       2.26317134E-08
   14.0699997       2.29051729E-08
   14.1300001       2.30172166E-08
   14.1899996       2.30563213E-08
   14.2500000       2.31048283E-08
   14.3100004       2.32252209E-08
   14.3699999       2.34520119E-08
   14.4300003       2.37904150E-08
   14.4899998       2.42214213E-08
   14.5500002       2.47113707E-08
   14.6099997       2.52233221E-08
   14.6700001       2.57272319E-08
   14.7299995       2.62065569E-08
   14.7900000       2.66601017E-08
   14.8500004       2.70992508E-08
   14.9099998       2.75420540E-08
   14.9700003       2.80063617E-08
   15.0299997       2.85042052E-08
   15.0900002       2.90389792E-08
   15.1499996       2.96059195E-08
   15.2100000       3.01952383E-08
   15.2700005       3.07964889E-08
   15.3299999       3.14024433E-08
   15.3900003       3.20112221E-08
   15.4499998       3.26259375E-08
   15.5100002       3.32521175E-08
   15.5699997       3.38937944E-08
   15.6300001       3.45494691E-08
   15.6899996       3.52091796E-08
   15.7500000       3.58533576E-08
   15.8100004       3.64538693E-08
   15.8699999       3.69767399E-08
   15.9300003       3.73859912E-08
   15.9899998       3.76476130E-08
   16.0499992       3.77328604E-08
   16.1100006       3.76204241E-08
   16.1700001       3.72973687E-08
   16.2299995       3.67591504E-08
   16.2900009       3.60092329E-08
   16.3500004       3.50588891E-08
   16.4099998       3.39273853E-08
   16.4699993       3.26424718E-08
   16.5300007       3.12407025E-08
   16.5900002       2.97667757E-08
   16.6499996       2.82713177E-08
   16.7099991       2.68068376E-08
   16.7700005       2.54221639E-08
   16.8299999       2.41563995E-08
   16.8899994       2.30336941E-08
   16.9500008       2.20602132E-08
   17.0100002       2.12243414E-08
   17.0699997       2.05002646E-08
   17.1299992       1.98543120E-08
   17.1900005       1.92525693E-08
   17.2500000       1.86679365E-08
   17.3099995       1.80849131E-08
   17.3700008       1.75010442E-08
   17.4300003       1.69249503E-08
   17.4899998       1.63719029E-08
   17.5499992       1.58585340E-08
   17.6100006       1.53984132E-08
   17.6700001       1.49997437E-08
   17.7299995       1.46654209E-08
   17.7900009       1.43948311E-08
   17.8500004       1.41861216E-08
   17.9099998       1.40376999E-08
   17.9699993       1.39483625E-08
   18.0300007       1.39163010E-08
   18.0900002       1.39379264E-08
   18.1499996       1.40076297E-08
   18.2099991       1.41191263E-08
   18.2700005       1.42681715E-08
   18.3299999       1.44556465E-08
   18.3899994       1.46896708E-08
   18.4500008       1.49857122E-08
   18.5100002       1.53644599E-08
   18.5699997       1.58481051E-08
   18.6299992       1.64561751E-08
   18.6900005       1.72020318E-08
   18.7500000       1.80906401E-08
   18.8099995       1.91174347E-08
   18.8700008       2.02678709E-08
   18.9300003       2.15171667E-08
   18.9899998       2.28302888E-08
   19.0499992       2.41627092E-08
   19.1100006       2.54626524E-08
   19.1700001       2.66751581E-08
   19.2299995       2.77476211E-08
   19.2900009       2.86355970E-08
   19.3500004       2.93072944E-08
   19.4099998       2.97454257E-08
   19.4699993       2.99458414E-08
   19.5300007       2.99134655E-08
   19.5900002       2.96568547E-08
   19.6499996       2.91830027E-08
   19.7099991       2.84937123E-08
   19.7700005       2.75841661E-08
   19.8299999       2.64436082E-08
   19.8899994       2.50575205E-08
   19.9500008       2.34105926E-08
   20.0100002       2.14899387E-08
   20.0699997       1.92881782E-08
   20.1299992       1.68062435E-08
   20.1900005       1.40557299E-08
   20.2500000       1.10605667E-08
   20.3099995       7.85777221E-09
   20.3700008       4.49716531E-09
   20.4300003       1.04001585E-09
   20.4899998      -2.44321186E-09
   20.5499992      -5.87592019E-09
   20.6100006      -9.17922538E-09
   20.6700001      -1.22767290E-08
   20.7299995      -1.51002961E-08
   20.7900009      -1.75966584E-08
   20.8500004      -1.97341858E-08
   20.9099998      -2.15086207E-08
   20.9699993      -2.29463613E-08
   21.0300007      -2.41040272E-08
   21.0900002      -2.50637004E-08
   21.1499996      -2.59241890E-08
   21.2099991      -2.67895981E-08
   21.2700005      -2.77571051E-08
   21.3299999      -2.89059869E-08
   21.3899994      -3.02895415E-08
   21.4500008      -3.19308278E-08
   21.5100002      -3.38223849E-08
   21.5699997      -3.59293502E-08
   21.6299992      -3.81950223E-08
   21.6900005      -4.05477785E-08
   21.7500000      -4.29084253E-08
   21.8099995      -4.51972184E-08
   21.8700008      -4.73402508E-08
   21.9300003      -4.92750196E-08
   21.9899998      -5.09551477E-08
   22.0499992      -5.23542703E-08
   22.1100006      -5.34687494E-08
   22.1700001      -5.43188428E-08
   22.2299995      -5.49476731E-08
   22.2900009      -5.54175585E-08
   22.3500004      -5.58036000E-08
   22.4099998      -5.61850655E-08
   22.4699993      -5.66356917E-08
   22.5300007      -5.72144998E-08
   22.5900002      -5.79587613E-08
   22.6499996      -5.88803601E-08
   22.7099991      -5.99660837E-08
   22.7700005      -6.11816446E-08
   22.8299999      -6.24785699E-08
   22.8899994      -6.38025099E-08
   22.9500008      -6.51015810E-08
   23.0100002      -6.63333424E-08
   23.0699997      -6.74690952E-08
   23.1299992      -6.84950052E-08
   23.1900005      -6.94095590E-08
   23.2500000      -7.02182845E-08
   23.3099995      -7.09266814E-08
   23.3700008      -7.15334139E-08
   23.4300003      -7.20256921E-08
   23.4899998      -7.23783913E-08
   23.5499992      -7.25573841E-08
   23.6100006      -7.25264258E-08
   23.6700001      -7.22557871E-08
   23.7299995      -7.17301418E-08
   23.7900009      -7.09537105E-08
   23.8500004      -6.99511205E-08
   23.9099998      -6.87640593E-08
   23.9699993      -6.74448302E-08
   24.0300007      -6.60485497E-08
   24.0900002      -6.46261924E-08
   24.1499996      -6.32199075E-08
   24.2099991      -6.18613640E-08
   24.2700005      -6.05728161E-08
   24.3299999      -5.93699703E-08
   24.3899994      -5.82651225E-08
   24.4500008      -5.72694745E-08
   24.5100002      -5.63936702E-08
   24.5699997      -5.56466340E-08
   24.6299992      -5.50333787E-08
   24.6900005      -5.45529097E-08
   24.7500000      -5.41974750E-08
   24.8099995      -5.39537091E-08
   24.8700008      -5.38057456E-08
   24.9300003      -5.37394236E-08
   24.9899998      -5.37463549E-08
   25.0499992      -5.38266605E-08
   25.1100006      -5.39894920E-08
   25.1700001      -5.42513412E-08
   25.2299995      -5.46324976E-08
   25.2900009      -5.51525225E-08
   25.3500004      -5.58256126E-08
   25.4099998      -5.66566527E-08
   25.4699993      -5.76385837E-08
   25.5300007      -5.87516844E-08
   25.5900002      -5.99653376E-08
   25.6499996      -6.12422966E-08
   25.7099991      -6.25452756E-08
   25.7700005      -6.38445457E-08
   25.8299999      -6.51247447E-08
   25.8899994      -6.63888216E-08
   25.9500008      -6.76572753E-08
   26.0100002      -6.89623576E-08
   26.0699997      -7.03381815E-08
   26.1299992      -7.18091897E-08
   26.1900005      -7.33802139E-08
   26.2500000      -7.50307478E-08
   26.3099995      -7.67150681E-08
   26.3700008      -7.83681458E-08
   26.4300003      -7.99156723E-08
   26.4899998      -8.12856626E-08
   26.5499992      -8.24189783E-08
   26.6100006      -8.32766744E-08
   26.6700001      -8.38430054E-08
   26.7299995      -8.41240677E-08
   26.7900009      -8.41426271E-08
   26.8500004      -8.39304946E-08
   26.9099998      -8.35198790E-08
   26.9699993      -8.29355287E-08
   27.0300007      -8.21890609E-08
   27.0900002      -8.12766174E-08
   27.1499996      -8.01802145E-08
   27.2099991      -7.88724179E-08
   27.2700005      -7.73229303E-08
   27.3299999      -7.55055183E-08
   27.3899994      -7.34035055E-08
   27.4500008      -7.10126002E-08
   27.5100002      -6.83407677E-08
   27.5699997      -6.54056009E-08
   27.6299992      -6.22302068E-08
   27.6900005      -5.88388573E-08
   27.7500000      -5.52533272E-08
   27.8099995      -5.14906979E-08
   27.8700008      -4.75627289E-08
   27.9300003      -4.34767813E-08
   27.9899998      -3.92380386E-08
   28.0499992      -3.48524445E-08
   28.1100006      -3.03299572E-08
   28.1700001      -2.56872994E-08
   28.2299995      -2.09496456E-08
   28.2900009      -1.61507145E-08
   28.3500004      -1.13311716E-08
   28.4099998      -6.53566401E-09
   28.4699993      -1.80919368E-09
   28.5300007       2.80632073E-09
   28.5900002       7.27454808E-09
   28.6499996       1.15659535E-08
   28.7099991       1.56578075E-08
   28.7700005       1.95334895E-08
   28.8299999       2.31817161E-08
   28.8899994       2.65962434E-08
   28.9500008       2.97761886E-08
   29.0100002       3.27266640E-08
   29.0699997       3.54591627E-08
   29.1299992       3.79908585E-08
   29.1900005       4.03422575E-08
   29.2500000       4.25332196E-08
   29.3099995       4.45779307E-08
   29.3700008       4.64800394E-08
   29.4300003       4.82295590E-08
   29.4899998       4.98028214E-08
   29.5499992       5.11660723E-08
   29.6100006       5.22821999E-08
   29.6700001       5.31189457E-08
   29.7299995       5.36564606E-08
   29.7900009       5.38918457E-08
   29.8500004       5.38394040E-08
   29.9099998       5.35264775E-08
   29.9699993       5.29862412E-08
   30.0300007       5.22495149E-08
   30.0900002       5.13380165E-08
   30.1499996       5.02605886E-08
   30.2099991       4.90130319E-08
   30.2700005       4.75809223E-08
   30.3299999       4.59443648E-08
   30.3899994       4.40833468E-08
   30.4500008       4.19828261E-08
   30.5100002       3.96370652E-08
   30.5699997       3.70528994E-08
   30.6299992       3.42516628E-08
   30.6900005       3.12692450E-08
   30.7500000       2.81536767E-08
   30.8099995       2.49601069E-08
   30.8700008       2.17436416E-08
   30.9300003       1.85513951E-08
   30.9899998       1.54157149E-08
   31.0499992       1.23504007E-08
   31.1100006       9.35103284E-09
   31.1700001       6.39929976E-09
   31.2299995       3.46991502E-09
   31.2900009       5.37978329E-10
   31.3500004      -2.41538323E-09
   31.4099998      -5.40052270E-09
   31.4699993      -8.42014547E-09
   31.5300007      -1.14725749E-08
   31.5900002      -1.45556722E-08
   31.6499996      -1.76695956E-08
   31.7099991      -2.08171738E-08
   31.7700005      -2.40016966E-08
   31.8299999      -2.72229439E-08
   31.8899994      -3.04729859E-08
   31.9500008      -3.37334285E-08
   32.0099983      -3.69751909E-08
   32.0699997      -4.01611011E-08
   32.1300011      -4.32506084E-08
   32.1899986      -4.62052192E-08
   32.2500000      -4.89932788E-08
   32.3100014      -5.15930800E-08
   32.3699989      -5.39938583E-08
   32.4300003      -5.61950557E-08
   32.4900017      -5.82043533E-08
   32.5499992      -6.00349566E-08
   32.6100006      -6.17023446E-08
   32.6699982      -6.32204902E-08
   32.7299995      -6.45977778E-08
   32.7900009      -6.58332482E-08
   32.8499985      -6.69142892E-08
   32.9099998      -6.78171830E-08
   32.9700012      -6.85111345E-08
   33.0299988      -6.89654911E-08
   33.0900002      -6.91583537E-08
   33.1500015      -6.90838391E-08
   33.2099991      -6.87553978E-08
   33.2700005      -6.82036756E-08
   33.3300018      -6.74694647E-08
   33.3899994      -6.65940263E-08
   33.4500008      -6.56103580E-08
   33.5099983      -6.45384191E-08
   33.5699997      -6.33858690E-08
   33.6300011      -6.21534468E-08
   33.6899986      -6.08425310E-08
   33.7500000      -5.94613425E-08
   33.8100014      -5.80271511E-08
   33.8699989      -5.65636746E-08
   33.9300003      -5.50947448E-08
   33.9900017      -5.36370166E-08
   34.0499992      -5.21946966E-08
   34.1100006      -5.07584694E-08
   34.1699982      -4.93091221E-08
   34.2299995      -4.78246704E-08
   34.2900009      -4.62886653E-08
   34.3499985      -4.46970354E-08
   34.4099998      -4.30615472E-08
   34.4700012      -4.14089740E-08
   34.5299988      -3.97763351E-08
   34.5900002      -3.82036163E-08
   34.6500015      -3.67258615E-08
   34.7099991      -3.53666394E-08
   34.7700005      -3.41345086E-08
   34.8300018      -3.30232872E-08
   34.8899994      -3.20161213E-08
   34.9500008      -3.10920747E-08
   35.0099983      -3.02335081E-08
   35.0699997      -2.94319680E-08
   35.1300011      -2.86908968E-08
   35.1899986      -2.80242585E-08
   35.2500000      -2.74515131E-08
   35.3100014      -2.69905591E-08
   35.3699989      -2.66508735E-08
   35.4300003      -2.64290918E-08
   35.4900017      -2.63083901E-08
   35.5499992      -2.62618904E-08
   35.6100006      -2.62589666E-08
   35.6699982      -2.62724686E-08
   35.7299995      -2.62846349E-08
   35.7900009      -2.62899249E-08
   35.8499985      -2.62939395E-08
   35.9099998      -2.63089230E-08
   35.9700012      -2.63473332E-08
   36.0299988      -2.64157052E-08
   36.0900002      -2.65109321E-08
   36.1500015      -2.66204054E-08
   36.2099991      -2.67260791E-08
   36.2700005      -2.68111933E-08
   36.3300018      -2.68672320E-08
   36.3899994      -2.68984337E-08
   36.4500008      -2.69218763E-08
   36.5099983      -2.69627005E-08
   36.5699997      -2.70458500E-08
   36.6300011      -2.71871521E-08
   36.6899986      -2.73869656E-08
   36.7500000      -2.76287953E-08
   36.8100014      -2.78834111E-08
   36.8699989      -2.81169577E-08
   36.9300003      -2.82999846E-08
   36.9900017      -2.84139805E-08
   37.0499992      -2.84531048E-08
   37.1100006      -2.84207520E-08
   37.1699982      -2.83226615E-08
   37.2299995      -2.81597057E-08
   37.2900009      -2.79235479E-08
   37.3499985      -2.75972418E-08
   37.4099998      -2.71608300E-08
   37.4700012      -2.66001567E-08
   37.5299988      -2.59158082E-08
   37.5900002      -2.51290100E-08
   37.6500015      -2.42822829E-08
   37.7099991      -2.34342483E-08
   37.7700005      -2.26496670E-08
   37.8300018      -2.19871712E-08
   37.8899994      -2.14876277E-08
   37.9500008      -2.11659987E-08
   38.0099983      -2.10086633E-08
   38.0699997      -2.09769357E-08
   38.1300011      -2.10161506E-08
   38.1899986      -2.10683488E-08
   38.2500000      -2.10857518E-08
   38.3100014      -2.10418794E-08
   38.3699989      -2.09375983E-08
   38.4300003      -2.08004991E-08
   38.4900017      -2.06775983E-08
   38.5499992      -2.06231139E-08
   38.6100006      -2.06842685E-08
   38.6699982      -2.08888338E-08
   38.7299995      -2.12375380E-08
   38.7900009      -2.17033964E-08
   38.8499985      -2.22380550E-08
   38.9099998      -2.27834143E-08
   38.9700012      -2.32853719E-08
   39.0299988      -2.37058924E-08
   39.0900002      -2.40301041E-08
   39.1500015      -2.42665052E-08
   39.2099991      -2.44403964E-08
   39.2700005      -2.45825831E-08
   39.3300018      -2.47169822E-08
   39.3899994      -2.48510510E-08
   39.4500008      -2.49721754E-08
   39.5099983      -2.50512429E-08
   39.5699997      -2.50522927E-08
   39.6300011      -2.49450558E-08
   39.6899986      -2.47162486E-08
   39.7500000      -2.43758613E-08
   39.8100014      -2.39563267E-08
   39.8699989      -2.35049082E-08
   39.9300003      -2.30717099E-08
   39.9900017      -2.26970993E-08
   40.0499992      -2.24021797E-08
   40.1100006      -2.21848317E-08
   40.1699982      -2.20218919E-08
   40.2299995      -2.18763230E-08
   40.2900009      -2.17071161E-08
   40.3499985      -2.14793534E-08
   40.4099998      -2.11724203E-08
   40.4700012      -2.07850395E-08
   40.5299988      -2.03366071E-08
   40.5900002      -1.98647587E-08
   40.6500015      -1.94194509E-08
   40.7099991      -1.90541147E-08
   40.7700005      -1.88150970E-08
   40.8300018      -1.87312210E-08
   40.8899994      -1.88059026E-08
   40.9500008      -1.90142870E-08
   41.0099983      -1.93070431E-08
   41.0699997      -1.96207637E-08
   41.1300011      -1.98929264E-08
   41.1899986      -2.00775734E-08
   41.2500000      -2.01571453E-08
   41.3100014      -2.01467767E-08
   41.3699989      -2.00894270E-08
   41.4300003      -2.00431955E-08
   41.4900017      -2.00647019E-08
   41.5499992      -2.01937969E-08
   41.6100006      -2.04444071E-08
   41.6699982      -2.08041815E-08
   41.7299995      -2.12426094E-08
   41.7900009      -2.17244001E-08
   41.8499985      -2.22232472E-08
   41.9099998      -2.27312551E-08
   41.9700012      -2.32610713E-08
   42.0299988      -2.38404088E-08
   42.0900002      -2.45013378E-08
   42.1500015      -2.52682604E-08
   42.2099991      -2.61486655E-08
   42.2700005      -2.71294631E-08
   42.3300018      -2.81797252E-08
   42.3899994      -2.92584463E-08
   42.4500008      -3.03246530E-08
   42.5099983      -3.13467332E-08
   42.5699997      -3.23084421E-08
   42.6300011      -3.32102843E-08
   42.6899986      -3.40663000E-08
   42.7500000      -3.48975107E-08
   42.8100014      -3.57239180E-08
   42.8699989      -3.65572852E-08
   42.9300003      -3.73965499E-08
   42.9900017      -3.82272205E-08
   43.0499992      -3.90251174E-08
   43.1100006      -3.97636946E-08
   43.1699982      -4.04232949E-08
   43.2299995      -4.09997476E-08
   43.2900009      -4.15098640E-08
   43.3499985      -4.19918464E-08
   43.4099998      -4.25000728E-08
   43.4700012      -4.30952340E-08
   43.5299988      -4.38323333E-08
   43.5900002      -4.47496937E-08
   43.6500015      -4.58619631E-08
   43.7099991      -4.71588457E-08
   43.7700005      -4.86097562E-08
   43.8300018      -5.01727229E-08
   43.8899994      -5.18049781E-08
   43.9500008      -5.34722631E-08
   44.0099983      -5.51546684E-08
   44.0699997      -5.68480338E-08
   44.1300011      -5.85613371E-08
   44.1899986      -6.03116774E-08
   44.2500000      -6.21188079E-08
   44.3100014      -6.40011564E-08
   44.3699989      -6.59746746E-08
   44.4300003      -6.80547814E-08
   44.4900017      -7.02611729E-08
   44.5499992      -7.26244238E-08
   44.6100006      -7.51929718E-08
   44.6699982      -7.80393208E-08
   44.7299995      -8.12642185E-08
   44.7900009      -8.49983763E-08
   44.8499985      -8.94018868E-08
   44.9099998      -9.46623686E-08
   44.9700012      -1.00993326E-07
   45.0299988      -1.08634580E-07
   45.0900002      -1.17856082E-07
   45.1500015      -1.28965539E-07
   45.2099991      -1.42319365E-07
   45.2700005      -1.58335112E-07
   45.3300018      -1.77503836E-07
   45.3899994      -2.00400279E-07
   45.4500008      -2.27690606E-07
   45.5099983      -2.60137938E-07
   45.5699997      -2.98606921E-07
   45.6300011      -3.44069576E-07
   45.6899986      -3.97613292E-07
   45.7500000      -4.60452497E-07
   45.8100014      -5.33943705E-07
   45.8699989      -6.19603782E-07
   45.9300003      -7.19131322E-07
   45.9900017      -8.34429216E-07
   46.0499992      -9.67630285E-07
   46.1100006      -1.12112298E-06
   46.1699982      -1.29757950E-06
   46.2299995      -1.49998277E-06
   46.2900009      -1.73165370E-06
   46.3499985      -1.99627470E-06
   46.4099998      -2.29791431E-06
   46.4700012      -2.64104960E-06
   46.5299988      -3.03058778E-06
   46.5900002      -3.47189325E-06
   46.6500015      -3.97081385E-06
   46.7099991      -4.53370967E-06
   46.7700005      -5.16748605E-06
   46.8300018      -5.87962177E-06
   46.8899994      -6.67819268E-06
   46.9500008      -7.57189036E-06
   47.0099983      -8.57003761E-06
   47.0699997      -9.68258882E-06
   47.1300011      -1.09201392E-05
   47.1899986      -1.22939127E-05
   47.2500000      -1.38157693E-05
   47.3100014      -1.54981935E-05
   47.3699989      -1.73542921E-05
   47.4300003      -1.93977685E-05
   47.4900017      -2.16428980E-05
   47.5499992      -2.41044872E-05
   47.6100006      -2.67978194E-05
   47.6699982      -2.97385795E-05
   47.7299995      -3.29427749E-05
   47.7900009      -3.64266525E-05
   47.8499985      -4.02065889E-05
   47.9099998      -4.42990131E-05
   47.9700012      -4.87202669E-05
   48.0299988      -5.34865212E-05
   48.0900002      -5.86136266E-05
   48.1500015      -6.41169900E-05
   48.2099991      -7.00114542E-05
   48.2700005      -7.63110875E-05
   48.3300018      -8.30290883E-05
   48.3899994      -9.01775493E-05
   48.4500008      -9.77673044E-05
   48.5099983      -1.05807754E-04
   48.5699997      -1.14306669E-04
   48.6300011      -1.23270031E-04
   48.6899986      -1.32701913E-04
   48.7500000      -1.42604244E-04
   48.8100014      -1.52976718E-04
   48.8699989      -1.63816643E-04
   48.9300003      -1.75118854E-04
   48.9900017      -1.86875593E-04
   49.0499992      -1.99076443E-04
   49.1100006      -2.11708219E-04
   49.1699982      -2.24754971E-04
   49.2299995      -2.38197958E-04
   49.2900009      -2.52015569E-04
   49.3499985      -2.66183517E-04
   49.4099998      -2.80674780E-04
   49.4700012      -2.95459846E-04
   49.5299988      -3.10506672E-04
   49.5900002      -3.25781031E-04
   49.6500015      -3.41246690E-04
   49.7099991      -3.56865523E-04
   49.7700005      -3.72597890E-04
   49.8300018      -3.88402812E-04
   49.8899994      -4.04238410E-04
   49.9500008      -4.20062192E-04
   50.0099983      -4.35831345E-04
   50.0699997      -4.51503234E-04
   50.1300011      -4.67035687E-04
   50.1899986      -4.82387433E-04
   50.2500000      -4.97518398E-04
   50.3100014      -5.12390281E-04
   50.3699989      -5.26966644E-04
   50.4300003      -5.41213492E-04
   50.4900017      -5.55099803E-04
   50.5499992      -5.68597345E-04
   50.6100006      -5.81681496E-04