  -2.400000      0.0000000E+00
  -2.340000      0.0000000E+00
  -2.280000      0.0000000E+00
  -2.220000      0.0000000E+00
  -2.160000      0.0000000E+00
  -2.100000      0.0000000E+00
  -2.040000      1.2743031E-22
  -1.980000      1.0270577E-21
  -1.920000      3.6271082E-21
  -1.860000      5.1845322E-21
  -1.800000     -1.1646460E-20
  -1.740000     -9.1451079E-20
  -1.680000     -2.9524472E-19
  -1.620000     -6.2408063E-19
  -1.560000     -8.5676705E-19
  -1.500000     -3.7694809E-19
  -1.440000      1.7849387E-18
  -1.380000      6.3846403E-18
  -1.320000      1.2737897E-17
  -1.260000      1.7260755E-17
  -1.200000      1.2978192E-17
  -1.140000     -8.3761624E-18
  -1.080000     -5.0752762E-17
  -1.020000     -1.0597918E-16
 -0.9600000     -1.4812478E-16
 -0.9000000     -1.3633996E-16
 -0.8400000     -3.0787861E-17
 -0.7800000      1.8024399E-16
 -0.7200000      4.5345745E-16
 -0.6600000      6.8231204E-16
 -0.6000000      7.2366038E-16
 -0.5400000      4.6042355E-16
 -0.4800000     -1.2226849E-16
 -0.4200000     -8.8975337E-16
 -0.3600000     -1.5811109E-15
 -0.3000000     -1.9148948E-15
 -0.2400000     -1.7377179E-15
 -0.1800000     -1.1303386E-15
 -0.1200000     -3.8139927E-16
 -5.9999999E-02  2.0237130E-16
  0.0000000E+00  5.7273896E-16
  5.9999999E-02  1.1247525E-15
  0.1200000      2.5914967E-15
  0.1800000      5.5652047E-15
  0.2400000      9.7917119E-15
  0.3000000      1.3625811E-14
  0.3600000      1.4127155E-14
  0.4200000      8.0929551E-15
  0.4800000     -6.1349008E-15
  0.5400000     -2.6808427E-14
  0.6000000     -4.7928573E-14
  0.6600000     -6.0338927E-14
  0.7200000     -5.4937906E-14
  0.7800000     -2.7079796E-14
  0.8400000      1.9727535E-14
  0.9000000      7.2945874E-14
  0.9600000      1.1421269E-13
   1.020000      1.2611957E-13
   1.080000      1.0008199E-13
   1.140000      4.1660560E-14
   1.200000     -2.9838226E-14
   1.260000     -8.8429237E-14
   1.320000     -1.1292975E-13
   1.380000     -9.7883046E-14
   1.440000     -5.8229287E-14
   1.500000     -2.4072319E-14
   1.560000     -2.6205510E-14
   1.620000     -7.7909182E-14
   1.680000     -1.6160567E-13
   1.740000     -2.2842402E-13
   1.800000     -2.1418984E-13
   1.860000     -6.8252363E-14
   1.920000      2.1527157E-13
   1.980000      5.7770206E-13
   2.040000      8.9930282E-13
   2.100000      1.0304767E-12
   2.160000      8.4436830E-13
   2.220000      2.9455477E-13
   2.280000     -5.4384589E-13
   2.340000     -1.4692104E-12
   2.400000     -2.1942233E-12
   2.460000     -2.4268376E-12
   2.520000     -1.9698945E-12
   2.580000     -8.0725010E-13
   2.640000      8.5647456E-13
   2.700000      2.6241340E-12
   2.760000      4.0028679E-12
   2.820000      4.5454851E-12
   2.880000      3.9932107E-12
   2.940000      2.3709652E-12
   3.000000     -1.4333532E-15
   3.060000     -2.5912727E-12
   3.120000     -4.8036661E-12
   3.180000     -6.1499256E-12
   3.240000     -6.3745511E-12
   3.300000     -5.4972255E-12
   3.360000     -3.7600227E-12
   3.420000     -1.5086769E-12
   3.480000      9.3652657E-13
   3.540000      3.3621207E-12
   3.600000      5.6607128E-12
   3.660000      7.7537560E-12
   3.720000      9.4819022E-12
   3.780000      1.0525719E-11
   3.840000      1.0408879E-11
   3.900000      8.5990685E-12
   3.960000      4.6742931E-12
   4.020000     -1.5145232E-12
   4.080000     -9.7620254E-12
   4.140000     -1.9558417E-11
   4.200000     -3.0268014E-11
   4.260000     -4.1374366E-11
   4.320000     -5.2690529E-11
   4.380000     -6.4433098E-11
   4.440000     -7.7102387E-11
   4.500000     -9.1186073E-11
   4.560000     -1.0678208E-10
   4.620000     -1.2328466E-10
   4.680000     -1.3927320E-10
   4.740000     -1.5268074E-10
   4.800000     -1.6121765E-10
   4.860000     -1.6292495E-10
   4.920000     -1.5667133E-10
   4.980000     -1.4241777E-10
   5.040000     -1.2115352E-10
   5.100000     -9.4527795E-11
   5.160000     -6.4314221E-11
   5.220000     -3.1902713E-11
   5.280000      2.0081441E-12
   5.340000      3.7435551E-11
   5.400000      7.4890420E-11
   5.460000      1.1503819E-10
   5.520000      1.5839970E-10
   5.580000      2.0520351E-10
   5.640000      2.5540775E-10
   5.700000      3.0882227E-10
   5.760000      3.6522083E-10
   5.820000      4.2435977E-10
   5.880000      4.8589865E-10
   5.940000      5.4929555E-10
   6.000000      6.1379074E-10
   6.060000      6.7855926E-10
   6.120000      7.4302697E-10
   6.180000      8.0724266E-10
   6.240000      8.7214053E-10
   6.300000      9.3953911E-10
   6.360000      1.0118092E-09
   6.420000      1.0912690E-09
   6.480000      1.1794636E-09
   6.540000      1.2765331E-09
   6.600000      1.3808270E-09
   6.660000      1.4888393E-09
   6.720000      1.5954277E-09
   6.780000      1.6942160E-09
   6.840000      1.7780709E-09
   6.900000      1.8395840E-09
   6.960000      1.8715551E-09
   7.020000      1.8675046E-09
   7.080000      1.8222333E-09
   7.140000      1.7324009E-09
   7.200000      1.5970097E-09
   7.260000      1.4176470E-09
   7.320000      1.1983464E-09
   7.380000      9.4501473E-10
   7.440000      6.6449374E-10
   7.500000      3.6346151E-10
   7.560000      4.7456747E-11
   7.620000     -2.7969427E-10
   7.680000     -6.1585786E-10
   7.740000     -9.5994479E-10
   7.800000     -1.3107607E-09
   7.860000     -1.6656105E-09
   7.920000     -2.0189577E-09
   7.980000     -2.3614111E-09
   8.040000     -2.6792253E-09
   8.100000     -2.9543863E-09
   8.160000     -3.1652672E-09
   8.220000     -3.2877601E-09
   8.280000     -3.2967529E-09
   8.340000     -3.1677760E-09
   8.400000     -2.8786034E-09
   8.460000     -2.4105631E-09
   8.520000     -1.7493251E-09
   8.580000     -8.8501623E-10
   8.640000      1.8831951E-10
   8.700000      1.4736696E-09
   8.760000      2.9719776E-09
   8.820000      4.6825082E-09
   8.880000      6.6022272E-09
   8.940000      8.7240712E-09
   9.000000      1.1034405E-08
   9.060000      1.3510360E-08
   9.120000      1.6118012E-08
   9.180000      1.8812258E-08
   9.240000      2.1538897E-08
   9.300000      2.4238814E-08
   9.360000      2.6853566E-08
   9.420000      2.9331222E-08
   9.480000      3.1631117E-08
   9.540000      3.3726497E-08
   9.600000      3.5604394E-08
   9.660000      3.7262783E-08
   9.720000      3.8705636E-08
   9.780000      3.9936872E-08
   9.840000      4.0954507E-08
   9.900000      4.1746237E-08
   9.960000      4.2287454E-08
   10.02000      4.2542379E-08
   10.08000      4.2468223E-08
   10.14000      4.2021831E-08
   10.20000      4.1167613E-08
   10.26000      3.9885229E-08
   10.32000      3.8175457E-08
   10.38000      3.6063135E-08
   10.44000      3.3596525E-08
   10.50000      3.0843392E-08
   10.56000      2.7884623E-08
   10.62000      2.4806662E-08
   10.68000      2.1694040E-08
   10.74000      1.8623130E-08
   10.80000      1.5657776E-08
   10.86000      1.2847075E-08
   10.92000      1.0225214E-08
   10.98000      7.8129334E-09
   11.04000      5.6201337E-09
   11.10000      3.6489305E-09
   11.16000      1.8965696E-09
   11.22000      3.5767378E-10
   11.28000     -9.7447761E-10
   11.34000     -2.1076525E-09
   11.40000     -3.0511251E-09
   11.46000     -3.8164818E-09
   11.52000     -4.4183537E-09
   11.58000     -4.8747903E-09
   11.64000     -5.2071765E-09
   11.70000     -5.4397704E-09
   11.76000     -5.5990332E-09
   11.82000     -5.7128728E-09
   11.88000     -5.8098251E-09
   11.94000     -5.9181056E-09
   12.00000     -6.0644152E-09
   12.06000     -6.2724386E-09
   12.12000     -6.5611077E-09
   12.18000     -6.9428228E-09
   12.24000     -7.4219506E-09
   12.30000     -7.9939673E-09
   12.36000     -8.6455918E-09
   12.42000     -9.3561559E-09
   12.48000     -1.0100262E-08
   12.54000     -1.0851467E-08
   12.60000     -1.1586420E-08
   12.66000     -1.2288564E-08
   12.72000     -1.2950460E-08
   12.78000     -1.3573963E-08
   12.84000     -1.4168022E-08
   12.90000     -1.4744602E-08
   12.96000     -1.5313859E-08
   13.02000     -1.5880016E-08
   13.08000     -1.6439245E-08
   13.14000     -1.6980158E-08
   13.20000     -1.7486636E-08
   13.26000     -1.7941879E-08
   13.32000     -1.8332202E-08
   13.38000     -1.8649235E-08
   13.44000     -1.8889835E-08
   13.50000     -1.9053806E-08
   13.56000     -1.9140231E-08
   13.62000     -1.9143636E-08
   13.68000     -1.9051075E-08
   13.74000     -1.8840934E-08
   13.80000     -1.8483838E-08
   13.86000     -1.7945574E-08
   13.92000     -1.7191653E-08
   13.98000     -1.6192871E-08
   14.04000     -1.4931006E-08
   14.10000     -1.3403630E-08
   14.16000     -1.1626978E-08
   14.22000     -9.6360599E-09
   14.28000     -7.4817059E-09
   14.34000     -5.2249254E-09
   14.40000     -2.9296587E-09
   14.46000     -6.5542477E-10
   14.52000      1.5486344E-09
   14.58000      3.6472756E-09
   14.64000      5.6199521E-09
   14.70000      7.4593460E-09
   14.76000      9.1685699E-09
   14.82000      1.0758052E-08
   14.88000      1.2242771E-08
   14.94000      1.3640045E-08
   15.00000      1.4967597E-08
   15.06000      1.6241509E-08
   15.12000      1.7473809E-08
   15.18000      1.8669828E-08
   15.24000      1.9825942E-08
   15.30000      2.0928431E-08
   15.36000      2.1954184E-08
   15.42000      2.2873493E-08
   15.48000      2.3654620E-08
   15.54000      2.4269266E-08
   15.60000      2.4697743E-08
   15.66000      2.4932655E-08
   15.72000      2.4980228E-08
   15.78000      2.4858984E-08
   15.84000      2.4596162E-08
   15.90000      2.4222766E-08
   15.96000      2.3768518E-08
   16.02000      2.3257911E-08
   16.08000      2.2708297E-08
   16.14000      2.2130328E-08
   16.20000      2.1530392E-08
   16.26000      2.0914161E-08
   16.32000      2.0290054E-08
   16.38000      1.9671512E-08
   16.44000      1.9077481E-08
   16.50000      1.8531001E-08
   16.56000      1.8056516E-08
   16.62000      1.7676767E-08
   16.68000      1.7410247E-08
   16.74000      1.7269826E-08
   16.80000      1.7262773E-08
   16.86000      1.7391883E-08
   16.92000      1.7657142E-08
   16.98000      1.8057262E-08
   17.04000      1.8590569E-08
   17.10000      1.9254896E-08
   17.16000      2.0046528E-08
   17.22000      2.0958415E-08
   17.28000      2.1978195E-08
   17.34000      2.3086601E-08
   17.40000      2.4256895E-08
   17.46000      2.5455785E-08
   17.52000      2.6645953E-08
   17.58000      2.7789898E-08
   17.64000      2.8854306E-08
   17.70000      2.9813961E-08
   17.76000      3.0654149E-08
   17.82000      3.1370895E-08
   17.88000      3.1969059E-08
   17.94000      3.2458850E-08
   18.00000      3.2851972E-08
   18.06000      3.3158546E-08
   18.12000      3.3385668E-08
   18.18000      3.3537816E-08
   18.24000      3.3618473E-08
   18.30000      3.3631888E-08
   18.36000      3.3583806E-08
   18.42000      3.3480482E-08
   18.48000      3.3325943E-08
   18.54000      3.3118415E-08
   18.60000      3.2847275E-08
   18.66000      3.2491883E-08
   18.72000      3.2023202E-08
   18.78000      3.1408241E-08
   18.84000      3.0616381E-08
   18.90000      2.9626083E-08
   18.96000      2.8430238E-08
   19.02000      2.7038750E-08
   19.08000      2.5477608E-08
   19.14000      2.3784576E-08
   19.20000      2.2002359E-08
   19.26000      2.0170697E-08
   19.32000      1.8318993E-08
   19.38000      1.6461076E-08
   19.44000      1.4593229E-08
   19.50000      1.2695990E-08
   19.56000      1.0739444E-08
   19.62000      8.6908658E-09
   19.68000      6.5229449E-09
   19.74000      4.2205821E-09
   19.80000      1.7845032E-09
   19.86000     -7.6924023E-10
   19.92000     -3.4136647E-09
   19.98000     -6.1177921E-09
   20.04000     -8.8540251E-09
   20.10000     -1.1603746E-08
   20.16000     -1.4359548E-08
   20.22000     -1.7123623E-08
   20.28000     -1.9903041E-08
   20.34000     -2.2703595E-08
   20.40000     -2.5524178E-08
   20.46000     -2.8353309E-08
   20.52000     -3.1168636E-08
   20.58000     -3.3939269E-08
   20.64000     -3.6629995E-08
   20.70000     -3.9206185E-08
   20.76000     -4.1638188E-08
   20.82000     -4.3904421E-08
   20.88000     -4.5992813E-08
   20.94000     -4.7900674E-08
   21.00000     -4.9633314E-08
   21.06000     -5.1201734E-08
   21.12000     -5.2619949E-08
   21.18000     -5.3902369E-08
   21.24000     -5.5061715E-08
   21.30000     -5.6107925E-08
   21.36000     -5.7048172E-08
   21.42000     -5.7887963E-08
   21.48000     -5.8632818E-08
   21.54000     -5.9289821E-08
   21.60000     -5.9868277E-08
   21.66000     -6.0379016E-08
   21.72000     -6.0832100E-08
   21.78000     -6.1233550E-08
   21.84000     -6.1581858E-08
   21.90000     -6.1865514E-08
   21.96000     -6.2062504E-08
   22.02000     -6.2142441E-08
   22.08000     -6.2071152E-08
   22.14000     -6.1817062E-08
   22.20000     -6.1357852E-08
   22.26000     -6.0685913E-08
   22.32000     -5.9811128E-08
   22.38000     -5.8760264E-08
   22.44000     -5.7573057E-08
   22.50000     -5.6296024E-08
   22.56000     -5.4975594E-08
   22.62000     -5.3652272E-08
   22.68000     -5.2357120E-08
   22.74000     -5.1111090E-08
   22.80000     -4.9926832E-08
   22.86000     -4.8811930E-08
   22.92000     -4.7772318E-08
   22.98000     -4.6814765E-08
   23.04000     -4.5947850E-08
   23.10000     -4.5181448E-08
   23.16000     -4.4525169E-08
   23.22000     -4.3986361E-08
   23.28000     -4.3568367E-08
   23.34000     -4.3269356E-08
   23.40000     -4.3082149E-08
   23.46000     -4.2995108E-08
   23.52000     -4.2994156E-08
   23.58000     -4.3065814E-08
   23.64000     -4.3200863E-08
   23.70000     -4.3397907E-08
   23.76000     -4.3665921E-08
   23.82000     -4.4024777E-08
   23.88000     -4.4503096E-08
   23.94000     -4.5133380E-08
   24.00000     -4.5945008E-08
   24.06000     -4.6956632E-08
   24.12000     -4.8169554E-08
   24.18000     -4.9563884E-08
   24.24000     -5.1098553E-08
   24.30000     -5.2715539E-08
   24.36000     -5.4347652E-08
   24.42000     -5.5928357E-08
   24.48000     -5.7401767E-08
   24.54000     -5.8730695E-08
   24.60000     -5.9901133E-08
   24.66000     -6.0922346E-08
   24.72000     -6.1822597E-08
   24.78000     -6.2641647E-08
   24.84000     -6.3421680E-08
   24.90000     -6.4198801E-08
   24.96000     -6.4996883E-08
   25.02000     -6.5824700E-08
   25.08000     -6.6676677E-08
   25.14000     -6.7536241E-08
   25.20000     -6.8380487E-08
   25.26000     -6.9184445E-08
   25.32000     -6.9923736E-08
   25.38000     -7.0575098E-08
   25.44000     -7.1115053E-08
   25.50000     -7.1517604E-08
   25.56000     -7.1752311E-08
   25.62000     -7.1783845E-08
   25.68000     -7.1573794E-08
   25.74000     -7.1084720E-08
   25.80000     -7.0285829E-08
   25.86000     -6.9158922E-08
   25.92000     -6.7703191E-08
   25.98000     -6.5937385E-08
   26.04000     -6.3898582E-08
   26.10000     -6.1637401E-08
   26.16000     -5.9210688E-08
   26.22000     -5.6673141E-08
   26.28000     -5.4069876E-08
   26.34000     -5.1431574E-08
   26.40000     -4.8773163E-08
   26.46000     -4.6095856E-08
   26.52000     -4.3391577E-08
   26.58000     -4.0648057E-08
   26.64000     -3.7853031E-08
   26.70000     -3.4996525E-08
   26.76000     -3.2071117E-08
   26.82000     -2.9070911E-08
   26.88000     -2.5990435E-08
   26.94000     -2.2824700E-08
   27.00000     -1.9571029E-08
   27.06000     -1.6232516E-08
   27.12000     -1.2822264E-08
   27.18000     -9.3669819E-09
   27.24000     -5.9085927E-09
   27.30000     -2.5028384E-09
   27.36000      7.8539975E-10
   27.42000      3.8895780E-09
   27.48000      6.7505219E-09
   27.54000      9.3253236E-09
   27.60000      1.1594277E-08
   27.66000      1.3564331E-08
   27.72000      1.5268228E-08
   27.78000      1.6759390E-08
   27.84000      1.8103561E-08
   27.90000      1.9368928E-08
   27.96000      2.0616651E-08
   28.02000      2.1893495E-08
   28.08000      2.3227466E-08
   28.14000      2.4626630E-08
   28.20000      2.6080464E-08
   28.26000      2.7562832E-08
   28.32000      2.9035737E-08
   28.38000      3.0453489E-08
   28.44000      3.1767115E-08
   28.50000      3.2929172E-08
   28.56000      3.3898861E-08
   28.62000      3.4646884E-08
   28.68000      3.5159335E-08
   28.74000      3.5439470E-08
   28.80000      3.5506933E-08
   28.86000      3.5394237E-08
   28.92000      3.5141245E-08
   28.98000      3.4788719E-08
   29.04000      3.4372352E-08
   29.10000      3.3918248E-08
   29.16000      3.3440458E-08
   29.22000      3.2940658E-08
   29.28000      3.2409712E-08
   29.34000      3.1830478E-08
   29.40000      3.1181411E-08
   29.46000      3.0440322E-08
   29.52000      2.9587717E-08
   29.58000      2.8609318E-08
   29.64000      2.7497386E-08
   29.70000      2.6250914E-08
   29.76000      2.4874875E-08
   29.82000      2.3379132E-08
   29.88000      2.1777458E-08
   29.94000      2.0087027E-08
   30.00000      1.8328183E-08
   30.06000      1.6524082E-08
   30.12000      1.4699601E-08
   30.18000      1.2879206E-08
   30.24000      1.1083872E-08
   30.30000      9.3277386E-09
   30.36000      7.6154203E-09
   30.42000      5.9408727E-09
   30.48000      4.2882493E-09
   30.54000      2.6346865E-09
   30.60000      9.5442343E-10
   30.66000     -7.7654400E-10
   30.72000     -2.5760727E-09
   30.78000     -4.4523789E-09
   30.84000     -6.4019168E-09
   30.90000     -8.4089908E-09
   30.96000     -1.0447384E-08
   31.02000     -1.2484050E-08
   31.08000     -1.4484493E-08
   31.14000     -1.6418936E-08
   31.20000     -1.8267853E-08
   31.26000     -2.0025372E-08
   31.32000     -2.1699407E-08
   31.38000     -2.3308321E-08
   31.44000     -2.4874970E-08
   31.50000     -2.6419825E-08
   31.56000     -2.7955096E-08
   31.62000     -2.9481358E-08
   31.68000     -3.0987213E-08
   31.74000     -3.2451460E-08
   31.80000     -3.3846643E-08
   31.86000     -3.5142580E-08
   31.92000     -3.6309117E-08
   31.98000     -3.7317882E-08
   32.04000     -3.8143508E-08
   32.10000     -3.8765013E-08
   32.16000     -3.9167737E-08
   32.22000     -3.9345782E-08
   32.28000     -3.9304346E-08
   32.34000     -3.9061039E-08
   32.40000     -3.8645403E-08
   32.46000     -3.8096147E-08
   32.52000     -3.7456442E-08
   32.58000     -3.6767950E-08
   32.64000     -3.6064908E-08
   32.70000     -3.5369411E-08
   32.76000     -3.4689020E-08
   32.82000     -3.4017223E-08
   32.88000     -3.3336583E-08
   32.94000     -3.2623984E-08
   33.00000     -3.1856828E-08
   33.06000     -3.1018914E-08
   33.12000     -3.0104925E-08
   33.18000     -2.9122777E-08
   33.24000     -2.8093526E-08
   33.30000     -2.7048895E-08
   33.36000     -2.6026896E-08
   33.42000     -2.5066100E-08
   33.48000     -2.4199387E-08
   33.54000     -2.3448111E-08
   33.60000     -2.2817817E-08
   33.66000     -2.2296559E-08
   33.72000     -2.1856609E-08
   33.78000     -2.1459661E-08
   33.84000     -2.1064723E-08
   33.90000     -2.0637016E-08
   33.96000     -2.0155690E-08
   34.02000     -1.9618293E-08
   34.08000     -1.9040742E-08
   34.14000     -1.8452930E-08
   34.20000     -1.7891347E-08
   34.26000     -1.7391026E-08
   34.32000     -1.6979198E-08
   34.38000     -1.6672239E-08
   34.44000     -1.6476269E-08
   34.50000     -1.6390457E-08
   34.56000     -1.6411327E-08
   34.62000     -1.6536296E-08
   34.68000     -1.6765378E-08
   34.74000     -1.7100970E-08
   34.80000     -1.7546457E-08
   34.86000     -1.8104815E-08
   34.92000     -1.8778012E-08
   34.98000     -1.9567373E-08
   35.04000     -2.0474417E-08
   35.10000     -2.1501242E-08
   35.16000     -2.2649752E-08
   35.22000     -2.3919629E-08
   35.28000     -2.5305665E-08
   35.34000     -2.6795554E-08
   35.40000     -2.8369204E-08
   35.46000     -3.0000056E-08
   35.52000     -3.1658214E-08
   35.58000     -3.3314386E-08
   35.64000     -3.4943351E-08
   35.70000     -3.6525982E-08
   35.76000     -3.8049237E-08
   35.82000     -3.9504400E-08
   35.88000     -4.0884359E-08
   35.94000     -4.2180908E-08
   36.00000     -4.3382975E-08
   36.06000     -4.4476245E-08
   36.12000     -4.5444263E-08
   36.18000     -4.6270539E-08
   36.24000     -4.6941089E-08
   36.30000     -4.7446669E-08
   36.36000     -4.7784155E-08
   36.42000     -4.7956778E-08
   36.48000     -4.7973195E-08
   36.54000     -4.7845784E-08
   36.60000     -4.7588600E-08
   36.66000     -4.7215629E-08
   36.72000     -4.6739601E-08
   36.78000     -4.6171646E-08
   36.84000     -4.5521553E-08
   36.90000     -4.4798508E-08
   36.96000     -4.4012026E-08
   37.02000     -4.3172943E-08
   37.08000     -4.2294324E-08
   37.14000     -4.1392173E-08
   37.20000     -4.0485581E-08
   37.26000     -3.9595953E-08
   37.32000     -3.8745007E-08
   37.38000     -3.7951491E-08
   37.44000     -3.7227334E-08
   37.50000     -3.6574171E-08
   37.56000     -3.5981799E-08
   37.62000     -3.5429437E-08
   37.68000     -3.4890235E-08
   37.74000     -3.4338036E-08
   37.80000     -3.3754670E-08
   37.86000     -3.3135471E-08
   37.92000     -3.2491215E-08
   37.98000     -3.1845804E-08
   38.04000     -3.1230378E-08
   38.10000     -3.0675878E-08
   38.16000     -3.0206493E-08
   38.22000     -2.9835935E-08
   38.28000     -2.9567326E-08
   38.34000     -2.9395983E-08
   38.40000     -2.9313389E-08
   38.46000     -2.9310408E-08
   38.52000     -2.9378512E-08
   38.58000     -2.9508985E-08
   38.64000     -2.9691265E-08
   38.70000     -2.9911892E-08
   38.76000     -3.0155348E-08
   38.82000     -3.0406817E-08
   38.88000     -3.0655766E-08
   38.94000     -3.0898644E-08
   39.00000     -3.1139098E-08
   39.06000     -3.1385323E-08
   39.12000     -3.1645403E-08
   39.18000     -3.1922578E-08
   39.24000     -3.2212515E-08
   39.30000     -3.2503742E-08
   39.36000     -3.2781067E-08
   39.42000     -3.3030382E-08
   39.48000     -3.3242696E-08
   39.54000     -3.3415702E-08
   39.60000     -3.3552311E-08
   39.66000     -3.3657113E-08
   39.72000     -3.3732576E-08
   39.78000     -3.3776903E-08
   39.84000     -3.3784520E-08
   39.90000     -3.3748808E-08
   39.96000     -3.3665696E-08
   40.02000     -3.3536157E-08
   40.08000     -3.3366444E-08
   40.14000     -3.3165829E-08
   40.20000     -3.2943078E-08
   40.26000     -3.2703340E-08
   40.32000     -3.2447055E-08
   40.38000     -3.2171450E-08
   40.44000     -3.1873821E-08
   40.50000     -3.1554951E-08
   40.56000     -3.1220754E-08
   40.62000     -3.0880987E-08
   40.68000     -3.0545198E-08
   40.74000     -3.0217485E-08
   40.80000     -2.9892149E-08
   40.86000     -2.9552373E-08
   40.92000     -2.9172876E-08
   40.98000     -2.8726006E-08
   41.04000     -2.8189554E-08
   41.10000     -2.7553781E-08
   41.16000     -2.6825576E-08
   41.22000     -2.6028548E-08
   41.28000     -2.5199171E-08
   41.34000     -2.4380276E-08
   41.40000     -2.3613657E-08
   41.46000     -2.2933593E-08
   41.52000     -2.2362370E-08
   41.58000     -2.1908239E-08
   41.64000     -2.1565482E-08
   41.70000     -2.1316003E-08
   41.76000     -2.1131841E-08
   41.82000     -2.0978193E-08
   41.88000     -2.0816811E-08
   41.94000     -2.0609709E-08
   42.00000     -2.0323053E-08
   42.06000     -1.9930996E-08
   42.12000     -1.9418993E-08
   42.18000     -1.8786151E-08
   42.24000     -1.8046288E-08
   42.30000     -1.7227585E-08
   42.36000     -1.6370958E-08
   42.42000     -1.5527482E-08
   42.48000     -1.4755157E-08
   42.54000     -1.4115365E-08
   42.60000     -1.3669241E-08
   42.66000     -1.3474276E-08
   42.72000     -1.3581607E-08
   42.78000     -1.4034569E-08
   42.84000     -1.4869211E-08
   42.90000     -1.6117204E-08
   42.96000     -1.7811200E-08
   43.02000     -1.9991957E-08
   43.08000     -2.2716007E-08
   43.14000     -2.6062278E-08
   43.20000     -3.0136292E-08
   43.26000     -3.5071274E-08
   43.32000     -4.1026553E-08
   43.38000     -4.8184543E-08
   43.44000     -5.6748227E-08
   43.50000     -6.6940963E-08
   43.56000     -7.9009553E-08
   43.62000     -9.3230575E-08
   43.68000     -1.0991881E-07
   43.74000     -1.2943623E-07
   43.80000     -1.5219993E-07
   43.86000     -1.7868837E-07
   43.92000     -2.0944643E-07
   43.98000     -2.4509046E-07
   44.04000     -2.8631516E-07
   44.10000     -3.3390364E-07
   44.16000     -3.8874157E-07
   44.22000     -4.5183450E-07
   44.28000     -5.2432739E-07
   44.34000     -6.0752399E-07
   44.40000     -7.0290480E-07
   44.46000     -8.1214290E-07
   44.52000     -9.3711719E-07
   44.58000     -1.0799254E-06
   44.64000     -1.2428962E-06
   44.70000     -1.4286051E-06
   44.76000     -1.6398915E-06
   44.82000     -1.8798794E-06
   44.88000     -2.1519998E-06
   44.94000     -2.4600131E-06
   45.00000     -2.8080310E-06
   45.06000     -3.2005378E-06
   45.12000     -3.6424058E-06
   45.18000     -4.1389126E-06
   45.24000     -4.6957525E-06
   45.30000     -5.3190488E-06
   45.36000     -6.0153643E-06
   45.42000     -6.7917063E-06
   45.48000     -7.6555316E-06
   45.54000     -8.6147520E-06
   45.60000     -9.6777294E-06
   45.66000     -1.0853275E-05
   45.72000     -1.2150637E-05
   45.78000     -1.3579491E-05
   45.84000     -1.5149913E-05
   45.90000     -1.6872360E-05
   45.96000     -1.8757630E-05
   46.02000     -2.0816820E-05
   46.08000     -2.3061273E-05
   46.14000     -2.5502508E-05
   46.20000     -2.8152166E-05
   46.26000     -3.1021911E-05
   46.32000     -3.4123372E-05
   46.38000     -3.7468053E-05
   46.44000     -4.1067247E-05
   46.50000     -4.4931923E-05
   46.56000     -4.9072656E-05
   46.62000     -5.3499494E-05
   46.68000     -5.8221853E-05
   46.74000     -6.3248379E-05
   46.80000     -6.8586829E-05
   46.86000     -7.4243937E-05
   46.92000     -8.0225320E-05
   46.98000     -8.6535292E-05
   47.04000     -9.3176845E-05
   47.10000     -1.0015145E-04
   47.16000     -1.0745903E-04
   47.22000     -1.1509777E-04
   47.28000     -1.2306416E-04
   47.34000     -1.3135279E-04
   47.40000     -1.3995641E-04
   47.46000     -1.4886574E-04
   47.52000     -1.5806963E-04
   47.58000     -1.6755484E-04
   47.64000     -1.7730617E-04
   47.70000     -1.8730637E-04
   47.76000     -1.9753630E-04
   47.82000     -2.0797491E-04
   47.88000     -2.1859947E-04
   47.94000     -2.2938552E-04
   48.00000     -2.4030720E-04
   48.06000     -2.5133725E-04
   48.12000     -2.6244725E-04
   48.18000     -2.7360790E-04
   48.24000     -2.8478910E-04
   48.30000     -2.9596029E-04
   48.36000     -3.0709061E-04
   48.42000     -3.1814937E-04
   48.48000     -3.2910597E-04
   48.54000     -3.3993041E-04
   48.60000     -3.5059368E-04
   48.66000     -3.6106777E-04
   48.72000     -3.7132608E-04
   48.78000     -3.8134368E-04
   48.84000     -3.9109754E-04
   48.90000     -4.0056673E-04
   48.96000     -4.0973278E-04
   49.02000     -4.1857961E-04
   49.08000     -4.2709411E-04
   49.14000     -4.3526592E-04
   49.20000     -4.4308783E-04
   49.26000     -4.5055570E-04
   49.32000     -4.5766850E-04
   49.38000     -4.6442833E-04
   49.44000     -4.7084043E-04
   49.50000     -4.7691294E-04
   49.56000     -4.8265699E-04
   49.62000     -4.8808649E-04
   49.68000     -4.9321784E-04
   49.74000     -4.9806992E-04
   49.80000     -5.0266378E-04
   49.86000     -5.0702220E-04
   49.92000     -5.1116955E-04
   49.98000     -5.1513128E-04
   50.04000     -5.1893375E-04
   50.10000     -5.2260380E-04
   50.16000     -5.2616844E-04
   50.22000     -5.2965427E-04
   50.28000     -5.3308753E-04
   50.34000     -5.3649343E-04
   50.40000     -5.3989555E-04
   50.46000     -5.4331601E-04
   50.52000     -5.4677494E-04
   50.58000     -5.5028999E-04
   50.64000     -5.5387651E-04
   50.70000     -5.5754691E-04
   50.76000     -5.6131074E-04
   50.82000     -5.6517462E-04
   50.88000     -5.6914188E-04
   50.94000     -5.7321263E-04
   51.00000     -5.7738350E-04
   51.06000     -5.8164814E-04
   51.12000     -5.8599684E-04
   51.18000     -5.9041724E-04
   51.24000     -5.9489423E-04
   51.30000     -5.9941015E-04
   51.36000     -6.0394505E-04
   51.42000     -6.0847716E-04
   51.48000     -6.1298284E-04
   51.54000     -6.1743712E-04
   51.60000     -6.2181428E-04
   51.66000     -6.2608806E-04
   51.72000     -6.3023192E-04
   51.78000     -6.3421979E-04
   51.84000     -6.3802634E-04
   51.90000     -6.4162706E-04
   51.96000     -6.4499897E-04
   52.02000     -6.4812077E-04
   52.08000     -6.5097329E-04
   52.14000     -6.5353944E-04
   52.20000     -6.5580499E-04
   52.26000     -6.5775862E-04
   52.32000     -6.5939198E-04
   52.38000     -6.6069973E-04
   52.44000     -6.6167989E-04
   52.50000     -6.6233339E-04
   52.56000     -6.6266442E-04
   52.62000     -6.6268002E-04
   52.68000     -6.6239038E-04
   52.74000     -6.6180824E-04
   52.80000     -6.6094910E-04
   52.86000     -6.5983069E-04
   52.92000     -6.5847271E-04
   52.98000     -6.5689650E-04
   53.04000     -6.5512466E-04
   53.10000     -6.5318058E-04
   53.16000     -6.5108831E-04
   53.22000     -6.4887176E-04
   53.28000     -6.4655475E-04
   53.34000     -6.4416038E-04
   53.40000     -6.4171053E-04
   53.46000     -6.3922582E-04
   53.52000     -6.3672534E-04
   53.58000     -6.3422602E-04
   53.64000     -6.3174253E-04
   53.70000     -6.2928704E-04
   53.76000     -6.2686874E-04
   53.82000     -6.2449405E-04
   53.88000     -6.2216609E-04
   53.94000     -6.1988528E-04
   54.00000     -6.1764888E-04
   54.06000     -6.1545125E-04
   54.12000     -6.1328383E-04
   54.18000     -6.1113545E-04
   54.24000     -6.0899241E-04
   54.30000     -6.0683850E-04
   54.36000     -6.0465536E-04
   54.42000     -6.0242298E-04
   54.48000     -6.0012005E-04
   54.54000     -5.9772411E-04
   54.60000     -5.9521216E-04
   54.66000     -5.9256103E-04
   54.72000     -5.8974774E-04
   54.78000     -5.8674958E-04
   54.84000     -5.8354496E-04
   54.90000     -5.8011344E-04
   54.96000     -5.7643623E-04
   55.02000     -5.7249656E-04
   55.08000     -5.6827976E-04
   55.14000     -5.6377385E-04
   55.20000     -5.5896951E-04
   55.26000     -5.5386039E-04
   55.32000     -5.4844306E-04
   55.38000     -5.4271740E-04
   55.44000     -5.3668616E-04
   55.50000     -5.3035532E-04
   55.56000     -5.2373402E-04