 -0.750000000       0.00000000    
 -0.689999998       0.00000000    
 -0.629999995       0.00000000    
 -0.569999993       0.00000000    
 -0.509999990       0.00000000    
 -0.449999988       0.00000000    
 -0.389999986       1.59220151E-21
 -0.330000013       9.68749666E-21
 -0.270000011       1.78390740E-20
 -0.209999993      -4.23852096E-20
 -0.150000006      -3.42810839E-19
  -9.00000036E-02  -1.01996622E-18
  -2.99999993E-02  -1.68197882E-18
   2.99999993E-02  -7.76893822E-19
   9.00000036E-02   4.22707201E-18
  0.150000006       1.45908919E-17
  0.209999993       2.60246108E-17
  0.270000011       2.55440851E-17
  0.330000013      -4.65672121E-18
  0.389999986      -7.23920811E-17
  0.449999988      -1.54994800E-16
  0.509999990      -1.90715066E-16
  0.569999993      -1.03117222E-16
  0.629999995       1.37629884E-16
  0.689999998       4.48842388E-16
  0.750000000       6.27787522E-16
  0.810000002       4.53871223E-16
  0.870000005      -1.20812375E-16
  0.930000007      -8.16086122E-16
  0.990000010      -1.07630211E-15
   1.04999995      -4.18076722E-16
   1.11000001       1.06230002E-15
   1.16999996       2.38978826E-15
   1.23000002       2.02257746E-15
   1.28999996      -1.12673064E-15
   1.35000002      -6.42092352E-15
   1.40999997      -1.09030174E-14
   1.47000003      -1.02343645E-14
   1.52999997      -1.23388094E-15
   1.59000003       1.51213846E-14
   1.64999998       3.22331104E-14
   1.71000004       3.96702934E-14
   1.76999998       2.82776816E-14
   1.83000004      -3.61138850E-15
   1.88999999      -4.65634238E-14
   1.95000005      -8.21375574E-14
   2.00999999      -9.09086445E-14
   2.06999993      -6.28688995E-14
   2.13000011      -4.33574693E-15
   2.19000006       6.34539350E-14
   2.25000000       1.14428513E-13
   2.30999994       1.31263408E-13
   2.36999989       1.14188105E-13
   2.43000007       7.87087138E-14
   2.49000001       4.25973784E-14
   2.54999995       1.02014209E-14
   2.60999990      -3.42614866E-14
   2.67000008      -1.16617558E-13
   2.73000002      -2.48388847E-13
   2.78999996      -4.01913583E-13
   2.84999990      -5.03366554E-13
   2.91000009      -4.55666917E-13
   2.97000003      -1.87315766E-13
   3.02999997       2.94227181E-13
   3.08999991       8.74486844E-13
   3.15000010       1.35176332E-12
   3.21000004       1.50570528E-12
   3.26999998       1.18986114E-12
   3.32999992       4.07334675E-13
   3.39000010      -6.67841921E-13
   3.45000005      -1.73810846E-12
   3.50999999      -2.48150871E-12
   3.56999993      -2.66141839E-12
   3.63000011      -2.20161476E-12
   3.69000006      -1.19922128E-12
   3.75000000       1.22011952E-13
   3.80999994       1.48965931E-12
   3.86999989       2.65446215E-12
   3.93000007       3.43000107E-12
   3.99000001       3.69712637E-12
   4.05000019       3.39054999E-12
   4.11000013       2.49135500E-12
   4.17000008       1.03928552E-12
   4.23000002      -8.39882309E-13
   4.28999996      -2.91149960E-12
   4.34999990      -4.83574205E-12
   4.40999985      -6.20929566E-12
   4.46999979      -6.63987745E-12
   4.53000021      -5.83560457E-12
   4.59000015      -3.68738633E-12
   4.65000010      -3.27266805E-13
   4.71000004       3.84748440E-12
   4.76999998       8.18988280E-12
   4.82999992       1.18621970E-11
   4.88999987       1.39400453E-11
   4.94999981       1.35556297E-11
   5.01000023       1.00606997E-11
   5.07000017       3.17598508E-12
   5.13000011      -6.91171252E-12
   5.19000006      -1.95350281E-11
   5.25000000      -3.36218345E-11
   5.30999994      -4.78417340E-11
   5.36999989      -6.07847661E-11
   5.42999983      -7.11296022E-11
   5.48999977      -7.77741135E-11
   5.55000019      -7.99235192E-11
   5.61000013      -7.71493633E-11
   5.67000008      -6.94348815E-11
   5.73000002      -5.72077524E-11
   5.78999996      -4.13392029E-11
   5.84999990      -2.30795990E-11
   5.90999985      -3.91190075E-12
   5.96999979       1.46583353E-11
   6.03000021       3.13197940E-11
   6.09000015       4.51046388E-11
   6.15000010       5.54216048E-11
   6.21000004       6.19829535E-11
   6.26999998       6.46983231E-11
   6.32999992       6.36308298E-11
   6.38999987       5.90654886E-11
   6.44999981       5.16486749E-11
   6.51000023       4.24680326E-11
   6.57000017       3.29261375E-11
   6.63000011       2.43458760E-11
   6.69000006       1.74040938E-11
   6.75000000       1.16333141E-11
   6.80999994       5.26853301E-12
   6.86999989      -4.39690992E-12
   6.92999983      -2.02080904E-11
   6.98999977      -4.41812975E-11
   7.05000019      -7.67526667E-11
   7.11000013      -1.16539486E-10
   7.17000008      -1.60681982E-10
   7.23000002      -2.05580622E-10
   7.28999996      -2.47696780E-10
   7.34999990      -2.84114704E-10
   7.40999985      -3.12737336E-10
   7.46999979      -3.32201683E-10
   7.53000021      -3.41731865E-10
   7.59000015      -3.41131651E-10
   7.65000010      -3.30986932E-10
   7.71000004      -3.12975312E-10
   7.76999998      -2.90083846E-10
   7.82999992      -2.66547923E-10
   7.88999987      -2.47438570E-10
   7.94999981      -2.37974973E-10
   8.01000023      -2.42724285E-10
   8.06999969      -2.64874289E-10
   8.13000011      -3.05708875E-10
   8.18999958      -3.64333702E-10
   8.25000000      -4.37646974E-10
   8.31000042      -5.20537669E-10
   8.36999989      -6.06300954E-10
   8.43000031      -6.87257751E-10
   8.48999977      -7.55551954E-10
   8.55000019      -8.04048383E-10
   8.60999966      -8.27224067E-10
   8.67000008      -8.21916701E-10
   8.72999954      -7.87810206E-10
   8.78999996      -7.27562788E-10
   8.85000038      -6.46515008E-10
   8.90999985      -5.51966250E-10
   8.97000027      -4.52083454E-10
   9.02999973      -3.54609564E-10
   9.09000015      -2.65642758E-10
   9.14999962      -1.88817323E-10
   9.21000004      -1.25168487E-10
   9.27000046      -7.37973224E-11
   9.32999992      -3.32355289E-11
   9.39000034      -3.17151600E-12
   9.44999981       1.39195920E-11
   9.51000023       1.16761652E-11
   9.56999969      -2.04398703E-11
   9.63000011      -9.65902427E-11
   9.68999958      -2.33360081E-10
   9.75000000      -4.48274196E-10
   9.81000042      -7.58433705E-10
   9.86999989      -1.17954968E-09
   9.93000031      -1.72542669E-09
   9.98999977      -2.40769582E-09
   10.0500002      -3.23541149E-09
   10.1099997      -4.21417612E-09
   10.1700001      -5.34469580E-09
   10.2299995      -6.62103661E-09
   10.2900000      -8.02915068E-09
   10.3500004      -9.54628643E-09
   10.4099998      -1.11416441E-08
   10.4700003      -1.27782025E-08
   10.5299997      -1.44152441E-08
   10.5900002      -1.60109295E-08
   10.6499996      -1.75243677E-08
   10.7100000      -1.89169391E-08
   10.7700005      -2.01529300E-08
   10.8299999      -2.11997140E-08
   10.8900003      -2.20277965E-08
   10.9499998      -2.26109496E-08
   11.0100002      -2.29266988E-08
   11.0699997      -2.29572770E-08
   11.1300001      -2.26911361E-08
   11.1899996      -2.21247927E-08
   11.2500000      -2.12645617E-08
   11.3100004      -2.01275601E-08
   11.3699999      -1.87414635E-08
   11.4300003      -1.71428880E-08
   11.4899998      -1.53747557E-08
   11.5500002      -1.34832980E-08
   11.6099997      -1.15154721E-08
   11.6700001      -9.51717194E-09
   11.7299995      -7.53225837E-09
   11.7900000      -5.60208147E-09
   11.8500004      -3.76506870E-09
   11.9099998      -2.05612172E-09
   11.9700003      -5.05728126E-10
   12.0299997       8.61132721E-10
   12.0900002       2.02620898E-09
   12.1499996       2.97920000E-09
   12.2100000       3.71884257E-09
   12.2700005       4.25358371E-09
   12.3299999       4.60150273E-09
   12.3900003       4.78922191E-09
   12.4499998       4.84980855E-09
   12.5100002       4.82000573E-09
   12.5699997       4.73733186E-09
   12.6300001       4.63759431E-09
   12.6899996       4.55309612E-09
   12.7500000       4.51153648E-09
   12.8100004       4.53541249E-09
   12.8699999       4.64171412E-09
   12.9300003       4.84183271E-09
   12.9899998       5.14165421E-09
   13.0500002       5.54179058E-09
   13.1099997       6.03782269E-09
   13.1700001       6.62044597E-09
   13.2299995       7.27558769E-09
   13.2900000       7.98481281E-09
   13.3500004       8.72645511E-09
   13.4099998       9.47769330E-09
   13.4700003       1.02172972E-08
   13.5299997       1.09282876E-08
   13.5900002       1.15996457E-08
   13.6499996       1.22265540E-08
   13.7100000       1.28093518E-08
   13.7700005       1.33519666E-08
   13.8299999       1.38606415E-08
   13.8900003       1.43433256E-08
   13.9499998       1.48094426E-08
   14.0100002       1.52693165E-08
   14.0699997       1.57327893E-08
   14.1300001       1.62071103E-08
   14.1899996       1.66948588E-08
   14.2500000       1.71927752E-08
   14.3100004       1.76920310E-08
   14.3699999       1.81798008E-08
   14.4300003       1.86414919E-08
   14.4899998       1.90629592E-08
   14.5500002       1.94322087E-08
   14.6099997       1.97404972E-08
   14.6700001       1.99827017E-08
   14.7299995       2.01569215E-08
   14.7900000       2.02631707E-08
   14.8500004       2.03014441E-08
   14.9099998       2.02697930E-08
   14.9700003       2.01633714E-08
   15.0299997       1.99750136E-08
   15.0900002       1.96971275E-08
   15.1499996       1.93238598E-08
   15.2100000       1.88522122E-08
   15.2700005       1.82814439E-08
   15.3299999       1.76112565E-08
   15.3900003       1.68402163E-08
   15.4499998       1.59658438E-08
   15.5100002       1.49868615E-08
   15.5699997       1.39066376E-08
   15.6300001       1.27360513E-08
   15.6899996       1.14942020E-08
   15.7500000       1.02065520E-08
   15.8100004       8.90144491E-09
   15.8699999       7.60652075E-09
   15.9300003       6.34617381E-09
   15.9899998       5.14016518E-09
   16.0499992       4.00266487E-09
   16.1100006       2.94092617E-09
   16.1700001       1.95350891E-09
   16.2299995       1.02881192E-09
   16.2900009       1.44976850E-10
   16.3500004      -7.28301863E-10
   16.4099998      -1.62646652E-09
   16.4699993      -2.58636179E-09
   16.5300007      -3.64303876E-09
   16.5900002      -4.82732698E-09
   16.6499996      -6.16361540E-09
   16.7099991      -7.66719399E-09
   16.7700005      -9.34117494E-09
   16.8299999      -1.11739791E-08
   16.8899994      -1.31388349E-08
   16.9500008      -1.51961252E-08
   17.0100002      -1.72981736E-08
   17.0699997      -1.93947454E-08
   17.1299992      -2.14374509E-08
   17.1900005      -2.33821087E-08
   17.2500000      -2.51897436E-08
   17.3099995      -2.68278910E-08
   17.3700008      -2.82735719E-08
   17.4300003      -2.95178655E-08
   17.4899998      -3.05702734E-08
   17.5499992      -3.14603774E-08
   17.6100006      -3.22350928E-08
   17.6700001      -3.29517142E-08
   17.7299995      -3.36686625E-08
   17.7900009      -3.44367059E-08
   17.8500004      -3.52926115E-08
   17.9099998      -3.62558872E-08
   17.9699993      -3.73281388E-08
   18.0300007      -3.84943633E-08
   18.0900002      -3.97259541E-08
   18.1499996      -4.09855829E-08
   18.2099991      -4.22338040E-08
   18.2700005      -4.34363265E-08
   18.3299999      -4.45698980E-08
   18.3899994      -4.56248372E-08
   18.4500008      -4.66032972E-08
   18.5100002      -4.75142485E-08
   18.5699997      -4.83673510E-08
   18.6299992      -4.91681362E-08
   18.6900005      -4.99157089E-08
   18.7500000      -5.06027398E-08
   18.8099995      -5.12164995E-08
   18.8700008      -5.17397574E-08
   18.9300003      -5.21511616E-08
   18.9899998      -5.24257473E-08
   19.0499992      -5.25363895E-08
   19.1100006      -5.24566950E-08
   19.1700001      -5.21651131E-08
   19.2299995      -5.16492662E-08
   19.2900009      -5.09095273E-08
   19.3500004      -4.99610309E-08
   19.4099998      -4.88334848E-08
   19.4699993      -4.75686797E-08
   19.5300007      -4.62158773E-08
   19.5900002      -4.48258746E-08
   19.6499996      -4.34450413E-08
   19.7099991      -4.21107238E-08
   19.7700005      -4.08489953E-08
   19.8299999      -3.96745676E-08
   19.8899994      -3.85917716E-08
   19.9500008      -3.75951821E-08
   20.0100002      -3.66693200E-08
   20.0699997      -3.57881902E-08
   20.1299992      -3.49164608E-08
   20.1900005      -3.40138655E-08
   20.2500000      -3.30429977E-08
   20.3099995      -3.19785691E-08
   20.3700008      -3.08150412E-08
   20.4300003      -2.95697173E-08
   20.4899998      -2.82800645E-08
   20.5499992      -2.69962666E-08
   20.6100006      -2.57714063E-08
   20.6700001      -2.46519445E-08
   20.7299995      -2.36703386E-08
   20.7900009      -2.28405348E-08
   20.8500004      -2.21564971E-08
   20.9099998      -2.15938041E-08
   20.9699993      -2.11142588E-08
   21.0300007      -2.06729815E-08
   21.0900002      -2.02264356E-08
   21.1499996      -1.97391383E-08
   21.2099991      -1.91869489E-08
   21.2700005      -1.85563351E-08
   21.3299999      -1.78409518E-08
   21.3899994      -1.70383547E-08
   21.4500008      -1.61492881E-08
   21.5100002      -1.51802144E-08
   21.5699997      -1.41472221E-08
   21.6299992      -1.30781279E-08
   21.6900005      -1.20101440E-08
   21.7500000      -1.09828671E-08
   21.8099995      -1.00290105E-08
   21.8700008      -9.16674736E-09
   21.9300003      -8.39677128E-09
   21.9899998      -7.70492203E-09
   22.0499992      -7.06865011E-09
   22.1100006      -6.46424603E-09
   22.1700001      -5.87212945E-09
   22.2299995      -5.27901678E-09
   22.2900009      -4.67738115E-09
   22.3500004      -4.06343537E-09
   22.4099998      -3.43482642E-09
   22.4699993      -2.78878098E-09
   22.5300007      -2.12117990E-09
   22.5900002      -1.42701606E-09
   22.6499996      -7.02592151E-10
   22.7099991       5.08007872E-11
   22.7700005       8.22999113E-10
   22.8299999       1.59294555E-09
   22.8899994       2.33041364E-09
   22.9500008       3.00192338E-09
   23.0100002       3.57920560E-09
   23.0699997       4.04698897E-09
   23.1299992       4.40681402E-09
   23.1900005       4.67519623E-09
   23.2500000       4.87695884E-09
   23.3099995       5.03662223E-09
   23.3700008       5.17133181E-09
   23.4300003       5.28772715E-09
   23.4899998       5.38317169E-09
   23.5499992       5.44983392E-09
   23.6100006       5.47924417E-09
   23.6700001       5.46526158E-09
   23.7299995       5.40457989E-09
   23.7900009       5.29529842E-09
   23.8500004       5.13505549E-09
   23.9099998       4.92037522E-09
   23.9699993       4.64822225E-09
   24.0300007       4.31946168E-09
   24.0900002       3.94266575E-09
   24.1499996       3.53603524E-09
   24.2099991       3.12569681E-09
   24.2700005       2.74020096E-09
   24.3299999       2.40303955E-09
   24.3899994       2.12635975E-09
   24.4500008       1.90888860E-09
   24.5100002       1.73928394E-09
   24.5699997       1.60353075E-09
   24.6299992       1.49296375E-09
   24.6900005       1.40912415E-09
   24.7500000       1.36315748E-09
   24.8099995       1.37000578E-09
   24.8700008       1.43992429E-09
   24.9300003       1.57085767E-09
   24.9899998       1.74469206E-09
   25.0499992       1.92891303E-09
   25.1100006       2.08348094E-09
   25.1700001       2.17129359E-09
   25.2299995       2.16954299E-09
   25.2900009       2.07862061E-09
   25.3500004       1.92519334E-09
   25.4099998       1.75714243E-09
   25.4699993       1.63043257E-09
   25.5300007       1.59119917E-09
   25.5900002       1.65903802E-09
   25.6499996       1.81811799E-09
   25.7099991       2.02044825E-09
   25.7700005       2.20103336E-09
   25.8299999       2.29971109E-09
   25.8899994       2.28152586E-09
   25.9500008       2.14802842E-09
   26.0100002       1.93561256E-09
   26.0699997       1.70212711E-09
   26.1299992       1.50719603E-09
   26.1900005       1.39330392E-09
   26.2500000       1.37354450E-09
   26.3099995       1.42897505E-09
   26.3700008       1.51524560E-09
   26.4300003       1.57569335E-09
   26.4899998       1.55685653E-09
   26.5499992       1.42222178E-09
   26.6100006       1.16075116E-09
   26.6700001       7.88122512E-10
   26.7299995       3.40537626E-10
   26.7900009      -1.36956613E-10
   26.8500004      -6.04022332E-10
   26.9099998      -1.03628339E-09
   26.9699993      -1.43094914E-09
   27.0300007      -1.80549897E-09
   27.0900002      -2.19048557E-09
   27.1499996      -2.61931210E-09
   27.2099991      -3.11844839E-09
   27.2700005      -3.70092335E-09
   27.3299999      -4.36452297E-09
   27.3899994      -5.09457099E-09
   27.4500008      -5.86993210E-09
   27.5100002      -6.67021549E-09
   27.5699997      -7.48204876E-09
   27.6299992      -8.30267499E-09
   27.6900005      -9.13990217E-09
   27.7500000      -1.00084794E-08
   27.8099995      -1.09240297E-08
   27.8700008      -1.18965113E-08
   27.9300003      -1.29253799E-08
   27.9899998      -1.39982310E-08
   28.0499992      -1.50936348E-08
   28.1100006      -1.61875189E-08
   28.1700001      -1.72611916E-08
   28.2299995      -1.83082971E-08
   28.2900009      -1.93380227E-08
   28.3500004      -2.03728714E-08
   28.4099998      -2.14409628E-08
   28.4699993      -2.25650467E-08
   28.5300007      -2.37518556E-08
   28.5900002      -2.49860488E-08
   28.6499996      -2.62316977E-08
   28.7099991      -2.74417538E-08
   28.7700005      -2.85727975E-08
   28.8299999      -2.96000700E-08
   28.8899994      -3.05272501E-08
   28.9500008      -3.13870530E-08
   29.0100002      -3.22320624E-08
   29.0699997      -3.31186136E-08
   29.1299992      -3.40890800E-08
   29.1900005      -3.51584433E-08
   29.2500000      -3.63093910E-08
   29.3099995      -3.74973936E-08
   29.3700008      -3.86641261E-08
   29.4300003      -3.97551361E-08
   29.4899998      -4.07366301E-08
   29.5499992      -4.16065937E-08
   29.6100006      -4.23969233E-08
   29.6700001      -4.31656204E-08
   29.7299995      -4.39807160E-08
   29.7900009      -4.48998421E-08
   29.8500004      -4.59511433E-08
   29.9099998      -4.71211266E-08
   29.9699993      -4.83536127E-08
   30.0300007      -4.95608283E-08
   30.0900002      -5.06439690E-08
   30.1499996      -5.15172331E-08
   30.2099991      -5.21280725E-08
   30.2700005      -5.24672714E-08
   30.3299999      -5.25660049E-08
   30.3899994      -5.24811909E-08
   30.4500008      -5.22745118E-08
   30.5100002      -5.19923056E-08
   30.5699997      -5.16528651E-08
   30.6299992      -5.12448182E-08
   30.6900005      -5.07362685E-08
   30.7500000      -5.00908435E-08
   30.8099995      -4.92848073E-08
   30.8700008      -4.83191656E-08
   30.9300003      -4.72226489E-08
   30.9899998      -4.60443950E-08
   31.0499992      -4.48384689E-08
   31.1100006      -4.36452758E-08
   31.1700001      -4.24762412E-08
   31.2299995      -4.13075760E-08
   31.2900009      -4.00863449E-08
   31.3500004      -3.87479595E-08
   31.4099998      -3.72399391E-08
   31.4699993      -3.55440690E-08
   31.5300007      -3.36887993E-08
   31.5900002      -3.17467759E-08
   31.6499996      -2.98174534E-08
   31.7099991      -2.80000929E-08
   31.7700005      -2.63661661E-08
   31.8299999      -2.49406433E-08
   31.8899994      -2.36985862E-08
   31.9500008      -2.25783197E-08
   32.0099983      -2.15068034E-08
   32.0699997      -2.04288408E-08
   32.1300011      -1.93307823E-08
   32.1899986      -1.82512334E-08
   32.2500000      -1.72755659E-08
   32.3100014      -1.65159157E-08
   32.3699989      -1.60826268E-08
   32.4300003      -1.60555249E-08
   32.4900017      -1.64632805E-08
   32.5499992      -1.72767702E-08
   32.6100006      -1.84180085E-08
   32.6699982      -1.97816146E-08
   32.7299995      -2.12618492E-08
   32.7900009      -2.27768240E-08
   32.8499985      -2.42827376E-08
   32.9099998      -2.57748205E-08
   32.9700012      -2.72764265E-08
   33.0299988      -2.88215478E-08
   33.0900002      -3.04376009E-08
   33.1500015      -3.21339897E-08
   33.2099991      -3.38989743E-08
   33.2700005      -3.57039269E-08
   33.3300018      -3.75120521E-08
   33.3899994      -3.92880075E-08
   33.4500008      -4.10059684E-08
   33.5099983      -4.26545128E-08
   33.5699997      -4.42379147E-08
   33.6300011      -4.57735432E-08
   33.6899986      -4.72857558E-08
   33.7500000      -4.87973146E-08
   33.8100014      -5.03205264E-08
   33.8699989      -5.18508330E-08
   33.9300003      -5.33651523E-08
   33.9900017      -5.48257404E-08
   34.0499992      -5.61882878E-08
   34.1100006      -5.74114942E-08
   34.1699982      -5.84652931E-08
   34.2299995      -5.93357399E-08
   34.2900009      -6.00261743E-08
   34.3499985      -6.05551520E-08
   34.4099998      -6.09519546E-08
   34.4700012      -6.12503257E-08
   34.5299988      -6.14809395E-08
   34.5900002      -6.16637550E-08
   34.6500015      -6.18018845E-08
   34.7099991      -6.18792413E-08
   34.7700005      -6.18630693E-08
   34.8300018      -6.17113045E-08
   34.8899994      -6.13827709E-08
   34.9500008      -6.08473414E-08
   35.0099983      -6.00931287E-08
   35.0699997      -5.91294054E-08
   35.1300011      -5.79844830E-08
   35.1899986      -5.66997294E-08
   35.2500000      -5.53208146E-08
   35.3100014      -5.38879021E-08
   35.3699989      -5.24266142E-08
   35.4300003      -5.09419031E-08
   35.4900017      -4.94165313E-08
   35.5499992      -4.78150604E-08
   35.6100006      -4.60926444E-08
   35.6699982      -4.42062493E-08
   35.7299995      -4.21251727E-08
   35.7900009      -3.98378752E-08
   35.8499985      -3.73537148E-08
   35.9099998      -3.46997204E-08
   35.9700012      -3.19142934E-08
   36.0299988      -2.90401783E-08
   36.0900002      -2.61190465E-08
   36.1500015      -2.31891946E-08
   36.2099991      -2.02867501E-08
   36.2700005      -1.74494907E-08
   36.3300018      -1.47213095E-08
   36.3899994      -1.21545485E-08
   36.4500008      -9.80787984E-09
   36.5099983      -7.73874387E-09
   36.5699997      -5.99182304E-09
   36.6300011      -4.58729765E-09
   36.6899986      -3.51368956E-09
   36.7500000      -2.72905010E-09
   36.8100014      -2.17128315E-09
   36.8699989      -1.77467452E-09
   36.9300003      -1.48703161E-09
   36.9900017      -1.28143562E-09
   37.0499992      -1.15878296E-09
   37.1100006      -1.14093834E-09
   37.1699982      -1.25777289E-09
   37.2299995      -1.53313473E-09
   37.2900009      -1.97439043E-09
   37.3499985      -2.56814614E-09
   37.4099998      -3.28232463E-09
   37.4700012      -4.07296197E-09
   37.5299988      -4.89337637E-09
   37.5900002      -5.70348879E-09
   37.6500015      -6.47752429E-09
   37.7099991      -7.20873761E-09
   37.7700005      -7.91023247E-09
   37.8300018      -8.61162963E-09
   37.8899994      -9.35236155E-09
   37.9500008      -1.01734479E-08
   38.0099983      -1.11102283E-08
   38.0699997      -1.21881651E-08
   38.1300011      -1.34225751E-08
   38.1899986      -1.48215751E-08
   38.2500000      -1.63904073E-08
   38.3100014      -1.81351449E-08
   38.3699989      -2.00645349E-08
   38.4300003      -2.21897416E-08
   38.4900017      -2.45225138E-08
   38.5499992      -2.70723071E-08
   38.6100006      -2.98426173E-08
   38.6699982      -3.28266445E-08
   38.7299995      -3.60026107E-08
   38.7900009      -3.93298443E-08
   38.8499985      -4.27471782E-08
   38.9099998      -4.61751561E-08
   38.9700012      -4.95226402E-08
   39.0299988      -5.26969934E-08
   39.0900002      -5.56156969E-08
   39.1500015      -5.82166493E-08
   39.2099991      -6.04645720E-08
   39.2700005      -6.23517380E-08
   39.3300018      -6.38925997E-08
   39.3899994      -6.51134897E-08
   39.4500008      -6.60397603E-08
   39.5099983      -6.66841515E-08
   39.5699997      -6.70398350E-08
   39.6300011      -6.70810749E-08
   39.6899986      -6.67716051E-08
   39.7500000      -6.60786981E-08
   39.8100014      -6.49883063E-08
   39.8699989      -6.35164525E-08
   39.9300003      -6.17129814E-08
   39.9900017      -5.96566139E-08
   40.0499992      -5.74429571E-08
   40.1100006      -5.51689787E-08
   40.1699982      -5.29180184E-08
   40.2299995      -5.07488629E-08
   40.2900009      -4.86909606E-08
   40.3499985      -4.67466599E-08
   40.4099998      -4.48997248E-08
   40.4700012      -4.31281713E-08
   40.5299988      -4.14179659E-08
   40.5900002      -3.97734077E-08
   40.6500015      -3.82205698E-08
   40.7099991      -3.68021169E-08
   40.7700005      -3.55650087E-08
   40.8300018      -3.45453408E-08
   40.8899994      -3.37560415E-08
   40.9500008      -3.31821184E-08
   41.0099983      -3.27851275E-08
   41.0699997      -3.25150715E-08
   41.1300011      -3.23252181E-08
   41.1899986      -3.21847509E-08
   41.2500000      -3.20853566E-08
   41.3100014      -3.20405569E-08
   41.3699989      -3.20786668E-08
   41.4300003      -3.22321796E-08
   41.4900017      -3.25265930E-08
   41.5499992      -3.29716485E-08
   41.6100006      -3.35569617E-08
   41.6699982      -3.42530946E-08
   41.7299995      -3.50176634E-08
   41.7900009      -3.58046499E-08
   41.8499985      -3.65738941E-08
   41.9099998      -3.72976743E-08
   41.9700012      -3.79620033E-08
   42.0299988      -3.85626464E-08
   42.0900002      -3.90978521E-08
   42.1500015      -3.95614386E-08
   42.2099991      -3.99396178E-08
   42.2700005      -4.02131732E-08
   42.3300018      -4.03641209E-08
   42.3899994      -4.03837142E-08
   42.4500008      -4.02780245E-08
   42.5099983      -4.00681976E-08
   42.5699997      -3.97848261E-08
   42.6300011      -3.94582145E-08
   42.6899986      -3.91079737E-08
   42.7500000      -3.87356103E-08
   42.8100014      -3.83225647E-08
   42.8699989      -3.78345320E-08
   42.9300003      -3.72306737E-08
   42.9900017      -3.64752530E-08
   43.0499992      -3.55484993E-08
   43.1100006      -3.44538478E-08
   43.1699982      -3.32195391E-08
   43.2299995      -3.18939684E-08
   43.2900009      -3.05356629E-08
   43.3499985      -2.92002262E-08
   43.4099998      -2.79278574E-08
   43.4700012      -2.67351066E-08
   43.5299988      -2.56139341E-08
   43.5900002      -2.45390233E-08
   43.6500015      -2.34815971E-08
   43.7099991      -2.24254961E-08
   43.7700005      -2.13798437E-08
   43.8300018      -2.03833022E-08
   43.8899994      -1.94975520E-08
   43.9500008      -1.87915052E-08
   44.0099983      -1.83213729E-08
   44.0699997      -1.81134681E-08
   44.1300011      -1.81558963E-08
   44.1899986      -1.84020763E-08
   44.2500000      -1.87848901E-08
   44.3100014      -1.92366532E-08
   44.3699989      -1.97084482E-08
   44.4300003      -2.01830623E-08
   44.4900017      -2.06781703E-08
   44.5499992      -2.12394919E-08
   44.6100006      -2.19262333E-08
   44.6699982      -2.27929018E-08
   44.7299995      -2.38721700E-08
   44.7900009      -2.51633168E-08
   44.8499985      -2.66295679E-08
   44.9099998      -2.82058252E-08
   44.9700012      -2.98153822E-08
   45.0299988      -3.13912309E-08
   45.0900002      -3.28955281E-08
   45.1500015      -3.43305651E-08
   45.2099991      -3.57369210E-08
   45.2700005      -3.71788609E-08
   45.3300018      -3.87216090E-08
   45.3899994      -4.04083416E-08
   45.4500008      -4.22448032E-08
   45.5099983      -4.41966819E-08
   45.5699997      -4.62001424E-08
   45.6300011      -4.81813807E-08
   45.6899986      -5.00782491E-08
   45.7500000      -5.18569969E-08
   45.8100014      -5.35193472E-08
   45.8699989      -5.50984218E-08
   45.9300003      -5.66455505E-08
   45.9900017      -5.82122084E-08
   46.0499992      -5.98323382E-08
   46.1100006      -6.15099012E-08
   46.1699982      -6.32150332E-08
   46.2299995      -6.48898890E-08
   46.2900009      -6.64626256E-08
   46.3499985      -6.78656633E-08
   46.4099998      -6.90526960E-08
   46.4700012      -7.00093352E-08
   46.5299988      -7.07540408E-08
   46.5900002      -7.13291470E-08
   46.6500015      -7.17853155E-08
   46.7099991      -7.21652000E-08
   46.7700005      -7.24921136E-08
   46.8300018      -7.27675626E-08
   46.8899994      -7.29778762E-08
   46.9500008      -7.31064489E-08
   47.0099983      -7.31460261E-08
   47.0699997      -7.31056744E-08
   47.1300011      -7.30093532E-08
   47.1899986      -7.28868486E-08
   47.2500000      -7.27605922E-08
   47.3100014      -7.26336751E-08
   47.3699989      -7.24835800E-08
   47.4300003      -7.22639868E-08
   47.4900017      -7.19142363E-08
   47.5499992      -7.13735773E-08
   47.6100006      -7.05962293E-08
   47.6699982      -6.95632636E-08
   47.7299995      -6.82885499E-08
   47.7900009      -6.68171651E-08
   47.8499985      -6.52168239E-08
   47.9099998      -6.35639168E-08
   47.9700012      -6.19275795E-08
   48.0299988      -6.03555392E-08
   48.0900002      -5.88657123E-08
   48.1500015      -5.74458632E-08
   48.2099991      -5.60616371E-08
   48.2700005      -5.46702239E-08
   48.3300018      -5.32350448E-08
   48.3899994      -5.17363681E-08
   48.4500008      -5.01744530E-08
   48.5099983      -4.85649991E-08
   48.5699997      -4.69301042E-08
   48.6300011      -4.52893687E-08
   48.6899986      -4.36554188E-08
   48.7500000      -4.20350652E-08
   48.8100014      -4.04342160E-08
   48.8699989      -3.88626162E-08
   48.9300003      -3.73349600E-08
   48.9900017      -3.58675720E-08
   49.0499992      -3.44726985E-08
   49.1100006      -3.31541550E-08
   49.1699982      -3.19070814E-08
   49.2299995      -3.07222408E-08
   49.2900009      -2.95922984E-08
   49.3499985      -2.85168653E-08
   49.4099998      -2.75038996E-08
   49.4700012      -2.65676867E-08
   49.5299988      -2.57256136E-08
   49.5900002      -2.49964263E-08
   49.6500015      -2.44013521E-08
   49.7099991      -2.39676048E-08
   49.7700005      -2.37324258E-08
   49.8300018      -2.37457751E-08
   49.8899994      -2.40707418E-08
   49.9500008      -2.47818122E-08
   50.0099983      -2.59616808E-08
   50.0699997      -2.76973342E-08
   50.1300011      -3.00762508E-08
   50.1899986      -3.31838450E-08
   50.2500000      -3.71037245E-08
   50.3100014      -4.19224193E-08
   50.3699989      -4.77391886E-08
   50.4300003      -5.46799903E-08
   50.4900017      -6.29131591E-08
   50.5499992      -7.26637239E-08
   50.6100006      -8.42238137E-08