 -0.750000000       0.00000000    
 -0.689999998       0.00000000    
 -0.629999995       0.00000000    
 -0.569999993       0.00000000    
 -0.509999990       0.00000000    
 -0.449999988       0.00000000    
 -0.389999986      -2.37130407E-21
 -0.330000013      -7.04457060E-21
 -0.270000011       4.78608092E-20
 -0.209999993       4.30716848E-19
 -0.150000006       1.65746998E-18
  -9.00000036E-02   3.89097861E-18
  -2.99999993E-02   5.27582826E-18
   2.99999993E-02   1.37330503E-19
   9.00000036E-02  -1.97432296E-17
  0.150000006      -5.68650077E-17
  0.209999993      -9.34180858E-17
  0.270000011      -8.15527358E-17
  0.330000013       4.09600119E-17
  0.389999986       2.95217796E-16
  0.449999988       5.83391137E-16
  0.509999990       6.53745534E-16
  0.569999993       1.96645766E-16
  0.629999995      -8.93177714E-16
  0.689999998      -2.19715222E-15
  0.750000000      -2.67156839E-15
  0.810000002      -1.07463017E-15
  0.870000005       3.01362083E-15
  0.930000007       8.03138853E-15
  0.990000010       1.00994271E-14
   1.04999995       4.49819515E-15
   1.11000001      -1.08982952E-14
   1.16999996      -3.16739297E-14
   1.23000002      -4.53172452E-14
   1.28999996      -3.50152409E-14
   1.35000002       1.05676508E-14
   1.40999997       8.51247377E-14
   1.47000003       1.57718118E-13
   1.52999997       1.79043886E-13
   1.59000003       1.03904644E-13
   1.64999998      -7.70127167E-14
   1.71000004      -3.12758879E-13
   1.76999998      -4.94696677E-13
   1.83000004      -4.96479539E-13
   1.88999999      -2.42014118E-13
   1.95000005       2.29713845E-13
   2.00999999       7.44080416E-13
   2.06999993       1.04326704E-12
   2.13000011       9.05719618E-13
   2.19000006       2.83913463E-13
   2.25000000      -6.15105623E-13
   2.30999994      -1.37153375E-12
   2.36999989      -1.52968090E-12
   2.43000007      -8.47404232E-13
   2.49000001       5.04307100E-13
   2.54999995       1.91950622E-12
   2.60999990       2.57485071E-12
   2.67000008       1.82978979E-12
   2.73000002      -3.63765496E-13
   2.78999996      -3.26422396E-12
   2.84999990      -5.51596486E-12
   2.91000009      -5.69545713E-12
   2.97000003      -3.02776012E-12
   3.02999997       2.05990476E-12
   3.08999991       7.86521542E-12
   3.15000010       1.19509489E-11
   3.21000004       1.21422820E-11
   3.26999998       7.56683258E-12
   3.32999992      -7.63854637E-13
   3.39000010      -1.01746372E-11
   3.45000005      -1.73340925E-11
   3.50999999      -1.96352795E-11
   3.56999993      -1.63028722E-11
   3.63000011      -8.65901188E-12
   3.69000006       6.28163428E-13
   3.75000000       8.95662884E-12
   3.80999994       1.51067318E-11
   3.86999989       1.96782972E-11
   3.93000007       2.42801976E-11
   3.99000001       2.97942157E-11
   4.05000019       3.46564895E-11
   4.11000013       3.42950807E-11
   4.17000008       2.24532528E-11
   4.23000002      -5.76152884E-12
   4.28999996      -5.02372241E-11
   4.34999990      -1.03326007E-10
   4.40999985      -1.49938909E-10
   4.46999979      -1.70849113E-10
   4.53000021      -1.48473095E-10
   4.59000015      -7.32881048E-11
   4.65000010       5.13474055E-11
   4.71000004       2.07679235E-10
   4.76999998       3.65844521E-10
   4.82999992       4.89098317E-10
   4.88999987       5.40212541E-10
   4.94999981       4.87192009E-10
   5.01000023       3.07143228E-10
   5.07000017      -1.18068775E-11
   5.13000011      -4.69765671E-10
   5.19000006      -1.05446429E-09
   5.25000000      -1.74019488E-09
   5.30999994      -2.48659315E-09
   5.36999989      -3.23841198E-09
   5.42999983      -3.92773014E-09
   5.48999977      -4.47960691E-09
   5.55000019      -4.82110751E-09
   5.61000013      -4.89229457E-09
   5.67000008      -4.65677585E-09
   5.73000002      -4.10908507E-09
   5.78999996      -3.27677907E-09
   5.84999990      -2.21649965E-09
   5.90999985      -1.00491881E-09
   5.96999979       2.73070816E-10
   6.03000021       1.53588764E-09
   6.09000015       2.71383405E-09
   6.15000010       3.75330611E-09
   6.21000004       4.61697036E-09
   6.26999998       5.28173727E-09
   6.32999992       5.73696379E-09
   6.38999987       5.98475269E-09
   6.44999981       6.04264416E-09
   6.51000023       5.94715077E-09
   6.57000017       5.75537440E-09
   6.63000011       5.54201751E-09
   6.69000006       5.39066525E-09
   6.75000000       5.38062261E-09
   6.80999994       5.57280977E-09
   6.86999989       5.99917982E-09
   6.92999983       6.65918964E-09
   6.98999977       7.52437668E-09
   7.05000019       8.54902815E-09
   7.11000013       9.68270530E-09
   7.17000008       1.08800071E-08
   7.23000002       1.21046364E-08
   7.28999996       1.33277647E-08
   7.34999990       1.45234988E-08
   7.40999985       1.56655098E-08
   7.46999979       1.67279346E-08
   7.53000021       1.76910824E-08
   7.59000015       1.85493541E-08
   7.65000010       1.93170369E-08
   7.71000004       2.00279029E-08
   7.76999998       2.07271746E-08
   7.82999992       2.14579146E-08
   7.88999987       2.22466721E-08
   7.94999981       2.30940724E-08
   8.01000023       2.39741560E-08
   8.06999969       2.48428940E-08
   8.13000011       2.56526906E-08
   8.18999958       2.63673989E-08
   8.25000000       2.69725575E-08
   8.31000042       2.74776237E-08
   8.36999989       2.79102199E-08
   8.43000031       2.83052213E-08
   8.48999977       2.86930284E-08
   8.55000019       2.90910993E-08
   8.60999966       2.95011588E-08
   8.67000008       2.99122043E-08
   8.72999954       3.03074650E-08
   8.78999996       3.06722967E-08
   8.85000038       3.10000239E-08
   8.90999985       3.12939115E-08
   8.97000027       3.15652002E-08
   9.02999973       3.18288009E-08
   9.09000015       3.20993792E-08
   9.14999962       3.23901972E-08
   9.21000004       3.27156826E-08
   9.27000046       3.30965797E-08
   9.32999992       3.35646568E-08
   9.39000034       3.41635271E-08
   9.44999981       3.49434046E-08
   9.51000023       3.59503964E-08
   9.56999969       3.72136562E-08
   9.63000011       3.87352870E-08
   9.68999958       4.04872971E-08
   9.75000000       4.24169748E-08
   9.81000042       4.44585950E-08
   9.86999989       4.65465853E-08
   9.93000031       4.86249760E-08
   9.98999977       5.06499447E-08
   10.0500002       5.25858326E-08
   10.1099997       5.43980114E-08
   10.1700001       5.60473090E-08
   10.2299995       5.74893342E-08
   10.2900000       5.86791700E-08
   10.3500004       5.95787668E-08
   10.4099998       6.01629822E-08
   10.4700003       6.04206818E-08
   10.5299997       6.03500396E-08
   10.5900002       5.99501604E-08
   10.6499996       5.92132992E-08
   10.7100000       5.81220583E-08
   10.7700005       5.66538780E-08
   10.8299999       5.47918759E-08
   10.8900003       5.25378532E-08
   10.9499998       4.99220043E-08
   11.0100002       4.70046793E-08
   11.0699997       4.38687344E-08
   11.1300001       4.06048954E-08
   11.1899996       3.72955178E-08
   11.2500000       3.40027491E-08
   11.3100004       3.07648591E-08
   11.3699999       2.76006720E-08
   11.4300003       2.45184459E-08
   11.4899998       2.15240394E-08
   11.5500002       1.86245774E-08
   11.6099997       1.58271494E-08
   11.6700001       1.31352564E-08
   11.7299995       1.05470495E-08
   11.7900000       8.05779266E-09
   11.8500004       5.66594238E-09
   11.9099998       3.37932970E-09
   11.9700003       1.21736243E-09
   12.0299997      -7.92839516E-10
   12.0900002      -2.62503153E-09
   12.1499996      -4.26314184E-09
   12.2100000      -5.70689584E-09
   12.2700005      -6.97149849E-09
   12.3299999      -8.08227352E-09
   12.3900003      -9.06744635E-09
   12.4499998      -9.95241134E-09
   12.5100002      -1.07570886E-08
   12.5699997      -1.14957226E-08
   12.6300001      -1.21772930E-08
   12.6899996      -1.28051774E-08
   12.7500000      -1.33762716E-08
   12.8100004      -1.38810412E-08
   12.8699999      -1.43059724E-08
   12.9300003      -1.46385126E-08
   12.9899998      -1.48728825E-08
   13.0500002      -1.50143027E-08
   13.1099997      -1.50798005E-08
   13.1700001      -1.50953987E-08
   13.2299995      -1.50910857E-08
   13.2900000      -1.50955266E-08
   13.3500004      -1.51318762E-08
   13.4099998      -1.52148942E-08
   13.4700003      -1.53489825E-08
   13.5299997      -1.55268882E-08
   13.5900002      -1.57297873E-08
   13.6499996      -1.59298921E-08
   13.7100000      -1.60963154E-08
   13.7700005      -1.62034173E-08
   13.8299999      -1.62391451E-08
   13.8900003      -1.62100928E-08
   13.9499998      -1.61407705E-08
   14.0100002      -1.60667781E-08
   14.0699997      -1.60240603E-08
   14.1300001      -1.60382037E-08
   14.1899996      -1.61177631E-08
   14.2500000      -1.62540168E-08
   14.3100004      -1.64269327E-08
   14.3699999      -1.66146314E-08
   14.4300003      -1.68022556E-08
   14.4899998      -1.69863608E-08
   14.5500002      -1.71729475E-08
   14.6099997      -1.73700929E-08
   14.6700001      -1.75788415E-08
   14.7299995      -1.77872579E-08
   14.7900000      -1.79714661E-08
   14.8500004      -1.81043180E-08
   14.9099998      -1.81684019E-08
   14.9700003      -1.81672828E-08
   15.0299997      -1.81289579E-08
   15.0900002      -1.80987954E-08
   15.1499996      -1.81242026E-08
   15.2100000      -1.82375910E-08
   15.2700005      -1.84452844E-08
   15.3299999      -1.87273113E-08
   15.3900003      -1.90476719E-08
   15.4499998      -1.93696739E-08
   15.5100002      -1.96688177E-08
   15.5699997      -1.99375929E-08
   15.6300001      -2.01811829E-08
   15.6899996      -2.04077697E-08
   15.7500000      -2.06193516E-08
   15.8100004      -2.08076987E-08
   15.8699999      -2.09564739E-08
   15.9300003      -2.10467785E-08
   15.9899998      -2.10619042E-08
   16.0499992      -2.09882014E-08
   16.1100006      -2.08121609E-08
   16.1700001      -2.05165520E-08
   16.2299995      -2.00793977E-08
   16.2900009      -1.94780014E-08
   16.3500004      -1.86972589E-08
   16.4099998      -1.77387314E-08
   16.4699993      -1.66260232E-08
   16.5300007      -1.54032840E-08
   16.5900002      -1.41266545E-08
   16.6499996      -1.28515181E-08
   16.7099991      -1.16203021E-08
   16.7700005      -1.04554188E-08
   16.8299999      -9.35971745E-09
   16.8899994      -8.32378522E-09
   16.9500008      -7.33655670E-09
   17.0100002      -6.39450848E-09
   17.0699997      -5.50550006E-09
   17.1299992      -4.68593608E-09
   17.1900005      -3.95304101E-09
   17.2500000      -3.31631078E-09
   17.3099995      -2.77243184E-09
   17.3700008      -2.30606756E-09
   17.4300003      -1.89576776E-09
   17.4899998      -1.52158541E-09
   17.5499992      -1.17019894E-09
   17.6100006      -8.34944947E-10
   17.6700001      -5.11257592E-10
   17.7299995      -1.90886459E-10
   17.7900009       1.40882361E-10
   17.8500004       5.02450359E-10
   17.9099998       9.08427611E-10
   17.9699993       1.36141587E-09
   18.0300007       1.84797910E-09
   18.0900002       2.34183606E-09
   18.1499996       2.81350632E-09
   18.2099991       3.24206773E-09
   18.2700005       3.62337649E-09
   18.3299999       3.97078237E-09
   18.3899994       4.30816183E-09
   18.4500008       4.65876537E-09
   18.5100002       5.03503061E-09
   18.5699997       5.43341327E-09
   18.6299992       5.83534199E-09
   18.6900005       6.21253493E-09
   18.7500000       6.53367183E-09
   18.8099995       6.77012446E-09
   18.8700008       6.90009871E-09
   18.9300003       6.91168767E-09
   18.9899998       6.80511469E-09
   19.0499992       6.59334765E-09
   19.1100006       6.29954000E-09
   19.1700001       5.95058314E-09
   19.2299995       5.56824986E-09
   19.2900009       5.16166576E-09
   19.3500004       4.72532813E-09
   19.4099998       4.24464952E-09
   19.4699993       3.70709996E-09
   19.5300007       3.11354453E-09
   19.5900002       2.48371124E-09
   19.6499996       1.85257731E-09
   19.7099991       1.25936239E-09
   19.7700005       7.34943051E-10
   19.8299999       2.94372610E-10
   19.8899994      -6.18265369E-11
   19.9500008      -3.39037742E-10
   20.0100002      -5.38242895E-10
   20.0699997      -6.50508758E-10
   20.1299992      -6.59742927E-10
   20.1900005      -5.52179191E-10
   20.2500000      -3.26944527E-10
   20.3099995      -1.19757101E-12
   20.3700008       3.93848898E-10
   20.4300003       8.24816937E-10
   20.4899998       1.27041366E-09
   20.5499992       1.73101511E-09
   20.6100006       2.22860508E-09
   20.6700001       2.79667023E-09
   20.7299995       3.46445272E-09
   20.7900009       4.24272217E-09
   20.8500004       5.11756637E-09
   20.9099998       6.05490058E-09
   20.9699993       7.01324820E-09
   21.0300007       7.95833088E-09
   21.0900002       8.87218476E-09
   21.1499996       9.75245307E-09
   21.2099991       1.06028120E-08
   21.2700005       1.14203864E-08
   21.3299999       1.21877566E-08
   21.3899994       1.28746231E-08
   21.4500008       1.34486360E-08
   21.5100002       1.38894096E-08
   21.5699997       1.41976164E-08
   21.6299992       1.43936782E-08
   21.6900005       1.45065844E-08
   21.7500000       1.45592400E-08
   21.8099995       1.45590073E-08
   21.8700008       1.44992418E-08
   21.9300003       1.43712837E-08
   21.9899998       1.41801921E-08
   22.0499992       1.39551455E-08
   22.1100006       1.37481004E-08
   22.1700001       1.36204692E-08
   22.2299995       1.36236835E-08
   22.2900009       1.37822695E-08
   22.3500004       1.40864582E-08
   22.4099998       1.44964707E-08
   22.4699993       1.49556190E-08
   22.5300007       1.54063553E-08
   22.5900002       1.58036624E-08
   22.6499996       1.61224225E-08
   22.7099991       1.63582943E-08
   22.7700005       1.65235363E-08
   22.8299999       1.66398095E-08
   22.8899994       1.67299028E-08
   22.9500008       1.68099792E-08
   23.0100002       1.68838525E-08
   23.0699997       1.69406782E-08
   23.1299992       1.69568821E-08
   23.1900005       1.69021277E-08
   23.2500000       1.67478387E-08
   23.3099995       1.64758980E-08
   23.3700008       1.60848987E-08
   23.4300003       1.55920343E-08
   23.4899998       1.50300412E-08
   23.5499992       1.44400660E-08
   23.6100006       1.38626408E-08
   23.6700001       1.33295002E-08
   23.7299995       1.28586661E-08
   23.7900009       1.24539641E-08
   23.8500004       1.21083703E-08
   23.9099998       1.18091048E-08
   23.9699993       1.15419878E-08
   24.0300007       1.12935412E-08
   24.0900002       1.10512142E-08
   24.1499996       1.08036833E-08
   24.2099991       1.05432933E-08
   24.2700005       1.02709903E-08
   24.3299999       1.00015409E-08
   24.3899994       9.76507497E-09
   24.4500008       9.60170965E-09
   24.5100002       9.54921564E-09
   24.5699997       9.62784164E-09
   24.6299992       9.82907622E-09
   24.6900005       1.01142996E-08
   24.7500000       1.04249871E-08
   24.8099995       1.07004476E-08
   24.8700008       1.08951470E-08
   24.9300003       1.09878062E-08
   24.9899998       1.09787219E-08
   25.0499992       1.08779759E-08
   25.1100006       1.06918341E-08
   25.1700001       1.04152251E-08
   25.2299995       1.00344417E-08
   25.2900009       9.53820134E-09
   25.3500004       8.93040930E-09
   25.4099998       8.23691160E-09
   25.4699993       7.50178142E-09
   25.5300007       6.77426826E-09
   25.5900002       6.09252560E-09
   25.6499996       5.47181722E-09
   25.7099991       4.90251084E-09
   25.7700005       4.35814096E-09
   25.8299999       3.80894916E-09
   25.8899994       3.23407257E-09
   25.9500008       2.62699484E-09
   26.0100002       1.99291761E-09
   26.0699997       1.34114242E-09
   26.1299992       6.77881751E-10
   26.1900005       4.06471254E-12
   26.2500000      -6.80727197E-10
   26.3099995      -1.37100764E-09
   26.3700008      -2.04983230E-09
   26.4300003      -2.68913869E-09
   26.4899998      -3.25676774E-09
   26.5499992      -3.72691211E-09
   26.6100006      -4.08839318E-09
   26.6700001      -4.34598579E-09
   26.7299995      -4.51365345E-09
   26.7900009      -4.60310234E-09
   26.8500004      -4.61387373E-09
   26.9099998      -4.53063453E-09
   26.9699993      -4.32947012E-09
   27.0300007      -3.98993016E-09
   27.0900002      -3.50615759E-09
   27.1499996      -2.89064572E-09
   27.2099991      -2.16812213E-09
   27.2700005      -1.36257561E-09
   27.3299999      -4.84491169E-10
   27.3899994       4.74395134E-10
   27.4500008       1.53529423E-09
   27.5100002       2.71774847E-09
   27.5699997       4.02307521E-09
   27.6299992       5.42376455E-09
   27.6900005       6.86375579E-09
   27.7500000       8.26937452E-09
   27.8099995       9.56610613E-09
   27.8700008       1.06947127E-08
   27.9300003       1.16216654E-08
   27.9899998       1.23421628E-08
   28.0499992       1.28770203E-08
   28.1100006       1.32659146E-08
   28.1700001       1.35589495E-08
   28.2299995       1.38075125E-08
   28.2900009       1.40551037E-08
   28.3500004       1.43296681E-08
   28.4099998       1.46399204E-08
   28.4699993       1.49779069E-08
   28.5300007       1.53279007E-08
   28.5900002       1.56784292E-08
   28.6499996       1.60317448E-08
   28.7099991       1.64053215E-08
   28.7700005       1.68234617E-08
   28.8299999       1.73023249E-08
   28.8899994       1.78358501E-08
   28.9500008       1.83905637E-08
   29.0100002       1.89134095E-08
   29.0699997       1.93502103E-08
   29.1299992       1.96666274E-08
   29.1900005       1.98615435E-08
   29.2500000       1.99660537E-08
   29.3099995       2.00280770E-08
   29.3700008       2.00896118E-08
   29.4300003       2.01672883E-08
   29.4899998       2.02450892E-08
   29.5499992       2.02820871E-08
   29.6100006       2.02307078E-08
   29.6700001       2.00561949E-08
   29.7299995       1.97480485E-08
   29.7900009       1.93188701E-08
   29.8500004       1.87928055E-08
   29.9099998       1.81908497E-08
   29.9699993       1.75212769E-08
   30.0300007       1.67798238E-08
   30.0900002       1.59584275E-08
   30.1499996       1.50563775E-08
   30.2099991       1.40865710E-08
   30.2700005       1.30726736E-08
   30.3299999       1.20384644E-08
   30.3899994       1.09955609E-08
   30.4500008       9.93702010E-09
   30.5100002       8.84152573E-09
   30.5699997       7.68733610E-09
   30.6299992       6.46997522E-09
   30.6900005       5.21543919E-09
   30.7500000       3.98257827E-09
   30.8099995       2.85309576E-09
   30.8700008       1.91283567E-09
   30.9300003       1.23131605E-09
   30.9899998       8.46542780E-10
   31.0499992       7.59551533E-10
   31.1100006       9.39400557E-10
   31.1700001       1.33611555E-09
   31.2299995       1.89721883E-09
   31.2900009       2.58306221E-09
   31.3500004       3.37680306E-09
   31.4099998       4.28623492E-09
   31.4699993       5.33674349E-09
   31.5300007       6.55725740E-09
   31.5900002       7.96359956E-09
   31.6499996       9.54520551E-09
   31.7099991       1.12604965E-08
   31.7700005       1.30433646E-08
   31.8299999       1.48189159E-08
   31.8899994       1.65228649E-08
   31.9500008       1.81175626E-08
   32.0099983       1.95992289E-08
   32.0699997       2.09946993E-08
   32.1300011       2.23499939E-08
   32.1899986       2.37153674E-08
   32.2500000       2.51315484E-08
   32.3100014       2.66201354E-08
   32.3699989       2.81791532E-08
   32.4300003       2.97836067E-08
   32.4900017       3.13906163E-08
   32.5499992       3.29487477E-08
   32.6100006       3.44103910E-08
   32.6699982       3.57445025E-08
   32.7299995       3.69456927E-08
   32.7900009       3.80355516E-08
   32.8499985       3.90544628E-08
   32.9099998       4.00458759E-08
   32.9700012       4.10387742E-08
   33.0299988       4.20354809E-08
   33.0900002       4.30100542E-08
   33.1500015       4.39182202E-08
   33.2099991       4.47145752E-08
   33.2700005       4.53697915E-08
   33.3300018       4.58808422E-08
   33.3899994       4.62705323E-08
   33.4500008       4.65775258E-08
   33.5099983       4.68417873E-08
   33.5699997       4.70914721E-08
   33.6300011       4.73356963E-08
   33.6899986       4.75644519E-08
   33.7500000       4.77537760E-08
   33.8100014       4.78731401E-08
   33.8699989       4.78923177E-08
   33.9300003       4.77867275E-08
   33.9900017       4.75412634E-08
   34.0499992       4.71529766E-08
   34.1100006       4.66319534E-08
   34.1699982       4.59993359E-08
   34.2299995       4.52816948E-08
   34.2900009       4.45029400E-08
   34.3499985       4.36769874E-08
   34.4099998       4.28052260E-08
   34.4700012       4.18813073E-08
   34.5299988       4.09020231E-08
   34.5900002       3.98792181E-08
   34.6500015       3.88459931E-08
   34.7099991       3.78524270E-08
   34.7700005       3.69513309E-08
   34.8300018       3.61799657E-08
   34.8899994       3.55467940E-08
   34.9500008       3.50303893E-08
   35.0099983       3.45919737E-08
   35.0699997       3.41959812E-08
   35.1300011       3.38288899E-08
   35.1899986       3.35071313E-08
   35.2500000       3.32704886E-08
   35.3100014       3.31644721E-08
   35.3699989       3.32205978E-08
   35.4300003       3.34437011E-08
   35.4900017       3.38115420E-08
   35.5499992       3.42850797E-08
   35.6100006       3.48229143E-08
   35.6699982       3.53918992E-08
   35.7299995       3.59692152E-08
   35.7900009       3.65364379E-08
   35.8499985       3.70705990E-08
   35.9099998       3.75385305E-08
   35.9700012       3.78980047E-08
   36.0299988       3.81048508E-08
   36.0900002       3.81216374E-08
   36.1500015       3.79229910E-08
   36.2099991       3.74955427E-08
   36.2700005       3.68342832E-08
   36.3300018       3.59397774E-08
   36.3899994       3.48196814E-08
   36.4500008       3.34942882E-08
   36.5099983       3.20018643E-08
   36.5699997       3.03982013E-08
   36.6300011       2.87474666E-08
   36.6899986       2.71071485E-08
   36.7500000       2.55142751E-08
   36.8100014       2.39808386E-08
   36.8699989       2.25015668E-08
   36.9300003       2.10699476E-08
   36.9900017       1.96929086E-08
   37.0499992       1.83946245E-08
   37.1100006       1.72061583E-08
   37.1699982       1.61463500E-08
   37.2299995       1.52053605E-08
   37.2900009       1.43414489E-08
   37.3499985       1.34940699E-08
   37.4099998       1.26066331E-08
   37.4700012       1.16461587E-08
   37.5299988       1.06085887E-08
   37.5900002       9.50685042E-09
   37.6500015       8.34901481E-09
   37.7099991       7.11974701E-09
   37.7700005       5.77625903E-09
   37.8300018       4.26126290E-09
   37.8899994       2.52547450E-09
   37.9500008       5.46824308E-10
   38.0099983      -1.66409297E-09
   38.0699997      -4.07439060E-09
   38.1300011      -6.64794353E-09
   38.1899986      -9.36145206E-09
   38.2500000      -1.22084574E-08
   38.3100014      -1.51900856E-08
   38.3699989      -1.82994366E-08
   38.4300003      -2.15100506E-08
   38.4900017      -2.47760816E-08
   38.5499992      -2.80443953E-08
   38.6100006      -3.12717070E-08
   38.6699982      -3.44369084E-08
   38.7299995      -3.75417528E-08
   38.7900009      -4.05998044E-08
   38.8499985      -4.36201084E-08
   38.9099998      -4.65945433E-08
   38.9700012      -4.94950463E-08
   39.0299988      -5.22807682E-08
   39.0900002      -5.49095880E-08
   39.1500015      -5.73464440E-08
   39.2099991      -5.95639591E-08
   39.2700005      -6.15364755E-08
   39.3300018      -6.32336494E-08
   39.3899994      -6.46203446E-08
   39.4500008      -6.56657946E-08
   39.5099983      -6.63580835E-08
   39.5699997      -6.67158062E-08
   39.6300011      -6.67881608E-08
   39.6899986      -6.66408653E-08
   39.7500000      -6.63330439E-08
   39.8100014      -6.58960602E-08
   39.8699989      -6.53251107E-08
   39.9300003      -6.45879794E-08
   39.9900017      -6.36459774E-08
   40.0499992      -6.24759338E-08
   40.1100006      -6.10815505E-08
   40.1699982      -5.94895084E-08
   40.2299995      -5.77341090E-08
   40.2900009      -5.58410136E-08
   40.3499985      -5.38197540E-08
   40.4099998      -5.16683656E-08
   40.4700012      -4.93854522E-08
   40.5299988      -4.69804888E-08
   40.5900002      -4.44753105E-08
   40.6500015      -4.18966053E-08
   40.7099991      -3.92660517E-08
   40.7700005      -3.65966173E-08
   40.8300018      -3.38989921E-08
   40.8899994      -3.11941832E-08
   40.9500008      -2.85227699E-08
   41.0099983      -2.59419277E-08
   41.0699997      -2.35089193E-08
   41.1300011      -2.12589004E-08
   41.1899986      -1.91902121E-08
   41.2500000      -1.72674088E-08
   41.3100014      -1.54426552E-08
   41.3699989      -1.36852618E-08
   41.4300003      -1.20037171E-08
   41.4900017      -1.04479856E-08
   41.5499992      -9.09037023E-09
   41.6100006      -7.99478261E-09
   41.6699982      -7.19031590E-09
   41.7299995      -6.66235112E-09
   41.7900009      -6.36486819E-09
   41.8499985      -6.24662588E-09
   41.9099998      -6.27736707E-09
   41.9700012      -6.46113740E-09
   42.0299988      -6.83099977E-09
   42.0900002      -7.42855244E-09
   42.1500015      -8.27815683E-09
   42.2099991      -9.36694633E-09
   42.2700005      -1.06379856E-08
   42.3300018      -1.19978525E-08
   42.3899994      -1.33346347E-08
   42.4500008      -1.45396566E-08
   42.5099983      -1.55266076E-08
   42.5699997      -1.62438845E-08
   42.6300011      -1.66785128E-08
   42.6899986      -1.68519509E-08
   42.7500000      -1.68091727E-08
   42.8100014      -1.66032752E-08
   42.8699989      -1.62787828E-08
   42.9300003      -1.58578608E-08
   42.9900017      -1.53341126E-08
   43.0499992      -1.46774228E-08
   43.1100006      -1.38500624E-08
   43.1699982      -1.28295730E-08
   43.2299995      -1.16299637E-08
   43.2900009      -1.03117479E-08
   43.3499985      -8.97482266E-09
   43.4099998      -7.73525510E-09
   43.4700012      -6.69451561E-09
   43.5299988      -5.91377480E-09
   43.5900002      -5.40383827E-09
   43.6500015      -5.13394038E-09
   43.7099991      -5.05350251E-09
   43.7700005      -5.11513631E-09
   43.8300018      -5.28775423E-09
   43.8899994      -5.55522961E-09
   43.9500008      -5.90464078E-09
   44.0099983      -6.31373709E-09
   44.0699997      -6.74668810E-09
   44.1300011      -7.16114501E-09
   44.1899986      -7.52217844E-09
   44.2500000      -7.81431986E-09
   44.3100014      -8.04437139E-09
   44.3699989      -8.23356228E-09
   44.4300003      -8.40420000E-09
   44.4900017      -8.56903704E-09
   44.5499992      -8.72944206E-09
   44.6100006      -8.88260043E-09
   44.6699982      -9.03230113E-09
   44.7299995      -9.19568777E-09
   44.7900009      -9.40112521E-09
   44.8499985      -9.67800240E-09
   44.9099998      -1.00446087E-08
   44.9700012      -1.05016902E-08
   45.0299988      -1.10362635E-08
   45.0900002      -1.16342473E-08
   45.1500015      -1.22951072E-08
   45.2099991      -1.30400624E-08
   45.2700005      -1.39084575E-08
   45.3300018      -1.49432307E-08
   45.3899994      -1.61722635E-08
   45.4500008      -1.75947505E-08
   45.5099983      -1.91789535E-08
   45.5699997      -2.08716795E-08
   45.6300011      -2.26137526E-08
   45.6899986      -2.43533425E-08
   45.7500000      -2.60513264E-08
   45.8100014      -2.76784924E-08
   45.8699989      -2.92094136E-08
   45.9300003      -3.06192334E-08
   45.9900017      -3.18863833E-08
   46.0499992      -3.29990115E-08
   46.1100006      -3.39592461E-08
   46.1699982      -3.47802285E-08
   46.2299995      -3.54758996E-08
   46.2900009      -3.60492152E-08
   46.3499985      -3.64869379E-08
   46.4099998      -3.67656980E-08
   46.4700012      -3.68672630E-08
   46.5299988      -3.67941446E-08
   46.5900002      -3.65756918E-08
   46.6500015      -3.62598840E-08
   46.7099991      -3.58948782E-08
   46.7700005      -3.55112242E-08
   46.8300018      -3.51159777E-08
   46.8899994      -3.47029605E-08
   46.9500008      -3.42734694E-08
   47.0099983      -3.38547110E-08
   47.0699997      -3.35037740E-08
   47.1300011      -3.32929311E-08
   47.1899986      -3.32827703E-08
   47.2500000      -3.34969279E-08
   47.3100014      -3.39113484E-08
   47.3699989      -3.44631523E-08
   47.4300003      -3.50737146E-08
   47.4900017      -3.56737786E-08
   47.5499992      -3.62187471E-08
   47.6100006      -3.66892117E-08
   47.6699982      -3.70804756E-08
   47.7299995      -3.73901763E-08
   47.7900009      -3.76123133E-08
   47.8499985      -3.77402571E-08
   47.9099998      -3.77746403E-08
   47.9700012      -3.77288885E-08
   48.0299988      -3.76271778E-08
   48.0900002      -3.74950844E-08
   48.1500015      -3.73485314E-08
   48.2099991      -3.71878919E-08
   48.2700005      -3.70011328E-08
   48.3300018      -3.67740718E-08
   48.3899994      -3.65013548E-08
   48.4500008      -3.61914729E-08
   48.5099983      -3.58627474E-08
   48.5699997      -3.55330556E-08
   48.6300011      -3.52097089E-08
   48.6899986      -3.48858329E-08
   48.7500000      -3.45452698E-08
   48.8100014      -3.41729560E-08
   48.8699989      -3.37642376E-08
   48.9300003      -3.33276517E-08
   48.9900017      -3.28795977E-08
   49.0499992      -3.24342402E-08
   49.1100006      -3.19943254E-08
   49.1699982      -3.15473265E-08
   49.2299995      -3.10673904E-08
   49.2900009      -3.05196899E-08
   49.3499985      -2.98624343E-08
   49.4099998      -2.90439477E-08
   49.4700012      -2.79962382E-08
   49.5299988      -2.66295022E-08
   49.5900002      -2.48321452E-08
   49.6500015      -2.24776464E-08
   49.7099991      -1.94349283E-08
   49.7700005      -1.55757736E-08
   49.8300018      -1.07729505E-08
   49.8899994      -4.88658802E-09
   49.9500008       2.25849406E-09
   50.0099983       1.08974954E-08
   50.0699997       2.13446665E-08
   50.1300011       3.40018680E-08
   50.1899986       4.93572223E-08
   50.2500000       6.79795775E-08
   50.3100014       9.05169273E-08
   50.3699989       1.17705497E-07
   50.4300003       1.50391571E-07
   50.4900017       1.89562584E-07
   50.5499992       2.36380416E-07
   50.6100006       2.92210842E-07