  -2.400000      0.0000000E+00
  -2.340000      0.0000000E+00
  -2.280000      0.0000000E+00
  -2.220000      0.0000000E+00
  -2.160000      0.0000000E+00
  -2.100000      0.0000000E+00
  -2.040000     -2.8140642E-21
  -1.980000     -1.1964090E-20
  -1.920000      2.1552411E-20
  -1.860000      3.4423150E-19
  -1.800000      1.4799738E-18
  -1.740000      3.7396120E-18
  -1.680000      5.6850531E-18
  -1.620000      2.2393897E-18
  -1.560000     -1.4704302E-17
  -1.500000     -4.9336810E-17
  -1.440000     -8.8469752E-17
  -1.380000     -9.0782669E-17
  -1.320000      2.6494674E-18
  -1.260000      2.2148428E-16
  -1.200000      4.9484538E-16
  -1.140000      6.1096021E-16
  -1.080000      2.8836797E-16
  -1.020000     -6.0082567E-16
 -0.9600000     -1.7401747E-15
 -0.9000000     -2.2494381E-15
 -0.8400000     -1.0233687E-15
 -0.7800000      2.3840818E-15
 -0.7200000      6.7004817E-15
 -0.6600000      8.5532074E-15
 -0.6000000      3.6913827E-15
 -0.5400000     -9.9721003E-15
 -0.4800000     -2.8708904E-14
 -0.4200000     -4.1329848E-14
 -0.3600000     -3.2344421E-14
 -0.3000000      9.2482225E-15
 -0.2400000      7.8573521E-14
 -0.1800000      1.4777289E-13
 -0.1200000      1.7089764E-13
 -5.9999999E-02  1.0416379E-13
  0.0000000E+00 -6.4135099E-14
  5.9999999E-02 -2.8930718E-13
  0.1200000     -4.7031639E-13
  0.1800000     -4.8538170E-13
  0.2400000     -2.5594506E-13
  0.3000000      1.8936622E-13
  0.3600000      6.9036481E-13
  0.4200000      1.0002980E-12
  0.4800000      8.9790973E-13
  0.5400000      3.2246810E-13
  0.6000000     -5.4099666E-13
  0.6600000     -1.2926357E-12
  0.7200000     -1.4829743E-12
  0.7800000     -8.5673992E-13
  0.8400000      4.4271054E-13
  0.9000000      1.8375741E-12
  0.9600000      2.5170684E-12
   1.020000      1.8287143E-12
   1.080000     -3.0756349E-13
   1.140000     -3.1855616E-12
   1.200000     -5.4680874E-12
   1.260000     -5.7205317E-12
   1.320000     -3.1306418E-12
   1.380000      1.9193638E-12
   1.440000      7.7553701E-12
   1.500000      1.1934396E-11
   1.560000      1.2241931E-11
   1.620000      7.7501443E-12
   1.680000     -5.7301028E-13
   1.740000     -1.0060901E-11
   1.800000     -1.7348420E-11
   1.860000     -1.9765767E-11
   1.920000     -1.6473371E-11
   1.980000     -8.7584115E-12
   2.040000      6.9604912E-13
   2.100000      9.2217709E-12
   2.160000      1.5501610E-11
   2.220000      2.0042856E-11
   2.280000      2.4407799E-11
   2.340000      2.9508399E-11
   2.400000      3.3893985E-11
   2.460000      3.3162334E-11
   2.520000      2.1227169E-11
   2.580000     -6.7006995E-12
   2.640000     -5.0526031E-11
   2.700000     -1.0274982E-10
   2.760000     -1.4852292E-10
   2.820000     -1.6886650E-10
   2.880000     -1.4636192E-10
   2.940000     -7.1509097E-11
   3.000000      5.2451089E-11
   3.060000      2.0795959E-10
   3.120000      3.6533421E-10
   3.180000      4.8792226E-10
   3.240000      5.3848320E-10
   3.300000      4.8495413E-10
   3.360000      3.0440517E-10
   3.420000     -1.4971037E-11
   3.480000     -4.7310644E-10
   3.540000     -1.0575214E-09
   3.600000     -1.7423880E-09
   3.660000     -2.4874347E-09
   3.720000     -3.2377634E-09
   3.780000     -3.9259969E-09
   3.840000     -4.4777670E-09
   3.900000     -4.8205382E-09
   3.960000     -4.8944413E-09
   4.020000     -4.6627786E-09
   4.080000     -4.1194963E-09
   4.140000     -3.2914826E-09
   4.200000     -2.2348461E-09
   4.260000     -1.0260061E-09
   4.320000      2.5010299E-10
   4.380000      1.5116877E-09
   4.440000      2.6888678E-09
   4.500000      3.7280632E-09
   4.560000      4.5922395E-09
   4.620000      5.2587916E-09
   4.680000      5.7175455E-09
   4.740000      5.9708203E-09
   4.800000      6.0359602E-09
   4.860000      5.9488845E-09
   4.920000      5.7658753E-09
   4.980000      5.5608713E-09
   5.040000      5.4169975E-09
   5.100000      5.4135043E-09
   5.160000      5.6115659E-09
   5.220000      6.0434293E-09
   5.280000      6.7085808E-09
   5.340000      7.5781363E-09
   5.400000      8.6055607E-09
   5.460000      9.7394759E-09
   5.520000      1.0933843E-08
   5.580000      1.2152372E-08
   5.640000      1.3367013E-08
   5.700000      1.4553218E-08
   5.760000      1.5686139E-08
   5.820000      1.6741032E-08
   5.880000      1.7698607E-08
   5.940000      1.8552878E-08
   6.000000      1.9317138E-08
   6.060000      2.0023942E-08
   6.120000      2.0717406E-08
   6.180000      2.1439826E-08
   6.240000      2.2217401E-08
   6.300000      2.3050811E-08
   6.360000      2.3914565E-08
   6.420000      2.4765590E-08
   6.480000      2.5557759E-08
   6.540000      2.6256853E-08
   6.600000      2.6850477E-08
   6.660000      2.7349820E-08
   6.720000      2.7783345E-08
   6.780000      2.8185601E-08
   6.840000      2.8585578E-08
   6.900000      2.8998782E-08
   6.960000      2.9425154E-08
   7.020000      2.9852711E-08
   7.080000      3.0264690E-08
   7.140000      3.0647069E-08
   7.200000      3.0993725E-08
   7.260000      3.1307732E-08
   7.320000      3.1599114E-08
   7.380000      3.1880866E-08
   7.440000      3.2165783E-08
   7.500000      3.2466126E-08
   7.560000      3.2796660E-08
   7.620000      3.3179592E-08
   7.680000      3.3648615E-08
   7.740000      3.4248806E-08
   7.800000      3.5030826E-08
   7.860000      3.6040145E-08
   7.920000      3.7304705E-08
   7.980000      3.8825590E-08
   8.040000      4.0574530E-08
   8.100000      4.2499341E-08
   8.160000      4.4535202E-08
   8.220000      4.6617238E-08
   8.280000      4.8689593E-08
   8.340000      5.0708078E-08
   8.400000      5.2636739E-08
   8.460000      5.4441418E-08
   8.520000      5.6084438E-08
   8.580000      5.7523575E-08
   8.640000      5.8715813E-08
   8.700000      5.9623702E-08
   8.760000      6.0220863E-08
   8.820000      6.0493306E-08
   8.880000      6.0435809E-08
   8.940000      6.0044769E-08
   9.000000      5.9311393E-08
   9.060000      5.8218955E-08
   9.120000      5.6746551E-08
   9.180000      5.4878786E-08
   9.240000      5.2617921E-08
   9.300000      4.9993400E-08
   9.360000      4.7064223E-08
   9.420000      4.3912266E-08
   9.480000      4.0628493E-08
   9.540000      3.7296900E-08
   9.600000      3.3982147E-08
   9.660000      3.0724873E-08
   9.720000      2.7545104E-08
   9.780000      2.4450650E-08
   9.840000      2.1445496E-08
   9.900000      1.8534410E-08
   9.960000      1.5722806E-08
   10.02000      1.3014101E-08
   10.08000      1.0408097E-08
   10.14000      7.9027895E-09
   10.20000      5.4992677E-09
   10.26000      3.2068130E-09
   10.32000      1.0446972E-09
   10.38000     -9.6121355E-10
   10.44000     -2.7860161E-09
   10.50000     -4.4141442E-09
   10.56000     -5.8447931E-09
   10.62000     -7.0922725E-09
   10.68000     -8.1817175E-09
   10.74000     -9.1425685E-09
   10.80000     -1.0002584E-08
   10.86000     -1.0784026E-08
   10.92000     -1.1502114E-08
   10.98000     -1.2164809E-08
   11.04000     -1.2773094E-08
   11.10000     -1.3321647E-08
   11.16000     -1.3800435E-08
   11.22000     -1.4197713E-08
   11.28000     -1.4504151E-08
   11.34000     -1.4716999E-08
   11.40000     -1.4842890E-08
   11.46000     -1.4898347E-08
   11.52000     -1.4907908E-08
   11.58000     -1.4900591E-08
   11.64000     -1.4905561E-08
   11.70000     -1.4947702E-08
   11.76000     -1.5043469E-08
   11.82000     -1.5197429E-08
   11.88000     -1.5400285E-08
   11.94000     -1.5629475E-08
   12.00000     -1.5853201E-08
   12.06000     -1.6037768E-08
   12.12000     -1.6156626E-08
   12.18000     -1.6198431E-08
   12.24000     -1.6171207E-08
   12.30000     -1.6100770E-08
   12.36000     -1.6023538E-08
   12.42000     -1.5975958E-08
   12.48000     -1.5984163E-08
   12.54000     -1.6057424E-08
   12.60000     -1.6187714E-08
   12.66000     -1.6355340E-08
   12.72000     -1.6538250E-08
   12.78000     -1.6721071E-08
   12.84000     -1.6899921E-08
   12.90000     -1.7080803E-08
   12.96000     -1.7272306E-08
   13.02000     -1.7476273E-08
   13.08000     -1.7681499E-08
   13.14000     -1.7864600E-08
   13.20000     -1.7998717E-08
   13.26000     -1.8066697E-08
   13.32000     -1.8072376E-08
   13.38000     -1.8043865E-08
   13.44000     -1.8026141E-08
   13.50000     -1.8065498E-08
   13.56000     -1.8192644E-08
   13.62000     -1.8412139E-08
   13.68000     -1.8702810E-08
   13.74000     -1.9028384E-08
   13.80000     -1.9352701E-08
   13.86000     -1.9652001E-08
   13.92000     -1.9919076E-08
   13.98000     -2.0158708E-08
   14.04000     -2.0378284E-08
   14.10000     -2.0579314E-08
   14.16000     -2.0754028E-08
   14.22000     -2.0887578E-08
   14.28000     -2.0963070E-08
   14.34000     -2.0965436E-08
   14.40000     -2.0881718E-08
   14.46000     -2.0698177E-08
   14.52000     -2.0397056E-08
   14.58000     -1.9956348E-08
   14.64000     -1.9354177E-08
   14.70000     -1.8576799E-08
   14.76000     -1.7626874E-08
   14.82000     -1.6528132E-08
   14.88000     -1.5323716E-08
   14.94000     -1.4068109E-08
   15.00000     -1.2815108E-08
   15.06000     -1.1606063E-08
   15.12000     -1.0462681E-08
   15.18000     -9.3869970E-09
   15.24000     -8.3683309E-09
   15.30000     -7.3941280E-09
   15.36000     -6.4598686E-09
   15.42000     -5.5736091E-09
   15.48000     -4.7532085E-09
   15.54000     -4.0178674E-09
   15.60000     -3.3784542E-09
   15.66000     -2.8316747E-09
   15.72000     -2.3610369E-09
   15.78000     -1.9437865E-09
   15.84000     -1.5597047E-09
   15.90000     -1.1967397E-09
   15.96000     -8.5050977E-10
   16.02000     -5.1854482E-10
   16.08000     -1.9343707E-10
   16.14000      1.4017902E-10
   16.20000      5.0222282E-10
   16.26000      9.0873814E-10
   16.32000      1.3631198E-09
   16.38000      1.8522305E-09
   16.44000      2.3501359E-09
   16.50000      2.8280562E-09
   16.56000      3.2657861E-09
   16.62000      3.6591077E-09
   16.68000      4.0199035E-09
   16.74000      4.3693680E-09
   16.80000      4.7278732E-09
   16.86000      5.1060325E-09
   16.92000      5.5001905E-09
   16.98000      5.8930287E-09
   17.04000      6.2578351E-09
   17.10000      6.5642358E-09
   17.16000      6.7837966E-09
   17.22000      6.8949273E-09
   17.28000      6.8869390E-09
   17.34000      6.7626922E-09
   17.40000      6.5385533E-09
   17.46000      6.2404313E-09
   17.52000      5.8960028E-09
   17.58000      5.5254006E-09
   17.64000      5.1343241E-09
   17.70000      4.7133355E-09
   17.76000      4.2446118E-09
   17.82000      3.7136907E-09
   17.88000      3.1207914E-09
   17.94000      2.4860087E-09
   18.00000      1.8454999E-09
   18.06000      1.2403996E-09
   18.12000      7.0406520E-10
   18.18000      2.5412450E-10
   18.24000     -1.0692686E-10
   18.30000     -3.8366671E-10
   18.36000     -5.7750682E-10
   18.42000     -6.8068307E-10
   18.48000     -6.7828093E-10
   18.54000     -5.5726040E-10
   18.60000     -3.1712089E-10
   18.66000      2.4449217E-11
   18.72000      4.3511494E-10
   18.78000      8.7984192E-10
   18.84000      1.3357480E-09
   18.90000      1.8024118E-09
   18.96000      2.3021121E-09
   19.02000      2.8693159E-09
   19.08000      3.5340617E-09
   19.14000      4.3069988E-09
   19.20000      5.1731215E-09
   19.26000      6.0969980E-09
   19.32000      7.0366046E-09
   19.38000      7.9586107E-09
   19.44000      8.8473593E-09
   19.50000      9.7032489E-09
   19.56000      1.0532018E-08
   19.62000      1.1331451E-08
   19.68000      1.2083490E-08
   19.74000      1.2756690E-08
   19.80000      1.3318025E-08
   19.86000      1.3747475E-08
   19.92000      1.4047016E-08
   19.98000      1.4238609E-08
   20.04000      1.4352159E-08
   20.10000      1.4410251E-08
   20.16000      1.4418606E-08
   20.22000      1.4368042E-08
   20.28000      1.4247190E-08
   20.34000      1.4058988E-08
   20.40000      1.3831642E-08
   20.46000      1.3617488E-08
   20.52000      1.3479476E-08
   20.58000      1.3471213E-08
   20.64000      1.3619373E-08
   20.70000      1.3915703E-08
   20.76000      1.4321036E-08
   20.82000      1.4778497E-08
   20.88000      1.5230011E-08
   20.94000      1.5630169E-08
   21.00000      1.5953866E-08
   21.06000      1.6197061E-08
   21.12000      1.6372169E-08
   21.18000      1.6500410E-08
   21.24000      1.6603320E-08
   21.30000      1.6695244E-08
   21.36000      1.6778239E-08
   21.42000      1.6840477E-08
   21.48000      1.6858706E-08
   21.54000      1.6804233E-08
   21.60000      1.6650931E-08
   21.66000      1.6383018E-08
   21.72000      1.6000337E-08
   21.78000      1.5519680E-08
   21.84000      1.4971786E-08
   21.90000      1.4395076E-08
   21.96000      1.3827903E-08
   22.02000      1.3301538E-08
   22.08000      1.2835663E-08
   22.14000      1.2437206E-08
   22.20000      1.2102144E-08
   22.26000      1.1818975E-08
   22.32000      1.1572279E-08
   22.38000      1.1345399E-08
   22.44000      1.1122406E-08
   22.50000      1.0890312E-08
   22.56000      1.0642430E-08
   22.62000      1.0382614E-08
   22.68000      1.0128431E-08
   22.74000      9.9105488E-09
   22.80000      9.7664206E-09
   22.86000      9.7288684E-09
   22.92000      9.8132666E-09
   22.98000      1.0008729E-08
   23.04000      1.0277878E-08
   23.10000      1.0566257E-08
   23.16000      1.0817913E-08
   23.22000      1.0990508E-08
   23.28000      1.1063380E-08
   23.34000      1.1035393E-08
   23.40000      1.0914679E-08
   23.46000      1.0706438E-08
   23.52000      1.0405881E-08
   23.58000      1.0000326E-08
   23.64000      9.4792520E-09
   23.70000      8.8464578E-09
   23.76000      8.1270590E-09
   23.82000      7.3645801E-09
   23.88000      6.6086789E-09
   23.94000      5.8990079E-09
   24.00000      5.2528462E-09
   24.06000      4.6622235E-09
   24.12000      4.1013926E-09
   24.18000      3.5403709E-09
   24.24000      2.9576264E-09
   24.30000      2.3460909E-09
   24.36000      1.7107896E-09
   24.42000      1.0610575E-09
   24.48000      4.0297379E-10
   24.54000     -2.6308969E-10
   24.60000     -9.3846542E-10
   24.66000     -1.6185807E-09
   24.72000     -2.2869857E-09
   24.78000     -2.9154639E-09
   24.84000     -3.4711582E-09
   24.90000     -3.9274259E-09
   24.96000     -4.2726636E-09
   25.02000     -4.5120818E-09
   25.08000     -4.6610751E-09
   25.14000     -4.7334461E-09
   25.20000     -4.7307558E-09
   25.26000     -4.6387005E-09
   25.32000     -4.4327519E-09
   25.38000     -4.0901926E-09
   25.44000     -3.6020056E-09
   25.50000     -2.9778859E-09
   25.56000     -2.2412667E-09
   25.62000     -1.4167562E-09
   25.68000     -5.1682469E-10
   25.74000      4.6464502E-10
   25.80000      1.5476892E-09
   25.86000      2.7520346E-09
   25.92000      4.0799555E-09
   25.98000      5.5045168E-09
   26.04000      6.9689197E-09
   26.10000      8.3973619E-09
   26.16000      9.7127115E-09
   26.22000      1.0853946E-08
   26.28000      1.1787491E-08
   26.34000      1.2510180E-08
   26.40000      1.3045144E-08
   26.46000      1.3433726E-08
   26.52000      1.3726273E-08
   26.58000      1.3973185E-08
   26.64000      1.4216786E-08
   26.70000      1.4484812E-08
   26.76000      1.4787249E-08
   26.82000      1.5118381E-08
   26.88000      1.5464469E-08
   26.94000      1.5814585E-08
   27.00000      1.6169700E-08
   27.06000      1.6544854E-08
   27.12000      1.6962137E-08
   27.18000      1.7436955E-08
   27.24000      1.7964339E-08
   27.30000      1.8513077E-08
   27.36000      1.9032155E-08
   27.42000      1.9468015E-08
   27.48000      1.9785114E-08
   27.54000      1.9979929E-08
   27.60000      2.0081165E-08
   27.66000      2.0135412E-08
   27.72000      2.0184739E-08
   27.78000      2.0246747E-08
   27.84000      2.0306441E-08
   27.90000      2.0323370E-08
   27.96000      2.0249955E-08
   28.02000      2.0051615E-08
   28.08000      1.9718900E-08
   28.14000      1.9266526E-08
   28.20000      1.8721236E-08
   28.26000      1.8106048E-08
   28.32000      1.7429759E-08
   28.38000      1.6686888E-08
   28.44000      1.5867021E-08
   28.50000      1.4967091E-08
   28.56000      1.3998674E-08
   28.62000      1.2985595E-08
   28.68000      1.1952975E-08
   28.74000      1.0914142E-08
   28.80000      9.8633661E-09
   28.86000      8.7794989E-09
   28.92000      7.6398816E-09
   28.98000      6.4384027E-09
   29.04000      5.1993068E-09
   29.10000      3.9801553E-09
   29.16000      2.8622027E-09
   29.22000      1.9317392E-09
   29.28000      1.2592933E-09
   29.34000      8.8383895E-10
   29.40000      8.0671680E-10
   29.46000      9.9633490E-10
   29.52000      1.4013718E-09
   29.58000      1.9680504E-09
   29.64000      2.6563001E-09
   29.70000      3.4501244E-09
   29.76000      4.3590562E-09
   29.82000      5.4101017E-09
   29.88000      6.6326002E-09
   29.94000      8.0411038E-09
   30.00000      9.6225765E-09
   30.06000      1.1333017E-08
   30.12000      1.3105248E-08
   30.18000      1.4865284E-08
   30.24000      1.6551324E-08
   30.30000      1.8128604E-08
   30.36000      1.9595332E-08
   30.42000      2.0978689E-08
   30.48000      2.2323480E-08
   30.54000      2.3677940E-08
   30.60000      2.5080908E-08
   30.66000      2.6552977E-08
   30.72000      2.8092344E-08
   30.78000      2.9675258E-08
   30.84000      3.1260772E-08
   30.90000      3.2799491E-08
   30.96000      3.4245410E-08
   31.02000      3.5568224E-08
   31.08000      3.6762383E-08
   31.14000      3.7848871E-08
   31.20000      3.8867675E-08
   31.26000      3.9862591E-08
   31.32000      4.0863597E-08
   31.38000      4.1873900E-08
   31.44000      4.2867363E-08
   31.50000      4.3797868E-08
   31.56000      4.4616936E-08
   31.62000      4.5292282E-08
   31.68000      4.5819505E-08
   31.74000      4.6222375E-08
   31.80000      4.6542297E-08
   31.86000      4.6822116E-08
   31.92000      4.7091326E-08
   31.98000      4.7358071E-08
   32.04000      4.7609564E-08
   32.10000      4.7818794E-08
   32.16000      4.7953360E-08
   32.22000      4.7983054E-08
   32.28000      4.7884793E-08
   32.34000      4.7645475E-08
   32.40000      4.7263626E-08
   32.46000      4.6749840E-08
   32.52000      4.6124846E-08
   32.58000      4.5414254E-08
   32.64000      4.4640821E-08
   32.70000      4.3817469E-08
   32.76000      4.2945107E-08
   32.82000      4.2017763E-08
   32.88000      4.1033616E-08
   32.94000      4.0006519E-08
   33.00000      3.8971343E-08
   33.06000      3.7978690E-08
   33.12000      3.7080113E-08
   33.18000      3.6310340E-08
   33.24000      3.5675296E-08
   33.30000      3.5152425E-08
   33.36000      3.4703856E-08
   33.42000      3.4296374E-08
   33.48000      3.3918763E-08
   33.54000      3.3588300E-08
   33.60000      3.3343696E-08
   33.66000      3.3228318E-08
   33.72000      3.3271956E-08
   33.78000      3.3479449E-08
   33.84000      3.3830471E-08
   33.90000      3.4288956E-08
   33.96000      3.4816129E-08
   34.02000      3.5380094E-08
   34.08000      3.5957676E-08
   34.14000      3.6528949E-08
   34.20000      3.7069007E-08
   34.26000      3.7542687E-08
   34.32000      3.7905792E-08
   34.38000      3.8112262E-08
   34.44000      3.8123137E-08
   34.50000      3.7912518E-08
   34.56000      3.7467956E-08
   34.62000      3.6786759E-08
   34.68000      3.5872297E-08
   34.74000      3.4734249E-08
   34.80000      3.3393189E-08
   34.86000      3.1885939E-08
   34.92000      3.0266158E-08
   34.98000      2.8596777E-08
   35.04000      2.6935977E-08
   35.10000      2.5323381E-08
   35.16000      2.3774223E-08
   35.22000      2.2285443E-08
   35.28000      2.0850511E-08
   35.34000      1.9474145E-08
   35.40000      1.8177339E-08
   35.46000      1.6988658E-08
   35.52000      1.5926302E-08
   35.58000      1.4981655E-08
   35.64000      1.4114979E-08
   35.70000      1.3267076E-08
   35.76000      1.2381102E-08
   35.82000      1.1422348E-08
   35.88000      1.0384589E-08
   35.94000      9.2794572E-09
   36.00000      8.1153599E-09
   36.06000      6.8787651E-09
   36.12000      5.5291967E-09
   36.18000      4.0111114E-09
   36.24000      2.2757964E-09
   36.30000      3.0072272E-10
   36.36000     -1.9043469E-09
   36.42000     -4.3070849E-09
   36.48000     -6.8714470E-09
   36.54000     -9.5740127E-09
   36.60000     -1.2408456E-08
   36.66000     -1.5376497E-08
   36.72000     -1.8472031E-08
   36.78000     -2.1669070E-08
   36.84000     -2.4921485E-08
   36.90000     -2.8175178E-08
   36.96000     -3.1385735E-08
   37.02000     -3.4531478E-08
   37.08000     -3.7614569E-08
   37.14000     -4.0649809E-08
   37.20000     -4.3647770E-08
   37.26000     -4.6601457E-08
   37.32000     -4.9483226E-08
   37.38000     -5.2252108E-08
   37.44000     -5.4865772E-08
   37.50000     -5.7289320E-08
   37.56000     -5.9495967E-08
   37.62000     -6.1460824E-08
   37.68000     -6.3154033E-08
   37.74000     -6.4540423E-08
   37.80000     -6.5588559E-08
   37.86000     -6.6285658E-08
   37.92000     -6.6649442E-08
   37.98000     -6.6728482E-08
   38.04000     -6.6588164E-08
   38.10000     -6.6287434E-08
   38.16000     -6.5857584E-08
   38.22000     -6.5293712E-08
   38.28000     -6.4563437E-08
   38.34000     -6.3627787E-08
   38.40000     -6.2463158E-08
   38.46000     -6.1072882E-08
   38.52000     -5.9483543E-08
   38.58000     -5.7730201E-08
   38.64000     -5.5840285E-08
   38.70000     -5.3825882E-08
   38.76000     -5.1687554E-08
   38.82000     -4.9425271E-08
   38.88000     -4.7047870E-08
   38.94000     -4.4574495E-08
   39.00000     -4.2027999E-08
   39.06000     -3.9426581E-08
   39.12000     -3.6781405E-08
   39.18000     -3.4103401E-08
   39.24000     -3.1415265E-08
   39.30000     -2.8759363E-08
   39.36000     -2.6193673E-08
   39.42000     -2.3774950E-08
   39.48000     -2.1537153E-08
   39.54000     -1.9477755E-08
   39.60000     -1.7561462E-08
   39.66000     -1.5741529E-08
   39.72000     -1.3988522E-08
   39.78000     -1.2311437E-08
   39.84000     -1.0759539E-08
   39.90000     -9.4034833E-09
   39.96000     -8.3053209E-09
   40.02000     -7.4928233E-09
   40.08000     -6.9510269E-09
   40.14000     -6.6345707E-09
   40.20000     -6.4936714E-09
   40.26000     -6.5000418E-09
   40.32000     -6.6598704E-09
   40.38000     -7.0080444E-09
   40.44000     -7.5871123E-09
   40.50000     -8.4211234E-09
   40.56000     -9.4957970E-09
   40.62000     -1.0752458E-08
   40.68000     -1.2096707E-08
   40.74000     -1.3417110E-08
   40.80000     -1.4606696E-08
   40.86000     -1.5580929E-08
   40.92000     -1.6288634E-08
   40.98000     -1.6715225E-08
   41.04000     -1.6879047E-08
   41.10000     -1.6822046E-08
   41.16000     -1.6596033E-08
   41.22000     -1.6246736E-08
   41.28000     -1.5799412E-08
   41.34000     -1.5251155E-08
   41.40000     -1.4574326E-08
   41.46000     -1.3732095E-08
   41.52000     -1.2701732E-08
   41.58000     -1.1496635E-08
   41.64000     -1.0176907E-08
   41.70000     -8.8421963E-09
   41.76000     -7.6081141E-09
   41.82000     -6.5753514E-09
   41.88000     -5.8043566E-09
   41.94000     -5.3059219E-09
   42.00000     -5.0502575E-09
   42.06000     -4.9882343E-09
   42.12000     -5.0732396E-09
   42.18000     -5.2732543E-09
   42.24000     -5.5693841E-09
   42.30000     -5.9451799E-09
   42.36000     -6.3758328E-09
   42.42000     -6.8252795E-09
   42.48000     -7.2533939E-09
   42.54000     -7.6286595E-09
   42.60000     -7.9382430E-09
   42.66000     -8.1892262E-09
   42.72000     -8.4004199E-09
   42.78000     -8.5900815E-09
   42.84000     -8.7671674E-09
   42.90000     -8.9312255E-09
   42.96000     -9.0803649E-09
   43.02000     -9.2215195E-09
   43.08000     -9.3757047E-09
   43.14000     -9.5741175E-09
   43.20000     -9.8467057E-09
   43.26000     -1.0209868E-08
   43.32000     -1.0660986E-08
   43.38000     -1.1183905E-08
   43.44000     -1.1763146E-08
   43.50000     -1.2399263E-08
   43.56000     -1.3116483E-08
   43.62000     -1.3957515E-08
   43.68000     -1.4967251E-08
   43.74000     -1.6173132E-08
   43.80000     -1.7571905E-08
   43.86000     -1.9128953E-08
   43.92000     -2.0789610E-08
   43.98000     -2.2495687E-08
   44.04000     -2.4198323E-08
   44.10000     -2.5861723E-08
   44.16000     -2.7458535E-08
   44.22000     -2.8962868E-08
   44.28000     -3.0347714E-08
   44.34000     -3.1589394E-08
   44.40000     -3.2675587E-08
   44.46000     -3.3610061E-08
   44.52000     -3.4408728E-08
   44.58000     -3.5087730E-08
   44.64000     -3.5650398E-08
   44.70000     -3.6082049E-08
   44.76000     -3.6357289E-08
   44.82000     -3.6456637E-08
   44.88000     -3.6382705E-08
   44.94000     -3.6165698E-08
   45.00000     -3.5853979E-08
   45.06000     -3.5494899E-08
   45.12000     -3.5117406E-08
   45.18000     -3.4727343E-08
   45.24000     -3.4318756E-08
   45.30000     -3.3894590E-08
   45.36000     -3.3483992E-08
   45.42000     -3.3144918E-08
   45.48000     -3.2948932E-08
   45.54000     -3.2955079E-08
   45.60000     -3.3185906E-08
   45.66000     -3.3617546E-08
   45.72000     -3.4188169E-08
   45.78000     -3.4819852E-08
   45.84000     -3.5442728E-08
   45.90000     -3.6010508E-08
   45.96000     -3.6502257E-08
   46.02000     -3.6913086E-08
   46.08000     -3.7241858E-08
   46.14000     -3.7484099E-08
   46.20000     -3.7633782E-08
   46.26000     -3.7691066E-08
   46.32000     -3.7668968E-08
   46.38000     -3.7592635E-08
   46.44000     -3.7489936E-08
   46.50000     -3.7378438E-08
   46.56000     -3.7257031E-08
   46.62000     -3.7108297E-08
   46.68000     -3.6910983E-08
   46.74000     -3.6655230E-08
   46.80000     -3.6350823E-08
   46.86000     -3.6022843E-08
   46.92000     -3.5697127E-08
   46.98000     -3.5384893E-08
   47.04000     -3.5076603E-08
   47.10000     -3.4749149E-08
   47.16000     -3.4381507E-08
   47.22000     -3.3968437E-08
   47.28000     -3.3523289E-08
   47.34000     -3.3068485E-08
   47.40000     -3.2620321E-08
   47.46000     -3.2178026E-08
   47.52000     -3.1722816E-08
   47.58000     -3.1225028E-08
   47.64000     -3.0651606E-08
   47.70000     -2.9966621E-08
   47.76000     -2.9123548E-08
   47.82000     -2.8054778E-08
   47.88000     -2.6666406E-08
   47.94000     -2.4842613E-08
   48.00000     -2.2457218E-08
   48.06000     -1.9384885E-08
   48.12000     -1.5504433E-08
   48.18000     -1.0691201E-08
   48.24000     -4.8007398E-09
   48.30000      2.3509181E-09
   48.36000      1.1005608E-08
   48.42000      2.1477328E-08
   48.48000      3.4161491E-08
   48.54000      4.9539128E-08
   48.60000      6.8177066E-08
   48.66000      9.0727511E-08
   48.72000      1.1793276E-07
   48.78000      1.5064097E-07
   48.84000      1.8983471E-07
   48.90000      2.3666772E-07
   48.96000      2.9250089E-07
   49.02000      3.5893012E-07
   49.08000      4.3780642E-07
   49.14000      5.3125694E-07
   49.20000      6.4171905E-07
   49.26000      7.7199422E-07
   49.32000      9.2531644E-07
   49.38000      1.1054240E-06
   49.44000      1.3166218E-06
   49.50000      1.5638333E-06
   49.56000      1.8526506E-06
   49.62000      2.1893968E-06
   49.68000      2.5812078E-06
   49.74000      3.0361316E-06
   49.80000      3.5632318E-06
   49.86000      4.1726912E-06
   49.92000      4.8759093E-06
   49.98000      5.6856088E-06
   50.04000      6.6159650E-06
   50.10000      7.6827537E-06
   50.16000      8.9035111E-06
   50.22000      1.0297690E-05
   50.28000      1.1886800E-05
   50.34000      1.3694526E-05
   50.40000      1.5746846E-05
   50.46000      1.8072144E-05
   50.52000      2.0701347E-05
   50.58000      2.3668061E-05
   50.64000      2.7008711E-05
   50.70000      3.0762672E-05
   50.76000      3.4972385E-05
   50.82000      3.9683484E-05
   50.88000      4.4944853E-05
   50.94000      5.0808721E-05
   51.00000      5.7330697E-05
   51.06000      6.4569751E-05
   51.12000      7.2588169E-05
   51.18000      8.1451530E-05
   51.24000      9.1228561E-05
   51.30000      1.0199103E-04
   51.36000      1.1381360E-04
   51.42000      1.2677362E-04
   51.48000      1.4095084E-04
   51.54000      1.5642712E-04
   51.60000      1.7328598E-04
   51.66000      1.9161226E-04
   51.72000      2.1149161E-04
   51.78000      2.3300995E-04
   51.84000      2.5625280E-04
   51.90000      2.8130467E-04
   51.96000      3.0824845E-04
   52.02000      3.3716456E-04
   52.08000      3.6813022E-04
   52.14000      4.0121871E-04
   52.20000      4.3649864E-04
   52.26000      4.7403280E-04
   52.32000      5.1387749E-04
   52.38000      5.5608130E-04
   52.44000      6.0068449E-04
   52.50000      6.4771797E-04
   52.56000      6.9720240E-04
   52.62000      7.4914756E-04
   52.68000      8.0355152E-04
   52.74000      8.6039992E-04
   52.80000      9.1966538E-04
   52.86000      9.8130689E-04
   52.92000      1.0452688E-03
   52.98000      1.1114818E-03
   53.04000      1.1798608E-03
   53.10000      1.2503067E-03
   53.16000      1.3227052E-03
   53.22000      1.3969273E-03
   53.28000      1.4728294E-03
   53.34000      1.5502542E-03
   53.40000      1.6290310E-03
   53.46000      1.7089767E-03
   53.52000      1.7898966E-03
   53.58000      1.8715857E-03
   53.64000      1.9538295E-03
   53.70000      2.0364057E-03
   53.76000      2.1190851E-03
   53.82000      2.2016340E-03
   53.88000      2.2838151E-03
   53.94000      2.3653903E-03
   54.00000      2.4461213E-03
   54.06000      2.5257724E-03
   54.12000      2.6041116E-03
   54.18000      2.6809128E-03
   54.24000      2.7559593E-03
   54.30000      2.8290427E-03
   54.36000      2.8999669E-03
   54.42000      2.9685486E-03
   54.48000      3.0346191E-03
   54.54000      3.0980268E-03
   54.60000      3.1586371E-03
   54.66000      3.2163344E-03
   54.72000      3.2710223E-03
   54.78000      3.3226251E-03
   54.84000      3.3710871E-03
   54.90000      3.4163739E-03
   54.96000      3.4584724E-03
   55.02000      3.4973915E-03
   55.08000      3.5331605E-03
   55.14000      3.5658290E-03
   55.20000      3.5954663E-03
   55.26000      3.6221589E-03
   55.32000      3.6460110E-03
   55.38000      3.6671415E-03
   55.44000      3.6856851E-03
   55.50000      3.7017881E-03
   55.56000      3.7156087E-03