  -2.400000      0.0000000E+00
  -2.340000      0.0000000E+00
  -2.280000      0.0000000E+00
  -2.220000      0.0000000E+00
  -2.160000      0.0000000E+00
  -2.100000      0.0000000E+00
  -2.040000     -5.0707856E-21
  -1.980000     -4.1434873E-20
  -1.920000     -1.5874210E-19
  -1.860000     -3.3959825E-19
  -1.800000     -2.6437078E-19
  -1.740000      8.7630408E-19
  -1.680000      3.9446614E-18
  -1.620000      8.2110936E-18
  -1.560000      9.0175334E-18
  -1.500000     -2.5198790E-18
  -1.440000     -3.3512432E-17
  -1.380000     -7.5344176E-17
  -1.320000     -8.9069756E-17
  -1.260000     -9.2449411E-18
  -1.200000      2.1196894E-16
  -1.140000      5.1954317E-16
  -1.080000      6.7591609E-16
  -1.020000      2.8330571E-16
 -0.9600000     -9.9653702E-16
 -0.9000000     -3.0314483E-15
 -0.8400000     -4.8192909E-15
 -0.7800000     -4.4862372E-15
 -0.7200000     -5.6076870E-17
 -0.6600000      8.9981470E-15
 -0.6000000      2.0070801E-14
 -0.5400000      2.6872551E-14
 -0.4800000      2.1288681E-14
 -0.4200000     -2.0797035E-15
 -0.3600000     -4.0291538E-14
 -0.3000000     -7.8770039E-14
 -0.2400000     -9.4074752E-14
 -0.1800000     -6.4252735E-14
 -0.1200000      1.6227364E-14
 -5.9999999E-02  1.2465072E-13
  0.0000000E+00  2.1068967E-13
  5.9999999E-02  2.1490381E-13
  0.1200000      1.0120140E-13
  0.1800000     -1.1133778E-13
  0.2400000     -3.3744264E-13
  0.3000000     -4.5043019E-13
  0.3600000     -3.4124805E-13
  0.4200000      1.1221402E-14
  0.4800000      4.9630130E-13
  0.5400000      8.8857459E-13
  0.6000000      9.3558581E-13
  0.6600000      4.8810820E-13
  0.7200000     -3.8745174E-13
  0.7800000     -1.3815816E-12
  0.8400000     -2.0366985E-12
  0.9000000     -1.9444045E-12
  0.9600000     -9.6412375E-13
   1.020000      6.4798481E-13
   1.080000      2.2875102E-12
   1.140000      3.2393890E-12
   1.200000      3.0179164E-12
   1.260000      1.6499240E-12
   1.320000     -2.6058081E-13
   1.380000     -1.7648164E-12
   1.440000     -2.0351099E-12
   1.500000     -8.6287076E-13
   1.560000      1.0731881E-12
   1.620000      2.3665666E-12
   1.680000      1.4885843E-12
   1.740000     -2.3673747E-12
   1.800000     -8.5766351E-12
   1.860000     -1.4895266E-11
   1.920000     -1.8006048E-11
   1.980000     -1.4706195E-11
   2.040000     -3.3360747E-12
   2.100000      1.5118400E-11
   2.160000      3.6748049E-11
   2.220000      5.5471936E-11
   2.280000      6.4623744E-11
   2.340000      5.8851805E-11
   2.400000      3.5706826E-11
   2.460000     -3.5452422E-12
   2.520000     -5.4002469E-11
   2.580000     -1.0786654E-10
   2.640000     -1.5543855E-10
   2.700000     -1.8605657E-10
   2.760000     -1.8895190E-10
   2.820000     -1.5431523E-10
   2.880000     -7.4987308E-11
   2.940000      5.1003209E-11
   3.000000      2.1730699E-10
   3.060000      4.0633824E-10
   3.120000      5.8775562E-10
   3.180000      7.1946399E-10
   3.240000      7.5171558E-10
   3.300000      6.3399330E-10
   3.360000      3.2342176E-10
   3.420000     -2.0717378E-10
   3.480000     -9.6349739E-10
   3.540000     -1.9276789E-09
   3.600000     -3.0602112E-09
   3.660000     -4.3052122E-09
   3.720000     -5.5974887E-09
   3.780000     -6.8696213E-09
   3.840000     -8.0576639E-09
   3.900000     -9.1048227E-09
   3.960000     -9.9634381E-09
   4.020000     -1.0596189E-08
   4.080000     -1.0977657E-08
   4.140000     -1.1096892E-08
   4.200000     -1.0960871E-08
   4.260000     -1.0597801E-08
   4.320000     -1.0058702E-08
   4.380000     -9.4157144E-09
   4.440000     -8.7562322E-09
   4.500000     -8.1731537E-09
   4.560000     -7.7527158E-09
   4.620000     -7.5622513E-09
   4.680000     -7.6404030E-09
   4.740000     -7.9917468E-09
   4.800000     -8.5866949E-09
   4.860000     -9.3662909E-09
   4.920000     -1.0250605E-08
   4.980000     -1.1148991E-08
   5.040000     -1.1970680E-08
   5.100000     -1.2634628E-08
   5.160000     -1.3078039E-08
   5.220000     -1.3263135E-08
   5.280000     -1.3181634E-08
   5.340000     -1.2856132E-08
   5.400000     -1.2337474E-08
   5.460000     -1.1697597E-08
   5.520000     -1.1018224E-08
   5.580000     -1.0377017E-08
   5.640000     -9.8338688E-09
   5.700000     -9.4204564E-09
   5.760000     -9.1357633E-09
   5.820000     -8.9488017E-09
   5.880000     -8.8078860E-09
   5.940000     -8.6539487E-09
   6.000000     -8.4343164E-09
   6.060000     -8.1134051E-09
   6.120000     -7.6779658E-09
   6.180000     -7.1363546E-09
   6.240000     -6.5131220E-09
   6.300000     -5.8413758E-09
   6.360000     -5.1554760E-09
   6.420000     -4.4858441E-09
   6.480000     -3.8563601E-09
   6.540000     -3.2836998E-09
   6.600000     -2.7774103E-09
   6.660000     -2.3397433E-09
   6.720000     -1.9649902E-09
   6.780000     -1.6388233E-09
   6.840000     -1.3385417E-09
   6.900000     -1.0348987E-09
   6.960000     -6.9553369E-10
   7.020000     -2.8926234E-10
   7.080000      2.0995919E-10
   7.140000      8.2050300E-10
   7.200000      1.5525184E-09
   7.260000      2.4091618E-09
   7.320000      3.3888108E-09
   7.380000      4.4872777E-09
   7.440000      5.6992371E-09
   7.500000      7.0185751E-09
   7.560000      8.4378531E-09
   7.620000      9.9474562E-09
   7.680000      1.1535074E-08
   7.740000      1.3186017E-08
   7.800000      1.4884504E-08
   7.860000      1.6615623E-08
   7.920000      1.8367233E-08
   7.980000      2.0130873E-08
   8.040000      2.1900938E-08
   8.100000      2.3671900E-08
   8.160000      2.5434241E-08
   8.220000      2.7170476E-08
   8.280000      2.8852991E-08
   8.340000      3.0445108E-08
   8.400000      3.1905714E-08
   8.460000      3.3196535E-08
   8.520000      3.4290025E-08
   8.580000      3.5175393E-08
   8.640000      3.5860648E-08
   8.700000      3.6369844E-08
   8.760000      3.6736125E-08
   8.820000      3.6992748E-08
   8.880000      3.7164892E-08
   8.940000      3.7264993E-08
   9.000000      3.7293148E-08
   9.060000      3.7242359E-08
   9.120000      3.7106780E-08
   9.180000      3.6889837E-08
   9.240000      3.6609347E-08
   9.300000      3.6297752E-08
   9.360000      3.5997516E-08
   9.420000      3.5753278E-08
   9.480000      3.5603207E-08
   9.540000      3.5571841E-08
   9.600000      3.5665732E-08
   9.660000      3.5872326E-08
   9.720000      3.6161889E-08
   9.780000      3.6492228E-08
   9.840000      3.6816051E-08
   9.900000      3.7090309E-08
   9.960000      3.7286053E-08
   10.02000      3.7396259E-08
   10.08000      3.7438593E-08
   10.14000      3.7451191E-08
   10.20000      3.7481559E-08
   10.26000      3.7571731E-08
   10.32000      3.7744588E-08
   10.38000      3.7996397E-08
   10.44000      3.8298396E-08
   10.50000      3.8606686E-08
   10.56000      3.8876451E-08
   10.62000      3.9074830E-08
   10.68000      3.9187860E-08
   10.74000      3.9219618E-08
   10.80000      3.9185228E-08
   10.86000      3.9101693E-08
   10.92000      3.8980644E-08
   10.98000      3.8825434E-08
   11.04000      3.8632347E-08
   11.10000      3.8393761E-08
   11.16000      3.8100680E-08
   11.22000      3.7743085E-08
   11.28000      3.7308560E-08
   11.34000      3.6780833E-08
   11.40000      3.6140200E-08
   11.46000      3.5366625E-08
   11.52000      3.4444788E-08
   11.58000      3.3369378E-08
   11.64000      3.2148563E-08
   11.70000      3.0804525E-08
   11.76000      2.9370888E-08
   11.82000      2.7887630E-08
   11.88000      2.6394577E-08
   11.94000      2.4924448E-08
   12.00000      2.3496607E-08
   12.06000      2.2112864E-08
   12.12000      2.0756833E-08
   12.18000      1.9397826E-08
   12.24000      1.7999186E-08
   12.30000      1.6529093E-08
   12.36000      1.4970549E-08
   12.42000      1.3326980E-08
   12.48000      1.1621229E-08
   12.54000      9.8882778E-09
   12.60000      8.1645686E-09
   12.66000      6.4782184E-09
   12.72000      4.8437721E-09
   12.78000      3.2629417E-09
   12.84000      1.7299806E-09
   12.90000      2.3842822E-10
   12.96000     -1.2141637E-09
   13.02000     -2.6253644E-09
   13.08000     -3.9904111E-09
   13.14000     -5.3060241E-09
   13.20000     -6.5730479E-09
   13.26000     -7.7966336E-09
   13.32000     -8.9843537E-09
   13.38000     -1.0143867E-08
   13.44000     -1.1281730E-08
   13.50000     -1.2403886E-08
   13.56000     -1.3517012E-08
   13.62000     -1.4629243E-08
   13.68000     -1.5749166E-08
   13.74000     -1.6883359E-08
   13.80000     -1.8033910E-08
   13.86000     -1.9197788E-08
   13.92000     -2.0369063E-08
   13.98000     -2.1543283E-08
   14.04000     -2.2721894E-08
   14.10000     -2.3914168E-08
   14.16000     -2.5135202E-08
   14.22000     -2.6400450E-08
   14.28000     -2.7719143E-08
   14.34000     -2.9089545E-08
   14.40000     -3.0498178E-08
   14.46000     -3.1923214E-08
   14.52000     -3.3340360E-08
   14.58000     -3.4728625E-08
   14.64000     -3.6073782E-08
   14.70000     -3.7368888E-08
   14.76000     -3.8612583E-08
   14.82000     -3.9806661E-08
   14.88000     -4.0954127E-08
   14.94000     -4.2057970E-08
   15.00000     -4.3120302E-08
   15.06000     -4.4141501E-08
   15.12000     -4.5119460E-08
   15.18000     -4.6049653E-08
   15.24000     -4.6926445E-08
   15.30000     -4.7745278E-08
   15.36000     -4.8504397E-08
   15.42000     -4.9204534E-08
   15.48000     -4.9845891E-08
   15.54000     -5.0423520E-08
   15.60000     -5.0923539E-08
   15.66000     -5.1322843E-08
   15.72000     -5.1593304E-08
   15.78000     -5.1709229E-08
   15.84000     -5.1654947E-08
   15.90000     -5.1429438E-08
   15.96000     -5.1046339E-08
   16.02000     -5.0530268E-08
   16.08000     -4.9911787E-08
   16.14000     -4.9223271E-08
   16.20000     -4.8496410E-08
   16.26000     -4.7760263E-08
   16.32000     -4.7038213E-08
   16.38000     -4.6343398E-08
   16.44000     -4.5674010E-08
   16.50000     -4.5011401E-08
   16.56000     -4.4323293E-08
   16.62000     -4.3572282E-08
   16.68000     -4.2726896E-08
   16.74000     -4.1770949E-08
   16.80000     -4.0707626E-08
   16.86000     -3.9557101E-08
   16.92000     -3.8349640E-08
   16.98000     -3.7117399E-08
   17.04000     -3.5887997E-08
   17.10000     -3.4680891E-08
   17.16000     -3.3506016E-08
   17.22000     -3.2363438E-08
   17.28000     -3.1243623E-08
   17.34000     -3.0129122E-08
   17.40000     -2.8998661E-08
   17.46000     -2.7833627E-08
   17.52000     -2.6624923E-08
   17.58000     -2.5377108E-08
   17.64000     -2.4107109E-08
   17.70000     -2.2837261E-08
   17.76000     -2.1585231E-08
   17.82000     -2.0355253E-08
   17.88000     -1.9134641E-08
   17.94000     -1.7897081E-08
   18.00000     -1.6611162E-08
   18.06000     -1.5250436E-08
   18.12000     -1.3801151E-08
   18.18000     -1.2265475E-08
   18.24000     -1.0660123E-08
   18.30000     -9.0120480E-09
   18.36000     -7.3531634E-09
   18.42000     -5.7155445E-09
   18.48000     -4.1276649E-09
   18.54000     -2.6118294E-09
   18.60000     -1.1830797E-09
   18.66000      1.4987153E-10
   18.72000      1.3812190E-09
   18.78000      2.5024938E-09
   18.84000      3.4963858E-09
   18.90000      4.3325068E-09
   18.96000      4.9677076E-09
   19.02000      5.3523945E-09
   19.08000      5.4421450E-09
   19.14000      5.2116107E-09
   19.20000      4.6662900E-09
   19.26000      3.8479571E-09
   19.32000      2.8315017E-09
   19.38000      1.7138782E-09
   19.44000      5.9863381E-10
   19.50000     -4.1921053E-10
   19.56000     -1.2637940E-09
   19.62000     -1.8826918E-09
   19.68000     -2.2456095E-09
   19.74000     -2.3400966E-09
   19.80000     -2.1670954E-09
   19.86000     -1.7379985E-09
   19.92000     -1.0732660E-09
   19.98000     -2.0158047E-10
   20.04000      8.4152524E-10
   20.10000      2.0159252E-09
   20.16000      3.2796543E-09
   20.22000      4.5916031E-09
   20.28000      5.9140004E-09
   20.34000      7.2150677E-09
   20.40000      8.4721883E-09
   20.46000      9.6752268E-09
   20.52000      1.0828582E-08
   20.58000      1.1950053E-08
   20.64000      1.3065192E-08
   20.70000      1.4197520E-08
   20.76000      1.5357003E-08
   20.82000      1.6530555E-08
   20.88000      1.7678197E-08
   20.94000      1.8736868E-08
   21.00000      1.9631390E-08
   21.06000      2.0289695E-08
   21.12000      2.0658234E-08
   21.18000      2.0713520E-08
   21.24000      2.0467205E-08
   21.30000      1.9963945E-08
   21.36000      1.9273168E-08
   21.42000      1.8477023E-08
   21.48000      1.7657269E-08
   21.54000      1.6883591E-08
   21.60000      1.6205183E-08
   21.66000      1.5646631E-08
   21.72000      1.5208339E-08
   21.78000      1.4870906E-08
   21.84000      1.4602243E-08
   21.90000      1.4365717E-08
   21.96000      1.4127473E-08
   22.02000      1.3861412E-08
   22.08000      1.3551167E-08
   22.14000      1.3189426E-08
   22.20000      1.2775884E-08
   22.26000      1.2315371E-08
   22.32000      1.1817298E-08
   22.38000      1.1296511E-08
   22.44000      1.0774542E-08
   22.50000      1.0279627E-08
   22.56000      9.8440260E-09
   22.62000      9.4982671E-09
   22.68000      9.2633670E-09
   22.74000      9.1434122E-09
   22.80000      9.1213304E-09
   22.86000      9.1601127E-09
   22.92000      9.2101198E-09
   22.98000      9.2210000E-09
   23.04000      9.1549399E-09
   23.10000      8.9970937E-09
   23.16000      8.7596543E-09
   23.22000      8.4779153E-09
   23.28000      8.1993248E-09
   23.34000      7.9688682E-09
   23.40000      7.8154470E-09
   23.46000      7.7435827E-09
   23.52000      7.7330560E-09
   23.58000      7.7465137E-09
   23.64000      7.7426163E-09
   23.70000      7.6906286E-09
   23.76000      7.5820088E-09
   23.82000      7.4354598E-09
   23.88000      7.2938025E-09
   23.94000      7.2132944E-09
   24.00000      7.2481168E-09
   24.06000      7.4340694E-09
   24.12000      7.7757853E-09
   24.18000      8.2408880E-09
   24.24000      8.7628269E-09
   24.30000      9.2519725E-09
   24.36000      9.6125934E-09
   24.42000      9.7618624E-09
   24.48000      9.6464037E-09
   24.54000      9.2522630E-09
   24.60000      8.6055536E-09
   24.66000      7.7633135E-09
   24.72000      6.7968515E-09
   24.78000      5.7722325E-09
   24.84000      4.7336579E-09
   24.90000      3.6946288E-09
   24.96000      2.6390312E-09
   25.02000      1.5306584E-09
   25.08000      3.2668374E-10
   25.14000     -1.0103967E-09
   25.20000     -2.5064009E-09
   25.26000     -4.1756776E-09
   25.32000     -6.0257856E-09
   25.38000     -8.0628944E-09
   25.44000     -1.0294599E-08
   25.50000     -1.2728828E-08
   25.56000     -1.5369737E-08
   25.62000     -1.8212779E-08
   25.68000     -2.1241011E-08
   25.74000     -2.4423848E-08
   25.80000     -2.7718380E-08
   25.86000     -3.1073075E-08
   25.92000     -3.4433707E-08
   25.98000     -3.7751398E-08
   26.04000     -4.0991889E-08
   26.10000     -4.4143899E-08
   26.16000     -4.7223448E-08
   26.22000     -5.0270977E-08
   26.28000     -5.3340077E-08
   26.34000     -5.6479792E-08
   26.40000     -5.9715610E-08
   26.46000     -6.3035820E-08
   26.52000     -6.6388729E-08
   26.58000     -6.9692561E-08
   26.64000     -7.2855315E-08
   26.70000     -7.5797963E-08
   26.76000     -7.8473505E-08
   26.82000     -8.0875807E-08
   26.88000     -8.3036532E-08
   26.94000     -8.5012410E-08
   27.00000     -8.6867871E-08
   27.06000     -8.8658517E-08
   27.12000     -9.0419547E-08
   27.18000     -9.2160398E-08
   27.24000     -9.3865438E-08
   27.30000     -9.5499281E-08
   27.36000     -9.7015267E-08
   27.42000     -9.8365611E-08
   27.48000     -9.9511276E-08
   27.54000     -1.0042893E-07
   27.60000     -1.0111243E-07
   27.66000     -1.0156769E-07
   27.72000     -1.0180241E-07
   27.78000     -1.0181488E-07
   27.84000     -1.0158728E-07
   27.90000     -1.0108748E-07
   27.96000     -1.0027926E-07
   28.02000     -9.9137019E-08
   28.08000     -9.7658045E-08
   28.14000     -9.5866405E-08
   28.20000     -9.3806328E-08
   28.26000     -9.1527738E-08
   28.32000     -8.9070340E-08
   28.38000     -8.6452921E-08
   28.44000     -8.3672248E-08
   28.50000     -8.0711295E-08
   28.56000     -7.7553558E-08
   28.62000     -7.4197878E-08
   28.68000     -7.0669280E-08
   28.74000     -6.7022967E-08
   28.80000     -6.3340728E-08
   28.86000     -5.9720833E-08
   28.92000     -5.6263445E-08
   28.98000     -5.3054489E-08
   29.04000     -5.0151463E-08
   29.10000     -4.7574829E-08
   29.16000     -4.5307463E-08
   29.22000     -4.3302716E-08
   29.28000     -4.1498936E-08
   29.34000     -3.9835911E-08
   29.40000     -3.8268279E-08
   29.46000     -3.6771919E-08
   29.52000     -3.5342126E-08
   29.58000     -3.3985643E-08
   29.64000     -3.2710449E-08
   29.70000     -3.1517914E-08
   29.76000     -3.0400258E-08
   29.82000     -2.9343941E-08
   29.88000     -2.8336965E-08
   29.94000     -2.7376725E-08
   30.00000     -2.6474840E-08
   30.06000     -2.5656822E-08
   30.12000     -2.4956401E-08
   30.18000     -2.4406299E-08
   30.24000     -2.4028427E-08
   30.30000     -2.3826610E-08
   30.36000     -2.3784175E-08
   30.42000     -2.3867345E-08
   30.48000     -2.4033817E-08
   30.54000     -2.4244352E-08
   30.60000     -2.4474268E-08
   30.66000     -2.4721295E-08
   30.72000     -2.5006937E-08
   30.78000     -2.5370342E-08
   30.84000     -2.5856089E-08
   30.90000     -2.6499754E-08
   30.96000     -2.7316259E-08
   31.02000     -2.8295082E-08
   31.08000     -2.9403873E-08
   31.14000     -3.0598660E-08
   31.20000     -3.1836354E-08
   31.26000     -3.3084845E-08
   31.32000     -3.4327716E-08
   31.38000     -3.5563183E-08
   31.44000     -3.6799417E-08
   31.50000     -3.8048981E-08
   31.56000     -3.9324643E-08
   31.62000     -4.0637413E-08
   31.68000     -4.1996440E-08
   31.74000     -4.3410182E-08
   31.80000     -4.4888246E-08
   31.86000     -4.6443230E-08
   31.92000     -4.8091593E-08
   31.98000     -4.9852169E-08
   32.04000     -5.1741232E-08
   32.10000     -5.3764605E-08
   32.16000     -5.5909183E-08
   32.22000     -5.8137847E-08
   32.28000     -6.0391102E-08
   32.34000     -6.2596534E-08
   32.40000     -6.4683526E-08
   32.46000     -6.6598012E-08
   32.52000     -6.8311422E-08
   32.58000     -6.9820395E-08
   32.64000     -7.1137393E-08
   32.70000     -7.2276137E-08
   32.76000     -7.3237317E-08
   32.82000     -7.3999580E-08
   32.88000     -7.4518077E-08
   32.94000     -7.4730167E-08
   33.00000     -7.4565733E-08
   33.06000     -7.3959008E-08
   33.12000     -7.2859102E-08
   33.18000     -7.1237707E-08
   33.24000     -6.9093346E-08
   33.30000     -6.6451825E-08
   33.36000     -6.3363125E-08
   33.42000     -5.9894838E-08
   33.48000     -5.6123010E-08
   33.54000     -5.2122207E-08
   33.60000     -4.7956949E-08
   33.66000     -4.3677140E-08
   33.72000     -3.9318930E-08
   33.78000     -3.4910492E-08
   33.84000     -3.0480418E-08
   33.90000     -2.6064921E-08
   33.96000     -2.1710648E-08
   34.02000     -1.7471782E-08
   34.08000     -1.3402950E-08
   34.14000     -9.5513544E-09
   34.20000     -5.9518612E-09
   34.26000     -2.6268854E-09
   34.32000      4.0973186E-10
   34.38000      3.1477962E-09
   34.44000      5.5779510E-09
   34.50000      7.6924929E-09
   34.56000      9.4888231E-09
   34.62000      1.0972813E-08
   34.68000      1.2159432E-08
   34.74000      1.3069734E-08
   34.80000      1.3725545E-08
   34.86000      1.4144546E-08
   34.92000      1.4338143E-08
   34.98000      1.4312809E-08
   35.04000      1.4073628E-08
   35.10000      1.3627732E-08
   35.16000      1.2985578E-08
   35.22000      1.2159410E-08
   35.28000      1.1159779E-08
   35.34000      9.9919051E-09
   35.40000      8.6537568E-09
   35.46000      7.1369270E-09
   35.52000      5.4303553E-09
   35.58000      3.5258871E-09
   35.64000      1.4239296E-09
   35.70000     -8.6279633E-10
   35.76000     -3.3090601E-09
   35.82000     -5.8810947E-09
   35.88000     -8.5438785E-09
   35.94000     -1.1269445E-08
   36.00000     -1.4043237E-08
   36.06000     -1.6865995E-08
   36.12000     -1.9750148E-08
   36.18000     -2.2711616E-08
   36.24000     -2.5759549E-08
   36.30000     -2.8887023E-08
   36.36000     -3.2065358E-08
   36.42000     -3.5243612E-08
   36.48000     -3.8353541E-08
   36.54000     -4.1319158E-08
   36.60000     -4.4069001E-08
   36.66000     -4.6548369E-08
   36.72000     -4.8728136E-08
   36.78000     -5.0607380E-08
   36.84000     -5.2208463E-08
   36.90000     -5.3565941E-08
   36.96000     -5.4713208E-08
   37.02000     -5.5672086E-08
   37.08000     -5.6449455E-08
   37.14000     -5.7041898E-08
   37.20000     -5.7445657E-08
   37.26000     -5.7666533E-08
   37.32000     -5.7724531E-08
   37.38000     -5.7650858E-08
   37.44000     -5.7478669E-08
   37.50000     -5.7232075E-08
   37.56000     -5.6918569E-08
   37.62000     -5.6528052E-08
   37.68000     -5.6038587E-08
   37.74000     -5.5426010E-08
   37.80000     -5.4673578E-08
   37.86000     -5.3778635E-08
   37.92000     -5.2754906E-08
   37.98000     -5.1630650E-08
   38.04000     -5.0443560E-08
   38.10000     -4.9233350E-08
   38.16000     -4.8033002E-08
   38.22000     -4.6860144E-08
   38.28000     -4.5711097E-08
   38.34000     -4.4560377E-08
   38.40000     -4.3367621E-08
   38.46000     -4.2091155E-08
   38.52000     -4.0704293E-08
   38.58000     -3.9208398E-08
   38.64000     -3.7636838E-08
   38.70000     -3.6047648E-08
   38.76000     -3.4507099E-08
   38.82000     -3.3070926E-08
   38.88000     -3.1770810E-08
   38.94000     -3.0611449E-08
   39.00000     -2.9578539E-08
   39.06000     -2.8652996E-08
   39.12000     -2.7824258E-08
   39.18000     -2.7096622E-08
   39.24000     -2.6486401E-08
   39.30000     -2.6012172E-08
   39.36000     -2.5683086E-08
   39.42000     -2.5490095E-08
   39.48000     -2.5402800E-08
   39.54000     -2.5371765E-08
   39.60000     -2.5334664E-08
   39.66000     -2.5224512E-08
   39.72000     -2.4979130E-08
   39.78000     -2.4551346E-08
   39.84000     -2.3918746E-08
   39.90000     -2.3090402E-08
   39.96000     -2.2107407E-08
   40.02000     -2.1035257E-08
   40.08000     -1.9949173E-08
   40.14000     -1.8916811E-08
   40.20000     -1.7984625E-08
   40.26000     -1.7172837E-08
   40.32000     -1.6480239E-08
   40.38000     -1.5895576E-08
   40.44000     -1.5409542E-08
   40.50000     -1.5021845E-08
   40.56000     -1.4740891E-08
   40.62000     -1.4577576E-08
   40.68000     -1.4537217E-08
   40.74000     -1.4613771E-08
   40.80000     -1.4788495E-08
   40.86000     -1.5032795E-08
   40.92000     -1.5313436E-08
   40.98000     -1.5598319E-08
   41.04000     -1.5861762E-08
   41.10000     -1.6088908E-08
   41.16000     -1.6278777E-08
   41.22000     -1.6444877E-08
   41.28000     -1.6612267E-08
   41.34000     -1.6810867E-08
   41.40000     -1.7066654E-08
   41.46000     -1.7393845E-08
   41.52000     -1.7791304E-08
   41.58000     -1.8244725E-08
   41.64000     -1.8733422E-08
   41.70000     -1.9238511E-08
   41.76000     -1.9748855E-08
   41.82000     -2.0262727E-08
   41.88000     -2.0785553E-08
   41.94000     -2.1325935E-08
   42.00000     -2.1892262E-08
   42.06000     -2.2490974E-08
   42.12000     -2.3125891E-08
   42.18000     -2.3797380E-08
   42.24000     -2.4500730E-08
   42.30000     -2.5224590E-08
   42.36000     -2.5951216E-08
   42.42000     -2.6659938E-08
   42.48000     -2.7333529E-08
   42.54000     -2.7965195E-08
   42.60000     -2.8563070E-08
   42.66000     -2.9149934E-08
   42.72000     -2.9758018E-08
   42.78000     -3.0421067E-08
   42.84000     -3.1166863E-08
   42.90000     -3.2012814E-08
   42.96000     -3.2965300E-08
   43.02000     -3.4021721E-08
   43.08000     -3.5173287E-08
   43.14000     -3.6407169E-08
   43.20000     -3.7707675E-08
   43.26000     -3.9057156E-08
   43.32000     -4.0437261E-08
   43.38000     -4.1830617E-08
   43.44000     -4.3222030E-08
   43.50000     -4.4598515E-08
   43.56000     -4.5948163E-08
   43.62000     -4.7258887E-08
   43.68000     -4.8518661E-08
   43.74000     -4.9717848E-08
   43.80000     -5.0852645E-08
   43.86000     -5.1927056E-08
   43.92000     -5.2950917E-08
   43.98000     -5.3933203E-08
   44.04000     -5.4872849E-08
   44.10000     -5.5751517E-08
   44.16000     -5.6532688E-08
   44.22000     -5.7169096E-08
   44.28000     -5.7616326E-08
   44.34000     -5.7847405E-08
   44.40000     -5.7862188E-08
   44.46000     -5.7687714E-08
   44.52000     -5.7369380E-08
   44.58000     -5.6956495E-08
   44.64000     -5.6487252E-08
   44.70000     -5.5977630E-08
   44.76000     -5.5416649E-08
   44.82000     -5.4768467E-08
   44.88000     -5.3980376E-08
   44.94000     -5.2995155E-08
   45.00000     -5.1765440E-08
   45.06000     -5.0266859E-08
   45.12000     -4.8505889E-08
   45.18000     -4.6519354E-08
   45.24000     -4.4364949E-08
   45.30000     -4.2106059E-08
   45.36000     -3.9796934E-08
   45.42000     -3.7474294E-08
   45.48000     -3.5158259E-08
   45.54000     -3.2860484E-08
   45.60000     -3.0593775E-08
   45.66000     -2.8377062E-08
   45.72000     -2.6233055E-08
   45.78000     -2.4180782E-08
   45.84000     -2.2228358E-08
   45.90000     -2.0370974E-08
   45.96000     -1.8595474E-08
   46.02000     -1.6888675E-08
   46.08000     -1.5244460E-08
   46.14000     -1.3665961E-08
   46.20000     -1.2162579E-08
   46.26000     -1.0744704E-08
   46.32000     -9.4197024E-09
   46.38000     -8.1908649E-09
   46.44000     -7.0583752E-09
   46.50000     -6.0200089E-09
   46.56000     -5.0702393E-09
   46.62000     -4.1986383E-09
   46.68000     -3.3900416E-09
   46.74000     -2.6282501E-09
   46.80000     -1.9025090E-09
   46.86000     -1.2133743E-09
   46.92000     -5.7398541E-10
   46.98000     -4.9901220E-12
   47.04000      4.7484816E-10
   47.10000      8.5732771E-10
   47.16000      1.1475464E-09
   47.22000      1.3584257E-09
   47.28000      1.4992118E-09
   47.34000      1.5636761E-09
   47.40000      1.5243533E-09
   47.46000      1.3365217E-09
   47.52000      9.5108699E-10
   47.58000      3.3127331E-10
   47.64000     -5.3395421E-10
   47.70000     -1.6256354E-09
   47.76000     -2.9018652E-09
   47.82000     -4.3136126E-09
   47.88000     -5.8232272E-09
   47.94000     -7.4187589E-09
   48.00000     -9.1194154E-09
   48.06000     -1.0971648E-08
   48.12000     -1.3039315E-08
   48.18000     -1.5393237E-08
   48.24000     -1.8104453E-08
   48.30000     -2.1242592E-08
   48.36000     -2.4877913E-08
   48.42000     -2.9084610E-08
   48.48000     -3.3944119E-08
   48.54000     -3.9549128E-08
   48.60000     -4.6009877E-08
   48.66000     -5.3463051E-08
   48.72000     -6.2081178E-08
   48.78000     -7.2078933E-08
   48.84000     -8.3713964E-08
   48.90000     -9.7283532E-08
   48.96000     -1.1312233E-07
   49.02000     -1.3160771E-07
   49.08000     -1.5317568E-07
   49.14000     -1.7834473E-07
   49.20000     -2.0773990E-07
   49.26000     -2.4210857E-07
   49.32000     -2.8232401E-07
   49.38000     -3.2938001E-07
   49.44000     -3.8438574E-07
   49.50000     -4.4857001E-07
   49.56000     -5.2330046E-07
   49.62000     -6.1011616E-07
   49.68000     -7.1076721E-07
   49.74000     -8.2725398E-07
   49.80000     -9.6186102E-07
   49.86000     -1.1171848E-06
   49.92000     -1.2961563E-06
   49.98000     -1.5020595E-06
   50.04000     -1.7385471E-06
   50.10000     -2.0096554E-06
   50.16000     -2.3198231E-06
   50.22000     -2.6739162E-06
   50.28000     -3.0772705E-06
   50.34000     -3.5357446E-06
   50.40000     -4.0557843E-06
   50.46000     -4.6444866E-06
   50.52000     -5.3096501E-06
   50.58000     -6.0598095E-06
   50.64000     -6.9042499E-06
   50.70000     -7.8530065E-06
   50.76000     -8.9168707E-06
   50.82000     -1.0107394E-05
   50.88000     -1.1436910E-05
   50.94000     -1.2918563E-05
   51.00000     -1.4566341E-05
   51.06000     -1.6395103E-05
   51.12000     -1.8420593E-05
   51.18000     -2.0659434E-05
   51.24000     -2.3129114E-05
   51.30000     -2.5847938E-05
   51.36000     -2.8834977E-05
   51.42000     -3.2109976E-05
   51.48000     -3.5693283E-05
   51.54000     -3.9605766E-05
   51.60000     -4.3868728E-05
   51.66000     -4.8503844E-05
   51.72000     -5.3533095E-05
   51.78000     -5.8978632E-05
   51.84000     -6.4862688E-05
   51.90000     -7.1207396E-05
   51.96000     -7.8034587E-05
   52.02000     -8.5365617E-05
   52.08000     -9.3221162E-05
   52.14000     -1.0162099E-04
   52.20000     -1.1058374E-04
   52.26000     -1.2012677E-04
   52.32000     -1.3026597E-04
   52.38000     -1.4101547E-04
   52.44000     -1.5238757E-04
   52.50000     -1.6439246E-04
   52.56000     -1.7703802E-04
   52.62000     -1.9032953E-04
   52.68000     -2.0426957E-04
   52.74000     -2.1885776E-04
   52.80000     -2.3409059E-04
   52.86000     -2.4996127E-04
   52.92000     -2.6645965E-04
   52.98000     -2.8357224E-04
   53.04000     -3.0128189E-04
   53.10000     -3.1956812E-04
   53.16000     -3.3840674E-04
   53.22000     -3.5777004E-04
   53.28000     -3.7762677E-04
   53.34000     -3.9794229E-04
   53.40000     -4.1867865E-04
   53.46000     -4.3979476E-04
   53.52000     -4.6124650E-04
   53.58000     -4.8298703E-04
   53.64000     -5.0496706E-04
   53.70000     -5.2713521E-04
   53.76000     -5.4943847E-04
   53.82000     -5.7182251E-04
   53.88000     -5.9423182E-04
   53.94000     -6.1661040E-04
   54.00000     -6.3890190E-04
   54.06000     -6.6105014E-04
   54.12000     -6.8299973E-04
   54.18000     -7.0469640E-04
   54.24000     -7.2608737E-04
   54.30000     -7.4712199E-04
   54.36000     -7.6775200E-04
   54.42000     -7.8793213E-04
   54.48000     -8.0762029E-04
   54.54000     -8.2677812E-04
   54.60000     -8.4537163E-04
   54.66000     -8.6337124E-04
   54.72000     -8.8075188E-04
   54.78000     -8.9749356E-04
   54.84000     -9.1358129E-04
   54.90000     -9.2900521E-04
   54.96000     -9.4376074E-04
   55.02000     -9.5784880E-04
   55.08000     -9.7127561E-04
   55.14000     -9.8405278E-04
   55.20000     -9.9619688E-04
   55.26000     -1.0077294E-03
   55.32000     -1.0186769E-03
   55.38000     -1.0290699E-03
   55.44000     -1.0389437E-03
   55.50000     -1.0483369E-03
   55.56000     -1.0572918E-03