 -0.750000000       0.00000000    
 -0.689999998       0.00000000    
 -0.629999995       0.00000000    
 -0.569999993       0.00000000    
 -0.509999990       0.00000000    
 -0.449999988       0.00000000    
 -0.389999986      -5.44951232E-21
 -0.330000013      -4.39896330E-20
 -0.270000011      -1.64613026E-19
 -0.209999993      -3.32394412E-19
 -0.150000006      -1.71438119E-19
  -9.00000036E-02   1.20454092E-18
  -2.99999993E-02   4.60871536E-18
   2.99999993E-02   8.82989496E-18
   9.00000036E-02   8.05184970E-18
  0.150000006      -8.03530526E-18
  0.209999993      -4.65151584E-17
  0.270000011      -9.44183391E-17
  0.330000013      -1.02135531E-16
  0.389999986       9.94457956E-18
  0.449999988       2.96354329E-16
  0.509999990       6.83948294E-16
  0.569999993       8.79494161E-16
  0.629999995       4.01999534E-16
  0.689999998      -1.15088706E-15
  0.750000000      -3.61703270E-15
  0.810000002      -5.80928060E-15
  0.870000005      -5.53208314E-15
  0.930000007      -4.95962831E-16
  0.990000010       9.88442811E-15
   1.04999995       2.25871754E-14
   1.11000001       3.04298484E-14
   1.16999996       2.42802333E-14
   1.23000002      -1.75491769E-15
   1.28999996      -4.40825118E-14
   1.35000002      -8.61987280E-14
   1.40999997      -1.02165401E-13
   1.47000003      -6.83869939E-14
   1.52999997       1.99924052E-14
   1.59000003       1.36769637E-13
   1.64999998       2.26521574E-13
   1.71000004       2.25840993E-13
   1.76999998       9.87735555E-14
   1.83000004      -1.30054442E-13
   1.88999999      -3.66201318E-13
   1.95000005      -4.74869276E-13
   2.00999999      -3.45346039E-13
   2.06999993       3.58471662E-14
   2.13000011       5.43317615E-13
   2.19000006       9.37040701E-13
   2.25000000       9.58911336E-13
   2.30999994       4.68402498E-13
   2.36999989      -4.47183848E-13
   2.43000007      -1.45518818E-12
   2.49000001      -2.08584885E-12
   2.54999995      -1.93868597E-12
   2.60999990      -8.99981858E-13
   2.67000008       7.40791814E-13
   2.73000002       2.35773380E-12
   2.78999996       3.24040512E-12
   2.84999990       2.93533448E-12
   2.91000009       1.51530210E-12
   2.97000003      -3.79454958E-13
   3.02999997      -1.79480833E-12
   3.08999991      -1.93579874E-12
   3.15000010      -6.52659242E-13
   3.21000004       1.31739574E-12
   3.26999998       2.53815849E-12
   3.32999992       1.49655863E-12
   3.39000010      -2.55690629E-12
   3.45000005      -8.92166549E-12
   3.50999999      -1.52903558E-11
   3.56999993      -1.83205395E-11
   3.63000011      -1.48318111E-11
   3.69000006      -3.22450356E-12
   3.75000000       1.54419325E-11
   3.80999994       3.71985880E-11
   3.86999989       5.59384379E-11
   3.93000007       6.50081031E-11
   3.99000001       5.90976504E-11
   4.05000019       3.58072148E-11
   4.11000013      -3.56386188E-12
   4.17000008      -5.41125790E-11
   4.23000002      -1.08072717E-10
   4.28999996      -1.55792920E-10
   4.34999990      -1.86642285E-10
   4.40999985      -1.89833871E-10
   4.46999979      -1.55473551E-10
   4.53000021      -7.62638702E-11
   4.59000015       4.99126851E-11
   4.65000010       2.16796109E-10
   4.71000004       4.06775974E-10
   4.76999998       5.89351679E-10
   4.82999992       7.22166216E-10
   4.88999987       7.55185137E-10
   4.94999981       6.37674746E-10
   5.01000023       3.26686123E-10
   5.07000017      -2.04864514E-10
   5.13000011      -9.62460001E-10
   5.19000006      -1.92794669E-09
   5.25000000      -3.06153525E-09
   5.30999994      -4.30709646E-09
   5.36999989      -5.59921665E-09
   5.42999983      -6.87026702E-09
   5.48999977      -8.05610867E-09
   5.55000019      -9.09983378E-09
   5.61000013      -9.95383420E-09
   5.67000008      -1.05810969E-08
   5.73000002      -1.09567662E-08
   5.78999996      -1.10706093E-08
   5.84999990      -1.09302603E-08
   5.90999985      -1.05643032E-08
   5.96999979      -1.00237250E-08
   6.03000021      -9.38024947E-09
   6.09000015      -8.72069794E-09
   6.15000010      -8.13753065E-09
   6.21000004      -7.71693021E-09
   6.26999998      -7.52659712E-09
   6.32999992      -7.60577645E-09
   6.38999987      -7.95954769E-09
   6.44999981      -8.55841975E-09
   6.51000023      -9.34304722E-09
   6.57000017      -1.02328128E-08
   6.63000011      -1.11364686E-08
   6.69000006      -1.19630865E-08
   6.75000000      -1.26320163E-08
   6.80999994      -1.30811406E-08
   6.86999989      -1.32731222E-08
   6.92999983      -1.31993483E-08
   6.98999977      -1.28810882E-08
   7.05000019      -1.23671375E-08
   7.11000013      -1.17273906E-08
   7.17000008      -1.10424052E-08
   7.23000002      -1.03901661E-08
   7.28999996      -9.83239890E-09
   7.34999990      -9.40352951E-09
   7.40999985      -9.10520725E-09
   7.46999979      -8.90808938E-09
   7.53000021      -8.76065354E-09
   7.59000015      -8.60270344E-09
   7.65000010      -8.37983283E-09
   7.71000004      -8.05493006E-09
   7.76999998      -7.61393881E-09
   7.82999992      -7.06514403E-09
   7.88999987      -6.43335607E-09
   7.94999981      -5.75178394E-09
   8.01000023      -5.05450526E-09
   8.06999969      -4.37149783E-09
   8.13000011      -3.72657594E-09
   8.18999958      -3.13723958E-09
   8.25000000      -2.61485456E-09
   8.31000042      -2.16403206E-09
   8.36999989      -1.78109572E-09
   8.43000031      -1.45257062E-09
   8.48999977      -1.15503873E-09
   8.55000019      -8.57286853E-10
   8.60999966      -5.24644217E-10
   8.67000008      -1.24329103E-10
   8.72999954       3.69927589E-10
   8.78999996       9.75444614E-10
   8.85000038       1.70085646E-09
   8.90999985       2.54845234E-09
   8.97000027       3.51719076E-09
   9.02999973       4.60492000E-09
   9.09000015       5.80895998E-09
   9.14999962       7.12514803E-09
   9.21000004       8.54623128E-09
   9.27000046       1.00607487E-08
   9.32999992       1.16532402E-08
   9.39000034       1.33059341E-08
   9.44999981       1.50013673E-08
   9.51000023       1.67250018E-08
   9.56999969       1.84668032E-08
   9.63000011       2.02211119E-08
   9.68999958       2.19845937E-08
   9.75000000       2.37526709E-08
   9.81000042       2.55153214E-08
   9.86999989       2.72535505E-08
   9.93000031       2.89378850E-08
   9.98999977       3.05299430E-08
   10.0500002       3.19872946E-08
   10.1099997       3.32708154E-08
   10.1700001       3.43526132E-08
   10.2299995       3.52221647E-08
   10.2900000       3.58884940E-08
   10.3500004       3.63773971E-08
   10.4099998       3.67242059E-08
   10.4700003       3.69643196E-08
   10.5299997       3.71244617E-08
   10.5900002       3.72175464E-08
   10.6499996       3.72429412E-08
   10.7100000       3.71918851E-08
   10.7700005       3.70562105E-08
   10.8299999       3.68371715E-08
   10.8900003       3.65513415E-08
   10.9499998       3.62313486E-08
   11.0100002       3.59213210E-08
   11.0699997       3.56683820E-08
   11.1300001       3.55129082E-08
   11.1899996       3.54802623E-08
   11.2500000       3.55759262E-08
   11.3100004       3.57848116E-08
   11.3699999       3.60744146E-08
   11.4300003       3.64010653E-08
   11.4899998       3.67181308E-08
   11.5500002       3.69851918E-08
   11.6099997       3.71766724E-08
   11.6700001       3.72879896E-08
   11.7299995       3.73371378E-08
   11.7900000       3.73601949E-08
   11.8500004       3.74010725E-08
   11.9099998       3.74980544E-08
   11.9700003       3.76714659E-08
   12.0299997       3.79169798E-08
   12.0900002       3.82072294E-08
   12.1499996       3.85011134E-08
   12.2100000       3.87570580E-08
   12.2700005       3.89448758E-08
   12.3299999       3.90518125E-08
   12.3900003       3.90813035E-08
   12.4499998       3.90461459E-08
   12.5100002       3.89601205E-08
   12.5699997       3.88319492E-08
   12.6300001       3.86635044E-08
   12.6899996       3.84515992E-08
   12.7500000       3.81909189E-08
   12.8100004       3.78756262E-08
   12.8699999       3.74986442E-08
   12.9300003       3.70494853E-08
   12.9899998       3.65126276E-08
   13.0500002       3.58682684E-08
   13.1099997       3.50958835E-08
   13.1700001       3.41796600E-08
   13.2299995       3.31137535E-08
   13.2900000       3.19057136E-08
   13.3500004       3.05770307E-08
   13.4099998       2.91607183E-08
   13.4700003       2.76964975E-08
   13.5299997       2.62243436E-08
   13.5900002       2.47772434E-08
   13.6499996       2.33744366E-08
   13.7100000       2.20168044E-08
   13.7700005       2.06861781E-08
   13.8299999       1.93497769E-08
   13.8900003       1.79693593E-08
   13.9499998       1.65127556E-08
   14.0100002       1.49640709E-08
   14.0699997       1.33288545E-08
   14.1300001       1.16322081E-08
   14.1899996       9.91058702E-09
   14.2500000       8.20060642E-09
   14.3100004       6.52930199E-09
   14.3699999       4.90943153E-09
   14.4300003       3.34094286E-09
   14.4899998       1.81692406E-09
   14.5500002       3.30602767E-10
   14.6099997      -1.11999565E-09
   14.6700001      -2.53142463E-09
   14.7299995      -3.89764043E-09
   14.7900000      -5.21406918E-09
   14.8500004      -6.48051302E-09
   14.9099998      -7.70162689E-09
   14.9700003      -8.88530760E-09
   15.0299997      -1.00404414E-08
   15.0900002      -1.11754526E-08
   15.1499996      -1.22981678E-08
   15.2100000      -1.34163800E-08
   15.2700005      -1.45379673E-08
   15.3299999      -1.56698299E-08
   15.3900003      -1.68159779E-08
   15.4499998      -1.79760367E-08
   15.5100002      -1.91455900E-08
   15.5699997      -2.03189323E-08
   15.6300001      -2.14933653E-08
   15.6899996      -2.26729782E-08
   15.7500000      -2.38697542E-08
   15.8100004      -2.51008458E-08
   15.8699999      -2.63827253E-08
   15.9300003      -2.77245142E-08
   15.9899998      -2.91233526E-08
   16.0499992      -3.05638430E-08
   16.1100006      -3.20217772E-08
   16.1700001      -3.34704531E-08
   16.2299995      -3.48869200E-08
   16.2900009      -3.62559369E-08
   16.3500004      -3.75706541E-08
   16.4099998      -3.88306773E-08
   16.4699993      -4.00390618E-08
   16.5300007      -4.11995806E-08
   16.5900002      -4.23150439E-08
   16.6499996      -4.33864606E-08
   16.7099991      -4.44127757E-08
   16.7700005      -4.53909692E-08
   16.8299999      -4.63167886E-08
   16.8899994      -4.71861377E-08
   16.9500008      -4.79967106E-08
   17.0100002      -4.87487526E-08
   17.0699997      -4.94439476E-08
   17.1299992      -5.00821358E-08
   17.1900005      -5.06571141E-08
   17.2500000      -5.11536982E-08
   17.3099995      -5.15481311E-08
   17.3700008      -5.18125134E-08
   17.4300003      -5.19219014E-08
   17.4899998      -5.18612744E-08
   17.5499992      -5.16297547E-08
   17.6100006      -5.12407254E-08
   17.6700001      -5.07186044E-08
   17.7299995      -5.00942612E-08
   17.7900009      -4.94009775E-08
   17.8500004      -4.86714669E-08
   17.9099998      -4.79352735E-08
   17.9699993      -4.72153303E-08
   18.0300007      -4.65235175E-08
   18.0900002      -4.58565630E-08
   18.1499996      -4.51947884E-08
   18.2099991      -4.45056187E-08
   18.2700005      -4.37519070E-08
   18.3299999      -4.29026201E-08
   18.3899994      -4.19419628E-08
   18.4500008      -4.08734913E-08
   18.5100002      -3.97179818E-08
   18.5699997      -3.85064851E-08
   18.6299992      -3.72717359E-08
   18.6900005      -3.60411114E-08
   18.7500000      -3.48327163E-08
   18.8099995      -3.36544019E-08
   18.8700008      -3.25045200E-08
   18.9300003      -3.13734141E-08
   18.9899998      -3.02457437E-08
   19.0499992      -2.91041431E-08
   19.1100006      -2.79343926E-08
   19.1700001      -2.67306746E-08
   19.2299995      -2.54985757E-08
   19.2900009      -2.42534686E-08
   19.3500004      -2.30139925E-08
   19.4099998      -2.17928076E-08
   19.4699993      -2.05887769E-08
   19.5300007      -1.93844194E-08
   19.5900002      -1.81501782E-08
   19.6499996      -1.68538055E-08
   19.7099991      -1.54708619E-08
   19.7700005      -1.39920688E-08
   19.8299999      -1.24252235E-08
   19.8899994      -1.07920428E-08
   19.9500008      -9.12231890E-09
   20.0100002      -7.44807771E-09
   20.0699997      -5.79931392E-09
   20.1299992      -4.20146939E-09
   20.1900005      -2.67408939E-09
   20.2500000      -1.23041188E-09
   20.3099995       1.21580357E-10
   20.3700008       1.37585365E-09
   20.4300003       2.52278021E-09
   20.4899998       3.54292395E-09
   20.5499992       4.40302550E-09
   20.6100006       5.05708853E-09
   20.6700001       5.45388312E-09
   20.7299995       5.54955282E-09
   20.7900009       5.32161426E-09
   20.8500004       4.77965090E-09
   20.9099998       3.96891542E-09
   20.9699993       2.96553737E-09
   21.0300007       1.86489135E-09
   21.0900002       7.66861130E-10
   21.1499996      -2.37727782E-10
   21.2099991      -1.07620746E-09
   21.2700005      -1.69750169E-09
   21.3299999      -2.07078465E-09
   21.3899994      -2.18162910E-09
   21.4500008      -2.02805661E-09
   21.5100002      -1.61800073E-09
   21.5699997      -9.68389258E-10
   21.6299992      -1.04993417E-10
   21.6900005       9.38100042E-10
   21.7500000       2.12012630E-09
   21.8099995       3.39642248E-09
   21.8700008       4.72190154E-09
   21.9300003       6.05476602E-09
   21.9899998       7.36027594E-09
   22.0499992       8.61448957E-09
   22.1100006       9.80754500E-09
   22.1700001       1.09453051E-08
   22.2299995       1.20477610E-08
   22.2900009       1.31429658E-08
   22.3500004       1.42567869E-08
   22.4099998       1.54008113E-08
   22.4699993       1.65623177E-08
   22.5300007       1.77003034E-08
   22.5900002       1.87497875E-08
   22.6499996       1.96338110E-08
   22.7099991       2.02797263E-08
   22.7700005       2.06350492E-08
   22.8299999       2.06785735E-08
   22.8899994       2.04243520E-08
   22.9500008       1.99184900E-08
   23.0100002       1.92304110E-08
   23.0699997       1.84410798E-08
   23.1299992       1.76305406E-08
   23.1900005       1.68668137E-08
   23.2500000       1.61976530E-08
   23.3099995       1.56464122E-08
   23.3700008       1.52125015E-08
   23.4300003       1.48761305E-08
   23.4899998       1.46058952E-08
   23.5499992       1.43670942E-08
   23.6100006       1.41286201E-08
   23.6700001       1.38670107E-08
   23.7299995       1.35674698E-08
   23.7900009       1.32227447E-08
   23.8500004       1.28313014E-08
   23.9099998       1.23961321E-08
   23.9699993       1.19248176E-08
   24.0300007       1.14306449E-08
   24.0900002       1.09338094E-08
   24.1499996       1.04613784E-08
   24.2099991       1.00447988E-08
   24.2700005       9.71451009E-09
   24.3299999       9.49239354E-09
   24.3899994       9.38414502E-09
   24.4500008       9.37440525E-09
   24.5100002       9.42727763E-09
   24.5699997       9.49327283E-09
   24.6299992       9.52142098E-09
   24.6900005       9.47304013E-09
   24.7500000       9.33261735E-09
   24.8099995       9.11196807E-09
   24.8700008       8.84608564E-09
   24.9300003       8.58194760E-09
   24.9899998       8.36391045E-09
   25.0499992       8.22031510E-09
   25.1100006       8.15537682E-09
   25.1700001       8.14871548E-09
   25.2299995       8.16260126E-09
   25.2900009       8.15483503E-09
   25.3500004       8.09353295E-09
   25.4099998       7.96943667E-09
   25.4699993       7.80179121E-09
   25.5300007       7.63553576E-09
   25.5900002       7.53006635E-09
   25.6499996       7.54246177E-09
   25.7099991       7.70992781E-09
   25.7700005       8.03647726E-09
   25.8299999       8.48761772E-09
   25.8899994       8.99440256E-09
   25.9500008       9.46575440E-09
   26.0100002       9.80600134E-09
   26.0699997       9.93364502E-09
   26.1299992       9.79717818E-09
   26.1900005       9.38432443E-09
   26.2500000       8.72227179E-09
   26.3099995       7.86839838E-09
   26.3700008       6.89357327E-09
   26.4300003       5.86258020E-09
   26.4899998       4.81754503E-09
   26.5499992       3.76949139E-09
   26.6100006       2.70022049E-09
   26.6700001       1.57275759E-09
   26.7299995       3.45364265E-10
   26.7900009      -1.01675723E-09
   26.8500004      -2.53610555E-09
   26.9099998      -4.22438795E-09
   26.9699993      -6.08812423E-09
   27.0300007      -8.13415557E-09
   27.0900002      -1.03717959E-08
   27.1499996      -1.28107569E-08
   27.2099991      -1.54562922E-08
   27.2700005      -1.83040605E-08
   27.3299999      -2.13367652E-08
   27.3899994      -2.45233895E-08
   27.4500008      -2.78208976E-08
   27.5100002      -3.11779864E-08
   27.5699997      -3.45408573E-08
   27.6299992      -3.78609606E-08
   27.6900005      -4.11040340E-08
   27.7500000      -4.42584316E-08
   27.8099995      -4.73394870E-08
   27.8700008      -5.03868591E-08
   27.9300003      -5.34534976E-08
   27.9899998      -5.65881386E-08
   28.0499992      -5.98162941E-08
   28.1100006      -6.31264641E-08
   28.1700001      -6.64671020E-08
   28.2299995      -6.97564886E-08
   28.2900009      -7.29027434E-08
   28.3500004      -7.58275149E-08
   28.4099998      -7.84852432E-08
   28.4699993      -8.08719420E-08
   28.5300007      -8.30214404E-08
   28.5900002      -8.49916120E-08
   28.6499996      -8.68463061E-08
   28.7099991      -8.86388136E-08
   28.7700005      -9.04010236E-08
   28.8299999      -9.21393308E-08
   28.8899994      -9.38364195E-08
   28.9500008      -9.54570893E-08
   29.0100002      -9.69564766E-08
   29.0699997      -9.82895756E-08
   29.1299992      -9.94202907E-08
   29.1900005      -1.00327767E-07
   29.2500000      -1.01007387E-07
   29.3099995      -1.01465304E-07
   29.3700008      -1.01707876E-07
   29.4300003      -1.01730585E-07
   29.4899998      -1.01511930E-07
   29.5499992      -1.01016234E-07
   29.6100006      -1.00205114E-07
   29.6700001      -9.90527340E-08
   29.7299995      -9.75579368E-08
   29.7900009      -9.57472466E-08
   29.8500004      -9.36671114E-08
   29.9099998      -9.13686691E-08
   29.9699993      -8.88918166E-08
   30.0300007      -8.62550564E-08
   30.0900002      -8.34550065E-08
   30.1499996      -8.04749547E-08
   30.2099991      -7.72989921E-08
   30.2700005      -7.39266355E-08
   30.3299999      -7.03834786E-08
   30.3899994      -6.67253772E-08
   30.4500008      -6.30349888E-08
   30.5100002      -5.94116045E-08
   30.5699997      -5.59560682E-08
   30.6299992      -5.27540642E-08
   30.6900005      -4.98616792E-08
   30.7500000      -4.72970605E-08
   30.8099995      -4.50407640E-08
   30.8700008      -4.30447251E-08
   30.9300003      -4.12472687E-08
   30.9899998      -3.95894624E-08
   31.0499992      -3.80278564E-08
   31.1100006      -3.65401931E-08
   31.1700001      -3.51232288E-08
   31.2299995      -3.37846231E-08
   31.2900009      -3.25327711E-08
   31.3500004      -3.13687885E-08
   31.4099998      -3.02836938E-08
   31.4699993      -2.92616722E-08
   31.5300007      -2.82877117E-08
   31.5900002      -2.73563074E-08
   31.6499996      -2.64773181E-08
   31.7099991      -2.56763393E-08
   31.7700005      -2.49889975E-08
   31.8299999      -2.44509692E-08
   31.8899994      -2.40870879E-08
   31.9500008      -2.39031337E-08
   32.0099983      -2.38830484E-08
   32.0699997      -2.39925022E-08
   32.1300011      -2.41879405E-08
   32.1899986      -2.44286280E-08
   32.2500000      -2.46884202E-08
   32.3100014      -2.49636543E-08
   32.3699989      -2.52744918E-08
   32.4300003      -2.56587533E-08
   32.4900017      -2.61597766E-08
   32.5499992      -2.68121472E-08
   32.6100006      -2.76302892E-08
   32.6699982      -2.86039246E-08
   32.7299995      -2.97017433E-08
   32.7900009      -3.08813206E-08
   32.8499985      -3.21009672E-08
   32.9099998      -3.33290622E-08
   32.9700012      -3.45482327E-08
   33.0299988      -3.57545424E-08
   33.0900002      -3.69538071E-08
   33.1500015      -3.81574488E-08
   33.2099991      -3.93794153E-08
   33.2700005      -4.06343226E-08
   33.3300018      -4.19363104E-08
   33.3899994      -4.32985168E-08
   33.4500008      -4.47333726E-08
   33.5099983      -4.62538452E-08
   33.5699997      -4.78748241E-08
   33.6300011      -4.96128578E-08
   33.6899986      -5.14824414E-08
   33.7500000      -5.34888045E-08
   33.8100014      -5.56194308E-08
   33.8699989      -5.78384878E-08
   33.9300003      -6.00879559E-08
   33.9900017      -6.22966567E-08
   34.0499992      -6.43946905E-08
   34.1100006      -6.63279707E-08
   34.1699982      -6.80670951E-08
   34.2299995      -6.96070899E-08
   34.2900009      -7.09584427E-08
   34.3499985      -7.21330196E-08
   34.4099998      -7.31301952E-08
   34.4700012      -7.39278576E-08
   34.5299988      -7.44806883E-08
   34.5900002      -7.47255413E-08
   34.6500015      -7.45917745E-08
   34.7099991      -7.40132293E-08
   34.7700005      -7.29391800E-08
   34.8300018      -7.13420008E-08
   34.8899994      -6.92208673E-08
   34.9500008      -6.66013875E-08
   35.0099983      -6.35319353E-08
   35.0699997      -6.00773689E-08
   35.1300011      -5.63110447E-08
   35.1899986      -5.23062376E-08
   35.2500000      -4.81286158E-08
   35.3100014      -4.38315304E-08
   35.3699989      -3.94557844E-08
   35.4300003      -3.50339953E-08
   35.4900017      -3.05978034E-08
   35.5499992      -2.61847148E-08
   35.6100006      -2.18411529E-08
   35.6699982      -1.76201365E-08
   35.7299995      -1.35746365E-08
   35.7900009      -9.75001413E-09
   35.8499985      -6.17933971E-09
   35.9099998      -2.88359758E-09
   35.9700012       1.24087324E-10
   36.0299988       2.83333002E-09
   36.0900002       5.23383159E-09
   36.1500015       7.31668326E-09
   36.2099991       9.07843489E-09
   36.2700005       1.05249329E-08
   36.3300018       1.16721122E-08
   36.3899994       1.25428432E-08
   36.4500008       1.31612694E-08
   36.5099983       1.35474405E-08
   36.5699997       1.37146685E-08
   36.6300011       1.36704141E-08
   36.6899986       1.34196059E-08
   36.7500000       1.29682860E-08
   36.8100014       1.23255282E-08
   36.8699989       1.15027285E-08
   36.9300003       1.05106182E-08
   36.9900017       9.35544797E-09
   37.0499992       8.03621258E-09
   37.1100006       6.54449828E-09
   37.1699982       4.86768803E-09
   37.2299995       2.99489056E-09
   37.2900009       9.23678856E-10
   37.3499985      -1.33504152E-09
   37.4099998      -3.75637654E-09
   37.4700012      -6.30583985E-09
   37.5299988      -8.94756091E-09
   37.5900002      -1.16533050E-08
   37.6500015      -1.44088519E-08
   37.7099991      -1.72152639E-08
   37.7700005      -2.00845687E-08
   37.8300018      -2.30313866E-08
   37.8899994      -2.60631356E-08
   37.9500008      -2.91715558E-08
   38.0099983      -3.23276090E-08
   38.0699997      -3.54809266E-08
   38.1300011      -3.85642451E-08
   38.1899986      -4.15023429E-08
   38.2500000      -4.42240733E-08
   38.3100014      -4.66747352E-08
   38.3699989      -4.88251999E-08
   38.4300003      -5.06745756E-08
   38.4900017      -5.22450918E-08
   38.5499992      -5.35707017E-08
   38.6100006      -5.46837420E-08
   38.6699982      -5.56048896E-08
   38.7299995      -5.63403226E-08
   38.7900009      -5.68867407E-08
   38.8499985      -5.72411984E-08
   38.9099998      -5.74105918E-08
   38.9700012      -5.74159706E-08
   39.0299988      -5.72895082E-08
   39.0900002      -5.70654990E-08
   39.1500015      -5.67695722E-08
   39.2099991      -5.64108618E-08
   39.2700005      -5.59803794E-08
   39.3300018      -5.54559492E-08
   39.3899994      -5.48116041E-08
   39.4500008      -5.40277760E-08
   39.5099983      -5.30991286E-08
   39.5699997      -5.20380325E-08
   39.6300011      -5.08733535E-08
   39.6899986      -4.96451733E-08
   39.7500000      -4.83965792E-08
   39.8100014      -4.71638906E-08
   39.8699989      -4.59673188E-08
   39.9300003      -4.48045121E-08
   39.9900017      -4.36499228E-08
   40.0499992      -4.24616893E-08
   40.1100006      -4.11954950E-08
   40.1699982      -3.98215292E-08
   40.2299995      -3.83384275E-08
   40.2900009      -3.67782249E-08
   40.3499985      -3.51994345E-08
   40.4099998      -3.36703074E-08
   40.4700012      -3.22490195E-08
   40.5299988      -3.09689376E-08
   40.5900002      -2.98349541E-08
   40.6500015      -2.88315167E-08
   40.7099991      -2.79376398E-08
   40.7700005      -2.71411800E-08
   40.8300018      -2.64458002E-08
   40.8899994      -2.58681521E-08
   40.9500008      -2.54276742E-08
   41.0099983      -2.51342982E-08
   41.0699997      -2.49792986E-08
   41.1300011      -2.49320014E-08
   41.1899986      -2.49421639E-08
   41.2500000      -2.49461714E-08
   41.3100014      -2.48753693E-08
   41.3699989      -2.46657166E-08
   41.4300003      -2.42683758E-08
   41.4900017      -2.36600055E-08
   41.5499992      -2.28499282E-08
   41.6100006      -2.18807781E-08
   41.6699982      -2.08205506E-08
   41.7299995      -1.97472296E-08
   41.7900009      -1.87307716E-08
   41.8499985      -1.78189143E-08
   41.9099998      -1.70319563E-08
   41.9700012      -1.63676450E-08
   42.0299988      -1.58127929E-08
   42.0900002      -1.53555426E-08
   42.1500015      -1.49927804E-08
   42.2099991      -1.47302970E-08
   42.2700005      -1.45772088E-08
   42.3300018      -1.45385366E-08
   42.3899994      -1.46098236E-08
   42.4500008      -1.47756758E-08
   42.5099983      -1.50118566E-08
   42.5699997      -1.52893005E-08
   42.6300011      -1.55786104E-08
   42.6899986      -1.58545443E-08
   42.7500000      -1.61003690E-08
   42.8100014      -1.63116027E-08
   42.8699989      -1.64977827E-08
   42.9300003      -1.66806124E-08
   42.9900017      -1.68879453E-08
   43.0499992      -1.71451138E-08
   43.1100006      -1.74668546E-08
   43.1699982      -1.78533419E-08
   43.2299995      -1.82920523E-08
   43.2900009      -1.87643661E-08
   43.3499985      -1.92535410E-08
   43.4099998      -1.97503791E-08
   43.4700012      -2.02545412E-08
   43.5299988      -2.07720596E-08
   43.5900002      -2.13113172E-08
   43.6500015      -2.18798402E-08
   43.7099991      -2.24828351E-08
   43.7700005      -2.31227197E-08
   43.8300018      -2.37983802E-08
   43.8899994      -2.45036524E-08
   43.9500008      -2.52259831E-08
   44.0099983      -2.59471378E-08
   44.0699997      -2.66471289E-08
   44.1300011      -2.73107776E-08
   44.1899986      -2.79343908E-08
   44.2500000      -2.85294650E-08
   44.3100014      -2.91213702E-08
   44.3699989      -2.97433616E-08
   44.4300003      -3.04283496E-08
   44.4900017      -3.12017328E-08
   44.5499992      -3.20776863E-08
   44.6100006      -3.30594077E-08
   44.6699982      -3.41419906E-08
   44.7299995      -3.53157326E-08
   44.7900009      -3.65684336E-08
   44.8499985      -3.78862310E-08
   44.9099998      -3.92537380E-08
   44.9700012      -4.06544025E-08
   45.0299988      -4.20714130E-08
   45.0900002      -4.34888001E-08
   45.1500015      -4.48919018E-08
   45.2099991      -4.62670897E-08
   45.2700005      -4.76012758E-08
   45.3300018      -4.88824341E-08
   45.3899994      -5.01016935E-08
   45.4500008      -5.12561584E-08
   45.5099983      -5.23503871E-08
   45.5699997      -5.33941424E-08
   45.6300011      -5.43956808E-08
   45.6899986      -5.53527144E-08
   45.7500000      -5.62453089E-08
   45.8100014      -5.70353258E-08
   45.8699989      -5.76743098E-08
   45.9300003      -5.81176955E-08
   45.9900017      -5.83397153E-08
   46.0499992      -5.83426036E-08
   46.1100006      -5.81561466E-08
   46.1699982      -5.78278154E-08
   46.2299995      -5.74076076E-08
   46.2900009      -5.69330858E-08
   46.3499985      -5.64188447E-08
   46.4099998      -5.58525244E-08
   46.4700012      -5.51971731E-08
   46.5299988      -5.43990240E-08
   46.5900002      -5.33995568E-08
   46.6500015      -5.21499857E-08
   46.7099991      -5.06250508E-08
   46.7700005      -4.88317227E-08
   46.8300018      -4.68090207E-08
   46.8899994      -4.46179946E-08
   46.9500008      -4.23253184E-08
   47.0099983      -3.99872775E-08
   47.0699997      -3.76409233E-08
   47.1300011      -3.53053764E-08
   47.1899986      -3.29908048E-08
   47.2500000      -3.07086658E-08
   47.3100014      -2.84768724E-08
   47.3699989      -2.63173625E-08
   47.4300003      -2.42485712E-08
   47.4900017      -2.22783925E-08
   47.5499992      -2.04023820E-08
   47.6100006      -1.86082598E-08
   47.6699982      -1.68837762E-08
   47.7299995      -1.52232733E-08
   47.7900009      -1.36297418E-08
   47.8499985      -1.21121921E-08
   47.9099998      -1.06809468E-08
   47.9700012      -9.34386435E-09
   48.0299988      -8.10495848E-09
   48.0900002      -6.96479452E-09
   48.1500015      -5.92091487E-09
   48.2099991      -4.96725505E-09
   48.2700005      -4.09312317E-09
   48.3300018      -3.28355365E-09
   48.3899994      -2.52249843E-09
   48.4500008      -1.79848958E-09
   48.5099983      -1.11025755E-09
   48.5699997      -4.68844574E-10
   48.6300011       1.05990015E-10
   48.6899986       5.94245320E-10
   48.7500000       9.84982207E-10
   48.8100014       1.28100242E-09
   48.8699989       1.49517299E-09
   48.9300003       1.63900138E-09
   48.9900017       1.70885384E-09
   49.0499992       1.67758163E-09
   49.1100006       1.49743540E-09
   49.1699982       1.11460741E-09
   49.2299995       4.89322360E-10
   49.2900009      -3.88116900E-10
   49.3499985      -1.49336876E-09
   49.4099998      -2.77829493E-09
   49.4700012      -4.19056878E-09
   49.5299988      -5.69377434E-09
   49.5900002      -7.28003524E-09
   49.6500015      -8.97204000E-09
   49.7099991      -1.08168203E-08
   49.7700005      -1.28765487E-08
   49.8300018      -1.52208912E-08
   49.8899994      -1.79225470E-08
   49.9500008      -2.10550937E-08
   50.0099983      -2.46919036E-08
   50.0699997      -2.89062889E-08
   50.1300011      -3.37744552E-08
   50.1899986      -3.93825772E-08
   50.2500000      -4.58372895E-08
   50.3100014      -5.32765831E-08
   50.3699989      -6.18774578E-08
   50.4300003      -7.18581958E-08
   50.4900017      -8.34762162E-08
   50.5499992      -9.70254064E-08
   50.6100006      -1.12837505E-07