  -2.400000      0.0000000E+00
  -2.340000      0.0000000E+00
  -2.280000      0.0000000E+00
  -2.220000      0.0000000E+00
  -2.160000      0.0000000E+00
  -2.100000      0.0000000E+00
  -2.040000      1.6989425E-21
  -1.980000      8.8499884E-21
  -1.920000      5.0020961E-21
  -1.860000     -1.0843041E-19
  -1.800000     -5.3630141E-19
  -1.740000     -1.3491198E-18
  -1.680000     -1.8140842E-18
  -1.620000      2.7157386E-19
  -1.560000      7.8986707E-18
  -1.500000      2.1391739E-17
  -1.440000      3.2953440E-17
  -1.380000      2.4185183E-17
  -1.320000     -2.5837473E-17
  -1.260000     -1.1890897E-16
  -1.200000     -2.1304867E-16
  -1.140000     -2.2029719E-16
  -1.080000     -5.1622860E-17
  -1.020000      2.9607206E-16
 -0.9600000      6.6570199E-16
 -0.9000000      7.6499945E-16
 -0.8400000      3.4268767E-16
 -0.7800000     -5.4601613E-16
 -0.7200000     -1.3795589E-15
 -0.6600000     -1.3438952E-15
 -0.6000000      9.6894852E-17
 -0.5400000      2.5007005E-15
 -0.4800000      4.1744922E-15
 -0.4200000      2.8444332E-15
 -0.3600000     -2.7333192E-15
 -0.3000000     -1.1026644E-14
 -0.2400000     -1.7205696E-14
 -0.1800000     -1.4928093E-14
 -0.1200000     -2.4190017E-16
 -5.9999999E-02  2.4287611E-14
  0.0000000E+00  4.8124787E-14
  5.9999999E-02  5.6146670E-14
  0.1200000      3.6445375E-14
  0.1800000     -1.1067827E-14
  0.2400000     -7.0617238E-14
  0.3000000     -1.1504797E-13
  0.3600000     -1.1834850E-13
  0.4200000     -7.0400161E-14
  0.4800000      1.4638628E-14
  0.5400000      1.0267745E-13
  0.6000000      1.5626144E-13
  0.6600000      1.5493889E-13
  0.7200000      1.0711331E-13
  0.7800000      4.4591789E-14
  0.8400000      1.0809839E-15
  0.9000000     -1.3021770E-14
  0.9600000     -2.2278428E-14
   1.020000     -7.2821164E-14
   1.080000     -1.9724165E-13
   1.140000     -3.7692649E-13
   1.200000     -5.2772869E-13
   1.260000     -5.2621221E-13
   1.320000     -2.7206538E-13
   1.380000      2.4138959E-13
   1.440000      8.8822905E-13
   1.500000      1.4325013E-12
   1.560000      1.6136784E-12
   1.620000      1.2623085E-12
   1.680000      3.9234398E-13
   1.740000     -7.7794932E-13
   1.800000     -1.8932987E-12
   1.860000     -2.5914247E-12
   1.920000     -2.6387891E-12
   1.980000     -2.0116909E-12
   2.040000     -8.8926533E-13
   2.100000      4.3168962E-13
   2.160000      1.6533991E-12
   2.220000      2.5677850E-12
   2.280000      3.0834441E-12
   2.340000      3.1896313E-12
   2.400000      2.8929162E-12
   2.460000      2.1745702E-12
   2.520000      1.0007493E-12
   2.580000     -6.1660280E-13
   2.640000     -2.5428212E-12
   2.700000     -4.4755931E-12
   2.760000     -5.9679696E-12
   2.820000     -6.5250973E-12
   2.880000     -5.7479204E-12
   2.940000     -3.4770938E-12
   3.000000      1.1038588E-13
   3.060000      4.4832757E-12
   3.120000      8.8242564E-12
   3.180000      1.2168514E-11
   3.240000      1.3580713E-11
   3.300000      1.2330767E-11
   3.360000      8.0306777E-12
   3.420000      7.0464684E-13
   3.480000     -9.2185226E-12
   3.540000     -2.0982046E-11
   3.600000     -3.3620814E-11
   3.660000     -4.6090784E-11
   3.720000     -5.7377138E-11
   3.780000     -6.6566398E-11
   3.840000     -7.2884331E-11
   3.900000     -7.5716759E-11
   3.960000     -7.4634542E-11
   4.020000     -6.9435423E-11
   4.080000     -6.0197715E-11
   4.140000     -4.7323756E-11
   4.200000     -3.1544139E-11
   4.260000     -1.3862833E-11
   4.320000      4.5508285E-12
   4.380000      2.2490542E-11
   4.440000      3.8815562E-11
   4.500000      5.2498471E-11
   4.560000      6.2632025E-11
   4.620000      6.8449288E-11
   4.680000      6.9420934E-11
   4.740000      6.5447238E-11
   4.800000      5.7076656E-11
   4.860000      4.5608260E-11
   4.920000      3.2929659E-11
   4.980000      2.1039375E-11
   5.040000      1.1364828E-11
   5.100000      4.1400130E-12
   5.160000     -1.8566808E-12
   5.220000     -9.0207191E-12
   5.280000     -2.0144771E-11
   5.340000     -3.7434396E-11
   5.400000     -6.1712489E-11
   5.460000     -9.2128853E-11
   5.520000     -1.2645963E-10
   5.580000     -1.6181410E-10
   5.640000     -1.9540920E-10
   5.700000     -2.2509183E-10
   5.760000     -2.4946409E-10
   5.820000     -2.6769001E-10
   5.880000     -2.7921768E-10
   5.940000     -2.8366484E-10
   6.000000     -2.8099303E-10
   6.060000     -2.7192557E-10
   6.120000     -2.5841260E-10
   6.180000     -2.4389582E-10
   6.240000     -2.3317950E-10
   6.300000     -2.3183237E-10
   6.360000     -2.4520400E-10
   6.420000     -2.7727012E-10
   6.480000     -3.2959804E-10
   6.540000     -4.0071324E-10
   6.600000     -4.8606025E-10
   6.660000     -5.7858851E-10
   6.720000     -6.6982042E-10
   6.780000     -7.5112244E-10
   6.840000     -8.1487117E-10
   6.900000     -8.5529173E-10
   6.960000     -8.6889540E-10
   7.020000     -8.5458934E-10
   7.080000     -8.1360318E-10
   7.140000     -7.4932827E-10
   7.200000     -6.6705169E-10
   7.260000     -5.7348215E-10
   7.320000     -4.7597098E-10
   7.380000     -3.8146142E-10
   7.440000     -2.9538216E-10
   7.500000     -2.2083474E-10
   7.560000     -1.5841869E-10
   7.620000     -1.0686686E-10
   7.680000     -6.4404877E-11
   7.740000     -3.0507669E-11
   7.800000     -7.5823436E-12
   7.860000     -2.1291033E-12
   7.920000     -2.5090402E-11
   7.980000     -9.1327626E-11
   8.040000     -2.1839747E-10
   8.100000     -4.2497666E-10
   8.160000     -7.2932899E-10
   8.220000     -1.1481238E-09
   8.280000     -1.6956909E-09
   8.340000     -2.3835507E-09
   8.400000     -3.2198921E-09
   8.460000     -4.2087178E-09
   8.520000     -5.3486064E-09
   8.580000     -6.6314012E-09
   8.640000     -8.0413276E-09
   8.700000     -9.5550199E-09
   8.760000     -1.1142582E-08
   8.820000     -1.2769406E-08
   8.880000     -1.4398156E-08
   8.940000     -1.5990366E-08
   9.000000     -1.7507405E-08
   9.060000     -1.8910951E-08
   9.120000     -2.0163395E-08
   9.180000     -2.1228519E-08
   9.240000     -2.2072651E-08
   9.300000     -2.2666111E-08
   9.360000     -2.2984739E-08
   9.420000     -2.3011300E-08
   9.480000     -2.2736653E-08
   9.540000     -2.2160675E-08
   9.600000     -2.1292824E-08
   9.660000     -2.0152255E-08
   9.720000     -1.8767217E-08
   9.780000     -1.7173729E-08
   9.840000     -1.5413619E-08
   9.900000     -1.3532254E-08
   9.960000     -1.1576296E-08
   10.02000     -9.5917727E-09
   10.08000     -7.6225728E-09
   10.14000     -5.7093921E-09
   10.20000     -3.8890500E-09
   10.26000     -2.1940869E-09
   10.32000     -6.5248462E-10
   10.38000      7.1270773E-10
   10.44000      1.8840416E-09
   10.50000      2.8507421E-09
   10.56000      3.6100281E-09
   10.62000      4.1682768E-09
   10.68000      4.5415014E-09
   10.74000      4.7547108E-09
   10.80000      4.8400426E-09
   10.86000      4.8339635E-09
   10.92000      4.7741153E-09
   10.98000      4.6964446E-09
   11.04000      4.6330877E-09
   11.10000      4.6111674E-09
   11.16000      4.6523754E-09
   11.22000      4.7730264E-09
   11.28000      4.9842481E-09
   11.34000      5.2920650E-09
   11.40000      5.6972898E-09
   11.46000      6.1953189E-09
   11.52000      6.7760784E-09
   11.58000      7.4244100E-09
   11.64000      8.1211171E-09
   11.70000      8.8447187E-09
   11.76000      9.5736459E-09
   11.82000      1.0288462E-08
   11.88000      1.0973629E-08
   11.94000      1.1618509E-08
   12.00000      1.2217599E-08
   12.06000      1.2770227E-08
   12.12000      1.3279993E-08
   12.18000      1.3754127E-08
   12.24000      1.4202670E-08
   12.30000      1.4637354E-08
   12.36000      1.5070036E-08
   12.42000      1.5510878E-08
   12.48000      1.5966609E-08
   12.54000      1.6439284E-08
   12.60000      1.6925815E-08
   12.66000      1.7418255E-08
   12.72000      1.7904719E-08
   12.78000      1.8370775E-08
   12.84000      1.8801211E-08
   12.90000      1.9182064E-08
   12.96000      1.9502536E-08
   13.02000      1.9756239E-08
   13.08000      1.9941170E-08
   13.14000      2.0058209E-08
   13.20000      2.0108574E-08
   13.26000      2.0091344E-08
   13.32000      2.0002187E-08
   13.38000      1.9833896E-08
   13.44000      1.9578334E-08
   13.50000      1.9228599E-08
   13.56000      1.8780215E-08
   13.62000      1.8230761E-08
   13.68000      1.7578545E-08
   13.74000      1.6821495E-08
   13.80000      1.5957509E-08
   13.86000      1.4986407E-08
   13.92000      1.3912729E-08
   13.98000      1.2747917E-08
   14.04000      1.1510736E-08
   14.10000      1.0225703E-08
   14.16000      8.9202423E-09
   14.22000      7.6216331E-09
   14.28000      6.3545316E-09
   14.34000      5.1391322E-09
   14.40000      3.9895998E-09
   14.46000      2.9124543E-09
   14.52000      1.9051196E-09
   14.58000      9.5527408E-10
   14.64000      4.1601014E-11
   14.70000     -8.6402757E-10
   14.76000     -1.7936053E-09
   14.82000     -2.7802050E-09
   14.88000     -3.8558703E-09
   14.94000     -5.0499152E-09
   15.00000     -6.3868262E-09
   15.06000     -7.8831821E-09
   15.12000     -9.5439452E-09
   15.18000     -1.1359430E-08
   15.24000     -1.3304575E-08
   15.30000     -1.5341293E-08
   15.36000     -1.7423249E-08
   15.42000     -1.9501275E-08
   15.48000     -2.1527509E-08
   15.54000     -2.3457584E-08
   15.60000     -2.5251705E-08
   15.66000     -2.6876338E-08
   15.72000     -2.8307738E-08
   15.78000     -2.9536938E-08
   15.84000     -3.0574142E-08
   15.90000     -3.1450067E-08
   15.96000     -3.2212711E-08
   16.02000     -3.2919996E-08
   16.08000     -3.3630528E-08
   16.14000     -3.4394958E-08
   16.20000     -3.5249830E-08
   16.26000     -3.6214328E-08
   16.32000     -3.7289464E-08
   16.38000     -3.8459294E-08
   16.44000     -3.9694108E-08
   16.50000     -4.0955769E-08
   16.56000     -4.2204768E-08
   16.62000     -4.3407656E-08
   16.68000     -4.4542553E-08
   16.74000     -4.5601002E-08
   16.80000     -4.6585743E-08
   16.86000     -4.7505605E-08
   16.92000     -4.8369799E-08
   16.98000     -4.9183630E-08
   17.04000     -4.9946422E-08
   17.10000     -5.0651277E-08
   17.16000     -5.1285511E-08
   17.22000     -5.1831154E-08
   17.28000     -5.2265371E-08
   17.34000     -5.2561372E-08
   17.40000     -5.2690414E-08
   17.46000     -5.2624884E-08
   17.52000     -5.2342244E-08
   17.58000     -5.1829193E-08
   17.64000     -5.1085284E-08
   17.70000     -5.0125337E-08
   17.76000     -4.8979732E-08
   17.82000     -4.7691955E-08
   17.88000     -4.6313442E-08
   17.94000     -4.4896680E-08
   18.00000     -4.3488555E-08
   18.06000     -4.2125755E-08
   18.12000     -4.0833271E-08
   18.18000     -3.9625299E-08
   18.24000     -3.8506762E-08
   18.30000     -3.7473782E-08
   18.36000     -3.6512727E-08
   18.42000     -3.5599147E-08
   18.48000     -3.4698861E-08
   18.54000     -3.3772594E-08
   18.60000     -3.2783923E-08
   18.66000     -3.1708151E-08
   18.72000     -3.0539152E-08
   18.78000     -2.9291849E-08
   18.84000     -2.7999803E-08
   18.90000     -2.6709037E-08
   18.96000     -2.5469959E-08
   19.02000     -2.4329045E-08
   19.08000     -2.3321386E-08
   19.14000     -2.2464869E-08
   19.20000     -2.1756989E-08
   19.26000     -2.1175291E-08
   19.32000     -2.0681933E-08
   19.38000     -2.0231596E-08
   19.44000     -1.9780373E-08
   19.50000     -1.9292775E-08
   19.56000     -1.8744672E-08
   19.62000     -1.8122028E-08
   19.68000     -1.7417408E-08
   19.74000     -1.6627162E-08
   19.80000     -1.5751448E-08
   19.86000     -1.4797033E-08
   19.92000     -1.3780830E-08
   19.98000     -1.2731188E-08
   20.04000     -1.1684975E-08
   20.10000     -1.0680685E-08
   20.16000     -9.7499262E-09
   20.22000     -8.9105541E-09
   20.28000     -8.1639282E-09
   20.34000     -7.4969275E-09
   20.40000     -6.8874213E-09
   20.46000     -6.3108510E-09
   20.52000     -5.7457283E-09
   20.58000     -5.1767750E-09
   20.64000     -4.5955066E-09
   20.70000     -3.9987942E-09
   20.76000     -3.3862768E-09
   20.82000     -2.7575862E-09
   20.88000     -2.1104087E-09
   20.94000     -1.4403168E-09
   21.00000     -7.4287382E-10
   21.06000     -1.7614077E-11
   21.12000      7.2760636E-10
   21.18000      1.4740800E-09
   21.24000      2.1934390E-09
   21.30000      2.8530691E-09
   21.36000      3.4242740E-09
   21.42000      3.8901731E-09
   21.48000      4.2500905E-09
   21.54000      4.5185224E-09
   21.60000      4.7190869E-09
   21.66000      4.8760107E-09
   21.72000      5.0066511E-09
   21.78000      5.1178177E-09
   21.84000      5.2067479E-09
   21.90000      5.2654112E-09
   21.96000      5.2855480E-09
   22.02000      5.2619336E-09
   22.08000      5.1926889E-09
   22.14000      5.0772377E-09
   22.20000      4.9138213E-09
   22.26000      4.6986512E-09
   22.32000      4.4277870E-09
   22.38000      4.1011585E-09
   22.44000      3.7267269E-09
   22.50000      3.3223215E-09
   22.56000      2.9135807E-09
   22.62000      2.5282136E-09
   22.68000      2.1887172E-09
   22.74000      1.9066528E-09
   22.80000      1.6810935E-09
   22.86000      1.5020292E-09
   22.92000      1.3572360E-09
   22.98000      1.2394950E-09
   23.04000      1.1508687E-09
   23.10000      1.1020665E-09
   23.16000      1.1070859E-09
   23.22000      1.1752759E-09
   23.28000      1.3039787E-09
   23.34000      1.4746784E-09
   23.40000      1.6544240E-09
   23.46000      1.8026606E-09
   23.52000      1.8819470E-09
   23.58000      1.8696644E-09
   23.64000      1.7670154E-09
   23.70000      1.6017661E-09
   23.76000      1.4226155E-09
   23.82000      1.2857170E-09
   23.88000      1.2369891E-09
   23.94000      1.2961486E-09
   24.00000      1.4485728E-09
   24.06000      1.6486802E-09
   24.12000      1.8342611E-09
   24.18000      1.9468562E-09
   24.24000      1.9508510E-09
   24.30000      1.8444829E-09
   24.36000      1.6591747E-09
   24.42000      1.4479892E-09
   24.48000      1.2676922E-09
   24.54000      1.1606051E-09
   24.60000      1.1418525E-09
   24.66000      1.1953852E-09
   24.72000      1.2793013E-09
   24.78000      1.3383676E-09
   24.84000      1.3198341E-09
   24.90000      1.1878942E-09
   24.96000      9.3265307E-10
   25.02000      5.7113625E-10
   25.08000      1.4033771E-10
   25.14000     -3.1516850E-10
   25.20000     -7.5687734E-10
   25.26000     -1.1629364E-09
   25.32000     -1.5327186E-09
   25.38000     -1.8846988E-09
   25.44000     -2.2491324E-09
   25.50000     -2.6583542E-09
   25.56000     -3.1377205E-09
   25.62000     -3.6995360E-09
   25.68000     -4.3412136E-09
   25.74000     -5.0477618E-09
   25.80000     -5.7976304E-09
   25.86000     -6.5701173E-09
   25.92000     -7.3520470E-09
   25.98000     -8.1415967E-09
   26.04000     -8.9480139E-09
   26.10000     -9.7873656E-09
   26.16000     -1.0675889E-08
   26.22000     -1.1623316E-08
   26.28000     -1.2628487E-08
   26.34000     -1.3678695E-08
   26.40000     -1.4752962E-08
   26.46000     -1.5828290E-08
   26.52000     -1.6887061E-08
   26.58000     -1.7923378E-08
   26.64000     -1.8946082E-08
   26.70000     -1.9976824E-08
   26.76000     -2.1042952E-08
   26.82000     -2.2166850E-08
   26.88000     -2.3355268E-08
   26.94000     -2.4593000E-08
   27.00000     -2.5844182E-08
   27.06000     -2.7061892E-08
   27.12000     -2.8203205E-08
   27.18000     -2.9244305E-08
   27.24000     -3.0189906E-08
   27.30000     -3.1073217E-08
   27.36000     -3.1946193E-08
   27.42000     -3.2863493E-08
   27.48000     -3.3865394E-08
   27.54000     -3.4965232E-08
   27.60000     -3.6144964E-08
   27.66000     -3.7360063E-08
   27.72000     -3.8552304E-08
   27.78000     -3.9666880E-08
   27.84000     -4.0669249E-08
   27.90000     -4.1556781E-08
   27.96000     -4.2361499E-08
   28.02000     -4.3142371E-08
   28.08000     -4.3968591E-08
   28.14000     -4.4898368E-08
   28.20000     -4.5959364E-08
   28.26000     -4.7136929E-08
   28.32000     -4.8373927E-08
   28.38000     -4.9582621E-08
   28.44000     -5.0665246E-08
   28.50000     -5.1537306E-08
   28.56000     -5.2146774E-08
   28.62000     -5.2483788E-08
   28.68000     -5.2578134E-08
   28.74000     -5.2485742E-08
   28.80000     -5.2268618E-08
   28.86000     -5.1974844E-08
   28.92000     -5.1625069E-08
   28.98000     -5.1209717E-08
   29.04000     -5.0697409E-08
   29.10000     -5.0051163E-08
   29.16000     -4.9246211E-08
   29.22000     -4.8282846E-08
   29.28000     -4.7189630E-08
   29.34000     -4.6015611E-08
   29.40000     -4.4814360E-08
   29.46000     -4.3625221E-08
   29.52000     -4.2458460E-08
   29.58000     -4.1289788E-08
   29.64000     -4.0066947E-08
   29.70000     -3.8727055E-08
   29.76000     -3.7219696E-08
   29.82000     -3.5528199E-08
   29.88000     -3.3681587E-08
   29.94000     -3.1752112E-08
   30.00000     -2.9838244E-08
   30.06000     -2.8038036E-08
   30.12000     -2.6421725E-08
   30.18000     -2.5013067E-08
   30.24000     -2.3786123E-08
   30.30000     -2.2678758E-08
   30.36000     -2.1618378E-08
   30.42000     -2.0551202E-08
   30.48000     -1.9465491E-08
   30.54000     -1.8401405E-08
   30.60000     -1.7444629E-08
   30.66000     -1.6705993E-08
   30.72000     -1.6293280E-08
   30.78000     -1.6283483E-08
   30.84000     -1.6703355E-08
   30.90000     -1.7523577E-08
   30.96000     -1.8667851E-08
   31.02000     -2.0033765E-08
   31.08000     -2.1518778E-08
   31.14000     -2.3043293E-08
   31.20000     -2.4564146E-08
   31.26000     -2.6075419E-08
   31.32000     -2.7598110E-08
   31.38000     -2.9163637E-08
   31.44000     -3.0797558E-08
   31.50000     -3.2508620E-08
   31.56000     -3.4285417E-08
   31.62000     -3.6099962E-08
   31.68000     -3.7915694E-08
   31.74000     -3.9696893E-08
   31.80000     -4.1417042E-08
   31.86000     -4.3064400E-08
   31.92000     -4.4643699E-08
   31.98000     -4.6173376E-08
   32.04000     -4.7678796E-08
   32.10000     -4.9183001E-08
   32.16000     -5.0697714E-08
   32.22000     -5.2217469E-08
   32.28000     -5.3718804E-08
   32.34000     -5.5164545E-08
   32.40000     -5.6511553E-08
   32.46000     -5.7719305E-08
   32.52000     -5.8757198E-08
   32.58000     -5.9609370E-08
   32.64000     -6.0276868E-08
   32.70000     -6.0777012E-08
   32.76000     -6.1139879E-08
   32.82000     -6.1401870E-08
   32.88000     -6.1596879E-08
   32.94000     -6.1747073E-08
   33.00000     -6.1855971E-08
   33.06000     -6.1906391E-08
   33.12000     -6.1864284E-08
   33.18000     -6.1687246E-08
   33.24000     -6.1335108E-08
   33.30000     -6.0779428E-08
   33.36000     -6.0009597E-08
   33.42000     -5.9034821E-08
   33.48000     -5.7882122E-08
   33.54000     -5.6590963E-08
   33.60000     -5.5205337E-08
   33.66000     -5.3764403E-08
   33.72000     -5.2293426E-08
   33.78000     -5.0797400E-08
   33.84000     -4.9259459E-08
   33.90000     -4.7645010E-08
   33.96000     -4.5910571E-08
   34.02000     -4.4014730E-08
   34.08000     -4.1927915E-08
   34.14000     -3.9638557E-08
   34.20000     -3.7154599E-08
   34.26000     -3.4500850E-08
   34.32000     -3.1713729E-08
   34.38000     -2.8835137E-08
   34.44000     -2.5907246E-08
   34.50000     -2.2969648E-08
   34.56000     -2.0059709E-08
   34.62000     -1.7215877E-08
   34.68000     -1.4482174E-08
   34.74000     -1.1910978E-08
   34.80000     -9.5611918E-09
   34.86000     -7.4905548E-09
   34.92000     -5.7436900E-09
   34.98000     -4.3401118E-09
   35.04000     -3.2673684E-09
   35.10000     -2.4829430E-09
   35.16000     -1.9251378E-09
   35.22000     -1.5294501E-09
   35.28000     -1.2447771E-09
   35.34000     -1.0440611E-09
   35.40000     -9.2641894E-10
   35.46000     -9.1105262E-10
   35.52000     -1.0258486E-09
   35.58000     -1.2947026E-09
   35.64000     -1.7272094E-09
   35.70000     -2.3131197E-09
   35.76000     -3.0224796E-09
   35.82000     -3.8110772E-09
   35.88000     -4.6297508E-09
   35.94000     -5.4352407E-09
   36.00000     -6.1998242E-09
   36.06000     -6.9171389E-09
   36.12000     -7.6026705E-09
   36.18000     -8.2890006E-09
   36.24000     -9.0176133E-09
   36.30000     -9.8300470E-09
   36.36000     -1.0761043E-08
   36.42000     -1.1835281E-08
   36.48000     -1.3067752E-08
   36.54000     -1.4466639E-08
   36.60000     -1.6037101E-08
   36.66000     -1.7784602E-08
   36.72000     -1.9716985E-08
   36.78000     -2.1844958E-08
   36.84000     -2.4180938E-08
   36.90000     -2.6736219E-08
   36.96000     -2.9516583E-08
   37.02000     -3.2516926E-08
   37.08000     -3.5715882E-08
   37.14000     -3.9071921E-08
   37.20000     -4.2522331E-08
   37.26000     -4.5986106E-08
   37.32000     -4.9370833E-08
   37.38000     -5.2582788E-08
   37.44000     -5.5538393E-08
   37.50000     -5.8174670E-08
   37.56000     -6.0456067E-08
   37.62000     -6.2375541E-08
   37.68000     -6.3949088E-08
   37.74000     -6.5204709E-08
   37.80000     -6.6168703E-08
   37.86000     -6.6853467E-08
   37.92000     -6.7250895E-08
   37.98000     -6.7333787E-08
   38.04000     -6.7064974E-08
   38.10000     -6.6411481E-08
   38.16000     -6.5359195E-08
   38.22000     -6.3923451E-08
   38.28000     -6.2152715E-08
   38.34000     -6.0124272E-08
   38.40000     -5.7933327E-08
   38.46000     -5.5678026E-08
   38.52000     -5.3444030E-08
   38.58000     -5.1292073E-08
   38.64000     -4.9251717E-08
   38.70000     -4.7323077E-08
   38.76000     -4.5486356E-08
   38.82000     -4.3716675E-08
   38.88000     -4.1999527E-08
   38.94000     -4.0341643E-08
   39.00000     -3.8773248E-08
   39.06000     -3.7340929E-08
   39.12000     -3.6093656E-08
   39.18000     -3.5067195E-08
   39.24000     -3.4272674E-08
   39.30000     -3.3693176E-08
   39.36000     -3.3289201E-08
   39.42000     -3.3010622E-08
   39.48000     -3.2810966E-08
   39.54000     -3.2659464E-08
   39.60000     -3.2547639E-08
   39.66000     -3.2488988E-08
   39.72000     -3.2512428E-08
   39.78000     -3.2651588E-08
   39.84000     -3.2933062E-08
   39.90000     -3.3366881E-08
   39.96000     -3.3941816E-08
   40.02000     -3.4626748E-08
   40.08000     -3.5377532E-08
   40.14000     -3.6146986E-08
   40.20000     -3.6894701E-08
   40.26000     -3.7593392E-08
   40.32000     -3.8229949E-08
   40.38000     -3.8801325E-08
   40.44000     -3.9307348E-08
   40.50000     -3.9743785E-08
   40.56000     -4.0098683E-08
   40.62000     -4.0353793E-08
   40.68000     -4.0490526E-08
   40.74000     -4.0497969E-08
   40.80000     -4.0379302E-08
   40.86000     -4.0153381E-08
   40.92000     -3.9850121E-08
   40.98000     -3.9500900E-08
   41.04000     -3.9127368E-08
   41.10000     -3.8732907E-08
   41.16000     -3.8300051E-08
   41.22000     -3.7794869E-08
   41.28000     -3.7176807E-08
   41.34000     -3.6410732E-08
   41.40000     -3.5477512E-08
   41.46000     -3.4380456E-08
   41.52000     -3.3146247E-08
   41.58000     -3.1820427E-08
   41.64000     -3.0458494E-08
   41.70000     -2.9114373E-08
   41.76000     -2.7828795E-08
   41.82000     -2.6620825E-08
   41.88000     -2.5485573E-08
   41.94000     -2.4399952E-08
   42.00000     -2.3335613E-08
   42.06000     -2.2275222E-08
   42.12000     -2.1226112E-08
   42.18000     -2.0225540E-08
   42.24000     -1.9334585E-08
   42.30000     -1.8622147E-08
   42.36000     -1.8144551E-08
   42.42000     -1.7928153E-08
   42.48000     -1.7961247E-08
   42.54000     -1.8197982E-08
   42.60000     -1.8572630E-08
   42.66000     -1.9019183E-08
   42.72000     -1.9490006E-08
   42.78000     -1.9968125E-08
   42.84000     -2.0470203E-08
   42.90000     -2.1039945E-08
   42.96000     -2.1734152E-08
   43.02000     -2.2605191E-08
   43.08000     -2.3684418E-08
   43.14000     -2.4971003E-08
   43.20000     -2.6429399E-08
   43.26000     -2.7996766E-08
   43.32000     -2.9598901E-08
   43.38000     -3.1170504E-08
   43.44000     -3.2673782E-08
   43.50000     -3.4109320E-08
   43.56000     -3.5515026E-08
   43.62000     -3.6952866E-08
   43.68000     -3.8487165E-08
   43.74000     -4.0161645E-08
   43.80000     -4.1983217E-08
   43.86000     -4.3918245E-08
   43.92000     -4.5902681E-08
   43.98000     -4.7862315E-08
   44.04000     -4.9735672E-08
   44.10000     -5.1491561E-08
   44.16000     -5.3135615E-08
   44.22000     -5.4704508E-08
   44.28000     -5.6250887E-08
   44.34000     -5.7824582E-08
   44.40000     -5.9455829E-08
   44.46000     -6.1144817E-08
   44.52000     -6.2859556E-08
   44.58000     -6.4542121E-08
   44.64000     -6.6121686E-08
   44.70000     -6.7531445E-08
   44.76000     -6.8725086E-08
   44.82000     -6.9688014E-08
   44.88000     -7.0439292E-08
   44.94000     -7.1022967E-08
   45.00000     -7.1491769E-08
   45.06000     -7.1889147E-08
   45.12000     -7.2236880E-08
   45.18000     -7.2533091E-08
   45.24000     -7.2760635E-08
   45.30000     -7.2901315E-08
   45.36000     -7.2948971E-08
   45.42000     -7.2915519E-08
   45.48000     -7.2827781E-08
   45.54000     -7.2717000E-08
   45.60000     -7.2605474E-08
   45.66000     -7.2495531E-08
   45.72000     -7.2364244E-08
   45.78000     -7.2165456E-08
   45.84000     -7.1838571E-08
   45.90000     -7.1322148E-08
   45.96000     -7.0569001E-08
   46.02000     -6.9559057E-08
   46.08000     -6.8306207E-08
   46.14000     -6.6856828E-08
   46.20000     -6.5280112E-08
   46.26000     -6.3652699E-08
   46.32000     -6.2042140E-08
   46.38000     -6.0493527E-08
   46.44000     -5.9022625E-08
   46.50000     -5.7616809E-08
   46.56000     -5.6242893E-08
   46.62000     -5.4859598E-08
   46.68000     -5.3430966E-08
   46.74000     -5.1936784E-08
   46.80000     -5.0376688E-08
   46.86000     -4.8766751E-08
   46.92000     -4.7130591E-08
   46.98000     -4.5489450E-08
   47.04000     -4.3856343E-08
   47.10000     -4.2236785E-08
   47.16000     -4.0634699E-08
   47.22000     -3.9058794E-08
   47.28000     -3.7524543E-08
   47.34000     -3.6050086E-08
   47.40000     -3.4648803E-08
   47.46000     -3.3323776E-08
   47.52000     -3.2068193E-08
   47.58000     -3.0871661E-08
   47.64000     -2.9728310E-08
   47.70000     -2.8641541E-08
   47.76000     -2.7623113E-08
   47.82000     -2.6688317E-08
   47.88000     -2.5851739E-08
   47.94000     -2.5127225E-08
   48.00000     -2.4532268E-08
   48.06000     -2.4093774E-08
   48.12000     -2.3851612E-08
   48.18000     -2.3858561E-08
   48.24000     -2.4178043E-08
   48.30000     -2.4882119E-08
   48.36000     -2.6050774E-08
   48.42000     -2.7771151E-08
   48.48000     -3.0134810E-08
   48.54000     -3.3232951E-08
   48.60000     -3.7152688E-08
   48.66000     -4.1979114E-08
   48.72000     -4.7805980E-08
   48.78000     -5.4753645E-08
   48.84000     -6.2988875E-08
   48.90000     -7.2740249E-08
   48.96000     -8.4305746E-08
   49.02000     -9.8053256E-08
   49.08000     -1.1441748E-07
   49.14000     -1.3389699E-07
   49.20000     -1.5705298E-07
   49.26000     -1.8451033E-07
   49.32000     -2.1696167E-07
   49.38000     -2.5517633E-07
   49.44000     -3.0001667E-07
   49.50000     -3.5246086E-07
   49.56000     -4.1362915E-07
   49.62000     -4.8480757E-07
   49.68000     -5.6746489E-07
   49.74000     -6.6326470E-07
   49.80000     -7.7407674E-07
   49.86000     -9.0199444E-07
   49.92000     -1.0493610E-06
   49.98000     -1.2188021E-06
   50.04000     -1.4132575E-06
   50.10000     -1.6360092E-06
   50.16000     -1.8907047E-06
   50.22000     -2.1813769E-06
   50.28000     -2.5124712E-06
   50.34000     -2.8888714E-06
   50.40000     -3.3159326E-06
   50.46000     -3.7995055E-06
   50.52000     -4.3459645E-06
   50.58000     -4.9622276E-06
   50.64000     -5.6557842E-06
   50.70000     -6.4347246E-06
   50.76000     -7.3077726E-06
   50.82000     -8.2843153E-06
   50.88000     -9.3744175E-06
   50.94000     -1.0588825E-05
   51.00000     -1.1938958E-05
   51.06000     -1.3436892E-05
   51.12000     -1.5095341E-05
   51.18000     -1.6927650E-05
   51.24000     -1.8947785E-05
   51.30000     -2.1170319E-05
   51.36000     -2.3610393E-05
   51.42000     -2.6283687E-05
   51.48000     -2.9206340E-05
   51.54000     -3.2394855E-05
   51.60000     -3.5866029E-05
   51.66000     -3.9636841E-05
   51.72000     -4.3724376E-05
   51.78000     -4.8145706E-05
   51.84000     -5.2917778E-05
   51.90000     -5.8057271E-05
   51.96000     -6.3580432E-05
   52.02000     -6.9502938E-05
   52.08000     -7.5839736E-05
   52.14000     -8.2604864E-05
   52.20000     -8.9811285E-05
   52.26000     -9.7470685E-05
   52.32000     -1.0559328E-04
   52.38000     -1.1418763E-04
   52.44000     -1.2326037E-04
   52.50000     -1.3281616E-04
   52.56000     -1.4285743E-04
   52.62000     -1.5338436E-04
   52.68000     -1.6439447E-04
   52.74000     -1.7588268E-04
   52.80000     -1.8784107E-04
   52.86000     -2.0025873E-04
   52.92000     -2.1312175E-04
   52.98000     -2.2641306E-04
   53.04000     -2.4011251E-04
   53.10000     -2.5419678E-04
   53.16000     -2.6863939E-04
   53.22000     -2.8341063E-04
   53.28000     -2.9847777E-04
   53.34000     -3.1380510E-04
   53.40000     -3.2935402E-04
   53.46000     -3.4508330E-04
   53.52000     -3.6094940E-04
   53.58000     -3.7690665E-04
   53.64000     -3.9290724E-04
   53.70000     -4.0890177E-04
   53.76000     -4.2483950E-04
   53.82000     -4.4066852E-04
   53.88000     -4.5633648E-04
   53.94000     -4.7179073E-04
   54.00000     -4.8697909E-04
   54.06000     -5.0184981E-04
   54.12000     -5.1635189E-04
   54.18000     -5.3043599E-04
   54.24000     -5.4405426E-04
   54.30000     -5.5716123E-04
   54.36000     -5.6971418E-04
   54.42000     -5.8167352E-04
   54.48000     -5.9300312E-04
   54.54000     -6.0367066E-04
   54.60000     -6.1364780E-04
   54.66000     -6.2291056E-04
   54.72000     -6.3143950E-04
   54.78000     -6.3922018E-04
   54.84000     -6.4624287E-04
   54.90000     -6.5250293E-04
   54.96000     -6.5800064E-04
   55.02000     -6.6274160E-04
   55.08000     -6.6673657E-04
   55.14000     -6.7000114E-04
   55.20000     -6.7255605E-04
   55.26000     -6.7442679E-04
   55.32000     -6.7564298E-04
   55.38000     -6.7623839E-04
   55.44000     -6.7625038E-04
   55.50000     -6.7572005E-04
   55.56000     -6.7469192E-04