  -2.400000      0.0000000E+00
  -2.340000      0.0000000E+00
  -2.280000      0.0000000E+00
  -2.220000      0.0000000E+00
  -2.160000      0.0000000E+00
  -2.100000      0.0000000E+00
  -2.040000      0.0000000E+00
  -1.980000      0.0000000E+00
  -1.920000      0.0000000E+00
  -1.860000      0.0000000E+00
  -1.800000      0.0000000E+00
  -1.740000      1.6069685E-31
  -1.680000      3.3925365E-30
  -1.620000      3.0941777E-29
  -1.560000      1.6315549E-28
  -1.500000      5.2286215E-28
  -1.440000      7.7857312E-28
  -1.380000     -1.5868580E-27
  -1.320000     -1.3671419E-26
  -1.260000     -4.3818022E-26
  -1.200000     -7.7099388E-26
  -1.140000     -1.8412966E-26
  -1.080000      3.5583445E-25
  -1.020000      1.2803054E-24
 -0.9600000      2.4740587E-24
 -0.9000000      2.1789910E-24
 -0.8400000     -3.4315327E-24
 -0.7800000     -1.8416201E-23
 -0.7200000     -4.0447013E-23
 -0.6600000     -5.0179893E-23
 -0.6000000     -5.3848142E-24
 -0.5400000      1.4216610E-22
 -0.4800000      3.9020524E-22
 -0.4200000      5.9973371E-22
 -0.3600000      4.4407982E-22
 -0.3000000     -4.8871208E-22
 -0.2400000     -2.3411063E-21
 -0.1800000     -4.4431259E-21
 -0.1200000     -4.9434660E-21
 -5.9999999E-02 -1.2330794E-21
  0.0000000E+00  8.3376655E-21
  5.9999999E-02  2.1725676E-20
  0.1200000      3.1050825E-20
  0.1800000      2.3728364E-20
  0.2400000     -1.0915768E-20
  0.3000000     -7.0392101E-20
  0.3600000     -1.2904699E-19
  0.4200000     -1.3926779E-19
  0.4800000     -5.2372834E-20
  0.5400000      1.4253486E-19
  0.6000000      3.8022592E-19
  0.6600000      5.1366991E-19
  0.7200000      3.6975335E-19
  0.7800000     -1.3474329E-19
  0.8400000     -8.6768031E-19
  0.9000000     -1.4391287E-18
  0.9600000     -1.3292476E-18
   1.020000     -1.9599659E-19
   1.080000      1.7607759E-18
   1.140000      3.6192494E-18
   1.200000      3.9811156E-18
   1.260000      1.7040880E-18
   1.320000     -3.1408739E-18
   1.380000     -8.6520015E-18
   1.440000     -1.1431216E-17
   1.500000     -8.1184030E-18
   1.560000      2.3387942E-18
   1.620000      1.6861719E-17
   1.680000      2.8277096E-17
   1.740000      2.8011208E-17
   1.800000      1.0850020E-17
   1.860000     -2.0380387E-17
   1.920000     -5.3144399E-17
   1.980000     -6.8732257E-17
   2.040000     -5.0881676E-17
   2.100000      3.6484381E-18
   2.160000      7.7895936E-17
   2.220000      1.3621546E-16
   2.280000      1.3694264E-16
   2.340000      5.3616438E-17
   2.400000     -1.0320950E-16
   2.460000     -2.7492307E-16
   2.520000     -3.6517041E-16
   2.580000     -2.7594862E-16
   2.640000      3.7361164E-17
   2.700000      5.1243757E-16
   2.760000      9.5861694E-16
   2.820000      1.0974563E-15
   2.880000      6.7631536E-16
   2.940000     -3.7088579E-16
   3.000000     -1.7850165E-15
   3.060000     -2.9605398E-15
   3.120000     -3.1180661E-15
   3.180000     -1.6685717E-15
   3.240000      1.3527704E-15
   3.300000      5.0107581E-15
   3.360000      7.5945914E-15
   3.420000      7.2534642E-15
   3.480000      2.9915103E-15
   3.540000     -4.4157661E-15
   3.600000     -1.2159230E-14
   3.660000     -1.6203513E-14
   3.720000     -1.3101176E-14
   3.780000     -2.1278285E-15
   3.840000      1.3385141E-14
   3.900000      2.6562038E-14
   3.960000      2.9651794E-14
   4.020000      1.8017692E-14
   4.080000     -6.4066392E-15
   4.140000     -3.4293654E-14
   4.200000     -5.1932108E-14
   4.260000     -4.7439500E-14
   4.320000     -1.7585231E-14
   4.380000      2.8363135E-14
   4.440000      7.0587606E-14
   4.500000      8.6758576E-14
   4.560000      6.3204677E-14
   4.620000      3.9070132E-15
   4.680000     -6.7940743E-14
   4.740000     -1.1816074E-13
   4.800000     -1.1721609E-13
   4.860000     -5.6456708E-14
   4.920000      4.3402520E-14
   4.980000      1.3744928E-13
   5.040000      1.7523153E-13
   5.100000      1.2574444E-13
   5.160000     -2.9233203E-15
   5.220000     -1.6023858E-13
   5.280000     -2.7071851E-13
   5.340000     -2.6708613E-13
   5.400000     -1.2523103E-13
   5.460000      1.1598615E-13
   5.520000      3.6222300E-13
   5.580000      4.9906406E-13
   5.640000      4.4249939E-13
   5.700000      1.8252236E-13
   5.760000     -2.0179052E-13
   5.820000     -5.6651786E-13
   5.880000     -7.5980514E-13
   5.940000     -6.8838636E-13
   6.000000     -3.6339939E-13
   6.060000      9.8221649E-14
   6.120000      5.2154467E-13
   6.180000      7.5186271E-13
   6.240000      7.2750779E-13
   6.300000      5.1011517E-13
   6.360000      2.5239205E-13
   6.420000      1.1304903E-13
   6.480000      1.5745592E-13
   6.540000      2.9616010E-13
   6.600000      3.0254756E-13
   6.660000     -8.2686340E-14
   6.720000     -9.9583514E-13
   6.780000     -2.3119839E-12
   6.840000     -3.5985635E-12
   6.900000     -4.2060808E-12
   6.960000     -3.4869950E-12
   7.020000     -1.0752646E-12
   7.080000      2.8776775E-12
   7.140000      7.6116283E-12
   7.200000      1.1867250E-11
   7.260000      1.4182599E-11
   7.320000      1.3294576E-11
   7.380000      8.5251303E-12
   7.440000      3.8137869E-14
   7.500000     -1.1100772E-11
   7.560000     -2.3063709E-11
   7.620000     -3.3544736E-11
   7.680000     -4.0108247E-11
   7.740000     -4.0532511E-11
   7.800000     -3.3117630E-11
   7.860000     -1.6968087E-11
   7.920000      7.7211458E-12
   7.980000      3.9364258E-11
   8.040000      7.4711667E-11
   8.100000      1.0871122E-10
   8.160000      1.3465476E-10
   8.220000      1.4475544E-10
   8.280000      1.3122785E-10
   8.340000      8.7812577E-11
   8.400000      1.1534746E-11
   8.460000     -9.5637581E-11
   8.520000     -2.2561379E-10
   8.580000     -3.6379821E-10
   8.640000     -4.8966720E-10
   8.700000     -5.7826305E-10
   8.760000     -6.0237426E-10
   8.820000     -5.3506405E-10
   8.880000     -3.5221193E-10
   8.940000     -3.4828942E-11
   9.000000      4.2895659E-10
   9.060000      1.0422456E-09
   9.120000      1.7980358E-09
   9.180000      2.6782820E-09
   9.240000      3.6535523E-09
   9.300000      4.6835980E-09
   9.360000      5.7191349E-09
   9.420000      6.7049846E-09
   9.480000      7.5844326E-09
   9.540000      8.3043261E-09
   9.600000      8.8201686E-09
   9.660000      9.1003853E-09
   9.720000      9.1290904E-09
   9.780000      8.9069596E-09
   9.840000      8.4502698E-09
   9.900000      7.7884721E-09
   9.960000      6.9608572E-09
   10.02000      6.0128675E-09
   10.08000      4.9924469E-09
   10.14000      3.9465924E-09
   10.20000      2.9181604E-09
   10.26000      1.9429334E-09
   10.32000      1.0471107E-09
   10.38000      2.4551797E-10
   10.44000     -4.5906140E-10
   10.50000     -1.0750995E-09
   10.56000     -1.6199982E-09
   10.62000     -2.1165028E-09
   10.68000     -2.5884717E-09
   10.74000     -3.0568275E-09
   10.80000     -3.5364565E-09
   10.86000     -4.0345594E-09
   10.92000     -4.5505320E-09
   10.98000     -5.0770472E-09
   11.04000     -5.6017662E-09
   11.10000     -6.1090777E-09
   11.16000     -6.5814971E-09
   11.22000     -7.0006707E-09
   11.28000     -7.3482651E-09
   11.34000     -7.6071212E-09
   11.40000     -7.7629672E-09
   11.46000     -7.8066140E-09
   11.52000     -7.7361992E-09
   11.58000     -7.5586746E-09
   11.64000     -7.2897870E-09
   11.70000     -6.9520616E-09
   11.76000     -6.5709265E-09
   11.82000     -6.1697820E-09
   11.88000     -5.7652922E-09
   11.94000     -5.3642699E-09
   12.00000     -4.9631206E-09
   12.06000     -4.5500625E-09
   12.12000     -4.1094488E-09
   12.18000     -3.6268559E-09
   12.24000     -3.0933902E-09
   12.30000     -2.5079649E-09
   12.36000     -1.8770407E-09
   12.42000     -1.2121757E-09
   12.48000     -5.2642563E-10
   12.54000      1.6911179E-10
   12.60000      8.6753177E-10
   12.66000      1.5666464E-09
   12.72000      2.2679996E-09
   12.78000      2.9750882E-09
   12.84000      3.6916692E-09
   12.90000      4.4208037E-09
   12.96000      5.1648201E-09
   13.02000      5.9258940E-09
   13.08000      6.7066614E-09
   13.14000      7.5103070E-09
   13.20000      8.3398790E-09
   13.26000      9.1970103E-09
   13.32000      1.0080547E-08
   13.38000      1.0985677E-08
   13.44000      1.1903925E-08
   13.50000      1.2823993E-08
   13.56000      1.3732967E-08
   13.62000      1.4617147E-08
   13.68000      1.5461900E-08
   13.74000      1.6250286E-08
   13.80000      1.6960914E-08
   13.86000      1.7566089E-08
   13.92000      1.8031654E-08
   13.98000      1.8319712E-08
   14.04000      1.8394680E-08
   14.10000      1.8231976E-08
   14.16000      1.7827503E-08
   14.22000      1.7205354E-08
   14.28000      1.6421174E-08
   14.34000      1.5559547E-08
   14.40000      1.4725200E-08
   14.46000      1.4029527E-08
   14.52000      1.3575173E-08
   14.58000      1.3441841E-08
   14.64000      1.3676055E-08
   14.70000      1.4286428E-08
   14.76000      1.5244581E-08
   14.82000      1.6490693E-08
   14.88000      1.7942057E-08
   14.94000      1.9502950E-08
   15.00000      2.1074587E-08
   15.06000      2.2564336E-08
   15.12000      2.3893737E-08
   15.18000      2.5004852E-08
   15.24000      2.5864452E-08
   15.30000      2.6465441E-08
   15.36000      2.6825234E-08
   15.42000      2.6981239E-08
   15.48000      2.6984337E-08
   15.54000      2.6891602E-08
   15.60000      2.6759611E-08
   15.66000      2.6639279E-08
   15.72000      2.6572394E-08
   15.78000      2.6589433E-08
   15.84000      2.6707889E-08
   15.90000      2.6930708E-08
   15.96000      2.7245003E-08
   16.02000      2.7621958E-08
   16.08000      2.8019150E-08
   16.14000      2.8386138E-08
   16.20000      2.8673272E-08
   16.26000      2.8842321E-08
   16.32000      2.8876578E-08
   16.38000      2.8787575E-08
   16.44000      2.8616148E-08
   16.50000      2.8426783E-08
   16.56000      2.8296023E-08
   16.62000      2.8297341E-08
   16.68000      2.8486003E-08
   16.74000      2.8887541E-08
   16.80000      2.9492648E-08
   16.86000      3.0259429E-08
   16.92000      3.1122138E-08
   16.98000      3.2003729E-08
   17.04000      3.2828726E-08
   17.10000      3.3533286E-08
   17.16000      3.4070553E-08
   17.22000      3.4411265E-08
   17.28000      3.4541053E-08
   17.34000      3.4456907E-08
   17.40000      3.4164859E-08
   17.46000      3.3679985E-08
   17.52000      3.3028247E-08
   17.58000      3.2248469E-08
   17.64000      3.1392435E-08
   17.70000      3.0521530E-08
   17.76000      2.9699734E-08
   17.82000      2.8984298E-08
   17.88000      2.8416391E-08
   17.94000      2.8014316E-08
   18.00000      2.7771099E-08
   18.06000      2.7656844E-08
   18.12000      2.7624825E-08
   18.18000      2.7619338E-08
   18.24000      2.7583134E-08
   18.30000      2.7462997E-08
   18.36000      2.7213105E-08
   18.42000      2.6796821E-08
   18.48000      2.6188051E-08
   18.54000      2.5373060E-08
   18.60000      2.4352900E-08
   18.66000      2.3145759E-08
   18.72000      2.1787883E-08
   18.78000      2.0331742E-08
   18.84000      1.8840531E-08
   18.90000      1.7379142E-08
   18.96000      1.6002645E-08
   19.02000      1.4744412E-08
   19.08000      1.3606566E-08
   19.14000      1.2555437E-08
   19.20000      1.1524061E-08
   19.26000      1.0422268E-08
   19.32000      9.1529504E-09
   19.38000      7.6311464E-09
   19.44000      5.8013141E-09
   19.50000      3.6481356E-09
   19.56000      1.1976671E-09
   19.62000     -1.4917654E-09
   19.68000     -4.3465467E-09
   19.74000     -7.2978885E-09
   19.80000     -1.0299384E-08
   19.86000     -1.3337075E-08
   19.92000     -1.6429322E-08
   19.98000     -1.9616873E-08
   20.04000     -2.2946319E-08
   20.10000     -2.6452064E-08
   20.16000     -3.0142189E-08
   20.22000     -3.3992173E-08
   20.28000     -3.7947792E-08
   20.34000     -4.1935529E-08
   20.40000     -4.5876416E-08
   20.46000     -4.9698368E-08
   20.52000     -5.3343058E-08
   20.58000     -5.6765696E-08
   20.64000     -5.9929100E-08
   20.70000     -6.2795515E-08
   20.76000     -6.5320528E-08
   20.82000     -6.7452362E-08
   20.88000     -6.9137641E-08
   20.94000     -7.0332192E-08
   21.00000     -7.1013432E-08
   21.06000     -7.1190385E-08
   21.12000     -7.0907824E-08
   21.18000     -7.0242962E-08
   21.24000     -6.9295197E-08
   21.30000     -6.8171488E-08
   21.36000     -6.6971140E-08
   21.42000     -6.5774096E-08
   21.48000     -6.4635529E-08
   21.54000     -6.3587613E-08
   21.60000     -6.2647153E-08
   21.66000     -6.1825816E-08
   21.72000     -6.1139261E-08
   21.78000     -6.0612059E-08
   21.84000     -6.0277024E-08
   21.90000     -6.0169768E-08
   21.96000     -6.0320566E-08
   22.02000     -6.0746316E-08
   22.08000     -6.1445022E-08
   22.14000     -6.2393930E-08
   22.20000     -6.3551724E-08
   22.26000     -6.4863798E-08
   22.32000     -6.6269216E-08
   22.38000     -6.7707866E-08
   22.44000     -6.9126052E-08
   22.50000     -7.0479366E-08
   22.56000     -7.1732345E-08
   22.62000     -7.2855300E-08
   22.68000     -7.3819471E-08
   22.74000     -7.4592506E-08
   22.80000     -7.5136029E-08
   22.86000     -7.5406490E-08
   22.92000     -7.5359779E-08
   22.98000     -7.4958415E-08
   23.04000     -7.4179844E-08
   23.10000     -7.3023401E-08
   23.16000     -7.1514002E-08
   23.22000     -6.9701194E-08
   23.28000     -6.7653346E-08
   23.34000     -6.5447892E-08
   23.40000     -6.3159916E-08
   23.46000     -6.0851661E-08
   23.52000     -5.8565650E-08
   23.58000     -5.6322776E-08
   23.64000     -5.4125447E-08
   23.70000     -5.1964150E-08
   23.76000     -4.9824763E-08
   23.82000     -4.7694169E-08
   23.88000     -4.5562491E-08
   23.94000     -4.3421966E-08
   24.00000     -4.1263945E-08
   24.06000     -3.9076138E-08
   24.12000     -3.6842042E-08
   24.18000     -3.4543131E-08
   24.24000     -3.2163207E-08
   24.30000     -2.9692952E-08
   24.36000     -2.7132817E-08
   24.42000     -2.4492975E-08
   24.48000     -2.1790431E-08
   24.54000     -1.9044608E-08
   24.60000     -1.6273292E-08
   24.66000     -1.3490591E-08
   24.72000     -1.0707589E-08
   24.78000     -7.9352720E-09
   24.84000     -5.1883711E-09
   24.90000     -2.4885105E-09
   24.96000      1.3470458E-10
   25.02000      2.6452902E-09
   25.08000      5.0050084E-09
   25.14000      7.1791368E-09
   25.20000      9.1425170E-09
   25.26000      1.0884327E-08
   25.32000      1.2410138E-08
   25.38000      1.3740250E-08
   25.44000      1.4904115E-08
   25.50000      1.5931615E-08
   25.56000      1.6842952E-08
   25.62000      1.7639563E-08
   25.68000      1.8298575E-08
   25.74000      1.8772692E-08
   25.80000      1.8996232E-08
   25.86000      1.8896587E-08
   25.92000      1.8408869E-08
   25.98000      1.7490599E-08
   26.04000      1.6132969E-08
   26.10000      1.4365829E-08
   26.16000      1.2254953E-08
   26.22000      9.8919601E-09
   26.28000      7.3793367E-09
   26.34000      4.8142721E-09
   26.40000      2.2754925E-09
   26.46000     -1.8363233E-10
   26.52000     -2.5343314E-09
   26.58000     -4.7650635E-09
   26.64000     -6.8706187E-09
   26.70000     -8.8417869E-09
   26.76000     -1.0659290E-08
   26.82000     -1.2294032E-08
   26.88000     -1.3713444E-08
   26.94000     -1.4891640E-08
   27.00000     -1.5819865E-08
   27.06000     -1.6513727E-08
   27.12000     -1.7014788E-08
   27.18000     -1.7385725E-08
   27.24000     -1.7700211E-08
   27.30000     -1.8029874E-08
   27.36000     -1.8431525E-08
   27.42000     -1.8937582E-08
   27.48000     -1.9551807E-08
   27.54000     -2.0250951E-08
   27.60000     -2.0991433E-08
   27.66000     -2.1718915E-08
   27.72000     -2.2378133E-08
   27.78000     -2.2920691E-08
   27.84000     -2.3309564E-08
   27.90000     -2.3520359E-08
   27.96000     -2.3540311E-08
   28.02000     -2.3366384E-08
   28.08000     -2.3003500E-08
   28.14000     -2.2463409E-08
   28.20000     -2.1764150E-08
   28.26000     -2.0929875E-08
   28.32000     -1.9990852E-08
   28.38000     -1.8983506E-08
   28.44000     -1.7950283E-08
   28.50000     -1.6938825E-08
   28.56000     -1.6000010E-08
   28.62000     -1.5184600E-08
   28.68000     -1.4539029E-08
   28.74000     -1.4101488E-08
   28.80000     -1.3899828E-08
   28.86000     -1.3952226E-08
   28.92000     -1.4270501E-08
   28.98000     -1.4864678E-08
   29.04000     -1.5746592E-08
   29.10000     -1.6930542E-08
   29.16000     -1.8430073E-08
   29.22000     -2.0251488E-08
   29.28000     -2.2386075E-08
   29.34000     -2.4803821E-08
   29.40000     -2.7450985E-08
   29.46000     -3.0253027E-08
   29.52000     -3.3122753E-08
   29.58000     -3.5972029E-08
   29.64000     -3.8724348E-08
   29.70000     -4.1325205E-08
   29.76000     -4.3747747E-08
   29.82000     -4.5992692E-08
   29.88000     -4.8082992E-08
   29.94000     -5.0055153E-08
   30.00000     -5.1949982E-08
   30.06000     -5.3804936E-08
   30.12000     -5.5649718E-08
   30.18000     -5.7505257E-08
   30.24000     -5.9385421E-08
   30.30000     -6.1300184E-08
   30.36000     -6.3258874E-08
   30.42000     -6.5272253E-08
   30.48000     -6.7352474E-08
   30.54000     -6.9510605E-08
   30.60000     -7.1751906E-08
   30.66000     -7.4070080E-08
   30.72000     -7.6442291E-08
   30.78000     -7.8827142E-08
   30.84000     -8.1166860E-08
   30.90000     -8.3394262E-08
   30.96000     -8.5442913E-08
   31.02000     -8.7257973E-08
   31.08000     -8.8804697E-08
   31.14000     -9.0071985E-08
   31.20000     -9.1070142E-08
   31.26000     -9.1823487E-08
   31.32000     -9.2360210E-08
   31.38000     -9.2702493E-08
   31.44000     -9.2859878E-08
   31.50000     -9.2827243E-08
   31.56000     -9.2587392E-08
   31.62000     -9.2116721E-08
   31.68000     -9.1391399E-08
   31.74000     -9.0392213E-08
   31.80000     -8.9107004E-08
   31.86000     -8.7531170E-08
   31.92000     -8.5667288E-08
   31.98000     -8.3525208E-08
   32.04000     -8.1122799E-08
   32.10000     -7.8486735E-08
   32.16000     -7.5652281E-08
   32.22000     -7.2661230E-08
   32.28000     -6.9558020E-08
   32.34000     -6.6385176E-08
   32.40000     -6.3179250E-08
   32.46000     -5.9968372E-08
   32.52000     -5.6771654E-08
   32.58000     -5.3600065E-08
   32.64000     -5.0458269E-08
   32.70000     -4.7346969E-08
   32.76000     -4.4265573E-08
   32.82000     -4.1214857E-08
   32.88000     -3.8198973E-08
   32.94000     -3.5225980E-08
   33.00000     -3.2306335E-08
   33.06000     -2.9449573E-08
   33.12000     -2.6660461E-08
   33.18000     -2.3936424E-08
   33.24000     -2.1267715E-08
   33.30000     -1.8640698E-08
   33.36000     -1.6043179E-08
   33.42000     -1.3469839E-08
   33.48000     -1.0925790E-08
   33.54000     -8.4271461E-09
   33.60000     -5.9987384E-09
   33.66000     -3.6700381E-09
   33.72000     -1.4706922E-09
   33.78000      5.7321514E-10
   33.84000      2.4416964E-09
   33.90000      4.1222181E-09
   33.96000      5.6102034E-09
   34.02000      6.9089929E-09
   34.08000      8.0294216E-09
   34.14000      8.9889651E-09
   34.20000      9.8102566E-09
   34.26000      1.0518732E-08
   34.32000      1.1139259E-08
   34.38000      1.1691955E-08
   34.44000      1.2187867E-08
   34.50000      1.2625722E-08
   34.56000      1.2991107E-08
   34.62000      1.3259089E-08
   34.68000      1.3400400E-08
   34.74000      1.3390031E-08
   34.80000      1.3216066E-08
   34.86000      1.2886062E-08
   34.92000      1.2428769E-08
   34.98000      1.1890070E-08
   35.04000      1.1323670E-08
   35.10000      1.0778584E-08
   35.16000      1.0286478E-08
   35.22000      9.8522142E-09
   35.28000      9.4503125E-09
   35.34000      9.0287626E-09
   35.40000      8.5197476E-09
   35.46000      7.8550011E-09
   35.52000      6.9820758E-09
   35.58000      5.8773040E-09
   35.64000      4.5518922E-09
   35.70000      3.0494229E-09
   35.76000      1.4354431E-09
   35.82000     -2.1785888E-10
   35.88000     -1.8474673E-09
   35.94000     -3.4113921E-09
   36.00000     -4.8934785E-09
   36.06000     -6.3003740E-09
   36.12000     -7.6523028E-09
   36.18000     -8.9710808E-09
   36.24000     -1.0269384E-08
   36.30000     -1.1544572E-08
   36.36000     -1.2778670E-08
   36.42000     -1.3944064E-08
   36.48000     -1.5012706E-08
   36.54000     -1.5965673E-08
   36.60000     -1.6800037E-08
   36.66000     -1.7530981E-08
   36.72000     -1.8188626E-08
   36.78000     -1.8810608E-08
   36.84000     -1.9432646E-08
   36.90000     -2.0079762E-08
   36.96000     -2.0760654E-08
   37.02000     -2.1466661E-08
   37.08000     -2.2175538E-08
   37.14000     -2.2858730E-08
   37.20000     -2.3489726E-08
   37.26000     -2.4050674E-08
   37.32000     -2.4534931E-08
   37.38000     -2.4944539E-08
   37.44000     -2.5283670E-08
   37.50000     -2.5550646E-08
   37.56000     -2.5731994E-08
   37.62000     -2.5801302E-08
   37.68000     -2.5723761E-08
   37.74000     -2.5464930E-08
   37.80000     -2.5000423E-08
   37.86000     -2.4322830E-08
   37.92000     -2.3443285E-08
   37.98000     -2.2387344E-08
   38.04000     -2.1186997E-08
   38.10000     -1.9871901E-08
   38.16000     -1.8462893E-08
   38.22000     -1.6969706E-08
   38.28000     -1.5393221E-08
   38.34000     -1.3731190E-08
   38.40000     -1.1985463E-08
   38.46000     -1.0168544E-08
   38.52000     -8.3074188E-09
   38.58000     -6.4433245E-09
   38.64000     -4.6271631E-09
   38.70000     -2.9116312E-09
   38.76000     -1.3424212E-09
   38.82000      4.8510099E-11
   38.88000      1.2450807E-09
   38.94000      2.2437143E-09
   39.00000      3.0457203E-09
   39.06000      3.6485086E-09
   39.12000      4.0393280E-09
   39.18000      4.1942942E-09
   39.24000      4.0833976E-09
   39.30000      3.6798538E-09
   39.36000      2.9704885E-09
   39.42000      1.9634603E-09
   39.48000      6.9050937E-10
   39.54000     -7.9727236E-10
   39.60000     -2.4391047E-09
   39.66000     -4.1768820E-09
   39.72000     -5.9666543E-09
   39.78000     -7.7858777E-09
   39.84000     -9.6343751E-09
   39.90000     -1.1528883E-08
   39.96000     -1.3493076E-08
   40.02000     -1.5546306E-08
   40.08000     -1.7694616E-08
   40.14000     -1.9926670E-08
   40.20000     -2.2215653E-08
   40.26000     -2.4526305E-08
   40.32000     -2.6824873E-08
   40.38000     -2.9088936E-08
   40.44000     -3.1314091E-08
   40.50000     -3.3515313E-08
   40.56000     -3.5722159E-08
   40.62000     -3.7968920E-08
   40.68000     -4.0282671E-08
   40.74000     -4.2673186E-08
   40.80000     -4.5128655E-08
   40.86000     -4.7619068E-08
   40.92000     -5.0106468E-08
   40.98000     -5.2558253E-08
   41.04000     -5.4958374E-08
   41.10000     -5.7311848E-08
   41.16000     -5.9640620E-08
   41.22000     -6.1972187E-08
   41.28000     -6.4325228E-08
   41.34000     -6.6697204E-08
   41.40000     -6.9058508E-08
   41.46000     -7.1354819E-08
   41.52000     -7.3517285E-08
   41.58000     -7.5477402E-08
   41.64000     -7.7182669E-08
   41.70000     -7.8608643E-08
   41.76000     -7.9763943E-08
   41.82000     -8.0686561E-08
   41.88000     -8.1431892E-08
   41.94000     -8.2055777E-08
   42.00000     -8.2597261E-08
   42.06000     -8.3066595E-08
   42.12000     -8.3442593E-08
   42.18000     -8.3680291E-08
   42.24000     -8.3726562E-08
   42.30000     -8.3538247E-08
   42.36000     -8.3096381E-08
   42.42000     -8.2411489E-08
   42.48000     -8.1518330E-08
   42.54000     -8.0462208E-08
   42.60000     -7.9282444E-08
   42.66000     -7.7999289E-08
   42.72000     -7.6609368E-08
   42.78000     -7.5091329E-08
   42.84000     -7.3419365E-08
   42.90000     -7.1579457E-08
   42.96000     -6.9582427E-08
   43.02000     -6.7469180E-08
   43.08000     -6.5306708E-08
   43.14000     -6.3176664E-08
   43.20000     -6.1160222E-08
   43.26000     -5.9323739E-08
   43.32000     -5.7708487E-08
   43.38000     -5.6326108E-08
   43.44000     -5.5159834E-08
   43.50000     -5.4170481E-08
   43.56000     -5.3305783E-08
   43.62000     -5.2511215E-08
   43.68000     -5.1740351E-08
   43.74000     -5.0962495E-08
   43.80000     -5.0165784E-08
   43.86000     -4.9354970E-08
   43.92000     -4.8544855E-08
   43.98000     -4.7751854E-08
   44.04000     -4.6986848E-08
   44.10000     -4.6251905E-08
   44.16000     -4.5541633E-08
   44.22000     -4.4847994E-08
   44.28000     -4.4166210E-08
   44.34000     -4.3499508E-08
   44.40000     -4.2861576E-08
   44.46000     -4.2277001E-08
   44.52000     -4.1780584E-08
   44.58000     -4.1416083E-08
   44.64000     -4.1233921E-08
   44.70000     -4.1286750E-08
   44.76000     -4.1622265E-08
   44.82000     -4.2274188E-08
   44.88000     -4.3254030E-08
   44.94000     -4.4547097E-08
   45.00000     -4.6115083E-08
   45.06000     -4.7905157E-08
   45.12000     -4.9862535E-08
   45.18000     -5.1942173E-08
   45.24000     -5.4115574E-08
   45.30000     -5.6371174E-08
   45.36000     -5.8709610E-08
   45.42000     -6.1137165E-08
   45.48000     -6.3660707E-08
   45.54000     -6.6286105E-08
   45.60000     -6.9019997E-08
   45.66000     -7.1873707E-08
   45.72000     -7.4867771E-08
   45.78000     -7.8036294E-08
   45.84000     -8.1430940E-08
   45.90000     -8.5124640E-08
   45.96000     -8.9214318E-08
   46.02000     -9.3821740E-08
   46.08000     -9.9091864E-08
   46.14000     -1.0518922E-07
   46.20000     -1.1229461E-07
   46.26000     -1.2060535E-07
   46.32000     -1.3034114E-07
   46.38000     -1.4175632E-07
   46.44000     -1.5515521E-07
   46.50000     -1.7090649E-07
   46.56000     -1.8945192E-07
   46.62000     -2.1130776E-07
   46.68000     -2.3706080E-07
   46.74000     -2.6736441E-07
   46.80000     -3.0294066E-07
   46.86000     -3.4459393E-07
   46.92000     -3.9323578E-07
   46.98000     -4.4991901E-07
   47.04000     -5.1587352E-07
   47.10000     -5.9253813E-07
   47.16000     -6.8158346E-07
   47.22000     -7.8492405E-07
   47.28000     -9.0472258E-07
   47.34000     -1.0433901E-06
   47.40000     -1.2035878E-06
   47.46000     -1.3882366E-06
   47.52000     -1.6005375E-06
   47.58000     -1.8440056E-06
   47.64000     -2.1225153E-06
   47.70000     -2.4403548E-06
   47.76000     -2.8022816E-06
   47.82000     -3.2135736E-06
   47.88000     -3.6800677E-06
   47.94000     -4.2081861E-06
   48.00000     -4.8049455E-06
   48.06000     -5.4779625E-06
   48.12000     -6.2354534E-06
   48.18000     -7.0862470E-06
   48.24000     -8.0398077E-06
   48.30000     -9.1062639E-06
   48.36000     -1.0296453E-05
   48.42000     -1.1621961E-05
   48.48000     -1.3095143E-05
   48.54000     -1.4729138E-05
   48.60000     -1.6537846E-05
   48.66000     -1.8535893E-05
   48.72000     -2.0738586E-05
   48.78000     -2.3161847E-05
   48.84000     -2.5822186E-05
   48.90000     -2.8736631E-05
   48.96000     -3.1922693E-05
   49.02000     -3.5398320E-05
   49.08000     -3.9181818E-05
   49.14000     -4.3291762E-05
   49.20000     -4.7746893E-05
   49.26000     -5.2565989E-05
   49.32000     -5.7767720E-05
   49.38000     -6.3370484E-05
   49.44000     -6.9392219E-05
   49.50000     -7.5850243E-05
   49.56000     -8.2761071E-05
   49.62000     -9.0140231E-05
   49.68000     -9.8002092E-05
   49.74000     -1.0635972E-04
   49.80000     -1.1522466E-04
   49.86000     -1.2460674E-04
   49.92000     -1.3451389E-04
   49.98000     -1.4495185E-04
   50.04000     -1.5592412E-04
   50.10000     -1.6743159E-04
   50.16000     -1.7947254E-04
   50.22000     -1.9204237E-04
   50.28000     -2.0513359E-04
   50.34000     -2.1873566E-04
   50.40000     -2.3283486E-04
   50.46000     -2.4741434E-04
   50.52000     -2.6245395E-04
   50.58000     -2.7793038E-04
   50.64000     -2.9381702E-04
   50.70000     -3.1008408E-04
   50.76000     -3.2669859E-04
   50.82000     -3.4362471E-04
   50.88000     -3.6082373E-04
   50.94000     -3.7825439E-04
   51.00000     -3.9587304E-04
   51.06000     -4.1363394E-04
   51.12000     -4.3148961E-04
   51.18000     -4.4939114E-04
   51.24000     -4.6728857E-04
   51.30000     -4.8513126E-04
   51.36000     -5.0286832E-04
   51.42000     -5.2044890E-04
   51.48000     -5.3782272E-04
   51.54000     -5.5494061E-04
   51.60000     -5.7175494E-04
   51.66000     -5.8821996E-04
   51.72000     -6.0429226E-04
   51.78000     -6.1993144E-04
   51.84000     -6.3510012E-04
   51.90000     -6.4976449E-04
   51.96000     -6.6389493E-04
   52.02000     -6.7746593E-04
   52.08000     -6.9045671E-04
   52.14000     -7.0285139E-04
   52.20000     -7.1463891E-04
   52.26000     -7.2581327E-04
   52.32000     -7.3637371E-04
   52.38000     -7.4632454E-04
   52.44000     -7.5567543E-04
   52.50000     -7.6444075E-04
   52.56000     -7.7264011E-04
   52.62000     -7.8029762E-04
   52.68000     -7.8744179E-04
   52.74000     -7.9410512E-04
   52.80000     -8.0032350E-04
   52.86000     -8.0613635E-04
   52.92000     -8.1158581E-04
   52.98000     -8.1671623E-04
   53.04000     -8.2157366E-04
   53.10000     -8.2620530E-04
   53.16000     -8.3065854E-04
   53.22000     -8.3498075E-04
   53.28000     -8.3921867E-04
   53.34000     -8.4341789E-04
   53.40000     -8.4762217E-04
   53.46000     -8.5187308E-04
   53.52000     -8.5620931E-04
   53.58000     -8.6066610E-04
   53.64000     -8.6527463E-04
   53.70000     -8.7006204E-04
   53.76000     -8.7505073E-04
   53.82000     -8.8025851E-04
   53.88000     -8.8569807E-04
   53.94000     -8.9137716E-04
   54.00000     -8.9729810E-04
   54.06000     -9.0345804E-04
   54.12000     -9.0984907E-04
   54.18000     -9.1645814E-04
   54.24000     -9.2326751E-04
   54.30000     -9.3025481E-04
   54.36000     -9.3739328E-04
   54.42000     -9.4465230E-04
   54.48000     -9.5199788E-04
   54.54000     -9.5939304E-04
   54.60000     -9.6679857E-04
   54.66000     -9.7417319E-04
   54.72000     -9.8147453E-04
   54.78000     -9.8865922E-04
   54.84000     -9.9568383E-04
   54.90000     -1.0025053E-03
   54.96000     -1.0090813E-03
   55.02000     -1.0153713E-03
   55.08000     -1.0213369E-03
   55.14000     -1.0269425E-03
   55.20000     -1.0321554E-03
   55.26000     -1.0369467E-03
   55.32000     -1.0412909E-03
   55.38000     -1.0451673E-03
   55.44000     -1.0485591E-03
   55.50000     -1.0514543E-03
   55.56000     -1.0538457E-03