 -0.750000000       0.00000000    
 -0.689999998       0.00000000    
 -0.629999995       0.00000000    
 -0.569999993       0.00000000    
 -0.509999990       0.00000000    
 -0.449999988       0.00000000    
 -0.389999986      -9.51376286E-23
 -0.330000013      -8.76645347E-22
 -0.270000011      -4.01720790E-21
 -0.209999993      -1.17722648E-20
 -0.150000006      -2.29695923E-20
  -9.00000036E-02  -2.41934238E-20
  -2.99999993E-02   1.96783424E-20
   2.99999993E-02   1.63335368E-19
   9.00000036E-02   4.51634514E-19
  0.150000006       8.58079014E-19
  0.209999993       1.21388869E-18
  0.270000011       1.18123956E-18
  0.330000013       3.30172528E-19
  0.389999986      -1.66568233E-18
  0.449999988      -4.78868381E-18
  0.509999990      -8.54763281E-18
  0.569999993      -1.21053035E-17
  0.629999995      -1.46531770E-17
  0.689999998      -1.57622128E-17
  0.750000000      -1.52394810E-17
  0.810000002      -1.21180239E-17
  0.870000005      -2.94743829E-18
  0.930000007       1.95794429E-17
  0.990000010       6.58873644E-17
   1.04999995       1.44938243E-16
   1.11000001       2.55435411E-16
   1.16999996       3.75053113E-16
   1.23000002       4.52905923E-16
   1.28999996       4.12204031E-16
   1.35000002       1.68799955E-16
   1.40999997      -3.33770342E-16
   1.47000003      -1.08040566E-15
   1.52999997      -1.94807350E-15
   1.59000003      -2.69834077E-15
   1.64999998      -3.01732152E-15
   1.71000004      -2.60834013E-15
   1.76999998      -1.32020472E-15
   1.83000004       7.31667960E-16
   1.88999999       3.11249626E-15
   1.95000005       5.14345934E-15
   2.00999999       6.13319108E-15
   2.06999993       5.73026852E-15
   2.13000011       4.28019343E-15
   2.19000006       3.00129671E-15
   2.25000000       3.77914591E-15
   2.30999994       8.45644067E-15
   2.36999989       1.76779130E-14
   2.43000007       2.96044181E-14
   2.49000001       3.90517527E-14
   2.54999995       3.77162697E-14
   2.60999990       1.60057497E-14
   2.67000008      -3.34517536E-14
   2.73000002      -1.11234691E-13
   2.78999996      -2.06838886E-13
   2.84999990      -2.96518669E-13
   2.91000009      -3.45074013E-13
   2.97000003      -3.12660759E-13
   3.02999997      -1.66294089E-13
   3.08999991       1.06061542E-13
   3.15000010       4.82548842E-13
   3.21000004       9.00230465E-13
   3.26999998       1.25790155E-12
   3.32999992       1.43134452E-12
   3.39000010       1.30045822E-12
   3.45000005       7.84108618E-13
   3.50999999      -1.24682925E-13
   3.56999993      -1.33252393E-12
   3.63000011      -2.63759999E-12
   3.69000006      -3.74654995E-12
   3.75000000      -4.31855983E-12
   3.80999994      -4.03323165E-12
   3.86999989      -2.67284155E-12
   3.93000007      -2.04535892E-13
   3.99000001       3.15516927E-12
   4.05000019       6.91189120E-12
   4.11000013       1.03167553E-11
   4.17000008       1.24516734E-11
   4.23000002       1.23771332E-11
   4.28999996       9.33050859E-12
   4.34999990       2.94837071E-12
   4.40999985      -6.52745826E-12
   4.46999979      -1.81095937E-11
   4.53000021      -3.00404319E-11
   4.59000015      -3.99214654E-11
   4.65000010      -4.50107659E-11
   4.71000004      -4.26695103E-11
   4.76999998      -3.09027595E-11
   4.82999992      -8.91049214E-12
   4.88999987       2.24499169E-11
   4.94999981       6.03849470E-11
   5.01000023       1.00144566E-10
   5.07000017       1.35303102E-10
   5.13000011       1.58349070E-10
   5.19000006       1.61559335E-10
   5.25000000       1.38104403E-10
   5.30999994       8.33045369E-11
   5.36999989      -4.07529089E-12
   5.42999983      -1.20639554E-10
   5.48999977      -2.57469768E-10
   5.55000019      -3.99731137E-10
   5.61000013      -5.26972910E-10
   5.67000008      -6.14257867E-10
   5.73000002      -6.34145791E-10
   5.78999996      -5.59408520E-10
   5.84999990      -3.66198460E-10
   5.90999985      -3.72747111E-11
   5.96999979       4.35161851E-10
   6.03000021       1.04742937E-09
   6.09000015       1.78340231E-09
   6.15000010       2.61472488E-09
   6.21000004       3.50211726E-09
   6.26999998       4.39755210E-09
   6.32999992       5.24701615E-09
   6.38999987       5.99360117E-09
   6.44999981       6.58075727E-09
   6.51000023       6.95564362E-09
   6.57000017       7.07258430E-09
   6.63000011       6.89662993E-09
   6.69000006       6.40712683E-09
   6.75000000       5.60103208E-09
   6.80999994       4.49553950E-09
   6.86999989       3.12943227E-09
   6.92999983       1.56256053E-09
   6.98999977      -1.27037492E-10
   7.05000019      -1.84858173E-09
   7.11000013      -3.50637097E-09
   7.17000008      -5.00931652E-09
   7.23000002      -6.28107655E-09
   7.28999996      -7.26933846E-09
   7.34999990      -7.95267763E-09
   7.40999985      -8.34355429E-09
   7.46999979      -8.48649151E-09
   7.53000021      -8.45123616E-09
   7.59000015      -8.32158165E-09
   7.65000010      -8.18150525E-09
   7.71000004      -8.10092882E-09
   7.76999998      -8.12368040E-09
   7.82999992      -8.25999624E-09
   7.88999987      -8.48506421E-09
   7.94999981      -8.74392647E-09
   8.01000023      -8.96176733E-09
   8.06999969      -9.05751296E-09
   8.13000011      -8.95802899E-09
   8.18999958      -8.61023430E-09
   8.25000000      -7.98900146E-09
   8.31000042      -7.09975545E-09
   8.36999989      -5.97582162E-09
   8.43000031      -4.67154404E-09
   8.48999977      -3.25290950E-09
   8.55000019      -1.78756043E-09
   8.60999966      -3.35942579E-10
   8.67000008       1.05516695E-09
   8.72999954       2.35607955E-09
   8.78999996       3.55449115E-09
   8.85000038       4.65307659E-09
   8.90999985       5.66516833E-09
   8.97000027       6.60950050E-09
   9.02999973       7.50505702E-09
   9.09000015       8.36691161E-09
   9.14999962       9.20368581E-09
   9.21000004       1.00168753E-08
   9.27000046       1.08018554E-08
   9.32999992       1.15500924E-08
   9.39000034       1.22518315E-08
   9.44999981       1.28985684E-08
   9.51000023       1.34847404E-08
   9.56999969       1.40083332E-08
   9.63000011       1.44703494E-08
   9.68999958       1.48733426E-08
   9.75000000       1.52193778E-08
   9.81000042       1.55078741E-08
   9.86999989       1.57338622E-08
   9.93000031       1.58871707E-08
   9.98999977       1.59529456E-08
   10.0500002       1.59137166E-08
   10.1099997       1.57528923E-08
   10.1700001       1.54591397E-08
   10.2299995       1.50307589E-08
   10.2900000       1.44789940E-08
   10.3500004       1.38292782E-08
   10.4099998       1.31197444E-08
   10.4700003       1.23970052E-08
   10.5299997       1.17098136E-08
   10.5900002       1.11018394E-08
   10.6499996       1.06050217E-08
   10.7100000       1.02349045E-08
   10.7700005       9.98884353E-09
   10.8299999       9.84728832E-09
   10.8900003       9.77757875E-09
   10.9499998       9.73918723E-09
   11.0100002       9.68911706E-09
   11.0699997       9.58644453E-09
   11.1300001       9.39549061E-09
   11.1899996       9.08769593E-09
   11.2500000       8.64267058E-09
   11.3100004       8.04890909E-09
   11.3699999       7.30436067E-09
   11.4300003       6.41650866E-09
   11.4899998       5.40129186E-09
   11.5500002       4.28020375E-09
   11.6099997       3.07547099E-09
   11.6700001       1.80406223E-09
   11.7299995       4.72167472E-10
   11.7900000      -9.27814214E-10
   11.8500004      -2.41607534E-09
   11.9099998      -4.01939637E-09
   11.9700003      -5.76132031E-09
   12.0299997      -7.65098118E-09
   12.0900002      -9.67392833E-09
   12.1499996      -1.17881003E-08
   12.2100000      -1.39268570E-08
   12.2700005      -1.60090003E-08
   12.3299999      -1.79535444E-08
   12.3900003      -1.96954115E-08
   12.4499998      -2.11976605E-08
   12.5100002      -2.24565451E-08
   12.5699997      -2.34976021E-08
   12.6300001      -2.43634517E-08
   12.6899996      -2.50964778E-08
   12.7500000      -2.57213060E-08
   12.8100004      -2.62323887E-08
   12.8699999      -2.65909090E-08
   12.9300003      -2.67327582E-08
   12.9899998      -2.65861875E-08
   13.0500002      -2.60946376E-08
   13.1099997      -2.52383270E-08
   13.1700001      -2.40478979E-08
   13.2299995      -2.26052190E-08
   13.2900000      -2.10298232E-08
   13.3500004      -1.94536280E-08
   13.4099998      -1.79902369E-08
   13.4700003      -1.67072240E-08
   13.5299997      -1.56094533E-08
   13.5900002      -1.46387329E-08
   13.6499996      -1.36905802E-08
   13.7100000      -1.26439730E-08
   13.7700005      -1.13959793E-08
   13.8299999      -9.89161286E-09
   13.8900003      -8.14047052E-09
   13.9499998      -6.21545215E-09
   14.0100002      -4.23407176E-09
   14.0699997      -2.32786057E-09
   14.1300001      -6.08740114E-10
   14.1899996       8.58110916E-10
   14.2500000       2.06749107E-09
   14.3100004       3.07038994E-09
   14.3699999       3.95510069E-09
   14.4300003       4.81945772E-09
   14.4899998       5.74272008E-09
   14.5500002       6.76534206E-09
   14.6099997       7.88212517E-09
   14.6700001       9.05002562E-09
   14.7299995       1.02074260E-08
   14.7900000       1.12983436E-08
   14.8500004       1.22937838E-08
   14.9099998       1.32036098E-08
   14.9700003       1.40754128E-08
   15.0299997       1.49810404E-08
   15.0900002       1.59952602E-08
   15.1499996       1.71734396E-08
   15.2100000       1.85352782E-08
   15.2700005       2.00596162E-08
   15.3299999       2.16917382E-08
   15.3900003       2.33606663E-08
   15.4499998       2.50007961E-08
   15.5100002       2.65710476E-08
   15.5699997       2.80655907E-08
   15.6300001       2.95130143E-08
   15.6899996       3.09644896E-08
   15.7500000       3.24748939E-08
   15.8100004       3.40829942E-08
   15.8699999       3.57969085E-08
   15.9300003       3.75893912E-08
   15.9899998       3.94042914E-08
   16.0499992       4.11721359E-08
   16.1100006       4.28299387E-08
   16.1700001       4.43391031E-08
   16.2299995       4.56958773E-08
   16.2900009       4.69310919E-08
   16.3500004       4.80992632E-08
   16.4099998       4.92603220E-08
   16.4699993       5.04595938E-08
   16.5300007       5.17121066E-08
   16.5900002       5.29960040E-08
   16.6499996       5.42569225E-08
   16.7099991       5.54219817E-08
   16.7700005       5.64189655E-08
   16.8299999       5.71948355E-08
   16.8899994       5.77280446E-08
   16.9500008       5.80311799E-08
   17.0100002       5.81433888E-08
   17.0699997       5.81153650E-08
   17.1299992       5.79916488E-08
   17.1900005       5.77958765E-08
   17.2500000       5.75234047E-08
   17.3099995       5.71435343E-08
   17.3700008       5.66105101E-08
   17.4300003       5.58797701E-08
   17.4899998       5.49244596E-08
   17.5499992       5.37470868E-08
   17.6100006       5.23826671E-08
   17.6700001       5.08923534E-08
   17.7299995       4.93493566E-08
   17.7900009       4.78212527E-08
   17.8500004       4.63538967E-08
   17.9099998       4.49615598E-08
   17.9699993       4.36260414E-08
   18.0300007       4.23049258E-08
   18.0900002       4.09463397E-08
   18.1499996       3.95059274E-08
   18.2099991       3.79611578E-08
   18.2700005       3.63190686E-08
   18.3299999       3.46155460E-08
   18.3899994       3.29066054E-08
   18.4500008       3.12543236E-08
   18.5100002       2.97114759E-08
   18.5699997       2.83089037E-08
   18.6299992       2.70489089E-08
   18.6900005       2.59061910E-08
   18.7500000       2.48358010E-08
   18.8099995       2.37858675E-08
   18.8700008       2.27117365E-08
   18.9300003       2.15878977E-08
   18.9899998       2.04148414E-08
   19.0499992       1.92193070E-08
   19.1100006       1.80481106E-08
   19.1700001       1.69572800E-08
   19.2299995       1.59992997E-08
   19.2900009       1.52115067E-08
   19.3500004       1.46082764E-08
   19.4099998       1.41784353E-08
   19.4699993       1.38880045E-08
   19.5300007       1.36869893E-08
   19.5900002       1.35180169E-08
   19.6499996       1.33243487E-08
   19.7099991       1.30552449E-08
   19.7700005       1.26677246E-08
   19.8299999       1.21250769E-08
   19.8899994       1.13937153E-08
   19.9500008       1.04406235E-08
   20.0100002       9.23351440E-09
   20.0699997       7.74488829E-09
   20.1299992       5.95970473E-09
   20.1900005       3.88488486E-09
   20.2500000       1.55782021E-09
   20.3099995      -9.49051948E-10
   20.3700008      -3.52979113E-09
   20.4300003      -6.05329609E-09
   20.4899998      -8.37747116E-09
   20.5499992      -1.03668389E-08
   20.6100006      -1.19105117E-08
   20.6700001      -1.29374662E-08
   20.7299995      -1.34267593E-08
   20.7900009      -1.34113440E-08
   20.8500004      -1.29753026E-08
   20.9099998      -1.22452857E-08
   20.9699993      -1.13776455E-08
   21.0300007      -1.05431388E-08
   21.0900002      -9.91111637E-09
   21.1499996      -9.63481295E-09
   21.2099991      -9.83890747E-09
   21.2700005      -1.06099920E-08
   21.3299999      -1.19902550E-08
   21.3899994      -1.39745620E-08
   21.4500008      -1.65112741E-08
   21.5100002      -1.95073131E-08
   21.5699997      -2.28378578E-08
   21.6299992      -2.63606008E-08
   21.6900005      -2.99334317E-08
   21.7500000      -3.34332171E-08
   21.8099995      -3.67724198E-08
   21.8700008      -3.99100095E-08
   21.9300003      -4.28540012E-08
   21.9899998      -4.56545273E-08
   22.0499992      -4.83887312E-08
   22.1100006      -5.11407983E-08
   22.1700001      -5.39817329E-08
   22.2299995      -5.69535636E-08
   22.2900009      -6.00615309E-08
   22.3500004      -6.32754649E-08
   22.4099998      -6.65392506E-08
   22.4699993      -6.97850666E-08
   22.5300007      -7.29480334E-08
   22.5900002      -7.59772547E-08
   22.6499996      -7.88404790E-08
   22.7099991      -8.15221242E-08
   22.7700005      -8.40162997E-08
   22.8299999      -8.63181455E-08
   22.8899994      -8.84170390E-08
   22.9500008      -9.02943142E-08
   23.0100002      -9.19262391E-08
   23.0699997      -9.32910922E-08
   23.1299992      -9.43774765E-08
   23.1900005      -9.51905861E-08
   23.2500000      -9.57539683E-08
   23.3099995      -9.61054241E-08
   23.3700008      -9.62881188E-08
   23.4300003      -9.63390647E-08
   23.4899998      -9.62782920E-08
   23.5499992      -9.61017079E-08
   23.6100006      -9.57799102E-08
   23.6700001      -9.52633243E-08
   23.7299995      -9.44929184E-08
   23.7900009      -9.34138242E-08
   23.8500004      -9.19889800E-08
   23.9099998      -9.02092196E-08
   23.9699993      -8.80976430E-08
   24.0300007      -8.57069367E-08
   24.0900002      -8.31104074E-08
   24.1499996      -8.03888440E-08
   24.2099991      -7.76166189E-08
   24.2700005      -7.48504476E-08
   24.3299999      -7.21234983E-08
   24.3899994      -6.94460027E-08
   24.4500008      -6.68117082E-08
   24.5100002      -6.42077254E-08
   24.5699997      -6.16246183E-08
   24.6299992      -5.90636908E-08
   24.6900005      -5.65393989E-08
   24.7500000      -5.40764127E-08
   24.8099995      -5.17025569E-08
   24.8700008      -4.94400609E-08
   24.9300003      -4.72981014E-08
   24.9899998      -4.52691609E-08
   25.0499992      -4.33307079E-08
   25.1100006      -4.14521537E-08
   25.1700001      -3.96053643E-08
   25.2299995      -3.77759655E-08
   25.2900009      -3.59720573E-08
   25.3500004      -3.42275257E-08
   25.4099998      -3.25984537E-08
   25.4699993      -3.11530215E-08
   25.5300007      -2.99572243E-08
   25.5900002      -2.90600948E-08
   25.6499996      -2.84823543E-08
   25.7099991      -2.82116535E-08
   25.7700005      -2.82055606E-08
   25.8299999      -2.84013293E-08
   25.8899994      -2.87294331E-08
   25.9500008      -2.91270208E-08
   26.0100002      -2.95477083E-08
   26.0699997      -2.99655554E-08
   26.1299992      -3.03732008E-08
   26.1900005      -3.07759080E-08
   26.2500000      -3.11844452E-08
   26.3099995      -3.16096589E-08
   26.3700008      -3.20604769E-08
   26.4300003      -3.25453016E-08
   26.4899998      -3.30752350E-08
   26.5499992      -3.36665451E-08
   26.6100006      -3.43399691E-08
   26.6700001      -3.51155727E-08
   26.7299995      -3.60037617E-08
   26.7900009      -3.69947450E-08
   26.8500004      -3.80499330E-08
   26.9099998      -3.90988504E-08
   26.9699993      -4.00437976E-08
   27.0300007      -4.07726368E-08
   27.0900002      -4.11776107E-08
   27.1499996      -4.11761540E-08
   27.2099991      -4.07287111E-08
   27.2700005      -3.98488105E-08
   27.3299999      -3.86023942E-08
   27.3899994      -3.70957594E-08
   27.4500008      -3.54542493E-08
   27.5100002      -3.37963186E-08
   27.5699997      -3.22086890E-08
   27.6299992      -3.07284438E-08
   27.6900005      -2.93363343E-08
   27.7500000      -2.79628996E-08
   27.8099995      -2.65060489E-08
   27.8700008      -2.48558152E-08
   27.9300003      -2.29202914E-08
   27.9899998      -2.06464783E-08
   28.0499992      -1.80312689E-08
   28.1100006      -1.51203867E-08
   28.1700001      -1.19964119E-08
   28.2299995      -8.75980977E-09
   28.2900009      -5.50850787E-09
   28.3500004      -2.32152875E-09
   28.4099998       7.49460161E-10
   28.4699993       3.67948605E-09
   28.5300007       6.46215259E-09
   28.5900002       9.09782560E-09
   28.6499996       1.15826575E-08
   28.7099991       1.39022367E-08
   28.7700005       1.60317448E-08
   28.8299999       1.79421260E-08
   28.8899994       1.96097609E-08
   28.9500008       2.10260396E-08
   29.0100002       2.22035101E-08
   29.0699997       2.31764705E-08
   29.1299992       2.39957352E-08
   29.1900005       2.47191139E-08
   29.2500000       2.54001815E-08
   29.3099995       2.60782453E-08
   29.3700008       2.67717937E-08
   29.4300003       2.74766023E-08
   29.4899998       2.81685111E-08
   29.5499992       2.88098168E-08
   29.6100006       2.93577820E-08
   29.6700001       2.97734672E-08
   29.7299995       3.00294296E-08
   29.7900009       3.01150074E-08
   29.8500004       3.00384357E-08
   29.9099998       2.98255216E-08
   29.9699993       2.95150855E-08
   30.0300007       2.91521207E-08
   30.0900002       2.87799793E-08
   30.1499996       2.84332984E-08
   30.2099991       2.81332309E-08
   30.2700005       2.78860046E-08
   30.3299999       2.76848393E-08
   30.3899994       2.75142487E-08
   30.4500008       2.73548544E-08
   30.5100002       2.71866405E-08
   30.5699997       2.69890190E-08
   30.6299992       2.67374141E-08
   30.6900005       2.63975153E-08
   30.7500000       2.59197872E-08
   30.8099995       2.52373358E-08
   30.8700008       2.42697595E-08
   30.9300003       2.29338522E-08
   30.9899998       2.11597975E-08
   31.0499992       1.89091622E-08
   31.1100006       1.61896274E-08
   31.1700001       1.30615376E-08
   31.2299995       9.63299307E-09
   31.2900009       6.04315487E-09
   31.3500004       2.43679543E-09
   31.4099998      -1.06413334E-09
   31.4699993      -4.38483294E-09
   31.5300007      -7.51141371E-09
   31.5900002      -1.04900479E-08
   31.6499996      -1.34111895E-08
   31.7099991      -1.63825433E-08
   31.7700005      -1.94975769E-08
   31.8299999      -2.28079120E-08
   31.8899994      -2.63070259E-08
   31.9500008      -2.99299288E-08
   32.0099983      -3.35689521E-08
   32.0699997      -3.71013300E-08
   32.1300011      -4.04206020E-08
   32.1899986      -4.34627552E-08
   32.2500000      -4.62193803E-08
   32.3100014      -4.87341367E-08
   32.3699989      -5.10839584E-08
   32.4300003      -5.33511546E-08
   32.4900017      -5.55953505E-08
   32.5499992      -5.78339971E-08
   32.6100006      -6.00371735E-08
   32.6699982      -6.21375662E-08
   32.7299995      -6.40515267E-08
   32.7900009      -6.57039152E-08
   32.8499985      -6.70484681E-08
   32.9099998      -6.80775969E-08
   32.9700012      -6.88192259E-08
   33.0299988      -6.93225886E-08
   33.0900002      -6.96384532E-08
   33.1500015      -6.98002722E-08
   33.2099991      -6.98125788E-08
   33.2700005      -6.96498930E-08
   33.3300018      -6.92662567E-08
   33.3899994      -6.86123869E-08
   33.4500008      -6.76547103E-08
   33.5099983      -6.63905126E-08
   33.5699997      -6.48542979E-08
   33.6300011      -6.31130845E-08
   33.6899986      -6.12519528E-08
   33.7500000      -5.93539404E-08
   33.8100014      -5.74805448E-08
   33.8699989      -5.56587771E-08
   33.9300003      -5.38788640E-08
   33.9900017      -5.21031538E-08
   34.0499992      -5.02830559E-08
   34.1100006      -4.83779701E-08
   34.1699982      -4.63697063E-08
   34.2299995      -4.42673134E-08
   34.2900009      -4.21008117E-08
   34.3499985      -3.99064675E-08
   34.4099998      -3.77092881E-08
   34.4700012      -3.55095224E-08
   34.5299988      -3.32787060E-08
   34.5900002      -3.09672608E-08
   34.6500015      -2.85216348E-08
   34.7099991      -2.59056332E-08
   34.7700005      -2.31189645E-08
   34.8300018      -2.02068566E-08
   34.8899994      -1.72573991E-08
   34.9500008      -1.43870036E-08
   35.0099983      -1.17179528E-08
   35.0699997      -9.35421074E-09
   35.1300011      -7.36200434E-09
   35.1899986      -5.76007642E-09
   35.2500000      -4.52161908E-09
   35.3100014      -3.58658814E-09
   35.3699989      -2.88031221E-09
   35.4300003      -2.33287811E-09
   35.4900017      -1.89393257E-09
   35.5499992      -1.53925550E-09
   35.6100006      -1.26808986E-09
   35.6699982      -1.09301701E-09
   35.7299995      -1.02628317E-09
   35.7900009      -1.06733256E-09
   35.8499985      -1.19567500E-09
   35.9099998      -1.37133260E-09
   35.9700012      -1.54258517E-09
   36.0299988      -1.65833502E-09
   36.0900002      -1.68090064E-09
   36.1500015      -1.59488422E-09
   36.2099991      -1.40901324E-09
   36.2700005      -1.15014942E-09
   36.3300018      -8.51281434E-10
   36.3899994      -5.37404343E-10
   36.4500008      -2.14047072E-10
   36.5099983       1.37518857E-10
   36.5699997       5.56465651E-10
   36.6300011       1.09091514E-09
   36.6899986       1.78226511E-09
   36.7500000       2.65029843E-09
   36.8100014       3.68376818E-09
   36.8699989       4.83930629E-09
   36.9300003       6.04868600E-09
   36.9900017       7.23174809E-09
   37.0499992       8.31068103E-09
   37.1100006       9.22131882E-09
   37.1699982       9.91870230E-09
   37.2299995       1.03765174E-08
   37.2900009       1.05822968E-08
   37.3499985       1.05315001E-08
   37.4099998       1.02234177E-08
   37.4700012       9.66047953E-09
   37.5299988       8.85074680E-09
   37.5900002       7.81182941E-09
   37.6500015       6.57392762E-09
   37.7099991       5.18014742E-09
   37.7700005       3.68342024E-09
   37.8300018       2.14066342E-09
   37.8899994       6.05709649E-10
   37.9500008      -8.77245554E-10
   38.0099983      -2.27832708E-09
   38.0699997      -3.58416385E-09
   38.1300011      -4.79765516E-09
   38.1899986      -5.93585225E-09
   38.2500000      -7.02666458E-09
   38.3100014      -8.10500467E-09
   38.3699989      -9.20882393E-09
   38.4300003      -1.03753077E-08
   38.4900017      -1.16373409E-08
   38.5499992      -1.30202977E-08
   38.6100006      -1.45392542E-08
   38.6699982      -1.61968128E-08
   38.7299995      -1.79819821E-08
   38.7900009      -1.98707273E-08
   38.8499985      -2.18287983E-08
   38.9099998      -2.38171616E-08
   38.9700012      -2.57996025E-08
   39.0299988      -2.77511898E-08
   39.0900002      -2.96654648E-08
   39.1500015      -3.15579314E-08
   39.2099991      -3.34640085E-08
   39.2700005      -3.54309719E-08
   39.3300018      -3.75053268E-08
   39.3899994      -3.97188380E-08
   39.4500008      -4.20773993E-08
   39.5099983      -4.45564723E-08
   39.5699997      -4.71051287E-08
   39.6300011      -4.96580377E-08
   39.6899986      -5.21520889E-08
   39.7500000      -5.45426850E-08
   39.8100014      -5.68146241E-08
   39.8699989      -5.89842095E-08
   39.9300003      -6.10921447E-08
   39.9900017      -6.31896526E-08
   40.0499992      -6.53227588E-08
   40.1100006      -6.75196645E-08
   40.1699982      -6.97851803E-08
   40.2299995      -7.21033544E-08
   40.2900009      -7.44464259E-08
   40.3499985      -7.67863142E-08
   40.4099998      -7.91039909E-08
   40.4700012      -8.13933738E-08
   40.5299988      -8.36583496E-08
   40.5900002      -8.59044107E-08
   40.6500015      -8.81279902E-08
   40.7099991      -9.03075659E-08
   40.7700005      -9.24001995E-08
   40.8300018      -9.43449905E-08
   40.8899994      -9.60734141E-08
   40.9500008      -9.75239871E-08
   41.0099983      -9.86574662E-08
   41.0699997      -9.94682807E-08
   41.1300011      -9.99887249E-08
   41.1899986      -1.00283856E-07
   41.2500000      -1.00437660E-07
   41.3100014      -1.00533391E-07
   41.3699989      -1.00632803E-07
   41.4300003      -1.00759998E-07
   41.4900017      -1.00894411E-07
   41.5499992      -1.00975498E-07
   41.6100006      -1.00918122E-07
   41.6699982      -1.00634793E-07
   41.7299995      -1.00058543E-07
   41.7900009      -9.91601397E-08
   41.8499985      -9.79547110E-08
   41.9099998      -9.64961941E-08
   41.9700012      -9.48612708E-08
   42.0299988      -9.31277597E-08
   42.0900002      -9.13537406E-08
   42.1500015      -8.95633505E-08
   42.2099991      -8.77432527E-08
   42.2700005      -8.58506084E-08
   42.3300018      -8.38297396E-08
   42.3899994      -8.16327130E-08
   42.4500008      -7.92373172E-08
   42.5099983      -7.66571233E-08
   42.5699997      -7.39404982E-08
   42.6300011      -7.11586310E-08
   42.6899986      -6.83861927E-08
   42.7500000      -6.56805810E-08
   42.8100014      -6.30661745E-08
   42.8699989      -6.05289756E-08
   42.9300003      -5.80237014E-08
   42.9900017      -5.54917747E-08
   43.0499992      -5.28848751E-08
   43.1100006      -5.01868627E-08
   43.1699982      -4.74268624E-08
   43.2299995      -4.46786643E-08
   43.2900009      -4.20455208E-08
   43.3499985      -3.96338891E-08
   43.4099998      -3.75233249E-08
   43.4700012      -3.57413512E-08
   43.5299988      -3.42511193E-08
   43.5900002      -3.29564642E-08
   43.6500015      -3.17239142E-08
   43.7099991      -3.04162953E-08
   43.7700005      -2.89290085E-08
   43.8300018      -2.72188565E-08
   43.8899994      -2.53173358E-08
   43.9500008      -2.33245157E-08
   44.0099983      -2.13851621E-08
   44.0699997      -1.96537986E-08
   44.1300011      -1.82584170E-08
   44.1899986      -1.72727379E-08
   44.2500000      -1.67041989E-08
   44.3100014      -1.65001417E-08
   44.3699989      -1.65694107E-08
   44.4300003      -1.68123258E-08
   44.4900017      -1.71499916E-08
   44.5499992      -1.75445454E-08
   44.6100006      -1.80051156E-08
   44.6699982      -1.85786622E-08
   44.7299995      -1.93294962E-08
   44.7900009      -2.03144292E-08
   44.8499985      -2.15615827E-08
   44.9099998      -2.30592860E-08
   44.9700012      -2.47582044E-08
   45.0299988      -2.65853703E-08
   45.0900002      -2.84652177E-08
   45.1500015      -3.03406154E-08
   45.2099991      -3.21873337E-08
   45.2700005      -3.40179831E-08
   45.3300018      -3.58751109E-08
   45.3899994      -3.78169780E-08
   45.4500008      -3.99016180E-08
   45.5099983      -4.21751416E-08
   45.5699997      -4.46682513E-08
   45.6300011      -4.74019366E-08
   45.6899986      -5.04000752E-08
   45.7500000      -5.37045288E-08
   45.8100014      -5.73877266E-08
   45.8699989      -6.15590849E-08
   45.9300003      -6.63638886E-08
   45.9900017      -7.19762028E-08
   46.0499992      -7.85894443E-08
   46.1100006      -8.64091163E-08
   46.1699982      -9.56517425E-08
   46.2299995      -1.06551859E-07
   46.2900009      -1.19376509E-07
   46.3499985      -1.34444363E-07
   46.4099998      -1.52144963E-07
   46.4700012      -1.72953889E-07
   46.5299988      -1.97441040E-07
   46.5900002      -2.26271609E-07
   46.6500015      -2.60202199E-07
   46.7099991      -3.00076607E-07
   46.7700005      -3.46825829E-07
   46.8300018      -4.01476484E-07
   46.8899994      -4.65169251E-07
   46.9500008      -5.39186203E-07
   47.0099983      -6.24983954E-07
   47.0699997      -7.24227561E-07
   47.1300011      -8.38821563E-07
   47.1899986      -9.70934821E-07
   47.2500000      -1.12301962E-06
   47.3100014      -1.29782507E-06
   47.3699989      -1.49841071E-06
   47.4300003      -1.72816169E-06
   47.4900017      -1.99081023E-06
   47.5499992      -2.29046373E-06
   47.6100006      -2.63164156E-06
   47.6699982      -3.01931755E-06
   47.7299995      -3.45896092E-06
   47.7900009      -3.95658071E-06
   47.8499985      -4.51875849E-06
   47.9099998      -5.15267402E-06
   47.9700012      -5.86612578E-06
   48.0299988      -6.66753340E-06
   48.0900002      -7.56594773E-06
   48.1500015      -8.57105260E-06
   48.2099991      -9.69317534E-06
   48.2700005      -1.09432958E-05
   48.3300018      -1.23330683E-05
   48.3899994      -1.38748346E-05
   48.4500008      -1.55816415E-05
   48.5099983      -1.74672314E-05
   48.5699997      -1.95460398E-05
   48.6300011      -2.18331679E-05
   48.6899986      -2.43443264E-05
   48.7500000      -2.70957808E-05
   48.8100014      -3.01042728E-05
   48.8699989      -3.33869393E-05
   48.9300003      -3.69612171E-05
   48.9900017      -4.08447449E-05
   49.0499992      -4.50552834E-05
   49.1100006      -4.96105822E-05
   49.1699982      -5.45282965E-05
   49.2299995      -5.98258521E-05
   49.2900009      -6.55203257E-05
   49.3499985      -7.16282884E-05
   49.4099998      -7.81656563E-05
   49.4700012      -8.51474906E-05
   49.5299988      -9.25878048E-05
   49.5900002      -1.00499346E-04
   49.6500015      -1.08893422E-04
   49.7099991      -1.17779651E-04
   49.7700005      -1.27165797E-04
   49.8300018      -1.37057592E-04
   49.8899994      -1.47458544E-04
   49.9500008      -1.58369876E-04
   50.0099983      -1.69790248E-04
   50.0699997      -1.81715717E-04
   50.1300011      -1.94139633E-04
   50.1899986      -2.07052493E-04
   50.2500000      -2.20441783E-04
   50.3100014      -2.34291947E-04
   50.3699989      -2.48584343E-04
   50.4300003      -2.63297174E-04
   50.4900017      -2.78405438E-04
   50.5499992      -2.93881138E-04
   50.6100006      -3.09693336E-04