 -0.750000000       0.00000000    
 -0.689999998       0.00000000    
 -0.629999995       0.00000000    
 -0.569999993       0.00000000    
 -0.509999990       0.00000000    
 -0.449999988       0.00000000    
 -0.389999986      -1.27146695E-22
 -0.330000013      -1.12518788E-21
 -0.270000011      -4.84603075E-21
 -0.209999993      -1.27412673E-20
 -0.150000006      -1.92126801E-20
  -9.00000036E-02   4.86107651E-22
  -2.99999993E-02   9.91312762E-20
   2.99999993E-02   3.43411450E-19
   9.00000036E-02   7.55369031E-19
  0.150000006       1.20844056E-18
  0.209999993       1.32072785E-18
  0.270000011       4.34428175E-19
  0.330000013      -2.21749524E-18
  0.389999986      -7.10944118E-18
  0.449999988      -1.38546780E-17
  0.509999990      -2.06728863E-17
  0.569999993      -2.41772386E-17
  0.629999995      -1.97371779E-17
  0.689999998      -2.53310228E-18
  0.750000000       3.07865705E-17
  0.810000002       8.01411289E-17
  0.870000005       1.40197691E-16
  0.930000007       1.99223526E-16
  0.990000010       2.39096596E-16
   1.04999995       2.36744676E-16
   1.11000001       1.66892569E-16
   1.16999996       5.61683388E-18
   1.23000002      -2.65741182E-16
   1.28999996      -6.55814095E-16
   1.35000002      -1.15533282E-15
   1.40999997      -1.72242180E-15
   1.47000003      -2.25855936E-15
   1.52999997      -2.57903575E-15
   1.59000003      -2.39353533E-15
   1.64999998      -1.32547210E-15
   1.71000004       9.96500063E-16
   1.76999998       4.75646905E-15
   1.83000004       9.70193825E-15
   1.88999999       1.49113459E-14
   1.95000005       1.87173817E-14
   2.00999999       1.89348184E-14
   2.06999993       1.34711307E-14
   2.13000011       1.24114086E-15
   2.19000006      -1.68943974E-14
   2.25000000      -3.76012325E-14
   2.30999994      -5.53890328E-14
   2.36999989      -6.39787092E-14
   2.43000007      -5.84908708E-14
   2.49000001      -3.77349383E-14
   2.54999995      -5.56710372E-15
   2.60999990       2.96116654E-14
   2.67000008       5.75304236E-14
   2.73000002       7.02202172E-14
   2.78999996       6.60359083E-14
   2.84999990       5.14441124E-14
   2.91000009       3.90044883E-14
   2.97000003       4.14854613E-14
   3.02999997       6.41124862E-14
   3.08999991       9.86469546E-14
   3.15000010       1.23310257E-13
   3.21000004       1.10841275E-13
   3.26999998       4.33818461E-14
   3.32999992      -7.13796765E-14
   3.39000010      -1.91347901E-13
   3.45000005      -2.46670685E-13
   3.50999999      -1.65479609E-13
   3.56999993       8.59450044E-14
   3.63000011       4.62365660E-13
   3.69000006       8.17861891E-13
   3.75000000       9.21827827E-13
   3.80999994       5.21429308E-13
   3.86999989      -5.57809007E-13
   3.93000007      -2.30054604E-12
   3.99000001      -4.41981217E-12
   4.05000019      -6.34600922E-12
   4.11000013      -7.31264094E-12
   4.17000008      -6.53616657E-12
   4.23000002      -3.45390166E-12
   4.28999996       2.04268612E-12
   4.34999990       9.45097473E-12
   4.40999985       1.76342899E-11
   4.46999979       2.49570174E-11
   4.53000021       2.95582690E-11
   4.59000015       2.97062965E-11
   4.65000010       2.41556965E-11
   4.71000004       1.24337259E-11
   4.76999998      -4.99234942E-12
   4.82999992      -2.66790774E-11
   4.88999987      -5.02830069E-11
   4.94999981      -7.27163121E-11
   5.01000023      -9.03564515E-11
   5.07000017      -9.93082283E-11
   5.13000011      -9.57429414E-11
   5.19000006      -7.63519456E-11
   5.25000000      -3.89379050E-11
   5.30999994       1.68766997E-11
   5.36999989       8.89087345E-11
   5.42999983       1.71792081E-10
   5.48999977       2.56666355E-10
   5.55000019       3.31365296E-10
   5.61000013       3.81233461E-10
   5.67000008       3.90587812E-10
   5.73000002       3.44702239E-10
   5.78999996       2.32060718E-10
   5.84999990       4.65369757E-11
   5.90999985      -2.10856083E-10
   5.96999979      -5.30939070E-10
   6.03000021      -8.96219599E-10
   6.09000015      -1.28162347E-09
   6.15000010      -1.65594838E-09
   6.21000004      -1.98379047E-09
   6.26999998      -2.22767826E-09
   6.32999992      -2.35020181E-09
   6.38999987      -2.31604380E-09
   6.44999981      -2.09392015E-09
   6.51000023      -1.65852099E-09
   6.57000017      -9.92524063E-10
   6.63000011      -8.86634585E-11
   6.69000006       1.04831899E-09
   6.75000000       2.40017983E-09
   6.80999994       3.93458333E-09
   6.86999989       5.60585178E-09
   6.92999983       7.35734362E-09
   6.98999977       9.12544795E-09
   7.05000019       1.08448512E-08
   7.11000013       1.24543833E-08
   7.17000008       1.39025582E-08
   7.23000002       1.51519099E-08
   7.28999996       1.61814597E-08
   7.34999990       1.69869701E-08
   7.40999985       1.75791577E-08
   7.46999979       1.79803141E-08
   7.53000021       1.82201312E-08
   7.59000015       1.83314413E-08
   7.65000010       1.83464763E-08
   7.71000004       1.82940241E-08
   7.76999998       1.81974986E-08
   7.82999992       1.80738340E-08
   7.88999987       1.79329973E-08
   7.94999981       1.77779746E-08
   8.01000023       1.76051564E-08
   8.06999969       1.74052062E-08
   8.13000011       1.71644281E-08
   8.18999958       1.68666734E-08
   8.25000000       1.64955996E-08
   8.31000042       1.60369726E-08
   8.36999989       1.54805804E-08
   8.43000031       1.48212997E-08
   8.48999977       1.40590988E-08
   8.55000019       1.31979165E-08
   8.60999966       1.22438255E-08
   8.67000008       1.12030714E-08
   8.72999954       1.00807194E-08
   8.78999996       8.88050788E-09
   8.85000038       7.60612995E-09
   8.90999985       6.26365315E-09
   8.97000027       4.86436313E-09
   9.02999973       3.42700979E-09
   9.09000015       1.97852090E-09
   9.14999962       5.52645929E-10
   9.21000004      -8.13409617E-10
   9.27000046      -2.08362838E-09
   9.32999992      -3.22795235E-09
   9.39000034      -4.22594715E-09
   9.44999981      -5.06845721E-09
   9.51000023      -5.75697090E-09
   9.56999969      -6.30112185E-09
   9.63000011      -6.71526168E-09
   9.68999958      -7.01522218E-09
   9.75000000      -7.21616322E-09
   9.81000042      -7.33186711E-09
   9.86999989      -7.37528705E-09
   9.93000031      -7.35969774E-09
   9.98999977      -7.29969241E-09
   10.0500002      -7.21143811E-09
   10.1099997      -7.11200432E-09
   10.1700001      -7.01795821E-09
   10.2299995      -6.94369229E-09
   10.2900000      -6.89999258E-09
   10.3500004      -6.89321578E-09
   10.4099998      -6.92525726E-09
   10.4700003      -6.99429892E-09
   10.5299997      -7.09621117E-09
   10.5900002      -7.22643234E-09
   10.6499996      -7.38203587E-09
   10.7100000      -7.56363061E-09
   10.7700005      -7.77660425E-09
   10.8299999      -8.03125833E-09
   10.8900003      -8.34155678E-09
   10.9499998      -8.72259243E-09
   11.0100002      -9.18733178E-09
   11.0699997      -9.74354997E-09
   11.1300001      -1.03919184E-08
   11.1899996      -1.11258833E-08
   11.2500000      -1.19334054E-08
   11.3100004      -1.27999185E-08
   11.3699999      -1.37114604E-08
   11.4300003      -1.46568411E-08
   11.4899998      -1.56281370E-08
   11.5500002      -1.66194525E-08
   11.6099997      -1.76245241E-08
   11.6700001      -1.86342390E-08
   11.7299995      -1.96350349E-08
   11.7900000      -2.06087929E-08
   11.8500004      -2.15342535E-08
   11.9099998      -2.23893277E-08
   11.9700003      -2.31534294E-08
   12.0299997      -2.38089495E-08
   12.0900002      -2.43414249E-08
   12.1499996      -2.47384833E-08
   12.2100000      -2.49882124E-08
   12.2700005      -2.50779255E-08
   12.3299999      -2.49942218E-08
   12.3900003      -2.47248888E-08
   12.4499998      -2.42625120E-08
   12.5100002      -2.36090347E-08
   12.5699997      -2.27799397E-08
   12.6300001      -2.18066649E-08
   12.6899996      -2.07360404E-08
   12.7500000      -1.96263290E-08
   12.8100004      -1.85402982E-08
   12.8699999      -1.75365855E-08
   12.9300003      -1.66612679E-08
   12.9899998      -1.59415556E-08
   13.0500002      -1.53832005E-08
   13.1099997      -1.49722439E-08
   13.1700001      -1.46807251E-08
   13.2299995      -1.44749199E-08
   13.2900000      -1.43240939E-08
   13.3500004      -1.42076226E-08
   13.4099998      -1.41188208E-08
   13.4700003      -1.40647129E-08
   13.5299997      -1.40619916E-08
   13.5900002      -1.41303733E-08
   13.6499996      -1.42850549E-08
   13.7100000      -1.45301140E-08
   13.7700005      -1.48542707E-08
   13.8299999      -1.52298405E-08
   13.8900003      -1.56149262E-08
   13.9499998      -1.59582427E-08
   14.0100002      -1.62055187E-08
   14.0699997      -1.63062595E-08
   14.1300001      -1.62196567E-08
   14.1899996      -1.59188094E-08
   14.2500000      -1.53928479E-08
   14.3100004      -1.46469592E-08
   14.3699999      -1.37007623E-08
   14.4300003      -1.25857094E-08
   14.4899998      -1.13421228E-08
   14.5500002      -1.00163859E-08
   14.6099997      -8.65847749E-09
   14.6700001      -7.31980165E-09
   14.7299995      -6.05112493E-09
   14.7900000      -4.90043073E-09
   14.8500004      -3.91058030E-09
   14.9099998      -3.11680348E-09
   14.9700003      -2.54415577E-09
   15.0299997      -2.20512786E-09
   15.0900002      -2.09767093E-09
   15.1499996      -2.20395435E-09
   15.2100000      -2.49022136E-09
   15.2700005      -2.90809798E-09
   15.3299999      -3.39753381E-09
   15.3900003      -3.89126020E-09
   15.4499998      -4.32024150E-09
   15.5100002      -4.61928273E-09
   15.5699997      -4.73184381E-09
   15.6300001      -4.61331995E-09
   15.6899996      -4.23249391E-09
   15.7500000      -3.57141694E-09
   15.8100004      -2.62434563E-09
   15.8699999      -1.39646705E-09
   15.9300003       9.70852704E-11
   15.9899998       1.83184634E-09
   16.0499992       3.77455445E-09
   16.1100006       5.88405369E-09
   16.1700001       8.11286416E-09
   16.2299995       1.04093729E-08
   16.2900009       1.27202497E-08
   16.3500004       1.49925246E-08
   16.4099998       1.71749353E-08
   16.4699993       1.92185485E-08
   16.5300007       2.10771045E-08
   16.5900002       2.27078907E-08
   16.6499996       2.40737457E-08
   16.7099991       2.51464325E-08
   16.7700005       2.59108734E-08
   16.8299999       2.63690723E-08
   16.8899994       2.65423683E-08
   16.9500008       2.64708131E-08
   17.0100002       2.62093103E-08
   17.0699997       2.58211372E-08
   17.1299992       2.53702908E-08
   17.1900005       2.49145629E-08
   17.2500000       2.45008707E-08
   17.3099995       2.41636648E-08
   17.3700008       2.39261180E-08
   17.4300003       2.38029170E-08
   17.4899998       2.38032118E-08
   17.5499992       2.39323903E-08
   17.6100006       2.41922287E-08
   17.6700001       2.45796663E-08
   17.7299995       2.50851979E-08
   17.7900009       2.56919179E-08
   17.8500004       2.63760196E-08
   17.9099998       2.71088947E-08
   17.9699993       2.78603292E-08
   18.0300007       2.86019830E-08
   18.0900002       2.93101419E-08
   18.1499996       2.99671008E-08
   18.2099991       3.05608552E-08
   18.2700005       3.10832640E-08
   18.3299999       3.15271862E-08
   18.3899994       3.18833848E-08
   18.4500008       3.21381464E-08
   18.5100002       3.22724674E-08
   18.5699997       3.22635572E-08
   18.6299992       3.20887779E-08
   18.6900005       3.17316449E-08
   18.7500000       3.11885806E-08
   18.8099995       3.04746806E-08
   18.8700008       2.96266176E-08
   18.9300003       2.87012849E-08
   18.9899998       2.77698149E-08
   19.0499992       2.69079443E-08
   19.1100006       2.61848481E-08
   19.1700001       2.56531187E-08
   19.2299995       2.53423043E-08
   19.2900009       2.52574015E-08
   19.3500004       2.53821000E-08
   19.4099998       2.56852264E-08
   19.4699993       2.61279034E-08
   19.5300007       2.66690332E-08
   19.5900002       2.72675624E-08
   19.6499996       2.78814714E-08
   19.7099991       2.84647719E-08
   19.7700005       2.89647364E-08
   19.8299999       2.93214590E-08
   19.8899994       2.94711704E-08
   19.9500008       2.93532647E-08
   20.0100002       2.89197661E-08
   20.0699997       2.81450578E-08
   20.1299992       2.70335470E-08
   20.1900005       2.56235371E-08
   20.2500000       2.39865035E-08
   20.3099995       2.22220162E-08
   20.3700008       2.04492654E-08
   20.4300003       1.87964737E-08
   20.4899998       1.73895209E-08
   20.5499992       1.63407936E-08
   20.6100006       1.57392659E-08
   20.6700001       1.56426090E-08
   20.7299995       1.60720806E-08
   20.7900009       1.70107874E-08
   20.8500004       1.84054478E-08
   20.9099998       2.01713348E-08
   20.9699993       2.21994458E-08
   21.0300007       2.43647573E-08
   21.0900002       2.65344653E-08
   21.1499996       2.85755917E-08
   21.2099991       3.03618073E-08
   21.2700005       3.17798055E-08
   21.3299999       3.27354535E-08
   21.3899994       3.31596262E-08
   21.4500008       3.30129453E-08
   21.5100002       3.22883551E-08
   21.5699997       3.10104546E-08
   21.6299992       2.92311242E-08
   21.6900005       2.70220308E-08
   21.7500000       2.44654519E-08
   21.8099995       2.16455138E-08
   21.8700008       1.86416038E-08
   21.9300003       1.55250017E-08
   21.9899998       1.23585471E-08
   22.0499992       9.19814003E-09
   22.1100006       6.09433437E-09
   22.1700001       3.09251558E-09
   22.2299995       2.30962124E-10
   22.2900009      -2.46277776E-09
   22.3500004      -4.97585573E-09
   22.4099998      -7.31268379E-09
   22.4699993      -9.49463175E-09
   22.5300007      -1.15562813E-08
   22.5900002      -1.35388136E-08
   22.6499996      -1.54821045E-08
   22.7099991      -1.74176513E-08
   22.7700005      -1.93643057E-08
   22.8299999      -2.13279900E-08
   22.8899994      -2.33054180E-08
   22.9500008      -2.52905448E-08
   23.0100002      -2.72815210E-08
   23.0699997      -2.92855962E-08
   23.1299992      -3.13198711E-08
   23.1900005      -3.34069874E-08
   23.2500000      -3.55664618E-08
   23.3099995      -3.78041101E-08
   23.3700008      -4.01028579E-08
   23.4300003      -4.24184954E-08
   23.4899998      -4.46826327E-08
   23.5499992      -4.68130281E-08
   23.6100006      -4.87290741E-08
   23.6700001      -5.03682607E-08
   23.7299995      -5.16987662E-08
   23.7900009      -5.27242889E-08
   23.8500004      -5.34793685E-08
   23.9099998      -5.40166276E-08
   23.9699993      -5.43897265E-08
   24.0300007      -5.46374288E-08
   24.0900002      -5.47736967E-08
   24.1499996      -5.47869519E-08
   24.2099991      -5.46485488E-08
   24.2700005      -5.43277068E-08
   24.3299999      -5.38078737E-08
   24.3899994      -5.30990008E-08
   24.4500008      -5.22413934E-08
   24.5100002      -5.12993559E-08
   24.5699997      -5.03462054E-08
   24.6299992      -4.94451378E-08
   24.6900005      -4.86319820E-08
   24.7500000      -4.79057611E-08
   24.8099995      -4.72303725E-08
   24.8700008      -4.65474130E-08
   24.9300003      -4.57961633E-08
   24.9899998      -4.49344384E-08
   25.0499992      -4.39535022E-08
   25.1100006      -4.28821600E-08
   25.1700001      -4.17789217E-08
   25.2299995      -4.07148804E-08
   25.2900009      -3.97531146E-08
   25.3500004      -3.89312191E-08
   25.4099998      -3.82523204E-08
   25.4699993      -3.76870659E-08
   25.5300007      -3.71855293E-08
   25.5900002      -3.66952548E-08
   25.6499996      -3.61800581E-08
   25.7099991      -3.56343151E-08
   25.7700005      -3.50887852E-08
   25.8299999      -3.46063231E-08
   25.8899994      -3.42682931E-08
   25.9500008      -3.41549082E-08
   26.0100002      -3.43243549E-08
   26.0699997      -3.47962512E-08
   26.1299992      -3.55442467E-08
   26.1900005      -3.65002251E-08
   26.2500000      -3.75695528E-08
   26.3099995      -3.86532939E-08
   26.3700008      -3.96708728E-08
   26.4300003      -4.05763814E-08
   26.4899998      -4.13634531E-08
   26.5499992      -4.20574366E-08
   26.6100006      -4.26977991E-08
   26.6700001      -4.33171898E-08
   26.7299995      -4.39245902E-08
   26.7900009      -4.44985773E-08
   26.8500004      -4.49929836E-08
   26.9099998      -4.53529765E-08
   26.9699993      -4.55357636E-08
   27.0300007      -4.55285729E-08
   27.0900002      -4.53574565E-08
   27.1499996      -4.50834463E-08
   27.2099991      -4.47868089E-08
   27.2700005      -4.45438992E-08
   27.3299999      -4.44037447E-08
   27.3899994      -4.43715749E-08
   27.4500008      -4.44046862E-08
   27.5100002      -4.44222046E-08
   27.5699997      -4.43263346E-08
   27.6299992      -4.40288055E-08
   27.6900005      -4.34747776E-08
   27.7500000      -4.26569002E-08
   27.8099995      -4.16152197E-08
   27.8700008      -4.04231635E-08
   27.9300003      -3.91640711E-08
   27.9899998      -3.79060623E-08
   28.0499992      -3.66834314E-08
   28.1100006      -3.54906113E-08
   28.1700001      -3.42903910E-08
   28.2299995      -3.30333201E-08
   28.2900009      -3.16811217E-08
   28.3500004      -3.02259551E-08
   28.4099998      -2.86986186E-08
   28.4699993      -2.71629350E-08
   28.5300007      -2.56983839E-08
   28.5900002      -2.43770089E-08
   28.6499996      -2.32426114E-08
   28.7099991      -2.22992274E-08
   28.7700005      -2.15125908E-08
   28.8299999      -2.08239594E-08
   28.8899994      -2.01715160E-08
   28.9500008      -1.95123597E-08
   29.0100002      -1.88379818E-08
   29.0699997      -1.81784454E-08
   29.1299992      -1.75940258E-08
   29.1900005      -1.71569550E-08
   29.2500000      -1.69287802E-08
   29.3099995      -1.69400174E-08
   29.3700008      -1.71779462E-08
   29.4300003      -1.75858528E-08
   29.4899998      -1.80737896E-08
   29.5499992      -1.85376052E-08
   29.6100006      -1.88810727E-08
   29.6700001      -1.90353386E-08
   29.7299995      -1.89711482E-08
   29.7900009      -1.87015576E-08
   29.8500004      -1.82754594E-08
   29.9099998      -1.77643980E-08
   29.9699993      -1.72463874E-08
   30.0300007      -1.67904979E-08
   30.0900002      -1.64453517E-08
   30.1499996      -1.62332885E-08
   30.2099991      -1.61507359E-08
   30.2700005      -1.61739937E-08
   30.3299999      -1.62686327E-08
   30.3899994      -1.64000031E-08
   30.4500008      -1.65421774E-08
   30.5100002      -1.66830141E-08
   30.5699997      -1.68242007E-08
   30.6299992      -1.69766743E-08
   30.6900005      -1.71533401E-08
   30.7500000      -1.73620123E-08
   30.8099995      -1.76012698E-08
   30.8700008      -1.78607706E-08
   30.9300003      -1.81255952E-08
   30.9899998      -1.83824316E-08
   31.0499992      -1.86245828E-08
   31.1100006      -1.88533154E-08
   31.1700001      -1.90746974E-08
   31.2299995      -1.92932941E-08
   31.2900009      -1.95056735E-08
   31.3500004      -1.96970102E-08
   31.4099998      -1.98430286E-08
   31.4699993      -1.99173105E-08
   31.5300007      -1.99017958E-08
   31.5900002      -1.97967953E-08
   31.6499996      -1.96268353E-08
   31.7099991      -1.94400638E-08
   31.7700005      -1.93011225E-08
   31.8299999      -1.92796445E-08
   31.8899994      -1.94378060E-08
   31.9500008      -1.98204972E-08
   32.0099983      -2.04504200E-08
   32.0699997      -2.13286011E-08
   32.1300011      -2.24389574E-08
   32.1899986      -2.37544970E-08
   32.2500000      -2.52426613E-08
   32.3100014      -2.68682374E-08
   32.3699989      -2.85937301E-08
   32.4300003      -3.03783558E-08
   32.4900017      -3.21774465E-08
   32.5499992      -3.39437953E-08
   32.6100006      -3.56313201E-08
   32.6699982      -3.72002553E-08
   32.7299995      -3.86220407E-08
   32.7900009      -3.98820141E-08
   32.8499985      -4.09788434E-08
   32.9099998      -4.19209805E-08
   32.9700012      -4.27217088E-08
   33.0299988      -4.33950440E-08
   33.0900002      -4.39543726E-08
   33.1500015      -4.44144455E-08
   33.2099991      -4.47957547E-08
   33.2700005      -4.51291307E-08
   33.3300018      -4.54578526E-08
   33.3899994      -4.58353959E-08
   33.4500008      -4.63182914E-08
   33.5099983      -4.69552930E-08
   33.5699997      -4.77754654E-08
   33.6300011      -4.87781442E-08
   33.6899986      -4.99275039E-08
   33.7500000      -5.11532257E-08
   33.8100014      -5.23575743E-08
   33.8699989      -5.34278044E-08
   33.9300003      -5.42520340E-08
   33.9900017      -5.47361658E-08
   34.0499992      -5.48191075E-08
   34.1100006      -5.44837668E-08
   34.1699982      -5.37614646E-08
   34.2299995      -5.27282253E-08
   34.2900009      -5.14929042E-08
   34.3499985      -5.01787056E-08
   34.4099998      -4.89016898E-08
   34.4700012      -4.77511222E-08
   34.5299988      -4.67766021E-08
   34.5900002      -4.59855620E-08
   34.6500015      -4.53519178E-08
   34.7099991      -4.48332820E-08
   34.7700005      -4.43913386E-08
   34.8300018      -4.40086900E-08
   34.8899994      -4.36962964E-08
   34.9500008      -4.34887610E-08
   35.0099983      -4.34285816E-08
   35.0699997      -4.35445351E-08
   35.1300011      -4.38315304E-08
   35.1899986      -4.42390835E-08
   35.2500000      -4.46730262E-08
   35.3100014      -4.50105873E-08
   35.3699989      -4.51247004E-08
   35.4300003      -4.49101023E-08
   35.4900017      -4.43031851E-08
   35.5499992      -4.32895320E-08
   35.6100006      -4.18970920E-08
   35.6699982      -4.01777029E-08
   35.7299995      -3.81834333E-08
   35.7900009      -3.59458880E-08
   35.8499985      -3.34656143E-08
   35.9099998      -3.07152099E-08
   35.9700012      -2.76553944E-08
   36.0299988      -2.42585436E-08
   36.0900002      -2.05318855E-08
   36.1500015      -1.65320788E-08
   36.2099991      -1.23654331E-08
   36.2700005      -8.17237922E-09
   36.3300018      -4.09976320E-09
   36.3899994      -2.68648714E-10
   36.4500008       3.25279981E-09
   36.5099983       6.46278719E-09
   36.5699997       9.42088718E-09
   36.6300011       1.22251533E-08
   36.6899986       1.49774255E-08
   36.7500000       1.77466557E-08
   36.8100014       2.05410089E-08
   36.8699989       2.32969768E-08
   36.9300003       2.58887933E-08
   36.9900017       2.81553323E-08
   37.0499992       2.99365723E-08
   37.1100006       3.11089217E-08
   37.1699982       3.16093320E-08
   37.2299995       3.14418607E-08
   37.2900009       3.06657704E-08
   37.3499985       2.93700069E-08
   37.4099998       2.76430114E-08
   37.4700012       2.55479495E-08
   37.5299988       2.31114932E-08
   37.5900002       2.03295922E-08
   37.6500015       1.71878991E-08
   37.7099991       1.36893874E-08
   37.7700005       9.87895721E-09
   37.8300018       5.85551030E-09
   37.8899994       1.76590298E-09
   37.9500008      -2.21876562E-09
   38.0099983      -5.93791194E-09
   38.0699997      -9.27653421E-09
   38.1300011      -1.21892096E-08
   38.1899986      -1.47048871E-08
   38.2500000      -1.69104304E-08
   38.3100014      -1.89177491E-08
   38.3699989      -2.08247890E-08
   38.4300003      -2.26825811E-08
   38.4900017      -2.44785880E-08
   38.5499992      -2.61411426E-08
   38.6100006      -2.75629368E-08
   38.6699982      -2.86354584E-08
   38.7299995      -2.92830560E-08
   38.7900009      -2.94858111E-08
   38.8499985      -2.92844433E-08
   38.9099998      -2.87665003E-08
   38.9700012      -2.80390289E-08
   39.0299988      -2.71969878E-08
   39.0900002      -2.62974762E-08
   39.1500015      -2.53474806E-08
   39.2099991      -2.43081093E-08
   39.2700005      -2.31129604E-08
   39.3300018      -2.16940776E-08
   39.3899994      -2.00070414E-08
   39.4500008      -1.80476025E-08
   39.5099983      -1.58553863E-08
   39.5699997      -1.35044331E-08
   39.6300011      -1.10841771E-08
   39.6899986      -8.67709105E-09
   39.7500000      -6.33973984E-09
   39.8100014      -4.09258494E-09
   39.8699989      -1.92111105E-09
   39.9300003       2.12506415E-10
   39.9900017       2.35092412E-09
   40.0499992       4.52193216E-09
   40.1100006       6.72340450E-09
   40.1699982       8.91745433E-09
   40.2299995       1.10356932E-08
   40.2900009       1.29943025E-08
   40.3499985       1.47147041E-08
   40.4099998       1.61438987E-08
   40.4700012       1.72685315E-08
   40.5299988       1.81186088E-08
   40.5900002       1.87599074E-08
   40.6500015       1.92775467E-08
   40.7099991       1.97558627E-08
   40.7700005       2.02606234E-08
   40.8300018       2.08286526E-08
   40.8899994       2.14672760E-08
   40.9500008       2.21626983E-08
   41.0099983       2.28935981E-08
   41.0699997       2.36447946E-08
   41.1300011       2.44162131E-08
   41.1899986       2.52242831E-08
   41.2500000       2.60957442E-08
   41.3100014       2.70563838E-08
   41.3699989       2.81187891E-08
   41.4300003       2.92733358E-08
   41.4900017       3.04852996E-08
   41.5499992       3.16988249E-08
   41.6100006       3.28462555E-08
   41.6699982       3.38598554E-08
   41.7299995       3.46825644E-08
   41.7900009       3.52751215E-08
   41.8499985       3.56185446E-08
   41.9099998       3.57124392E-08
   41.9700012       3.55707535E-08
   42.0299988       3.52168215E-08
   42.0900002       3.46789228E-08
   42.1500015       3.39867299E-08
   42.2099991       3.31682628E-08
   42.2700005       3.22467990E-08
   42.3300018       3.12376756E-08
   42.3899994       3.01455110E-08
   42.4500008       2.89631092E-08
   42.5099983       2.76728560E-08
   42.5699997       2.62509516E-08
   42.6300011       2.46734491E-08
   42.6899986       2.29223431E-08
   42.7500000       2.09897077E-08
   42.8100014       1.88786835E-08
   42.8699989       1.66013443E-08
   42.9300003       1.41748417E-08
   42.9900017       1.16178951E-08
   43.0499992       8.94941632E-09
   43.1100006       6.18993390E-09
   43.1699982       3.36504580E-09
   43.2299995       5.08957820E-10
   43.2900009      -2.33418618E-09
   43.3499985      -5.11284437E-09
   43.4099998      -7.77480391E-09
   43.4700012      -1.02768247E-08
   43.5299988      -1.25946817E-08
   43.5900002      -1.47305856E-08
   43.6500015      -1.67153740E-08
   43.7099991      -1.86041085E-08
   43.7700005      -2.04653574E-08
   43.8300018      -2.23662600E-08
   43.8899994      -2.43566571E-08
   43.9500008      -2.64561582E-08
   44.0099983      -2.86474755E-08
   44.0699997      -3.08780770E-08
   44.1300011      -3.30701226E-08
   44.1899986      -3.51367113E-08
   44.2500000      -3.70007882E-08
   44.3100014      -3.86121926E-08
   44.3699989      -3.99587918E-08
   44.4300003      -4.10688550E-08
   44.4900017      -4.20038297E-08
   44.5499992      -4.28431335E-08
   44.6100006      -4.36643788E-08
   44.6699982      -4.45238868E-08
   44.7299995      -4.54423841E-08
   44.7900009      -4.63996486E-08
   44.8499985      -4.73394302E-08
   44.9099998      -4.81832423E-08
   44.9700012      -4.88487295E-08
   45.0299988      -4.92666850E-08
   45.0900002      -4.93910939E-08
   45.1500015      -4.91985226E-08
   45.2099991      -4.86768243E-08
   45.2700005      -4.78067683E-08
   45.3300018      -4.65428371E-08
   45.3899994      -4.47995205E-08
   45.4500008      -4.24473754E-08
   45.5099983      -3.93189339E-08
   45.5699997      -3.52204808E-08
   45.6300011      -2.99428322E-08
   45.6899986      -2.32643522E-08
   45.7500000      -1.49419339E-08
   45.8100014      -4.69039918E-09
   45.8699989       7.84493537E-09
   45.9300003       2.31150565E-08
   45.9900017       4.16862278E-08
   46.0499992       6.42471107E-08
   46.1100006       9.16048748E-08
   46.1699982       1.24675907E-07
   46.2299995       1.64479403E-07
   46.2900009       2.12142140E-07
   46.3499985       2.68919450E-07
   46.4099998       3.36232944E-07
   46.4700012       4.15720962E-07
   46.5299988       5.09295035E-07
   46.5900002       6.19195021E-07
   46.6500015       7.48038417E-07
   46.7099991       8.98861970E-07
   46.7700005       1.07515905E-06
   46.8300018       1.28091551E-06
   46.8899994       1.52065184E-06
   46.9500008       1.79947313E-06
   47.0099983       2.12313103E-06
   47.0699997       2.49809727E-06
   47.1300011       2.93164589E-06
   47.1899986       3.43194461E-06
   47.2500000       4.00815088E-06
   47.3100014       4.67051086E-06
   47.3699989       5.43046144E-06
   47.4300003       6.30073464E-06
   47.4900017       7.29546309E-06
   47.5499992       8.43028829E-06
   47.6100006       9.72246562E-06
   47.6699982       1.11909758E-05
   47.7299995       1.28566362E-05
   47.7900009       1.47422088E-05
   47.8499985       1.68725128E-05
   47.9099998       1.92745374E-05
   47.9700012       2.19775447E-05
   48.0299988       2.50131852E-05
   48.0900002       2.84155740E-05
   48.1500015       3.22213673E-05
   48.2099991       3.64698353E-05
   48.2700005       4.12028712E-05
   48.3300018       4.64650439E-05
   48.3899994       5.23035815E-05
   48.4500008       5.87683680E-05
   48.5099983       6.59119105E-05
   48.5699997       7.37892624E-05
   48.6300011       8.24579474E-05
   48.6899986       9.19778249E-05
   48.7500000       1.02410879E-04
   48.8100014       1.13820999E-04
   48.8699989       1.26273721E-04
   48.9300003       1.39835887E-04
   48.9900017       1.54575289E-04
   49.0499992       1.70560292E-04
   49.1100006       1.87859376E-04
   49.1699982       2.06540659E-04
   49.2299995       2.26671458E-04
   49.2900009       2.48317636E-04
   49.3499985       2.71543046E-04
   49.4099998       2.96408893E-04
   49.4700012       3.22973036E-04
   49.5299988       3.51289113E-04
   49.5900002       3.81406106E-04
   49.6500015       4.13367496E-04
   49.7099991       4.47210448E-04
   49.7700005       4.82965173E-04
   49.8300018       5.20654314E-04
   49.8899994       5.60292043E-04
   49.9500008       6.01883512E-04
   50.0099983       6.45424065E-04
   50.0699997       6.90899033E-04
   50.1300011       7.38282746E-04
   50.1899986       7.87538476E-04
   50.2500000       8.38617794E-04
   50.3100014       8.91460455E-04
   50.3699989       9.45994223E-04
   50.4300003       1.00213499E-03
   50.4900017       1.05978642E-03
   50.5499992       1.11884065E-03
   50.6100006       1.17917836E-03