 -0.750000000       0.00000000    
 -0.689999998       0.00000000    
 -0.629999995       0.00000000    
 -0.569999993       0.00000000    
 -0.509999990       0.00000000    
 -0.449999988       0.00000000    
 -0.389999986       5.33071771E-24
 -0.330000013       4.49888321E-23
 -0.270000011       1.82581629E-22
 -0.209999993       4.32694372E-22
 -0.150000006       4.44389859E-22
  -9.00000036E-02  -1.12119516E-21
  -2.99999993E-02  -7.33597324E-21
   2.99999993E-02  -2.32304838E-20
   9.00000036E-02  -5.42046964E-20
  0.150000006      -1.00556580E-19
  0.209999993      -1.45711264E-19
  0.270000011      -1.37498485E-19
  0.330000013       3.14187947E-20
  0.389999986       5.24247013E-19
  0.449999988       1.50570994E-18
  0.509999990       2.99208288E-18
  0.569999993       4.59737389E-18
  0.629999995       5.25602514E-18
  0.689999998       3.13436725E-18
  0.750000000      -3.95362348E-18
  0.810000002      -1.73623027E-17
  0.870000005      -3.57258645E-17
  0.930000007      -5.30361871E-17
  0.990000010      -5.80206253E-17
   1.04999995      -3.64108925E-17
   1.11000001       2.29753038E-17
   1.16999996       1.19242744E-16
   1.23000002       2.30958303E-16
   1.28999996       3.13677529E-16
   1.35000002       3.08748697E-16
   1.40999997       1.65158600E-16
   1.47000003      -1.30361812E-16
   1.52999997      -5.26885780E-16
   1.59000003      -9.02169816E-16
   1.64999998      -1.08724503E-15
   1.71000004      -9.23734216E-16
   1.76999998      -3.38749916E-16
   1.83000004       5.91586551E-16
   1.88999999       1.62245942E-15
   1.95000005       2.38567147E-15
   2.00999999       2.49757363E-15
   2.06999993       1.70083612E-15
   2.13000011      -5.88671644E-18
   2.19000006      -2.29631437E-15
   2.25000000      -4.53271852E-15
   2.30999994      -5.87712794E-15
   2.36999989      -5.48690876E-15
   2.43000007      -2.77428998E-15
   2.49000001       2.30105415E-15
   2.54999995       8.96326199E-15
   2.60999990       1.54783379E-14
   2.67000008       1.92863829E-14
   2.73000002       1.75494774E-14
   2.78999996       8.14825705E-15
   2.84999990      -9.06175668E-15
   2.91000009      -3.11916427E-14
   2.97000003      -5.20843473E-14
   3.02999997      -6.34315259E-14
   3.08999991      -5.73214707E-14
   3.15000010      -2.95978689E-14
   3.21000004       1.72447014E-14
   3.26999998       7.31172867E-14
   3.32999992       1.22329488E-13
   3.39000010       1.48327449E-13
   3.45000005       1.39593266E-13
   3.50999999       9.42293796E-14
   3.56999993       2.09815363E-14
   3.63000011      -6.40652895E-14
   3.69000006      -1.43721352E-13
   3.75000000      -2.05720139E-13
   3.80999994      -2.45184352E-13
   3.86999989      -2.61916845E-13
   3.93000007      -2.53962866E-13
   3.99000001      -2.11700368E-13
   4.05000019      -1.17495613E-13
   4.11000013       4.62330335E-14
   4.17000008       2.82280519E-13
   4.23000002       5.63810229E-13
   4.28999996       8.28286116E-13
   4.34999990       9.86977644E-13
   4.40999985       9.50503565E-13
   4.46999979       6.62829871E-13
   4.53000021       1.30343409E-13
   4.59000015      -5.67508985E-13
   4.65000010      -1.29298785E-12
   4.71000004      -1.88640119E-12
   4.76999998      -2.21007154E-12
   4.82999992      -2.18186645E-12
   4.88999987      -1.78493873E-12
   4.94999981      -1.05232717E-12
   5.01000023      -3.87839276E-14
   5.07000017       1.19974397E-12
   5.13000011       2.60131196E-12
   5.19000006       4.06396358E-12
   5.25000000       5.39754049E-12
   5.30999994       6.29092872E-12
   5.36999989       6.32614230E-12
   5.42999983       5.05651250E-12
   5.48999977       2.14085694E-12
   5.55000019      -2.50051455E-12
   5.61000013      -8.55677681E-12
   5.67000008      -1.52697906E-11
   5.73000002      -2.14739077E-11
   5.78999996      -2.57274757E-11
   5.84999990      -2.65058201E-11
   5.90999985      -2.24135883E-11
   5.96999979      -1.23776406E-11
   6.03000021       4.20380484E-12
   6.09000015       2.73643920E-11
   6.15000010       5.65239279E-11
   6.21000004       9.04897407E-11
   6.26999998       1.27504340E-10
   6.32999992       1.65339770E-10
   6.38999987       2.01436035E-10
   6.44999981       2.33076003E-10
   6.51000023       2.57581956E-10
   6.57000017       2.72519479E-10
   6.63000011       2.75896056E-10
   6.69000006       2.66347361E-10
   6.75000000       2.43302378E-10
   6.80999994       2.07112966E-10
   6.86999989       1.59121910E-10
   6.92999983       1.01639176E-10
   6.98999977       3.78012795E-11
   7.05000019      -2.86882254E-11
   7.11000013      -9.39099284E-11
   7.17000008      -1.54115776E-10
   7.23000002      -2.06085843E-10
   7.28999996      -2.47399823E-10
   7.34999990      -2.76595830E-10
   7.40999985      -2.93223168E-10
   7.46999979      -2.97817937E-10
   7.53000021      -2.91834279E-10
   7.59000015      -2.77544959E-10
   7.65000010      -2.57902089E-10
   7.71000004      -2.36331427E-10
   7.76999998      -2.16429874E-10
   7.82999992      -2.01567193E-10
   7.88999987      -1.94425323E-10
   7.94999981      -1.96551067E-10
   8.01000023      -2.08018727E-10
   8.06999969      -2.27296543E-10
   8.13000011      -2.51373367E-10
   8.18999958      -2.76146495E-10
   8.25000000      -2.97008057E-10
   8.31000042      -3.09513137E-10
   8.36999989      -3.09990061E-10
   8.43000031      -2.95965835E-10
   8.48999977      -2.66326239E-10
   8.55000019      -2.21204138E-10
   8.60999966      -1.61663405E-10
   8.67000008      -8.92958277E-11
   8.72999954      -5.86386018E-12
   8.78999996       8.69174108E-11
   8.85000038       1.87432903E-10
   8.90999985       2.94110292E-10
   8.97000027       4.05360440E-10
   9.02999973       5.19630505E-10
   9.09000015       6.35631270E-10
   9.14999962       7.52702400E-10
   9.21000004       8.71180517E-10
   9.27000046       9.92573357E-10
   9.32999992       1.11936704E-09
   9.39000034       1.25439314E-09
   9.44999981       1.39985090E-09
   9.51000023       1.55623558E-09
   9.56999969       1.72152304E-09
   9.63000011       1.89092697E-09
   9.68999958       2.05739759E-09
   9.75000000       2.21279928E-09
   9.81000042       2.34947573E-09
   9.86999989       2.46177323E-09
   9.93000031       2.54710919E-09
   9.98999977       2.60633004E-09
   10.0500002       2.64334510E-09
   10.1099997       2.66425659E-09
   10.1700001       2.67632583E-09
   10.2299995       2.68710765E-09
   10.2900000       2.70393730E-09
   10.3500004       2.73377609E-09
   10.4099998       2.78327383E-09
   10.4700003       2.85887047E-09
   10.5299997       2.96680391E-09
   10.5900002       3.11301185E-09
   10.6499996       3.30300276E-09
   10.7100000       3.54180441E-09
   10.7700005       3.83404952E-09
   10.8299999       4.18418633E-09
   10.8900003       4.59673188E-09
   10.9499998       5.07645703E-09
   11.0100002       5.62842084E-09
   11.0699997       6.25782892E-09
   11.1300001       6.96969371E-09
   11.1899996       7.76831133E-09
   11.2500000       8.65653593E-09
   11.3100004       9.63484581E-09
   11.3699999       1.07002434E-08
   11.4300003       1.18450982E-08
   11.4899998       1.30561180E-08
   11.5500002       1.43137058E-08
   11.6099997       1.55918958E-08
   11.6700001       1.68590031E-08
   11.7299995       1.80789463E-08
   11.7900000       1.92131235E-08
   11.8500004       2.02225756E-08
   11.9099998       2.10701874E-08
   11.9700003       2.17226894E-08
   12.0299997       2.21522427E-08
   12.0900002       2.23375149E-08
   12.1499996       2.22641798E-08
   12.2100000       2.19248513E-08
   12.2700005       2.13185931E-08
   12.3299999       2.04501767E-08
   12.3900003       1.93292582E-08
   12.4499998       1.79696453E-08
   12.5100002       1.63886842E-08
   12.5699997       1.46067141E-08
   12.6300001       1.26464297E-08
   12.6899996       1.05321041E-08
   12.7500000       8.28866842E-09
   12.8100004       5.94086780E-09
   12.8699999       3.51281182E-09
   12.9300003       1.02816999E-09
   12.9899998      -1.48889856E-09
   13.0500002      -4.01231981E-09
   13.1099997      -6.51268373E-09
   13.1700001      -8.95644536E-09
   13.2299995      -1.13062546E-08
   13.2900000      -1.35225982E-08
   13.3500004      -1.55665294E-08
   13.4099998      -1.74029484E-08
   13.4700003      -1.90037603E-08
   13.5299997      -2.03503703E-08
   13.5900002      -2.14352376E-08
   13.6499996      -2.22625527E-08
   13.7100000      -2.28482087E-08
   13.7700005      -2.32193642E-08
   13.8299999      -2.34136284E-08
   13.8900003      -2.34777655E-08
   13.9499998      -2.34656561E-08
   14.0100002      -2.34353070E-08
   14.0699997      -2.34448905E-08
   14.1300001      -2.35480861E-08
   14.1899996      -2.37892834E-08
   14.2500000      -2.41992808E-08
   14.3100004      -2.47921577E-08
   14.3699999      -2.55637040E-08
   14.4300003      -2.64916213E-08
   14.4899998      -2.75373750E-08
   14.5500002      -2.86494526E-08
   14.6099997      -2.97676230E-08
   14.6700001      -3.08277279E-08
   14.7299995      -3.17665432E-08
   14.7900000      -3.25261382E-08
   14.8500004      -3.30573720E-08
   14.9099998      -3.33221024E-08
   14.9700003      -3.32941248E-08
   15.0299997      -3.29590080E-08
   15.0900002      -3.23132703E-08
   15.1499996      -3.13634452E-08
   15.2100000      -3.01254275E-08
   15.2700005      -2.86242390E-08
   15.3299999      -2.68940212E-08
   15.3900003      -2.49777639E-08
   15.4499998      -2.29263364E-08
   15.5100002      -2.07964668E-08
   15.5699997      -1.86476967E-08
   15.6300001      -1.65386123E-08
   15.6899996      -1.45228283E-08
   15.7500000      -1.26452058E-08
   15.8100004      -1.09386482E-08
   15.8699999      -9.42169454E-09
   15.9300003      -8.09704570E-09
   15.9899998      -6.95117919E-09
   16.0499992      -5.95529714E-09
   16.1100006      -5.06775510E-09
   16.1700001      -4.23800817E-09
   16.2299995      -3.41171824E-09
   16.2900009      -2.53635224E-09
   16.3500004      -1.56638302E-09
   16.4099998      -4.67277106E-10
   16.4699993       7.82220289E-10
   16.5300007       2.18950524E-09
   16.5900002       3.74882259E-09
   16.6499996       5.44265788E-09
   16.7099991       7.24332727E-09
   16.7700005       9.11461306E-09
   16.8299999       1.10136522E-08
   16.8899994       1.28934596E-08
   16.9500008       1.47063943E-08
   17.0100002       1.64084692E-08
   17.0699997       1.79639876E-08
   17.1299992       1.93496206E-08
   17.1900005       2.05569552E-08
   17.2500000       2.15928484E-08
   17.3099995       2.24774013E-08
   17.3700008       2.32399593E-08
   17.4300003       2.39140370E-08
   17.4899998       2.45322092E-08
   17.5499992       2.51218921E-08
   17.6100006       2.57026311E-08
   17.6700001       2.62849742E-08
   17.7299995       2.68707758E-08
   17.7900009       2.74544742E-08
   17.8500004       2.80248820E-08
   17.9099998       2.85671451E-08
   17.9699993       2.90645641E-08
   18.0300007       2.95000859E-08
   18.0900002       2.98572260E-08
   18.1499996       3.01202796E-08
   18.2099991       3.02738030E-08
   18.2700005       3.03016741E-08
   18.3299999       3.01863068E-08
   18.3899994       2.99089145E-08
   18.4500008       2.94515203E-08
   18.5100002       2.88010060E-08
   18.5699997       2.79547212E-08
   18.6299992       2.69263811E-08
   18.6900005       2.57504205E-08
   18.7500000       2.44830414E-08
   18.8099995       2.31989237E-08
   18.8700008       2.19835883E-08
   18.9300003       2.09226947E-08
   18.9899998       2.00904644E-08
   19.0499992       1.95396037E-08
   19.1100006       1.92947525E-08
   19.1700001       1.93504892E-08
   19.2299995       1.96738004E-08
   19.2900009       2.02099955E-08
   19.3500004       2.08903952E-08
   19.4099998       2.16401226E-08
   19.4699993       2.23845387E-08
   19.5300007       2.30535129E-08
   19.5900002       2.35833522E-08
   19.6499996       2.39168223E-08
   19.7099991       2.40022509E-08
   19.7700005       2.37929161E-08
   19.8299999       2.32479156E-08
   19.8899994       2.23352679E-08
   19.9500008       2.10373372E-08
   20.0100002       1.93576426E-08
   20.0699997       1.73273751E-08
   20.1299992       1.50094852E-08
   20.1900005       1.24983419E-08
   20.2500000       9.91391147E-09
   20.3099995       7.39069916E-09
   20.3700008       5.06314990E-09
   20.4300003       3.05025871E-09
   20.4899998       1.44239465E-09
   20.5499992       2.92775248E-10
   20.6100006      -3.85244919E-10
   20.6700001      -6.15362539E-10
   20.7299995      -4.51485183E-10
   20.7900009       3.10824699E-11
   20.8500004       7.44530715E-10
   20.9099998       1.59628688E-09
   20.9699993       2.49520093E-09
   21.0300007       3.35638095E-09
   21.0900002       4.10511358E-09
   21.1499996       4.68014161E-09
   21.2099991       5.03624520E-09
   21.2700005       5.14578069E-09
   21.3299999       4.99876629E-09
   21.3899994       4.60124694E-09
   21.4500008       3.97199829E-09
   21.5100002       3.13792192E-09
   21.5699997       2.12873830E-09
   21.6299992       9.71712377E-10
   21.6900005      -3.12829540E-10
   21.7500000      -1.71449699E-09
   21.8099995      -3.23382676E-09
   21.8700008      -4.88104446E-09
   21.9300003      -6.67278943E-09
   21.9899998      -8.62743210E-09
   22.0499992      -1.07599387E-08
   22.1100006      -1.30773161E-08
   22.1700001      -1.55754432E-08
   22.2299995      -1.82376407E-08
   22.2900009      -2.10348396E-08
   22.3500004      -2.39269049E-08
   22.4099998      -2.68646261E-08
   22.4699993      -2.97921989E-08
   22.5300007      -3.26503127E-08
   22.5900002      -3.53801859E-08
   22.6499996      -3.79287748E-08
   22.7099991      -4.02548359E-08
   22.7700005      -4.23350173E-08
   22.8299999      -4.41685266E-08
   22.8899994      -4.57788154E-08
   22.9500008      -4.72111878E-08
   23.0100002      -4.85260365E-08
   23.0699997      -4.97885217E-08
   23.1299992      -5.10566771E-08
   23.1900005      -5.23703392E-08
   23.2500000      -5.37435518E-08
   23.3099995      -5.51621966E-08
   23.3700008      -5.65874636E-08
   23.4300003      -5.79643924E-08
   23.4899998      -5.92332334E-08
   23.5499992      -6.03408381E-08
   23.6100006      -6.12491462E-08
   23.6700001      -6.19387919E-08
   23.7299995      -6.24073948E-08
   23.7900009      -6.26635952E-08
   23.8500004      -6.27193373E-08
   23.9099998      -6.25834105E-08
   23.9699993      -6.22584864E-08
   24.0300007      -6.17427816E-08
   24.0900002      -6.10354220E-08
   24.1499996      -6.01433499E-08
   24.2099991      -5.90864637E-08
   24.2700005      -5.78985002E-08
   24.3299999      -5.66223868E-08
   24.3899994      -5.53008412E-08
   24.4500008      -5.39648184E-08
   24.5100002      -5.26234665E-08
   24.5699997      -5.12590148E-08
   24.6299992      -4.98287527E-08
   24.6900005      -4.82742131E-08
   24.7500000      -4.65355470E-08
   24.8099995      -4.45675141E-08
   24.8700008      -4.23530153E-08
   24.9300003      -3.99107094E-08
   24.9899998      -3.72946758E-08
   25.0499992      -3.45861864E-08
   25.1100006      -3.18794307E-08
   25.1700001      -2.92645410E-08
   25.2299995      -2.68118256E-08
   25.2900009      -2.45607179E-08
   25.3500004      -2.25158736E-08
   25.4099998      -2.06509725E-08
   25.4699993      -1.89189855E-08
   25.5300007      -1.72660215E-08
   25.5900002      -1.56451865E-08
   25.6499996      -1.40270444E-08
   25.7099991      -1.24044677E-08
   25.7700005      -1.07914246E-08
   25.8299999      -9.21702537E-09
   25.8899994      -7.71733433E-09
   25.9500008      -6.32775343E-09
   26.0100002      -5.07803843E-09
   26.0699997      -3.99071931E-09
   26.1299992      -3.08228465E-09
   26.1900005      -2.36559217E-09
   26.2500000      -1.85181748E-09
   26.3099995      -1.55083968E-09
   26.3700008      -1.46993917E-09
   26.4300003      -1.61158786E-09
   26.4899998      -1.97154160E-09
   26.5499992      -2.53830557E-09
   26.6100006      -3.29444338E-09
   26.6700001      -4.21943591E-09
   26.7299995      -5.29321298E-09
   26.7900009      -6.49924159E-09
   26.8500004      -7.82628273E-09
   26.9099998      -9.26836830E-09
   26.9699993      -1.08231966E-08
   27.0300007      -1.24896191E-08
   27.0900002      -1.42651571E-08
   27.1499996      -1.61444564E-08
   27.2099991      -1.81191595E-08
   27.2700005      -2.01791419E-08
   27.3299999      -2.23143690E-08
   27.3899994      -2.45163054E-08
   27.4500008      -2.67778191E-08
   27.5100002      -2.90910709E-08
   27.5699997      -3.14438466E-08
   27.6299992      -3.38155957E-08
   27.6900005      -3.61750025E-08
   27.7500000      -3.84806071E-08
   27.8099995      -4.06849558E-08
   27.8700008      -4.27415827E-08
   27.9300003      -4.46126585E-08
   27.9899998      -4.62750229E-08
   28.0499992      -4.77224908E-08
   28.1100006      -4.89637983E-08
   28.1700001      -5.00170287E-08
   28.2299995      -5.09024822E-08
   28.2900009      -5.16364906E-08
   28.3500004      -5.22280423E-08
   28.4099998      -5.26790025E-08
   28.4699993      -5.29874562E-08
   28.5300007      -5.31525899E-08
   28.5900002      -5.31793205E-08
   28.6499996      -5.30808819E-08
   28.7099991      -5.28784909E-08
   28.7700005      -5.25981072E-08
   28.8299999      -5.22650687E-08
   28.8899994      -5.18982226E-08
   28.9500008      -5.15052427E-08
   29.0100002      -5.10805016E-08
   29.0699997      -5.06062250E-08
   29.1299992      -5.00566131E-08
   29.1900005      -4.94035994E-08
   29.2500000      -4.86225318E-08
   29.3099995      -4.76961297E-08
   29.3700008      -4.66158490E-08
   29.4300003      -4.53809292E-08
   29.4899998      -4.39962946E-08
   29.5499992      -4.24708659E-08
   29.6100006      -4.08172980E-08
   29.6700001      -3.90532300E-08
   29.7299995      -3.72030016E-08
   29.7900009      -3.52982035E-08
   29.8500004      -3.33757519E-08
   29.9099998      -3.14730642E-08
   29.9699993      -2.96214644E-08
   30.0300007      -2.78399792E-08
   30.0900002      -2.61319144E-08
   30.1499996      -2.44860239E-08
   30.2099991      -2.28825083E-08
   30.2700005      -2.13024407E-08
   30.3299999      -1.97379144E-08
   30.3899994      -1.81997724E-08
   30.4500008      -1.67203780E-08
   30.5100002      -1.53502651E-08
   30.5699997      -1.41493137E-08
   30.6299992      -1.31746853E-08
   30.6900005      -1.24687851E-08
   30.7500000      -1.20504833E-08
   30.8099995      -1.19120394E-08
   30.8700008      -1.20224524E-08
   30.9300003      -1.23361508E-08
   30.9899998      -1.28043283E-08
   31.0499992      -1.33854874E-08
   31.1100006      -1.40520555E-08
   31.1700001      -1.47913131E-08
   31.2299995      -1.56008664E-08
   31.2900009      -1.64807936E-08
   31.3500004      -1.74258350E-08
   31.4099998      -1.84210052E-08
   31.4699993      -1.94426484E-08
   31.5300007      -2.04649844E-08
   31.5900002      -2.14698375E-08
   31.6499996      -2.24557795E-08
   31.7099991      -2.34427784E-08
   31.7700005      -2.44697276E-08
   31.8299999      -2.55845940E-08
   31.8899994      -2.68297384E-08
   31.9500008      -2.82267951E-08
   32.0099983      -2.97661398E-08
   32.0699997      -3.14047277E-08
   32.1300011      -3.30734373E-08
   32.1899986      -3.46920004E-08
   32.2500000      -3.61869184E-08
   32.3100014      -3.75067906E-08
   32.3699989      -3.86303114E-08
   32.4300003      -3.95646786E-08
   32.4900017      -4.03355287E-08
   32.5499992      -4.09723384E-08
   32.6100006      -4.14946300E-08
   32.6699982      -4.19038066E-08
   32.7299995      -4.21832027E-08
   32.7900009      -4.23057394E-08
   32.8499985      -4.22460431E-08
   32.9099998      -4.19922728E-08
   32.9700012      -4.15534238E-08
   33.0299988      -4.09596517E-08
   33.0900002      -4.02557987E-08
   33.1500015      -3.94903203E-08
   33.2099991      -3.87032841E-08
   33.2700005      -3.79167879E-08
   33.3300018      -3.71302349E-08
   33.3899994      -3.63212216E-08
   33.4500008      -3.54514853E-08
   33.5099983      -3.44763542E-08
   33.5699997      -3.33555050E-08
   33.6300011      -3.20629781E-08
   33.6899986      -3.05944354E-08
   33.7500000      -2.89701774E-08
   33.8100014      -2.72332326E-08
   33.8699989      -2.54428532E-08
   33.9300003      -2.36648265E-08
   33.9900017      -2.19608864E-08
   34.0499992      -2.03797050E-08
   34.1100006      -1.89514520E-08
   34.1699982      -1.76867232E-08
   34.2299995      -1.65794152E-08
   34.2900009      -1.56120414E-08
   34.3499985      -1.47617394E-08
   34.4099998      -1.40054492E-08
   34.4700012      -1.33235920E-08
   34.5299988      -1.27021504E-08
   34.5900002      -1.21334507E-08
   34.6500015      -1.16158629E-08
   34.7099991      -1.11523990E-08
   34.7700005      -1.07480593E-08
   34.8300018      -1.04060192E-08
   34.8899994      -1.01232711E-08
   34.9500008      -9.88692683E-09
   35.0099983      -9.67258362E-09
   35.0699997      -9.44580947E-09
   35.1300011      -9.16691079E-09
   35.1899986      -8.79796147E-09
   35.2500000      -8.31019253E-09
   35.3100014      -7.68951480E-09
   35.3699989      -6.93845692E-09
   35.4300003      -6.07392714E-09
   35.4900017      -5.12163334E-09
   35.5499992      -4.10907752E-09
   35.6100006      -3.05952108E-09
   35.6699982      -1.98891437E-09
   35.7299995      -9.06654363E-10
   35.7900009       1.80404178E-10
   35.8499985       1.26251176E-09
   35.9099998       2.32253550E-09
   35.9700012       3.33443495E-09
   36.0299988       4.26553903E-09
   36.0900002       5.08187359E-09
   36.1500015       5.75448045E-09
   36.2099991       6.26416474E-09
   36.2700005       6.60270194E-09
   36.3300018       6.77006096E-09
   36.3899994       6.76902090E-09
   36.4500008       6.59989707E-09
   36.5099983       6.25828234E-09
   36.5699997       5.73755798E-09
   36.6300011       5.03580999E-09
   36.6899986       4.16457668E-09
   36.7500000       3.15553561E-09
   36.8100014       2.06146500E-09
   36.8699989       9.49700762E-10
   36.9300003      -1.10795838E-10
   36.9900017      -1.06488374E-09
   37.0499992      -1.88379445E-09
   37.1100006      -2.56985233E-09
   37.1699982      -3.15084803E-09
   37.2299995      -3.66514685E-09
   37.2900009      -4.14207690E-09
   37.3499985      -4.58417793E-09
   37.4099998      -4.95763164E-09
   37.4700012      -5.19469001E-09
   37.5299988      -5.20792121E-09
   37.5900002      -4.91205254E-09
   37.6500015      -4.24654312E-09
   37.7099991      -3.19173132E-09
   37.7700005      -1.77359893E-09
   37.8300018      -5.61355198E-11
   37.8899994       1.87547622E-09
   37.9500008       3.93460553E-09
   38.0099983       6.04883921E-09
   38.0699997       8.16635382E-09
   38.1300011       1.02514255E-08
   38.1899986       1.22716513E-08
   38.2500000       1.41826462E-08
   38.3100014       1.59169957E-08
   38.3699989       1.73827903E-08
   38.4300003       1.84736102E-08
   38.4900017       1.90876346E-08
   38.5499992       1.91500522E-08
   38.6100006       1.86314164E-08
   38.6699982       1.75556352E-08
   38.7299995       1.59943632E-08
   38.7900009       1.40490837E-08
   38.8499985       1.18260521E-08
   38.9099998       9.41163059E-09
   38.9700012       6.85533896E-09
   39.0299988       4.16530543E-09
   39.0900002       1.31668221E-09
   39.1500015      -1.73057568E-09
   39.2099991      -5.01095965E-09
   39.2700005      -8.53656523E-09
   39.3300018      -1.22891963E-08
   39.3899994      -1.62230638E-08
   39.4500008      -2.02760546E-08
   39.5099983      -2.43848834E-08
   39.5699997      -2.84985848E-08
   39.6300011      -3.25859482E-08
   39.6899986      -3.66348658E-08
   39.7500000      -4.06444975E-08
   39.8100014      -4.46133974E-08
   39.8699989      -4.85279337E-08
   39.9300003      -5.23549097E-08
   39.9900017      -5.60409212E-08
   40.0499992      -5.95188396E-08
   40.1100006      -6.27195220E-08
   40.1699982      -6.55855033E-08
   40.2299995      -6.80826275E-08
   40.2900009      -7.02062621E-08
   40.3499985      -7.19802316E-08
   40.4099998      -7.34488736E-08
   40.4700012      -7.46645767E-08
   40.5299988      -7.56747909E-08
   40.5900002      -7.65123218E-08
   40.6500015      -7.71916788E-08
   40.7099991      -7.77119453E-08
   40.7700005      -7.80646019E-08
   40.8300018      -7.82427634E-08
   40.8899994      -7.82482772E-08
   40.9500008      -7.80942244E-08
   41.0099983      -7.78021345E-08
   41.0699997      -7.73955975E-08
   41.1300011      -7.68929951E-08
   41.1899986      -7.63025625E-08
   41.2500000      -7.56216423E-08
   41.3100014      -7.48406563E-08
   41.3699989      -7.39506305E-08
   41.4300003      -7.29518277E-08
   41.4900017      -7.18609527E-08
   41.5499992      -7.07147407E-08
   41.6100006      -6.95685074E-08
   41.6699982      -6.84896904E-08
   41.7299995      -6.75475320E-08
   41.7900009      -6.68007445E-08
   41.8499985      -6.62863044E-08
   41.9099998      -6.60117507E-08
   41.9700012      -6.59533086E-08
   42.0299988      -6.60605579E-08
   42.0900002      -6.62666508E-08
   42.1500015      -6.65015989E-08
   42.2099991      -6.67052049E-08
   42.2700005      -6.68361153E-08
   42.3300018      -6.68749252E-08
   42.3899994      -6.68207676E-08
   42.4500008      -6.66829791E-08
   42.5099983      -6.64706690E-08
   42.5699997      -6.61836950E-08
   42.6300011      -6.58076686E-08
   42.6899986      -6.53144809E-08
   42.7500000      -6.46680220E-08
   42.8100014      -6.38330420E-08
   42.8699989      -6.27843662E-08
   42.9300003      -6.15134610E-08
   42.9900017      -6.00300964E-08
   43.0499992      -5.83586406E-08
   43.1100006      -5.65299771E-08
   43.1699982      -5.45717569E-08
   43.2299995      -5.25003365E-08
   43.2900009      -5.03171798E-08
   43.3499985      -4.80113300E-08
   43.4099998      -4.55672691E-08
   43.4700012      -4.29758167E-08
   43.5299988      -4.02445082E-08
   43.5900002      -3.74041065E-08
   43.6500015      -3.45089752E-08
   43.7099991      -3.16311031E-08
   43.7700005      -2.88493762E-08
   43.8300018      -2.62369895E-08
   43.8899994      -2.38502960E-08
   43.9500008      -2.17217337E-08
   44.0099983      -1.98582999E-08
   44.0699997      -1.82456024E-08
   44.1300011      -1.68561520E-08
   44.1899986      -1.56597082E-08
   44.2500000      -1.46330539E-08
   44.3100014      -1.37668534E-08
   44.3699989      -1.30679387E-08
   44.4300003      -1.25566011E-08
   44.4900017      -1.22597452E-08
   44.5499992      -1.22019452E-08
   44.6100006      -1.23970008E-08
   44.6699982      -1.28424542E-08
   44.7299995      -1.35186058E-08
   44.7900009      -1.43921941E-08
   44.8499985      -1.54234794E-08
   44.9099998      -1.65744876E-08
   44.9700012      -1.78159212E-08
   45.0299988      -1.91308338E-08
   45.0900002      -2.05143209E-08
   45.1500015      -2.19698464E-08
   45.2099991      -2.35039792E-08
   45.2700005      -2.51217394E-08
   45.3300018      -2.68245461E-08
   45.3899994      -2.86116624E-08
   45.4500008      -3.04847951E-08
   45.5099983      -3.24542384E-08
   45.5699997      -3.45443461E-08
   45.6300011      -3.67963544E-08
   45.6899986      -3.92675013E-08
   45.7500000      -4.20268691E-08
   45.8100014      -4.51496334E-08
   45.8699989      -4.87120388E-08
   45.9300003      -5.27894137E-08
   45.9900017      -5.74585002E-08
   46.0499992      -6.28040482E-08
   46.1100006      -6.89284718E-08
   46.1699982      -7.59623333E-08
   46.2299995      -8.40736760E-08
   46.2900009      -9.34741990E-08
   46.3499985      -1.04421758E-07
   46.4099998      -1.17219443E-07
   46.4700012      -1.32212719E-07
   46.5299988      -1.49786914E-07
   46.5900002      -1.70367230E-07
   46.6500015      -1.94423421E-07
   46.7099991      -2.22479713E-07
   46.7700005      -2.55129947E-07
   46.8300018      -2.93055706E-07
   46.8899994      -3.37045378E-07
   46.9500008      -3.88011529E-07
   47.0099983      -4.47004908E-07
   47.0699997      -5.15225565E-07
   47.1300011      -5.94032031E-07
   47.1899986      -6.84951488E-07
   47.2500000      -7.89692535E-07
   47.3100014      -9.10162271E-07
   47.3699989      -1.04848709E-06
   47.4300003      -1.20703612E-06
   47.4900017      -1.38844325E-06
   47.5499992      -1.59562842E-06
   47.6100006      -1.83181635E-06
   47.6699982      -2.10055305E-06
   47.7299995      -2.40572399E-06
   47.7900009      -2.75157299E-06
   47.8499985      -3.14272393E-06
   47.9099998      -3.58420448E-06
   47.9700012      -4.08147480E-06
   48.0299988      -4.64045115E-06
   48.0900002      -5.26753138E-06
   48.1500015      -5.96961036E-06
   48.2099991      -6.75409683E-06
   48.2700005      -7.62891750E-06
   48.3300018      -8.60252112E-06
   48.3899994      -9.68387212E-06
   48.4500008      -1.08824452E-05
   48.5099983      -1.22082192E-05
   48.5699997      -1.36716608E-05
   48.6300011      -1.52837110E-05
   48.6899986      -1.70557778E-05
   48.7500000      -1.89997099E-05
   48.8100014      -2.11277766E-05
   48.8699989      -2.34526124E-05
   48.9300003      -2.59871704E-05
   48.9900017      -2.87446383E-05
   49.0499992      -3.17383710E-05
   49.1100006      -3.49817783E-05
   49.1699982      -3.84882442E-05
   49.2299995      -4.22710327E-05
   49.2900009      -4.63431825E-05
   49.3499985      -5.07174082E-05
   49.4099998      -5.54060243E-05
   49.4700012      -6.04207962E-05
   49.5299988      -6.57728306E-05
   49.5900002      -7.14724229E-05
   49.6500015      -7.75289373E-05
   49.7099991      -8.39506465E-05
   49.7700005      -9.07445574E-05
   49.8300018      -9.79163160E-05
   49.8899994      -1.05470026E-04
   49.9500008      -1.13408154E-04
   50.0099983      -1.21731326E-04
   50.0699997      -1.30438348E-04
   50.1300011      -1.39525946E-04
   50.1899986      -1.48988824E-04
   50.2500000      -1.58819574E-04
   50.3100014      -1.69008577E-04
   50.3699989      -1.79543931E-04
   50.4300003      -1.90411534E-04
   50.4900017      -2.01594899E-04
   50.5499992      -2.13075269E-04
   50.6100006      -2.24831616E-04