  -2.400000      0.0000000E+00
  -2.340000      0.0000000E+00
  -2.280000      0.0000000E+00
  -2.220000      0.0000000E+00
  -2.160000      0.0000000E+00
  -2.100000      0.0000000E+00
  -2.040000      0.0000000E+00
  -1.980000      0.0000000E+00
  -1.920000      0.0000000E+00
  -1.860000      0.0000000E+00
  -1.800000      0.0000000E+00
  -1.740000      3.3020259E-32
  -1.680000      5.4537686E-31
  -1.620000      4.3537493E-30
  -1.560000      2.2350527E-29
  -1.500000      8.2659258E-29
  -1.440000      2.3155487E-28
  -1.380000      4.8220264E-28
  -1.320000      5.5785996E-28
  -1.260000     -1.0291815E-27
  -1.200000     -9.3417478E-27
  -1.140000     -3.6258217E-26
  -1.080000     -9.6883866E-26
  -1.020000     -1.7610103E-25
 -0.9600000     -1.3331085E-25
 -0.9000000      4.3867308E-25
 -0.8400000      2.2113826E-24
 -0.7800000      5.5143282E-24
 -0.7200000      8.6134870E-24
 -0.6600000      5.2070164E-24
 -0.6000000     -1.6268737E-23
 -0.5400000     -6.6156116E-23
 -0.4800000     -1.3487757E-22
 -0.4200000     -1.6586326E-22
 -0.3600000     -4.3337121E-23
 -0.3000000      3.6217677E-22
 -0.2400000      1.0548211E-21
 -0.1800000      1.7098373E-21
 -0.1200000      1.5565179E-21
 -5.9999999E-02 -3.9578429E-22
  0.0000000E+00 -4.5919203E-21
  5.9999999E-02 -9.7884482E-21
  0.1200000     -1.2300717E-20
  0.1800000     -6.8575220E-21
  0.2400000      1.0073055E-20
  0.3000000      3.5242473E-20
  0.3600000      5.5078177E-20
  0.4200000      4.8433887E-20
  0.4800000     -1.2627528E-21
  0.5400000     -8.7580539E-20
  0.6000000     -1.6807095E-19
  0.6600000     -1.7301548E-19
  0.7200000     -4.5352636E-20
  0.7800000      1.9995960E-19
  0.8400000      4.3559734E-19
  0.9000000      4.5083396E-19
  0.9600000      7.5357252E-20
   1.020000     -6.4193289E-19
   1.080000     -1.3155474E-18
   1.140000     -1.3119256E-18
   1.200000     -1.1108061E-19
   1.260000      2.1767969E-18
   1.320000      4.4640055E-18
   1.380000      4.8993370E-18
   1.440000      1.8255312E-18
   1.500000     -4.8189797E-18
   1.560000     -1.2476008E-17
   1.620000     -1.6317347E-17
   1.680000     -1.1465012E-17
   1.740000      3.5632960E-18
   1.800000      2.4070248E-17
   1.860000      3.9395747E-17
   1.920000      3.7417876E-17
   1.980000      1.2129719E-17
   2.040000     -2.9669351E-17
   2.100000     -6.7653613E-17
   2.160000     -7.6278103E-17
   2.220000     -4.0096588E-17
   2.280000      3.1693200E-17
   2.340000      1.0192187E-16
   2.400000      1.2021486E-16
   2.460000      5.2959011E-17
   2.520000     -8.6045690E-17
   2.580000     -2.2497359E-16
   2.640000     -2.5868474E-16
   2.700000     -1.0633921E-16
   2.760000      2.2312950E-16
   2.820000      5.9718666E-16
   2.880000      7.9122046E-16
   2.940000      5.9009741E-16
   3.000000     -7.7049240E-17
   3.060000     -1.0378254E-15
   3.120000     -1.8832122E-15
   3.180000     -2.1098155E-15
   3.240000     -1.3596580E-15
   3.300000      3.4497023E-16
   3.360000      2.4978813E-15
   3.420000      4.2239627E-15
   3.480000      4.6065726E-15
   3.540000      3.1118697E-15
   3.600000     -7.6710182E-17
   3.660000     -3.9914064E-15
   3.720000     -7.1605582E-15
   3.780000     -8.1653324E-15
   3.840000     -6.2616021E-15
   3.900000     -1.7942100E-15
   3.960000      3.8134198E-15
   4.020000      8.5479431E-15
   4.080000      1.0614216E-14
   4.140000      9.2316325E-15
   4.200000      5.0408917E-15
   4.260000     -1.3128667E-16
   4.320000     -4.1281065E-15
   4.380000     -5.5945806E-15
   4.440000     -4.8191431E-15
   4.500000     -3.7426824E-15
   4.560000     -4.9210243E-15
   4.620000     -9.7720522E-15
   4.680000     -1.6962536E-14
   4.740000     -2.1986709E-14
   4.800000     -1.8638110E-14
   4.860000     -2.2013821E-15
   4.920000      2.6874072E-14
   4.980000      6.0760736E-14
   5.040000      8.5273246E-14
   5.100000      8.4686191E-14
   5.160000      4.9037051E-14
   5.220000     -1.9098648E-14
   5.280000     -1.0193024E-13
   5.340000     -1.7028233E-13
   5.400000     -1.9367038E-13
   5.460000     -1.5323226E-13
   5.520000     -5.2046698E-14
   5.580000      8.2411244E-14
   5.640000      2.0610796E-13
   5.700000      2.7455043E-13
   5.760000      2.6094369E-13
   5.820000      1.6840568E-13
   5.880000      3.0035236E-14
   5.940000     -1.0435833E-13
   6.000000     -1.8982872E-13
   6.060000     -2.0656698E-13
   6.120000     -1.6883314E-13
   6.180000     -1.1696214E-13
   6.240000     -9.4715753E-14
   6.300000     -1.2209294E-13
   6.360000     -1.7763597E-13
   6.420000     -2.0169305E-13
   6.480000     -1.2324289E-13
   6.540000      9.8912584E-14
   6.600000      4.3918504E-13
   6.660000      7.9300152E-13
   6.720000      1.0020607E-12
   6.780000      9.1408749E-13
   6.840000      4.5672938E-13
   6.900000     -3.0597920E-13
   6.960000     -1.1648181E-12
   7.020000     -1.8188716E-12
   7.080000     -1.9806747E-12
   7.140000     -1.4972472E-12
   7.200000     -4.3761774E-13
   7.260000      8.9661476E-13
   7.320000      2.0550373E-12
   7.380000      2.5960041E-12
   7.440000      2.2629227E-12
   7.500000      1.1085335E-12
   7.560000     -4.9060956E-13
   7.620000     -1.9478822E-12
   7.680000     -2.6754187E-12
   7.740000     -2.3125640E-12
   7.800000     -8.8478172E-13
   7.860000      1.1730612E-12
   7.920000      3.1432680E-12
   7.980000      4.2569663E-12
   8.040000      3.9457218E-12
   8.100000      2.0241645E-12
   8.160000     -1.2516529E-12
   8.220000     -5.2510708E-12
   8.280000     -9.1133516E-12
   8.340000     -1.1903321E-11
   8.400000     -1.2729691E-11
   8.460000     -1.0821679E-11
   8.520000     -5.6038685E-12
   8.580000      3.1731349E-12
   8.640000      1.5212763E-11
   8.700000      2.9390247E-11
   8.760000      4.3508062E-11
   8.820000      5.4240740E-11
   8.880000      5.7421408E-11
   8.940000      4.8758497E-11
   9.000000      2.4950311E-11
   9.060000     -1.4982505E-11
   9.120000     -6.8457677E-11
   9.180000     -1.2856514E-10
   9.240000     -1.8412645E-10
   9.300000     -2.2079835E-10
   9.360000     -2.2322012E-10
   9.420000     -1.7795063E-10
   9.480000     -7.6720429E-11
   9.540000      8.0596085E-11
   9.600000      2.8386732E-10
   9.660000      5.1187526E-10
   9.720000      7.3295342E-10
   9.780000      9.0701707E-10
   9.840000      9.8871411E-10
   9.900000      9.3133357E-10
   9.960000      6.9112521E-10
   10.02000      2.3175538E-10
   10.08000     -4.7131765E-10
   10.14000     -1.4267839E-09
   10.20000     -2.6240841E-09
   10.26000     -4.0311812E-09
   10.32000     -5.5941136E-09
   10.38000     -7.2389148E-09
   10.44000     -8.8762091E-09
   10.50000     -1.0408353E-08
   10.56000     -1.1738445E-08
   10.62000     -1.2780015E-08
   10.68000     -1.3466040E-08
   10.74000     -1.3755944E-08
   10.80000     -1.3639694E-08
   10.86000     -1.3138622E-08
   10.92000     -1.2303142E-08
   10.98000     -1.1207868E-08
   11.04000     -9.9447748E-09
   11.10000     -8.6149639E-09
   11.16000     -7.3195712E-09
   11.22000     -6.1503438E-09
   11.28000     -5.1806546E-09
   11.34000     -4.4579838E-09
   11.40000     -3.9990975E-09
   11.46000     -3.7890455E-09
   11.52000     -3.7846317E-09
   11.58000     -3.9221808E-09
   11.64000     -4.1284691E-09
   11.70000     -4.3328536E-09
   11.76000     -4.4782724E-09
   11.82000     -4.5289710E-09
   11.88000     -4.4735957E-09
   11.94000     -4.3234083E-09
   12.00000     -4.1065333E-09
   12.06000     -3.8599981E-09
   12.12000     -3.6215884E-09
   12.18000     -3.4232734E-09
   12.24000     -3.2871783E-09
   12.30000     -3.2242042E-09
   12.36000     -3.2346517E-09
   12.42000     -3.3098750E-09
   12.48000     -3.4341003E-09
   12.54000     -3.5859788E-09
   12.60000     -3.7399746E-09
   12.66000     -3.8680383E-09
   12.72000     -3.9420551E-09
   12.78000     -3.9372297E-09
   12.84000     -3.8360586E-09
   12.90000     -3.6320364E-09
   12.96000     -3.3319978E-09
   13.02000     -2.9561660E-09
   13.08000     -2.5355111E-09
   13.14000     -2.1068105E-09
   13.20000     -1.7065247E-09
   13.26000     -1.3649966E-09
   13.32000     -1.1023672E-09
   13.38000     -9.2700242E-10
   13.44000     -8.3635143E-10
   13.50000     -8.1937845E-10
   13.56000     -8.5935686E-10
   13.62000     -9.3603736E-10
   13.68000     -1.0268945E-09
   13.74000     -1.1079621E-09
   13.80000     -1.1552479E-09
   13.86000     -1.1475519E-09
   13.92000     -1.0707095E-09
   13.98000     -9.2215224E-10
   14.04000     -7.1381318E-10
   14.10000     -4.7132026E-10
   14.16000     -2.2836638E-10
   14.22000     -1.6901982E-11
   14.28000      1.4429247E-10
   14.34000      2.5884891E-10
   14.40000      3.5615574E-10
   14.46000      4.8668419E-10
   14.52000      7.0981993E-10
   14.58000      1.0774738E-09
   14.64000      1.6185109E-09
   14.70000      2.3290665E-09
   14.76000      3.1720011E-09
   14.82000      4.0857153E-09
   14.88000      4.9994311E-09
   14.94000      5.8499889E-09
   15.00000      6.5949726E-09
   15.06000      7.2185382E-09
   15.12000      7.7290334E-09
   15.18000      8.1502582E-09
   15.24000      8.5100895E-09
   15.30000      8.8304946E-09
   15.36000      9.1219121E-09
   15.42000      9.3829513E-09
   15.48000      9.6043680E-09
   15.54000      9.7748787E-09
   15.60000      9.8861399E-09
   15.66000      9.9349302E-09
   15.72000      9.9220250E-09
   15.78000      9.8486952E-09
   15.84000      9.7127568E-09
   15.90000      9.5062092E-09
   15.96000      9.2157979E-09
   16.02000      8.8265750E-09
   16.08000      8.3272109E-09
   16.14000      7.7150437E-09
   16.20000      6.9988784E-09
   16.26000      6.1984036E-09
   16.32000      5.3404516E-09
   16.38000      4.4535593E-09
   16.44000      3.5629035E-09
   16.50000      2.6873894E-09
   16.56000      1.8396371E-09
   16.62000      1.0282613E-09
   16.68000      2.6084171E-10
   16.74000     -4.5423401E-10
   16.80000     -1.1082132E-09
   16.86000     -1.6946308E-09
   16.92000     -2.2129030E-09
   16.98000     -2.6710072E-09
   17.04000     -3.0857052E-09
   17.10000     -3.4798351E-09
   17.16000     -3.8775441E-09
   17.22000     -4.2992694E-09
   17.28000     -4.7583866E-09
   17.34000     -5.2606355E-09
   17.40000     -5.8060565E-09
   17.46000     -6.3919368E-09
   17.52000     -7.0147177E-09
   17.58000     -7.6693514E-09
   17.64000     -8.3459533E-09
   17.70000     -9.0252428E-09
   17.76000     -9.6754018E-09
   17.82000     -1.0252934E-08
   17.88000     -1.0708868E-08
   17.94000     -1.0999485E-08
   18.00000     -1.1098572E-08
   18.06000     -1.1006984E-08
   18.12000     -1.0755535E-08
   18.18000     -1.0399154E-08
   18.24000     -1.0003088E-08
   18.30000     -9.6248822E-09
   18.36000     -9.2976027E-09
   18.42000     -9.0198773E-09
   18.48000     -8.7563814E-09
   18.54000     -8.4491480E-09
   18.60000     -8.0365536E-09
   18.66000     -7.4740836E-09
   18.72000     -6.7501462E-09
   18.78000     -5.8915055E-09
   18.84000     -4.9561502E-09
   18.90000     -4.0155941E-09
   18.96000     -3.1323424E-09
   19.02000     -2.3402418E-09
   19.08000     -1.6348406E-09
   19.14000     -9.7768715E-10
   19.20000     -3.1372049E-10
   19.26000      4.0383388E-10
   19.32000      1.1896122E-09
   19.38000      2.0118398E-09
   19.44000      2.7931359E-09
   19.50000      3.4268588E-09
   19.56000      3.8042720E-09
   19.62000      3.8442804E-09
   19.68000      3.5168117E-09
   19.74000      2.8531169E-09
   19.80000      1.9404371E-09
   19.86000      9.0307278E-10
   19.92000     -1.2450344E-10
   19.98000     -1.0251752E-09
   20.04000     -1.7204764E-09
   20.10000     -2.1809419E-09
   20.16000     -2.4239415E-09
   20.22000     -2.5007152E-09
   20.28000     -2.4769957E-09
   20.34000     -2.4130298E-09
   20.40000     -2.3486713E-09
   20.46000     -2.2974587E-09
   20.52000     -2.2506990E-09
   20.58000     -2.1893263E-09
   20.64000     -2.0987987E-09
   20.70000     -1.9813531E-09
   20.76000     -1.8609859E-09
   20.82000     -1.7792466E-09
   20.88000     -1.7833398E-09
   20.94000     -1.9109365E-09
   21.00000     -2.1773787E-09
   21.06000     -2.5701703E-09
   21.12000     -3.0530218E-09
   21.18000     -3.5782253E-09
   21.24000     -4.1030215E-09
   21.30000     -4.6040847E-09
   21.36000     -5.0847935E-09
   21.42000     -5.5725251E-09
   21.48000     -6.1067742E-09
   21.54000     -6.7222827E-09
   21.60000     -7.4332380E-09
   21.66000     -8.2243172E-09
   21.72000     -9.0519778E-09
   21.78000     -9.8557944E-09
   21.84000     -1.0576119E-08
   21.90000     -1.1172165E-08
   21.96000     -1.1634500E-08
   22.02000     -1.1987910E-08
   22.08000     -1.2283898E-08
   22.14000     -1.2585479E-08
   22.20000     -1.2949394E-08
   22.26000     -1.3411444E-08
   22.32000     -1.3979376E-08
   22.38000     -1.4634962E-08
   22.44000     -1.5343815E-08
   22.50000     -1.6068899E-08
   22.56000     -1.6782701E-08
   22.62000     -1.7473806E-08
   22.68000     -1.8145920E-08
   22.74000     -1.8810258E-08
   22.80000     -1.9474717E-08
   22.86000     -2.0134280E-08
   22.92000     -2.0766555E-08
   22.98000     -2.1334229E-08
   23.04000     -2.1793570E-08
   23.10000     -2.2105931E-08
   23.16000     -2.2248232E-08
   23.22000     -2.2218925E-08
   23.28000     -2.2037780E-08
   23.34000     -2.1739888E-08
   23.40000     -2.1366219E-08
   23.46000     -2.0953845E-08
   23.52000     -2.0528704E-08
   23.58000     -2.0102648E-08
   23.64000     -1.9675010E-08
   23.70000     -1.9237532E-08
   23.76000     -1.8780671E-08
   23.82000     -1.8299110E-08
   23.88000     -1.7794846E-08
   23.94000     -1.7277182E-08
   24.00000     -1.6760055E-08
   24.06000     -1.6258060E-08
   24.12000     -1.5782859E-08
   24.18000     -1.5341433E-08
   24.24000     -1.4936733E-08
   24.30000     -1.4570209E-08
   24.36000     -1.4244829E-08
   24.42000     -1.3966838E-08
   24.48000     -1.3745020E-08
   24.54000     -1.3587258E-08
   24.60000     -1.3495381E-08
   24.66000     -1.3460252E-08
   24.72000     -1.3459196E-08
   24.78000     -1.3457381E-08
   24.84000     -1.3413526E-08
   24.90000     -1.3288936E-08
   24.96000     -1.3057630E-08
   25.02000     -1.2714674E-08
   25.08000     -1.2279993E-08
   25.14000     -1.1795892E-08
   25.20000     -1.1318235E-08
   25.26000     -1.0903158E-08
   25.32000     -1.0592887E-08
   25.38000     -1.0404944E-08
   25.44000     -1.0328438E-08
   25.50000     -1.0329225E-08
   25.56000     -1.0362820E-08
   25.62000     -1.0391362E-08
   25.68000     -1.0399201E-08
   25.74000     -1.0401954E-08
   25.80000     -1.0445844E-08
   25.86000     -1.0597369E-08
   25.92000     -1.0926545E-08
   25.98000     -1.1489038E-08
   26.04000     -1.2312664E-08
   26.10000     -1.3391973E-08
   26.16000     -1.4691732E-08
   26.22000     -1.6157163E-08
   26.28000     -1.7726810E-08
   26.34000     -1.9343700E-08
   26.40000     -2.0961737E-08
   26.46000     -2.2546535E-08
   26.52000     -2.4072044E-08
   26.58000     -2.5515721E-08
   26.64000     -2.6854970E-08
   26.70000     -2.8066594E-08
   26.76000     -2.9129383E-08
   26.82000     -3.0028424E-08
   26.88000     -3.0759093E-08
   26.94000     -3.1328632E-08
   27.00000     -3.1754201E-08
   27.06000     -3.2057599E-08
   27.12000     -3.2258061E-08
   27.18000     -3.2365499E-08
   27.24000     -3.2376683E-08
   27.30000     -3.2276059E-08
   27.36000     -3.2041427E-08
   27.42000     -3.1653013E-08
   27.48000     -3.1102829E-08
   27.54000     -3.0400948E-08
   27.60000     -2.9575958E-08
   27.66000     -2.8668991E-08
   27.72000     -2.7723042E-08
   27.78000     -2.6771144E-08
   27.84000     -2.5827456E-08
   27.90000     -2.4884191E-08
   27.96000     -2.3915129E-08
   28.02000     -2.2884073E-08
   28.08000     -2.1755003E-08
   28.14000     -2.0500481E-08
   28.20000     -1.9105890E-08
   28.26000     -1.7568830E-08
   28.32000     -1.5894807E-08
   28.38000     -1.4091468E-08
   28.44000     -1.2163960E-08
   28.50000     -1.0113485E-08
   28.56000     -7.9400451E-09
   28.62000     -5.6488672E-09
   28.68000     -3.2586827E-09
   28.74000     -8.0889989E-10
   28.80000      1.6375149E-09
   28.86000      3.9978216E-09
   28.92000      6.1804855E-09
   28.98000      8.1013933E-09
   29.04000      9.7010977E-09
   29.10000      1.0957766E-08
   29.16000      1.1891106E-08
   29.22000      1.2554974E-08
   29.28000      1.3019863E-08
   29.34000      1.3349874E-08
   29.40000      1.3580911E-08
   29.46000      1.3706848E-08
   29.52000      1.3678144E-08
   29.58000      1.3413639E-08
   29.64000      1.2822150E-08
   29.70000      1.1827458E-08
   29.76000      1.0389314E-08
   29.82000      8.5144478E-09
   29.88000      6.2548025E-09
   29.94000      3.6941359E-09
   30.00000      9.2749608E-10
   30.06000     -1.9601729E-09
   30.12000     -4.9102935E-09
   30.18000     -7.8977784E-09
   30.24000     -1.0927958E-08
   30.30000     -1.4025174E-08
   30.36000     -1.7217044E-08
   30.42000     -2.0519218E-08
   30.48000     -2.3924933E-08
   30.54000     -2.7402018E-08
   30.60000     -3.0897748E-08
   30.66000     -3.4349533E-08
   30.72000     -3.7697902E-08
   30.78000     -4.0897483E-08
   30.84000     -4.3922700E-08
   30.90000     -4.6766839E-08
   30.96000     -4.9435450E-08
   31.02000     -5.1937253E-08
   31.08000     -5.4276192E-08
   31.14000     -5.6447757E-08
   31.20000     -5.8440506E-08
   31.26000     -6.0241675E-08
   31.32000     -6.1843870E-08
   31.38000     -6.3249750E-08
   31.44000     -6.4472381E-08
   31.50000     -6.5531161E-08
   31.56000     -6.6444763E-08
   31.62000     -6.7224100E-08
   31.68000     -6.7867965E-08
   31.74000     -6.8363136E-08
   31.80000     -6.8688742E-08
   31.86000     -6.8823276E-08
   31.92000     -6.8751639E-08
   31.98000     -6.8469596E-08
   32.04000     -6.7984224E-08
   32.10000     -6.7310445E-08
   32.16000     -6.6465176E-08
   32.22000     -6.5461485E-08
   32.28000     -6.4305326E-08
   32.34000     -6.2996143E-08
   32.40000     -6.1531587E-08
   32.46000     -5.9914754E-08
   32.52000     -5.8161223E-08
   32.58000     -5.6303072E-08
   32.64000     -5.4387645E-08
   32.70000     -5.2470547E-08
   32.76000     -5.0604456E-08
   32.82000     -4.8827154E-08
   32.88000     -4.7152966E-08
   32.94000     -4.5571149E-08
   33.00000     -4.4052360E-08
   33.06000     -4.2561528E-08
   33.12000     -4.1072649E-08
   33.18000     -3.9579970E-08
   33.24000     -3.8100918E-08
   33.30000     -3.6669174E-08
   33.36000     -3.5319975E-08
   33.42000     -3.4072908E-08
   33.48000     -3.2918880E-08
   33.54000     -3.1816619E-08
   33.60000     -3.0701024E-08
   33.66000     -2.9501525E-08
   33.72000     -2.8164907E-08
   33.78000     -2.6675204E-08
   33.84000     -2.5063709E-08
   33.90000     -2.3405029E-08
   33.96000     -2.1799409E-08
   34.02000     -2.0346175E-08
   34.08000     -1.9116452E-08
   34.14000     -1.8134063E-08
   34.20000     -1.7371358E-08
   34.26000     -1.6761943E-08
   34.32000     -1.6226556E-08
   34.38000     -1.5703513E-08
   34.44000     -1.5173198E-08
   34.50000     -1.4667723E-08
   34.56000     -1.4261829E-08
   34.62000     -1.4047454E-08
   34.68000     -1.4100189E-08
   34.74000     -1.4448729E-08
   34.80000     -1.5057672E-08
   34.86000     -1.5829842E-08
   34.92000     -1.6628062E-08
   34.98000     -1.7310255E-08
   35.04000     -1.7767432E-08
   35.10000     -1.7953257E-08
   35.16000     -1.7896218E-08
   35.22000     -1.7690647E-08
   35.28000     -1.7469116E-08
   35.34000     -1.7364313E-08
   35.40000     -1.7471720E-08
   35.46000     -1.7824197E-08
   35.52000     -1.8385995E-08
   35.58000     -1.9067727E-08
   35.64000     -1.9757451E-08
   35.70000     -2.0357897E-08
   35.76000     -2.0818090E-08
   35.82000     -2.1149280E-08
   35.88000     -2.1420076E-08
   35.94000     -2.1732333E-08
   36.00000     -2.2185516E-08
   36.06000     -2.2841151E-08
   36.12000     -2.3699123E-08
   36.18000     -2.4693946E-08
   36.24000     -2.5712698E-08
   36.30000     -2.6629108E-08
   36.36000     -2.7342702E-08
   36.42000     -2.7809975E-08
   36.48000     -2.8056830E-08
   36.54000     -2.8167786E-08
   36.60000     -2.8255304E-08
   36.66000     -2.8419509E-08
   36.72000     -2.8712170E-08
   36.78000     -2.9117549E-08
   36.84000     -2.9557036E-08
   36.90000     -2.9916347E-08
   36.96000     -3.0086031E-08
   37.02000     -3.0001310E-08
   37.08000     -2.9667280E-08
   37.14000     -2.9160461E-08
   37.20000     -2.8605847E-08
   37.26000     -2.8137153E-08
   37.32000     -2.7853847E-08
   37.38000     -2.7789682E-08
   37.44000     -2.7903555E-08
   37.50000     -2.8095767E-08
   37.56000     -2.8244139E-08
   37.62000     -2.8247660E-08
   37.68000     -2.8062834E-08
   37.74000     -2.7720402E-08
   37.80000     -2.7316663E-08
   37.86000     -2.6982050E-08
   37.92000     -2.6837158E-08
   37.98000     -2.6950579E-08
   38.04000     -2.7312524E-08
   38.10000     -2.7833236E-08
   38.16000     -2.8367264E-08
   38.22000     -2.8756178E-08
   38.28000     -2.8876185E-08
   38.34000     -2.8675128E-08
   38.40000     -2.8186784E-08
   38.46000     -2.7517746E-08
   38.52000     -2.6811554E-08
   38.58000     -2.6202384E-08
   38.64000     -2.5774218E-08
   38.70000     -2.5539142E-08
   38.76000     -2.5441523E-08
   38.82000     -2.5385454E-08
   38.88000     -2.5274847E-08
   38.94000     -2.5051536E-08
   39.00000     -2.4718211E-08
   39.06000     -2.4339066E-08
   39.12000     -2.4019089E-08
   39.18000     -2.3870260E-08
   39.24000     -2.3976762E-08
   39.30000     -2.4370799E-08
   39.36000     -2.5026461E-08
   39.42000     -2.5872572E-08
   39.48000     -2.6819304E-08
   39.54000     -2.7788946E-08
   39.60000     -2.8740276E-08
   39.66000     -2.9678185E-08
   39.72000     -3.0645456E-08
   39.78000     -3.1699642E-08
   39.84000     -3.2883474E-08
   39.90000     -3.4199751E-08
   39.96000     -3.5600504E-08
   40.02000     -3.6995470E-08
   40.08000     -3.8277914E-08
   40.14000     -3.9359431E-08
   40.20000     -4.0201545E-08
   40.26000     -4.0832454E-08
   40.32000     -4.1341973E-08
   40.38000     -4.1855230E-08
   40.44000     -4.2493156E-08
   40.50000     -4.3332868E-08
   40.56000     -4.4381579E-08
   40.62000     -4.5573550E-08
   40.68000     -4.6791900E-08
   40.74000     -4.7908493E-08
   40.80000     -4.8828465E-08
   40.86000     -4.9524068E-08
   40.92000     -5.0045813E-08
   40.98000     -5.0506795E-08
   41.04000     -5.1045287E-08
   41.10000     -5.1778372E-08
   41.16000     -5.2762090E-08
   41.22000     -5.3971156E-08
   41.28000     -5.5304223E-08
   41.34000     -5.6612283E-08
   41.40000     -5.7740699E-08
   41.46000     -5.8571739E-08
   41.52000     -5.9055246E-08
   41.58000     -5.9219207E-08
   41.64000     -5.9158001E-08
   41.70000     -5.9002414E-08
   41.76000     -5.8880588E-08
   41.82000     -5.8881305E-08
   41.88000     -5.9030359E-08
   41.94000     -5.9286673E-08
   42.00000     -5.9558612E-08
   42.06000     -5.9734361E-08
   42.12000     -5.9715774E-08
   42.18000     -5.9444389E-08
   42.24000     -5.8911766E-08
   42.30000     -5.8152562E-08
   42.36000     -5.7225044E-08
   42.42000     -5.6187762E-08
   42.48000     -5.5081237E-08
   42.54000     -5.3920367E-08
   42.60000     -5.2698422E-08
   42.66000     -5.1399176E-08
   42.72000     -5.0011511E-08
   42.78000     -4.8540965E-08
   42.84000     -4.7014669E-08
   42.90000     -4.5478824E-08
   42.96000     -4.3990212E-08
   43.02000     -4.2604761E-08
   43.08000     -4.1366697E-08
   43.14000     -4.0301298E-08
   43.20000     -3.9413070E-08
   43.26000     -3.8689354E-08
   43.32000     -3.8107970E-08
   43.38000     -3.7646263E-08
   43.44000     -3.7288704E-08
   43.50000     -3.7031064E-08
   43.56000     -3.6880163E-08
   43.62000     -3.6849933E-08
   43.68000     -3.6955356E-08
   43.74000     -3.7206540E-08
   43.80000     -3.7604810E-08
   43.86000     -3.8141977E-08
   43.92000     -3.8802831E-08
   43.98000     -3.9569748E-08
   44.04000     -4.0427636E-08
   44.10000     -4.1367386E-08
   44.16000     -4.2386599E-08
   44.22000     -4.3487535E-08
   44.28000     -4.4673193E-08
   44.34000     -4.5943196E-08
   44.40000     -4.7291049E-08
   44.46000     -4.8703672E-08
   44.52000     -5.0163219E-08
   44.58000     -5.1650350E-08
   44.64000     -5.3147510E-08
   44.70000     -5.4640786E-08
   44.76000     -5.6119507E-08
   44.82000     -5.7573455E-08
   44.88000     -5.8988988E-08
   44.94000     -6.0346089E-08
   45.00000     -6.1618614E-08
   45.06000     -6.2779186E-08
   45.12000     -6.3807903E-08
   45.18000     -6.4702249E-08
   45.24000     -6.5483995E-08
   45.30000     -6.6199462E-08
   45.36000     -6.6911618E-08
   45.42000     -6.7685875E-08
   45.48000     -6.8574252E-08
   45.54000     -6.9603558E-08
   45.60000     -7.0772344E-08
   45.66000     -7.2058384E-08
   45.72000     -7.3435103E-08
   45.78000     -7.4892270E-08
   45.84000     -7.6454960E-08
   45.90000     -7.8195079E-08
   45.96000     -8.0231793E-08
   46.02000     -8.2720646E-08
   46.08000     -8.5834813E-08
   46.14000     -8.9744880E-08
   46.20000     -9.4604779E-08
   46.26000     -1.0054970E-07
   46.32000     -1.0770823E-07
   46.38000     -1.1622602E-07
   46.44000     -1.2629449E-07
   46.50000     -1.3817676E-07
   46.56000     -1.5222415E-07
   46.62000     -1.6888031E-07
   46.68000     -1.8867409E-07
   46.74000     -2.1220582E-07
   46.80000     -2.4013306E-07
   46.86000     -2.7316284E-07
   46.92000     -3.1205522E-07
   46.98000     -3.5764049E-07
   47.04000     -4.1084874E-07
   47.10000     -4.7274685E-07
   47.16000     -5.4457496E-07
   47.22000     -6.2777536E-07
   47.28000     -7.2400854E-07
   47.34000     -8.3515670E-07
   47.40000     -9.6332087E-07
   47.46000     -1.1108181E-06
   47.52000     -1.2801869E-06
   47.58000     -1.4742056E-06
   47.64000     -1.6959219E-06
   47.70000     -1.9486899E-06
   47.76000     -2.2362105E-06
   47.82000     -2.5625693E-06
   47.88000     -2.9322671E-06
   47.94000     -3.3502436E-06
   48.00000     -3.8218909E-06
   48.06000     -4.3530617E-06
   48.12000     -4.9500773E-06
   48.18000     -5.6197337E-06
   48.24000     -6.3693196E-06
   48.30000     -7.2066318E-06
   48.36000     -8.1399958E-06
   48.42000     -9.1782804E-06
   48.48000     -1.0330888E-05
   48.54000     -1.1607753E-05
   48.60000     -1.3019311E-05
   48.66000     -1.4576479E-05
   48.72000     -1.6290629E-05
   48.78000     -1.8173565E-05
   48.84000     -2.0237498E-05
   48.90000     -2.2495007E-05
   48.96000     -2.4958987E-05
   49.02000     -2.7642600E-05
   49.08000     -3.0559182E-05
   49.14000     -3.3722157E-05
   49.20000     -3.7144928E-05
   49.26000     -4.0840787E-05
   49.32000     -4.4822798E-05
   49.38000     -4.9103677E-05
   49.44000     -5.3695665E-05
   49.50000     -5.8610429E-05
   49.56000     -6.3858934E-05
   49.62000     -6.9451300E-05
   49.68000     -7.5396660E-05
   49.74000     -8.1703023E-05
   49.80000     -8.8377077E-05
   49.86000     -9.5424068E-05
   49.92000     -1.0284760E-04
   49.98000     -1.1064953E-04
   50.04000     -1.1882978E-04
   50.10000     -1.2738629E-04
   50.16000     -1.3631492E-04
   50.22000     -1.4560930E-04
   50.28000     -1.5526084E-04
   50.34000     -1.6525862E-04
   50.40000     -1.7558939E-04
   50.46000     -1.8623740E-04
   50.52000     -1.9718459E-04
   50.58000     -2.0841033E-04
   50.64000     -2.1989172E-04
   50.70000     -2.3160347E-04
   50.76000     -2.4351801E-04
   50.82000     -2.5560579E-04
   50.88000     -2.6783530E-04
   50.94000     -2.8017332E-04
   51.00000     -2.9258520E-04
   51.06000     -3.0503506E-04
   51.12000     -3.1748600E-04
   51.18000     -3.2990047E-04
   51.24000     -3.4224032E-04
   51.30000     -3.5446716E-04
   51.36000     -3.6654281E-04
   51.42000     -3.7842942E-04
   51.48000     -3.9009022E-04
   51.54000     -4.0148964E-04
   51.60000     -4.1259365E-04
   51.66000     -4.2337007E-04
   51.72000     -4.3378893E-04
   51.78000     -4.4382253E-04
   51.84000     -4.5344603E-04
   51.90000     -4.6263769E-04
   51.96000     -4.7137897E-04
   52.02000     -4.7965479E-04
   52.08000     -4.8745365E-04
   52.14000     -4.9476780E-04
   52.20000     -5.0159323E-04
   52.26000     -5.0792994E-04
   52.32000     -5.1378168E-04
   52.38000     -5.1915616E-04
   52.44000     -5.2406488E-04
   52.50000     -5.2852306E-04
   52.56000     -5.3254905E-04
   52.62000     -5.3616427E-04
   52.68000     -5.3939311E-04
   52.74000     -5.4226234E-04
   52.80000     -5.4480118E-04
   52.86000     -5.4704095E-04
   52.92000     -5.4901431E-04
   52.98000     -5.5075495E-04
   53.04000     -5.5229740E-04
   53.10000     -5.5367604E-04
   53.16000     -5.5492524E-04
   53.22000     -5.5607856E-04
   53.28000     -5.5716845E-04
   53.34000     -5.5822585E-04
   53.40000     -5.5927970E-04
   53.46000     -5.6035654E-04
   53.52000     -5.6148035E-04
   53.58000     -5.6267186E-04
   53.64000     -5.6394865E-04
   53.70000     -5.6532491E-04
   53.76000     -5.6681113E-04
   53.82000     -5.6841393E-04
   53.88000     -5.7013606E-04
   53.94000     -5.7197653E-04
   54.00000     -5.7393010E-04
   54.06000     -5.7598791E-04
   54.12000     -5.7813729E-04
   54.18000     -5.8036199E-04
   54.24000     -5.8264268E-04
   54.30000     -5.8495707E-04
   54.36000     -5.8728037E-04
   54.42000     -5.8958540E-04
   54.48000     -5.9184310E-04
   54.54000     -5.9402263E-04
   54.60000     -5.9609191E-04
   54.66000     -5.9801823E-04
   54.72000     -5.9976871E-04
   54.78000     -6.0131069E-04
   54.84000     -6.0261239E-04
   54.90000     -6.0364319E-04
   54.96000     -6.0437369E-04
   55.02000     -6.0477643E-04
   55.08000     -6.0482573E-04
   55.14000     -6.0449867E-04
   55.20000     -6.0377526E-04
   55.26000     -6.0263870E-04
   55.32000     -6.0107594E-04
   55.38000     -5.9907720E-04
   55.44000     -5.9663627E-04
   55.50000     -5.9375050E-04
   55.56000     -5.9042044E-04