  -2.400000      0.0000000E+00
  -2.340000      0.0000000E+00
  -2.280000      0.0000000E+00
  -2.220000      0.0000000E+00
  -2.160000      0.0000000E+00
  -2.100000      0.0000000E+00
  -2.040000      0.0000000E+00
  -1.980000      0.0000000E+00
  -1.920000      0.0000000E+00
  -1.860000      0.0000000E+00
  -1.800000      0.0000000E+00
  -1.740000      7.0390727E-31
  -1.680000      8.4866442E-30
  -1.620000      4.2614411E-29
  -1.560000      7.6978463E-29
  -1.500000     -3.2121211E-28
  -1.440000     -2.8708534E-27
  -1.380000     -1.0875219E-26
  -1.320000     -2.4124032E-26
  -1.260000     -2.0475362E-26
  -1.200000      7.3533860E-26
  -1.140000      3.7937253E-25
  -1.080000      9.2467218E-25
  -1.020000      1.2652279E-24
 -0.9600000      2.3249811E-26
 -0.9000000     -4.9379778E-24
 -0.8400000     -1.4483079E-23
 -0.7800000     -2.3740783E-23
 -0.7200000     -1.7593400E-23
 -0.6600000      2.6770137E-23
 -0.6000000      1.2103832E-22
 -0.5400000      2.2971895E-22
 -0.4800000      2.3888869E-22
 -0.4200000     -2.0358995E-23
 -0.3600000     -6.4244817E-22
 -0.3000000     -1.4245242E-21
 -0.2400000     -1.6979641E-21
 -0.1800000     -4.9006503E-22
 -0.1200000      2.7520796E-21
 -5.9999999E-02  7.0146822E-21
  0.0000000E+00  8.9344893E-21
  5.9999999E-02  3.6682774E-21
  0.1200000     -1.1658281E-20
  0.1800000     -3.2736151E-20
  0.2400000     -4.4594680E-20
  0.3000000     -2.5156417E-20
  0.3600000      4.0640734E-20
  0.4200000      1.3949040E-19
  0.4800000      2.1439215E-19
  0.5400000      1.7486443E-19
  0.6000000     -5.4054479E-20
  0.6600000     -4.5401886E-19
  0.7200000     -8.4976213E-19
  0.7800000     -9.2405814E-19
  0.8400000     -3.5891545E-19
  0.9000000      9.1732231E-19
  0.9600000      2.4959958E-18
   1.020000      3.4567967E-18
   1.080000      2.6973071E-18
   1.140000     -3.9031781E-19
   1.200000     -5.1753345E-18
   1.260000     -9.4727640E-18
   1.320000     -1.0130505E-17
   1.380000     -4.6209651E-18
   1.440000      6.9060515E-18
   1.500000      2.0258550E-17
   1.560000      2.7805077E-17
   1.620000      2.1657225E-17
   1.680000     -1.3555439E-18
   1.740000     -3.5260122E-17
   1.800000     -6.4175491E-17
   1.860000     -6.7462310E-17
   1.920000     -3.0359530E-17
   1.980000      4.3954095E-17
   2.040000      1.2770548E-16
   2.100000      1.7393487E-16
   2.160000      1.3629119E-16
   2.220000     -2.1905490E-18
   2.280000     -2.0474484E-16
   2.340000     -3.7796299E-16
   2.400000     -4.0223662E-16
   2.460000     -1.9273726E-16
   2.520000      2.3194391E-16
   2.580000      7.1202474E-16
   2.640000      9.7762806E-16
   2.700000      7.6247428E-16
   2.760000     -3.0587637E-17
   2.820000     -1.1897175E-15
   2.880000     -2.1781719E-15
   2.940000     -2.3099563E-15
   3.000000     -1.0974842E-15
   3.060000      1.3634357E-15
   3.120000      4.1894220E-15
   3.180000      5.8894053E-15
   3.240000      4.9846457E-15
   3.300000      8.8054279E-16
   3.360000     -5.4282869E-15
   3.420000     -1.1305489E-14
   3.480000     -1.3356650E-14
   3.540000     -9.0810182E-15
   3.600000      1.3958646E-15
   3.660000      1.4490160E-14
   3.720000      2.4021117E-14
   3.780000      2.3833273E-14
   3.840000      1.1239990E-14
   3.900000     -1.0429984E-14
   3.960000     -3.1916771E-14
   4.020000     -4.1485217E-14
   4.080000     -3.0773147E-14
   4.140000     -3.9919599E-16
   4.200000      3.7908363E-14
   4.260000      6.4818437E-14
   4.320000      6.2093173E-14
   4.380000      2.2991842E-14
   4.440000     -4.0952464E-14
   4.500000     -1.0144993E-13
   4.560000     -1.2450295E-13
   4.620000     -8.7293847E-14
   4.680000      6.8333515E-15
   4.740000      1.2378943E-13
   4.800000      2.0935974E-13
   4.860000      2.1276360E-13
   4.920000      1.1354906E-13
   4.980000     -6.1522381E-14
   5.040000     -2.4238462E-13
   5.100000     -3.4243509E-13
   5.160000     -2.9878696E-13
   5.220000     -1.0795129E-13
   5.280000      1.6200748E-13
   5.340000      3.9311187E-13
   5.400000      4.6773712E-13
   5.460000      3.2694903E-13
   5.520000      8.9072621E-15
   5.580000     -3.5513042E-13
   5.640000     -5.9188982E-13
   5.700000     -5.6602103E-13
   5.760000     -2.5337986E-13
   5.820000      2.2999799E-13
   5.880000      6.6452405E-13
   5.940000      8.2116302E-13
   6.000000      5.7513304E-13
   6.060000     -1.4125470E-14
   6.120000     -7.0149160E-13
   6.180000     -1.1462718E-12
   6.240000     -1.0642819E-12
   6.300000     -3.7795388E-13
   6.360000      7.0783093E-13
   6.420000      1.7514097E-12
   6.480000      2.2379366E-12
   6.540000      1.8018052E-12
   6.600000      4.1417228E-13
   6.660000     -1.5531426E-12
   6.720000     -3.4295787E-12
   6.780000     -4.4851631E-12
   6.840000     -4.2146933E-12
   6.900000     -2.5469997E-12
   6.960000      1.1492955E-13
   7.020000      3.0463379E-12
   7.080000      5.4823628E-12
   7.140000      6.9027705E-12
   7.200000      7.1860131E-12
   7.260000      6.5551301E-12
   7.320000      5.3372233E-12
   7.380000      3.6572850E-12
   7.440000      1.2385008E-12
   7.500000     -2.5455987E-12
   7.560000     -8.3246318E-12
   7.620000     -1.6189728E-11
   7.680000     -2.5177575E-11
   7.740000     -3.3044498E-11
   7.800000     -3.6529627E-11
   7.860000     -3.2143857E-11
   7.920000     -1.7316652E-11
   7.980000      8.4360297E-12
   8.040000      4.2720286E-11
   8.100000      8.0165187E-11
   8.160000      1.1312850E-10
   8.220000      1.3306627E-10
   8.280000      1.3221831E-10
   8.340000      1.0518410E-10
   8.400000      5.0044795E-11
   8.460000     -3.1109223E-11
   8.520000     -1.3215326E-10
   8.580000     -2.4316182E-10
   8.640000     -3.5066217E-10
   8.700000     -4.3783366E-10
   8.760000     -4.8482757E-10
   8.820000     -4.6957932E-10
   8.880000     -3.6951248E-10
   8.940000     -1.6432425E-10
   9.000000      1.6035621E-10
   9.060000      6.0909394E-10
   9.120000      1.1735287E-09
   9.180000      1.8309961E-09
   9.240000      2.5455493E-09
   9.300000      3.2714405E-09
   9.360000      3.9584633E-09
   9.420000      4.5580477E-09
   9.480000      5.0288604E-09
   9.540000      5.3409095E-09
   9.600000      5.4777014E-09
   9.660000      5.4366347E-09
   9.720000      5.2282232E-09
   9.780000      4.8748583E-09
   9.840000      4.4095216E-09
   9.900000      3.8743648E-09
   9.960000      3.3186234E-09
   10.02000      2.7952076E-09
   10.08000      2.3555828E-09
   10.14000      2.0432311E-09
   10.20000      1.8867570E-09
   10.26000      1.8942483E-09
   10.32000      2.0505402E-09
   10.38000      2.3184574E-09
   10.44000      2.6440650E-09
   10.50000      2.9648082E-09
   10.56000      3.2185836E-09
   10.62000      3.3516034E-09
   10.68000      3.3234591E-09
   10.74000      3.1088738E-09
   10.80000      2.6968237E-09
   10.86000      2.0885196E-09
   10.92000      1.2958605E-09
   10.98000      3.4133488E-10
   11.04000     -7.4075596E-10
   11.10000     -1.9029445E-09
   11.16000     -3.0848608E-09
   11.22000     -4.2165729E-09
   11.28000     -5.2254214E-09
   11.34000     -6.0453353E-09
   11.40000     -6.6264070E-09
   11.46000     -6.9420421E-09
   11.52000     -6.9915513E-09
   11.58000     -6.7974559E-09
   11.64000     -6.3985084E-09
   11.70000     -5.8408194E-09
   11.76000     -5.1699645E-09
   11.82000     -4.4262931E-09
   11.88000     -3.6441807E-09
   11.94000     -2.8542428E-09
   12.00000     -2.0862951E-09
   12.06000     -1.3706560E-09
   12.12000     -7.3632039E-10
   12.18000     -2.0619284E-10
   12.24000      2.0875278E-10
   12.30000      5.1361559E-10
   12.36000      7.2954270E-10
   12.42000      8.8854735E-10
   12.48000      1.0242694E-09
   12.54000      1.1616096E-09
   12.60000      1.3089436E-09
   12.66000      1.4559340E-09
   12.72000      1.5779925E-09
   12.78000      1.6459452E-09
   12.84000      1.6373934E-09
   12.90000      1.5455121E-09
   12.96000      1.3819167E-09
   13.02000      1.1724792E-09
   13.08000      9.4770758E-10
   13.14000      7.3144985E-10
   13.20000      5.3238769E-10
   13.26000      3.4171849E-10
   13.32000      1.3801769E-10
   13.38000     -1.0255193E-10
   13.44000     -3.9462014E-10
   13.50000     -7.3504886E-10
   13.56000     -1.1006503E-09
   13.62000     -1.4528718E-09
   13.68000     -1.7473698E-09
   13.74000     -1.9445587E-09
   13.80000     -2.0170576E-09
   13.86000     -1.9515507E-09
   13.92000     -1.7452055E-09
   13.98000     -1.3992982E-09
   14.04000     -9.1395147E-10
   14.10000     -2.8732006E-10
   14.16000      4.7962856E-10
   14.22000      1.3744187E-09
   14.28000      2.3643605E-09
   14.34000      3.3923089E-09
   14.40000      4.3799782E-09
   14.46000      5.2390585E-09
   14.52000      5.8872427E-09
   14.58000      6.2641523E-09
   14.64000      6.3419221E-09
   14.70000      6.1270176E-09
   14.76000      5.6530465E-09
   14.82000      4.9675992E-09
   14.88000      4.1182959E-09
   14.94000      3.1433156E-09
   15.00000      2.0697348E-09
   15.06000      9.1969982E-10
   15.12000     -2.7889888E-10
   15.18000     -1.4826294E-09
   15.24000     -2.6288887E-09
   15.30000     -3.6414023E-09
   15.36000     -4.4441246E-09
   15.42000     -4.9791753E-09
   15.48000     -5.2223510E-09
   15.54000     -5.1901803E-09
   15.60000     -4.9353259E-09
   15.66000     -4.5314619E-09
   15.72000     -4.0527506E-09
   15.78000     -3.5552021E-09
   15.84000     -3.0664800E-09
   15.90000     -2.5874221E-09
   15.96000     -2.1038911E-09
   16.02000     -1.6035038E-09
   16.08000     -1.0899058E-09
   16.14000     -5.8841965E-10
   16.20000     -1.4059100E-10
   16.26000      2.1012475E-10
   16.32000      4.3548606E-10
   16.38000      5.3507093E-10
   16.44000      5.3881016E-10
   16.50000      4.9800936E-10
   16.56000      4.6817344E-10
   16.62000      4.9037591E-10
   16.68000      5.7858662E-10
   16.74000      7.1800538E-10
   16.80000      8.7498342E-10
   16.86000      1.0143817E-09
   16.92000      1.1171177E-09
   16.98000      1.1904691E-09
   17.04000      1.2664992E-09
   17.10000      1.3886775E-09
   17.16000      1.5914943E-09
   17.22000      1.8808295E-09
   17.28000      2.2227897E-09
   17.34000      2.5457654E-09
   17.40000      2.7556388E-09
   17.46000      2.7592524E-09
   17.52000      2.4882361E-09
   17.58000      1.9152055E-09
   17.64000      1.0572279E-09
   17.70000     -3.3845839E-11
   17.76000     -1.2898173E-09
   17.82000     -2.6460223E-09
   17.88000     -4.0552539E-09
   17.94000     -5.4911289E-09
   18.00000     -6.9408124E-09
   18.06000     -8.3913889E-09
   18.12000     -9.8166222E-09
   18.18000     -1.1170408E-08
   18.24000     -1.2390070E-08
   18.30000     -1.3408300E-08
   18.36000     -1.4168599E-08
   18.42000     -1.4637569E-08
   18.48000     -1.4808625E-08
   18.54000     -1.4695374E-08
   18.60000     -1.4317370E-08
   18.66000     -1.3684306E-08
   18.72000     -1.2785555E-08
   18.78000     -1.1589980E-08
   18.84000     -1.0056811E-08
   18.90000     -8.1538678E-09
   18.96000     -5.8762346E-09
   19.02000     -3.2580401E-09
   19.08000     -3.7231376E-10
   19.14000      2.6817195E-09
   19.20000      5.7998979E-09
   19.26000      8.8956931E-09
   19.32000      1.1916319E-08
   19.38000      1.4846976E-08
   19.44000      1.7702206E-08
   19.50000      2.0508018E-08
   19.56000      2.3281784E-08
   19.62000      2.6017403E-08
   19.68000      2.8681052E-08
   19.74000      3.1218477E-08
   19.80000      3.3570409E-08
   19.86000      3.5689705E-08
   19.92000      3.7553491E-08
   19.98000      3.9166039E-08
   20.04000      4.0552187E-08
   20.10000      4.1744787E-08
   20.16000      4.2772129E-08
   20.22000      4.3650605E-08
   20.28000      4.4385288E-08
   20.34000      4.4977469E-08
   20.40000      4.5435041E-08
   20.46000      4.5780578E-08
   20.52000      4.6053078E-08
   20.58000      4.6302272E-08
   20.64000      4.6577554E-08
   20.70000      4.6915918E-08
   20.76000      4.7333621E-08
   20.82000      4.7824720E-08
   20.88000      4.8366903E-08
   20.94000      4.8932240E-08
   21.00000      4.9498706E-08
   21.06000      5.0058294E-08
   21.12000      5.0618880E-08
   21.18000      5.1199571E-08
   21.24000      5.1821583E-08
   21.30000      5.2498319E-08
   21.36000      5.3228270E-08
   21.42000      5.3993226E-08
   21.48000      5.4761944E-08
   21.54000      5.5497534E-08
   21.60000      5.6165494E-08
   21.66000      5.6739530E-08
   21.72000      5.7203451E-08
   21.78000      5.7549332E-08
   21.84000      5.7773523E-08
   21.90000      5.7872644E-08
   21.96000      5.7841262E-08
   22.02000      5.7671659E-08
   22.08000      5.7355042E-08
   22.14000      5.6882875E-08
   22.20000      5.6247345E-08
   22.26000      5.5440690E-08
   22.32000      5.4454208E-08
   22.38000      5.3278033E-08
   22.44000      5.1902639E-08
   22.50000      5.0322019E-08
   22.56000      4.8537416E-08
   22.62000      4.6560018E-08
   22.68000      4.4410978E-08
   22.74000      4.2118344E-08
   22.80000      3.9711825E-08
   22.86000      3.7217408E-08
   22.92000      3.4654263E-08
   22.98000      3.2035146E-08
   23.04000      2.9370154E-08
   23.10000      2.6671632E-08
   23.16000      2.3957506E-08
   23.22000      2.1250758E-08
   23.28000      1.8574807E-08
   23.34000      1.5946727E-08
   23.40000      1.3371591E-08
   23.46000      1.0841075E-08
   23.52000      8.3373966E-09
   23.58000      5.8410636E-09
   23.64000      3.3388352E-09
   23.70000      8.2804735E-10
   23.76000     -1.6847913E-09
   23.82000     -4.1902921E-09
   23.88000     -6.6838930E-09
   23.94000     -9.1705523E-09
   24.00000     -1.1663309E-08
   24.06000     -1.4175527E-08
   24.12000     -1.6709851E-08
   24.18000     -1.9248770E-08
   24.24000     -2.1751264E-08
   24.30000     -2.4157620E-08
   24.36000     -2.6400990E-08
   24.42000     -2.8421507E-08
   24.48000     -3.0177741E-08
   24.54000     -3.1651602E-08
   24.60000     -3.2845563E-08
   24.66000     -3.3774402E-08
   24.72000     -3.4455606E-08
   24.78000     -3.4902953E-08
   24.84000     -3.5125975E-08
   24.90000     -3.5135287E-08
   24.96000     -3.4951004E-08
   25.02000     -3.4609936E-08
   25.08000     -3.4167662E-08
   25.14000     -3.3693311E-08
   25.20000     -3.3257791E-08
   25.26000     -3.2918710E-08
   25.32000     -3.2706854E-08
   25.38000     -3.2618903E-08
   25.44000     -3.2619319E-08
   25.50000     -3.2651439E-08
   25.56000     -3.2654704E-08
   25.62000     -3.2582609E-08
   25.68000     -3.2415461E-08
   25.74000     -3.2163499E-08
   25.80000     -3.1859233E-08
   25.86000     -3.1541870E-08
   25.92000     -3.1239782E-08
   25.98000     -3.0957974E-08
   26.04000     -3.0675643E-08
   26.10000     -3.0354975E-08
   26.16000     -2.9957576E-08
   26.22000     -2.9461670E-08
   26.28000     -2.8872803E-08
   26.34000     -2.8223416E-08
   26.40000     -2.7561430E-08
   26.46000     -2.6932522E-08
   26.52000     -2.6363365E-08
   26.58000     -2.5852271E-08
   26.64000     -2.5370399E-08
   26.70000     -2.4872080E-08
   26.76000     -2.4309376E-08
   26.82000     -2.3644914E-08
   26.88000     -2.2858723E-08
   26.94000     -2.1948043E-08
   27.00000     -2.0922378E-08
   27.06000     -1.9797630E-08
   27.12000     -1.8592779E-08
   27.18000     -1.7330290E-08
   27.24000     -1.6038978E-08
   27.30000     -1.4756379E-08
   27.36000     -1.3527779E-08
   27.42000     -1.2400800E-08
   27.48000     -1.1416811E-08
   27.54000     -1.0602343E-08
   27.60000     -9.9641513E-09
   27.66000     -9.4901571E-09
   27.72000     -9.1561176E-09
   27.78000     -8.9352676E-09
   27.84000     -8.8069214E-09
   27.90000     -8.7604697E-09
   27.96000     -8.7933962E-09
   28.02000     -8.9047250E-09
   28.08000     -9.0873744E-09
   28.14000     -9.3233448E-09
   28.20000     -9.5840811E-09
   28.26000     -9.8358566E-09
   28.32000     -1.0047513E-08
   28.38000     -1.0196933E-08
   28.44000     -1.0273400E-08
   28.50000     -1.0275095E-08
   28.56000     -1.0203365E-08
   28.62000     -1.0056760E-08
   28.68000     -9.8278177E-09
   28.74000     -9.5041717E-09
   28.80000     -9.0735837E-09
   28.86000     -8.5309129E-09
   28.92000     -7.8842000E-09
   28.98000     -7.1573725E-09
   29.04000     -6.3881589E-09
   29.10000     -5.6213851E-09
   29.16000     -4.8994764E-09
   29.22000     -4.2532089E-09
   29.28000     -3.6961096E-09
   29.34000     -3.2250114E-09
   29.40000     -2.8271814E-09
   29.46000     -2.4917648E-09
   29.52000     -2.2211148E-09
   29.58000     -2.0370556E-09
   29.64000     -1.9788162E-09
   29.70000     -2.0927544E-09
   29.76000     -2.4176190E-09
   29.82000     -2.9712299E-09
   29.88000     -3.7438892E-09
   29.94000     -4.7008042E-09
   30.00000     -5.7917209E-09
   30.06000     -6.9629045E-09
   30.12000     -8.1660803E-09
   30.18000     -9.3611643E-09
   30.24000     -1.0513293E-08
   30.30000     -1.1587808E-08
   30.36000     -1.2547784E-08
   30.42000     -1.3356926E-08
   30.48000     -1.3987243E-08
   30.54000     -1.4427694E-08
   30.60000     -1.4688663E-08
   30.66000     -1.4798600E-08
   30.72000     -1.4792578E-08
   30.78000     -1.4696463E-08
   30.84000     -1.4512900E-08
   30.90000     -1.4215142E-08
   30.96000     -1.3751992E-08
   31.02000     -1.3062864E-08
   31.08000     -1.2097888E-08
   31.14000     -1.0835986E-08
   31.20000     -9.2945092E-09
   31.26000     -7.5272668E-09
   31.32000     -5.6121241E-09
   31.38000     -3.6331245E-09
   31.44000     -1.6636373E-09
   31.50000      2.4403754E-10
   31.56000      2.0603796E-09
   31.62000      3.7731631E-09
   31.68000      5.3789173E-09
   31.74000      6.8759016E-09
   31.80000      8.2614617E-09
   31.86000      9.5338377E-09
   31.92000      1.0696104E-08
   31.98000      1.1759073E-08
   32.04000      1.2740905E-08
   32.10000      1.3663192E-08
   32.16000      1.4545199E-08
   32.22000      1.5398845E-08
   32.28000      1.6226535E-08
   32.34000      1.7022570E-08
   32.40000      1.7777408E-08
   32.46000      1.8483050E-08
   32.52000      1.9137682E-08
   32.58000      1.9748086E-08
   32.64000      2.0328999E-08
   32.70000      2.0899284E-08
   32.76000      2.1475518E-08
   32.82000      2.2064416E-08
   32.88000      2.2656240E-08
   32.94000      2.3221654E-08
   33.00000      2.3713868E-08
   33.06000      2.4076472E-08
   33.12000      2.4255289E-08
   33.18000      2.4210950E-08
   33.24000      2.3928349E-08
   33.30000      2.3420231E-08
   33.36000      2.2724235E-08
   33.42000      2.1894978E-08
   33.48000      2.0994028E-08
   33.54000      2.0080583E-08
   33.60000      1.9204407E-08
   33.66000      1.8401302E-08
   33.72000      1.7690516E-08
   33.78000      1.7073770E-08
   33.84000      1.6536221E-08
   33.90000      1.6050150E-08
   33.96000      1.5581680E-08
   34.02000      1.5099509E-08
   34.08000      1.4583176E-08
   34.14000      1.4027725E-08
   34.20000      1.3442492E-08
   34.26000      1.2843958E-08
   34.32000      1.2245169E-08
   34.38000      1.1646027E-08
   34.44000      1.1028610E-08
   34.50000      1.0359843E-08
   34.56000      9.6007460E-09
   34.62000      8.7188008E-09
   34.68000      7.6986897E-09
   34.74000      6.5473662E-09
   34.80000      5.2917462E-09
   34.86000      3.9701447E-09
   34.92000      2.6208065E-09
   34.98000      1.2715842E-09
   35.04000     -6.6067589E-11
   35.10000     -1.3975827E-09
   35.16000     -2.7411697E-09
   35.22000     -4.1214183E-09
   35.28000     -5.5632117E-09
   35.34000     -7.0877517E-09
   35.40000     -8.7111562E-09
   35.46000     -1.0444907E-08
   35.52000     -1.2296830E-08
   35.58000     -1.4271452E-08
   35.64000     -1.6369340E-08
   35.70000     -1.8585785E-08
   35.76000     -2.0909670E-08
   35.82000     -2.3323159E-08
   35.88000     -2.5802233E-08
   35.94000     -2.8317508E-08
   36.00000     -3.0834386E-08
   36.06000     -3.3312112E-08
   36.12000     -3.5702278E-08
   36.18000     -3.7948176E-08
   36.24000     -3.9986922E-08
   36.30000     -4.1755587E-08
   36.36000     -4.3200899E-08
   36.42000     -4.4290250E-08
   36.48000     -4.5020510E-08
   36.54000     -4.5421050E-08
   36.60000     -4.5549207E-08
   36.66000     -4.5478874E-08
   36.72000     -4.5285589E-08
   36.78000     -4.5032724E-08
   36.84000     -4.4763212E-08
   36.90000     -4.4499064E-08
   36.96000     -4.4248253E-08
   37.02000     -4.4015902E-08
   37.08000     -4.3815191E-08
   37.14000     -4.3673666E-08
   37.20000     -4.3632227E-08
   37.26000     -4.3736698E-08
   37.32000     -4.4024688E-08
   37.38000     -4.4512188E-08
   37.44000     -4.5184954E-08
   37.50000     -4.5998139E-08
   37.56000     -4.6884754E-08
   37.62000     -4.7770349E-08
   37.68000     -4.8588785E-08
   37.74000     -4.9293551E-08
   37.80000     -4.9860979E-08
   37.86000     -5.0285170E-08
   37.92000     -5.0567873E-08
   37.98000     -5.0708543E-08
   38.04000     -5.0699267E-08
   38.10000     -5.0526449E-08
   38.16000     -5.0177771E-08
   38.22000     -4.9650218E-08
   38.28000     -4.8954572E-08
   38.34000     -4.8113716E-08
   38.40000     -4.7155034E-08
   38.46000     -4.6100162E-08
   38.52000     -4.4956607E-08
   38.58000     -4.3714962E-08
   38.64000     -4.2353122E-08
   38.70000     -4.0845993E-08
   38.76000     -3.9177039E-08
   38.82000     -3.7347380E-08
   38.88000     -3.5379241E-08
   38.94000     -3.3312904E-08
   39.00000     -3.1198638E-08
   39.06000     -2.9087175E-08
   39.12000     -2.7022315E-08
   39.18000     -2.5038247E-08
   39.24000     -2.3161757E-08
   39.30000     -2.1417325E-08
   39.36000     -1.9831885E-08
   39.42000     -1.8436367E-08
   39.48000     -1.7262899E-08
   39.54000     -1.6338779E-08
   39.60000     -1.5679825E-08
   39.66000     -1.5285886E-08
   39.72000     -1.5140044E-08
   39.78000     -1.5211249E-08
   39.84000     -1.5458751E-08
   39.90000     -1.5836495E-08
   39.96000     -1.6296507E-08
   40.02000     -1.6791599E-08
   40.08000     -1.7278371E-08
   40.14000     -1.7721117E-08
   40.20000     -1.8096118E-08
   40.26000     -1.8394497E-08
   40.32000     -1.8621684E-08
   40.38000     -1.8792498E-08
   40.44000     -1.8922860E-08
   40.50000     -1.9020995E-08
   40.56000     -1.9081693E-08
   40.62000     -1.9086141E-08
   40.68000     -1.9007658E-08
   40.74000     -1.8821034E-08
   40.80000     -1.8511717E-08
   40.86000     -1.8081206E-08
   40.92000     -1.7546570E-08
   40.98000     -1.6934633E-08
   41.04000     -1.6273157E-08
   41.10000     -1.5582394E-08
   41.16000     -1.4869736E-08
   41.22000     -1.4128807E-08
   41.28000     -1.3342579E-08
   41.34000     -1.2488917E-08
   41.40000     -1.1546491E-08
   41.46000     -1.0499284E-08
   41.52000     -9.3387271E-09
   41.58000     -8.0634317E-09
   41.64000     -6.6772858E-09
   41.70000     -5.1871454E-09
   41.76000     -3.6013754E-09
   41.82000     -1.9300643E-09
   41.88000     -1.8699463E-10
   41.94000      1.6073591E-09
   42.00000      3.4230661E-09
   42.06000      5.2195412E-09
   42.12000      6.9467943E-09
   42.18000      8.5492529E-09
   42.24000      9.9715507E-09
   42.30000      1.1165176E-08
   42.36000      1.2094779E-08
   42.42000      1.2743088E-08
   42.48000      1.3113693E-08
   42.54000      1.3231256E-08
   42.60000      1.3139013E-08
   42.66000      1.2893804E-08
   42.72000      1.2559207E-08
   42.78000      1.2197761E-08
   42.84000      1.1863512E-08
   42.90000      1.1596197E-08
   42.96000      1.1418209E-08
   43.02000      1.1335024E-08
   43.08000      1.1339098E-08
   43.14000      1.1416297E-08
   43.20000      1.1553071E-08
   43.26000      1.1742033E-08
   43.32000      1.1983889E-08
   43.38000      1.2284790E-08
   43.44000      1.2650007E-08
   43.50000      1.3076481E-08
   43.56000      1.3547573E-08
   43.62000      1.4032491E-08
   43.68000      1.4490857E-08
   43.74000      1.4880542E-08
   43.80000      1.5165467E-08
   43.86000      1.5320341E-08
   43.92000      1.5331041E-08
   43.98000      1.5191604E-08
   44.04000      1.4900312E-08
   44.10000      1.4457346E-08
   44.16000      1.3865187E-08
   44.22000      1.3131174E-08
   44.28000      1.2270395E-08
   44.34000      1.1307122E-08
   44.40000      1.0273738E-08
   44.46000      9.2072856E-09
   44.52000      8.1446023E-09
   44.58000      7.1172668E-09
   44.64000      6.1475292E-09
   44.70000      5.2462190E-09
   44.76000      4.4133923E-09
   44.82000      3.6420236E-09
   44.88000      2.9242218E-09
   44.94000      2.2584468E-09
   45.00000      1.6554592E-09
   45.06000      1.1409063E-09
   45.12000      7.5367340E-10
   45.18000      5.4099092E-10
   45.24000      5.5288463E-10
   45.30000      8.3902879E-10
   45.36000      1.4500319E-09
   45.42000      2.4431266E-09
   45.48000      3.8902352E-09
   45.54000      5.8854113E-09
   45.60000      8.5492964E-09
   45.66000      1.2030140E-08
   45.72000      1.6503050E-08
   45.78000      2.2170431E-08
   45.84000      2.9266333E-08
   45.90000      3.8065838E-08
   45.96000      4.8898503E-08
   46.02000      6.2163494E-08
   46.08000      7.8343930E-08
   46.14000      9.8019328E-08
   46.20000      1.2187679E-07
   46.26000      1.5072290E-07
   46.32000      1.8549807E-07
   46.38000      2.2729436E-07
   46.44000      2.7737605E-07
   46.50000      3.3720204E-07
   46.56000      4.0844995E-07
   46.62000      4.9304322E-07
   46.68000      5.9318313E-07
   46.74000      7.1138868E-07
   46.80000      8.5054427E-07
   46.86000      1.0139538E-06
   46.92000      1.2053985E-06
   46.98000      1.4291954E-06
   47.04000      1.6902567E-06
   47.10000      1.9941501E-06
   47.16000      2.3471657E-06
   47.22000      2.7563894E-06
   47.28000      3.2297864E-06
   47.34000      3.7762941E-06
   47.40000      4.4059238E-06
   47.46000      5.1298684E-06
   47.52000      5.9606132E-06
   47.58000      6.9120479E-06
   47.64000      7.9995752E-06
   47.70000      9.2402179E-06
   47.76000      1.0652715E-05
   47.82000      1.2257625E-05
   47.88000      1.4077425E-05
   47.94000      1.6136622E-05
   48.00000      1.8461878E-05
   48.06000      2.1082129E-05
   48.12000      2.4028697E-05
   48.18000      2.7335422E-05
   48.24000      3.1038726E-05
   48.30000      3.5177698E-05
   48.36000      3.9794111E-05
   48.42000      4.4932447E-05
   48.48000      5.0639883E-05
   48.54000      5.6966266E-05
   48.60000      6.3964093E-05
   48.66000      7.1688446E-05
   48.72000      8.0196893E-05
   48.78000      8.9549387E-05
   48.84000      9.9808094E-05
   48.90000      1.1103719E-04
   48.96000      1.2330254E-04
   49.02000      1.3667144E-04
   49.08000      1.5121221E-04
   49.14000      1.6699384E-04
   49.20000      1.8408554E-04
   49.26000      2.0255636E-04
   49.32000      2.2247454E-04
   49.38000      2.4390699E-04
   49.44000      2.6691877E-04
   49.50000      2.9157219E-04
   49.56000      3.1792640E-04
   49.62000      3.4603654E-04
   49.68000      3.7595304E-04
   49.74000      4.0772092E-04
   49.80000      4.4137912E-04
   49.86000      4.7695966E-04
   49.92000      5.1448698E-04
   49.98000      5.5397721E-04
   50.04000      5.9543748E-04
   50.10000      6.3886523E-04
   50.16000      6.8424788E-04
   50.22000      7.3156192E-04
   50.28000      7.8077283E-04
   50.34000      8.3183439E-04
   50.40000      8.8468875E-04
   50.46000      9.3926588E-04
   50.52000      9.9548383E-04
   50.58000      1.0532485E-03
   50.64000      1.1124545E-03
   50.70000      1.1729840E-03
   50.76000      1.2347089E-03
   50.82000      1.2974903E-03
   50.88000      1.3611797E-03
   50.94000      1.4256201E-03
   51.00000      1.4906458E-03
   51.06000      1.5560853E-03
   51.12000      1.6217609E-03
   51.18000      1.6874907E-03
   51.24000      1.7530903E-03
   51.30000      1.8183739E-03
   51.36000      1.8831559E-03
   51.42000      1.9472529E-03
   51.48000      2.0104849E-03
   51.54000      2.0726770E-03
   51.60000      2.1336621E-03
   51.66000      2.1932805E-03
   51.72000      2.2513838E-03
   51.78000      2.3078346E-03
   51.84000      2.3625090E-03
   51.90000      2.4152973E-03
   51.96000      2.4661052E-03
   52.02000      2.5148557E-03
   52.08000      2.5614887E-03
   52.14000      2.6059623E-03
   52.20000      2.6482537E-03
   52.26000      2.6883583E-03
   52.32000      2.7262904E-03
   52.38000      2.7620834E-03
   52.44000      2.7957885E-03
   52.50000      2.8274748E-03
   52.56000      2.8572283E-03
   52.62000      2.8851505E-03
   52.68000      2.9113574E-03
   52.74000      2.9359788E-03
   52.80000      2.9591543E-03
   52.86000      2.9810341E-03
   52.92000      3.0017754E-03
   52.98000      3.0215418E-03
   53.04000      3.0404998E-03
   53.10000      3.0588172E-03
   53.16000      3.0766621E-03
   53.22000      3.0941982E-03
   53.28000      3.1115853E-03
   53.34000      3.1289742E-03
   53.40000      3.1465082E-03
   53.46000      3.1643184E-03
   53.52000      3.1825232E-03
   53.58000      3.2012262E-03
   53.64000      3.2205153E-03
   53.70000      3.2404612E-03
   53.76000      3.2611156E-03
   53.82000      3.2825114E-03
   53.88000      3.3046629E-03
   53.94000      3.3275634E-03
   54.00000      3.3511878E-03
   54.06000      3.3754904E-03
   54.12000      3.4004070E-03
   54.18000      3.4258540E-03
   54.24000      3.4517318E-03
   54.30000      3.4779238E-03
   54.36000      3.5042991E-03
   54.42000      3.5307149E-03
   54.48000      3.5570154E-03
   54.54000      3.5830366E-03
   54.60000      3.6086058E-03
   54.66000      3.6335459E-03
   54.72000      3.6576756E-03
   54.78000      3.6808134E-03
   54.84000      3.7027795E-03
   54.90000      3.7233972E-03
   54.96000      3.7424951E-03
   55.02000      3.7599099E-03
   55.08000      3.7754872E-03
   55.14000      3.7890845E-03
   55.20000      3.8005717E-03
   55.26000      3.8098330E-03
   55.32000      3.8167688E-03
   55.38000      3.8212952E-03
   55.44000      3.8233472E-03
   55.50000      3.8228764E-03
   55.56000      3.8198540E-03