 -0.750000000       0.00000000    
 -0.689999998       0.00000000    
 -0.629999995       0.00000000    
 -0.569999993       0.00000000    
 -0.509999990       0.00000000    
 -0.449999988       0.00000000    
 -0.389999986       0.00000000    
 -0.330000013       0.00000000    
 -0.270000011       0.00000000    
 -0.209999993       0.00000000    
 -0.150000006       0.00000000    
  -9.00000036E-02   1.54411951E-31
  -2.99999993E-02   3.61036370E-30
   2.99999993E-02   3.48029835E-29
   9.00000036E-02   1.90900403E-28
  0.150000006       6.35558856E-28
  0.209999993       1.02196699E-27
  0.270000011      -1.64591321E-27
  0.330000013      -1.62341951E-26
  0.389999986      -5.41287510E-26
  0.449999988      -9.96490020E-26
  0.509999990      -3.76709740E-26
  0.569999993       4.15013609E-25
  0.629999995       1.57906455E-24
  0.689999998       3.16249170E-24
  0.750000000       3.01952190E-24
  0.810000002      -3.71134522E-24
  0.870000005      -2.24736643E-23
  0.930000007      -5.10198315E-23
  0.990000010      -6.56679751E-23
   1.04999995      -1.29804372E-23
   1.11000001       1.70052776E-22
   1.16999996       4.85002186E-22
   1.23000002       7.61493717E-22
   1.28999996       5.89420662E-22
   1.35000002      -5.55182736E-22
   1.40999997      -2.86357185E-21
   1.47000003      -5.50963599E-21
   1.52999997      -6.18999286E-21
   1.59000003      -1.66985299E-21
   1.64999998       1.00548949E-20
   1.71000004       2.63794925E-20
   1.76999998       3.75613992E-20
   1.83000004       2.83687763E-20
   1.88999999      -1.35642305E-20
   1.95000005      -8.41306466E-20
   2.00999999      -1.51517374E-19
   2.06999993      -1.59372307E-19
   2.13000011      -5.34985620E-20
   2.19000006       1.72160933E-19
   2.25000000       4.34372599E-19
   2.30999994       5.62147602E-19
   2.36999989       3.70083734E-19
   2.43000007      -2.06630066E-19
   2.49000001      -9.82841425E-19
   2.54999995      -1.50616727E-18
   2.60999990      -1.23612361E-18
   2.67000008       9.90319241E-20
   2.73000002       2.13580909E-18
   2.78999996       3.77235305E-18
   2.84999990       3.55620744E-18
   2.91000009       5.48501241E-19
   2.97000003      -4.70857881E-18
   3.02999997      -9.76256012E-18
   3.08999991      -1.09398441E-17
   3.15000010      -5.23160387E-18
   3.21000004       7.33298508E-18
   3.26999998       2.21890455E-17
   3.32999992       3.09973593E-17
   3.39000010       2.51701002E-17
   3.45000005       1.11646542E-18
   3.50999999      -3.53204236E-17
   3.56999993      -6.82450475E-17
   3.63000011      -7.67800228E-17
   3.69000006      -4.50922556E-17
   3.75000000       2.64047797E-17
   3.80999994       1.14428566E-16
   3.86999989       1.76132005E-16
   3.93000007       1.64433633E-16
   3.99000001       5.21129907E-17
   4.05000019      -1.44272912E-16
   4.11000013      -3.53193919E-16
   4.17000008      -4.61317595E-16
   4.23000002      -3.55683216E-16
   4.28999996       1.33732333E-17
   4.34999990       5.72281558E-16
   4.40999985       1.10221719E-15
   4.46999979       1.28771846E-15
   4.53000021       8.45937628E-16
   4.59000015      -2.95475665E-16
   4.65000010      -1.85049297E-15
   4.71000004      -3.15984773E-15
   4.76999998      -3.38595195E-15
   4.82999992      -1.90627136E-15
   4.88999987       1.23255798E-15
   4.94999981       5.04109456E-15
   5.01000023       7.73854298E-15
   5.07000017       7.42743032E-15
   5.13000011       3.11726802E-15
   5.19000006      -4.35998266E-15
   5.25000000      -1.21214997E-14
   5.30999994      -1.60905801E-14
   5.36999989      -1.28469216E-14
   5.42999983      -1.76023706E-15
   5.48999977       1.37200576E-14
   5.55000019       2.66411039E-14
   5.61000013       2.92695081E-14
   5.67000008       1.70970026E-14
   5.73000002      -7.73440692E-15
   5.78999996      -3.56757674E-14
   5.84999990      -5.28637464E-14
   5.90999985      -4.74095521E-14
   5.96999979      -1.62719857E-14
   6.03000021       3.08979323E-14
   6.09000015       7.37854669E-14
   6.15000010       8.96219947E-14
   6.21000004       6.45809564E-14
   6.26999998       2.95555905E-15
   6.32999992      -7.12722253E-14
   6.38999987      -1.22914537E-13
   6.44999981      -1.21676351E-13
   6.51000023      -5.88819561E-14
   6.57000017       4.38632962E-14
   6.63000011       1.40172352E-13
   6.69000006       1.78327879E-13
   6.75000000       1.27138371E-13
   6.80999994      -4.03425826E-15
   6.86999989      -1.62437961E-13
   6.92999983      -2.70755857E-13
   6.98999977      -2.61747086E-13
   7.05000019      -1.13880585E-13
   7.11000013       1.29707307E-13
   7.17000008       3.70972323E-13
   7.23000002       4.95006325E-13
   7.28999996       4.21932698E-13
   7.34999990       1.49476446E-13
   7.40999985      -2.35432035E-13
   7.46999979      -5.85322264E-13
   7.53000021      -7.52065998E-13
   7.59000015      -6.52877817E-13
   7.65000010      -3.11750381E-13
   7.71000004       1.45575636E-13
   7.76999998       5.44568459E-13
   7.82999992       7.40939970E-13
   7.88999987       6.88884876E-13
   7.94999981       4.63288912E-13
   8.01000023       2.20094532E-13
   8.06999969       1.08752037E-13
   8.13000011       1.77274780E-13
   8.18999958       3.20283215E-13
   8.25000000       3.06425268E-13
   8.31000042      -1.12762447E-13
   8.36999989      -1.05133426E-12
   8.43000031      -2.36222348E-12
   8.48999977      -3.60405802E-12
   8.55000019      -4.13975798E-12
   8.60999966      -3.35283299E-12
   8.67000008      -9.13918789E-13
   8.72999954       3.00113818E-12
   8.78999996       7.63410602E-12
   8.85000038       1.17568620E-11
   8.90999985       1.39570681E-11
   8.97000027       1.30192567E-11
   9.02999973       8.29018885E-12
   9.09000015      -7.58420765E-14
   9.14999962      -1.10538766E-11
   9.21000004      -2.28708753E-11
   9.27000046      -3.32671148E-11
   9.32999992      -3.98263332E-11
   9.39000034      -4.03139189E-11
   9.44999981      -3.29944370E-11
   9.51000023      -1.69334737E-11
   9.56999969       7.69698368E-12
   9.63000011       3.93085599E-11
   9.68999958       7.46282341E-11
   9.75000000       1.08575690E-10
   9.81000042       1.34429246E-10
   9.86999989       1.44415355E-10
   9.93000031       1.30787436E-10
   9.98999977       8.73360342E-11
   10.0500002       1.11265294E-11
   10.1099997      -9.58596744E-11
   10.1700001      -2.25551633E-10
   10.2299995      -3.63399366E-10
   10.2900000      -4.88935725E-10
   10.3500004      -5.77254300E-10
   10.4099998      -6.01180994E-10
   10.4700003      -5.33803834E-10
   10.5299997      -3.51021906E-10
   10.5900002      -3.38684705E-11
   10.6499996       4.29502045E-10
   10.7100000       1.04217013E-09
   10.7700005       1.79713611E-09
   10.8299999       2.67639999E-09
   10.8900003       3.65063291E-09
   10.9499998       4.67974637E-09
   11.0100002       5.71465675E-09
   11.0699997       6.70039713E-09
   11.1300001       7.58043495E-09
   11.1899996       8.30172908E-09
   11.2500000       8.81979290E-09
   11.3100004       9.10295839E-09
   11.3699999       9.13513887E-09
   11.4300003       8.91673757E-09
   11.4899998       8.46370973E-09
   11.5500002       7.80517340E-09
   11.6099997       6.98010094E-09
   11.6700001       6.03366646E-09
   11.7299995       5.01361530E-09
   11.7900000       3.96685040E-09
   11.8500004       2.93625457E-09
   11.9099998       1.95778149E-09
   11.9700003       1.05793796E-09
   12.0299997       2.51963922E-10
   12.0900002      -4.56891996E-10
   12.1499996      -1.07666365E-09
   12.2100000      -1.62442226E-09
   12.2700005      -2.12274931E-09
   12.3299999      -2.59552890E-09
   12.3900003      -3.06386649E-09
   12.4499998      -3.54291774E-09
   12.5100002      -4.04015221E-09
   12.5699997      -4.55516380E-09
   12.6300001      -5.08073583E-09
   12.6899996      -5.60459057E-09
   12.7500000      -6.11119466E-09
   12.8100004      -6.58321531E-09
   12.8699999      -7.00253278E-09
   12.9300003      -7.35105621E-09
   12.9899998      -7.61177876E-09
   13.0500002      -7.77038878E-09
   13.1099997      -7.81746401E-09
   13.1700001      -7.75079378E-09
   13.2299995      -7.57704921E-09
   13.2900000      -7.31192351E-09
   13.3500004      -6.97819669E-09
   13.4099998      -6.60179245E-09
   13.4700003      -6.20664453E-09
   13.5299997      -5.80973314E-09
   13.5900002      -5.41776668E-09
   13.6499996      -5.02656938E-09
   13.7100000      -4.62340299E-09
   13.7700005      -4.19150670E-09
   13.8299999      -3.71542286E-09
   13.8900003      -3.18547100E-09
   13.9499998      -2.60008548E-09
   14.0100002      -1.96553684E-09
   14.0699997      -1.29344768E-09
   14.1300001      -5.97194072E-10
   14.1899996       1.11503633E-10
   14.2500000       8.24767421E-10
   14.3100004       1.53911650E-09
   14.3699999       2.25463448E-09
   14.4300003       2.97346814E-09
   14.4899998       3.69844977E-09
   14.5500002       4.43238468E-09
   14.6099997       5.17808596E-09
   14.6700001       5.93881655E-09
   14.7299995       6.71860834E-09
   14.7900000       7.52200435E-09
   14.8500004       8.35309866E-09
   14.9099998       9.21411925E-09
   14.9700003       1.01040580E-08
   15.0299997       1.10178906E-08
   15.0900002       1.19466614E-08
   15.1499996       1.28783757E-08
   15.2100000       1.37991929E-08
   15.2700005       1.46942636E-08
   15.3299999       1.55476272E-08
   15.3900003       1.63409748E-08
   15.4499998       1.70517520E-08
   15.5100002       1.76515371E-08
   15.5699997       1.81060731E-08
   15.6300001       1.83780298E-08
   15.6899996       1.84329600E-08
   15.7500000       1.82477624E-08
   15.8100004       1.78198896E-08
   15.8699999       1.71748109E-08
   15.9300003       1.63692597E-08
   15.9899998       1.54885971E-08
   16.0499992       1.46381005E-08
   16.1100006       1.39296032E-08
   16.1700001       1.34661589E-08
   16.2299995       1.33278535E-08
   16.2900009       1.35614959E-08
   16.3500004       1.41757619E-08
   16.4099998       1.51419943E-08
   16.4699993       1.63996852E-08
   16.5300007       1.78650339E-08
   16.5900002       1.94409218E-08
   16.6499996       2.10270255E-08
   16.7099991       2.25292673E-08
   16.7700005       2.38680595E-08
   16.8299999       2.49848799E-08
   16.8899994       2.58465889E-08
   16.9500008       2.64468731E-08
   17.0100002       2.68044715E-08
   17.0699997       2.69583715E-08
   17.1299992       2.69608691E-08
   17.1900005       2.68698894E-08
   17.2500000       2.67420202E-08
   17.3099995       2.66273190E-08
   17.3700008       2.65660809E-08
   17.4300003       2.65871076E-08
   17.4899998       2.67065925E-08
   17.5499992       2.69269744E-08
   17.6100006       2.72358456E-08
   17.6700001       2.76057257E-08
   17.7299995       2.79959842E-08
   17.7900009       2.83579311E-08
   17.8500004       2.86431341E-08
   17.9099998       2.88138082E-08
   17.9699993       2.88528685E-08
   18.0300007       2.87708559E-08
   18.0900002       2.86072641E-08
   18.1499996       2.84251893E-08
   18.2099991       2.82999295E-08
   18.2700005       2.83040027E-08
   18.3299999       2.84921065E-08
   18.3899994       2.88896835E-08
   18.4500008       2.94878628E-08
   18.5100002       3.02457082E-08
   18.5699997       3.10988391E-08
   18.6299992       3.19716627E-08
   18.6900005       3.27899166E-08
   18.7500000       3.34904477E-08
   18.8099995       3.40264634E-08
   18.8700008       3.43682629E-08
   18.9300003       3.45009106E-08
   18.9899998       3.44210314E-08
   19.0499992       3.41347111E-08
   19.1100006       3.36573756E-08
   19.1700001       3.30152723E-08
   19.2299995       3.22470584E-08
   19.2900009       3.14036228E-08
   19.3500004       3.05448644E-08
   19.4099998       2.97331599E-08
   19.4699993       2.90246760E-08
   19.5300007       2.84605264E-08
   19.5900002       2.80600609E-08
   19.6499996       2.78180767E-08
   19.7099991       2.77064593E-08
   19.7700005       2.76795724E-08
   19.8299999       2.76817236E-08
   19.8899994       2.76547230E-08
   19.9500008       2.75440151E-08
   20.0100002       2.73027165E-08
   20.0699997       2.68938880E-08
   20.1299992       2.62919304E-08
   20.1900005       2.54840185E-08
   20.2500000       2.44719214E-08
   20.3099995       2.32738415E-08
   20.3700008       2.19251763E-08
   20.4300003       2.04769233E-08
   20.4899998       1.89907130E-08
   20.5499992       1.75302830E-08
   20.6100006       1.61502811E-08
   20.6700001       1.48843959E-08
   20.7299995       1.37355745E-08
   20.7900009       1.26712365E-08
   20.8500004       1.16256214E-08
   20.9099998       1.05098508E-08
   20.9699993       9.22820131E-09
   21.0300007       7.69707142E-09
   21.0900002       5.86194204E-09
   21.1499996       3.70776299E-09
   21.2099991       1.25979582E-09
   21.2700005      -1.42543510E-09
   21.3299999      -4.27661595E-09
   21.3899994      -7.22694216E-09
   21.4500008      -1.02308970E-08
   21.5100002      -1.32739579E-08
   21.5699997      -1.63727805E-08
   21.6299992      -1.95661283E-08
   21.6900005      -2.28993713E-08
   21.7500000      -2.64071840E-08
   21.8099995      -3.00993932E-08
   21.8700008      -3.39539667E-08
   21.9300003      -3.79187775E-08
   21.9899998      -4.19210267E-08
   22.0499992      -4.58806788E-08
   22.1100006      -4.97231980E-08
   22.1700001      -5.33873532E-08
   22.2299995      -5.68260319E-08
   22.2900009      -6.00009358E-08
   22.3500004      -6.28744559E-08
   22.4099998      -6.54031638E-08
   22.4699993      -6.75364831E-08
   22.5300007      -6.92220894E-08
   22.5900002      -7.04167249E-08
   22.6499996      -7.10988033E-08
   22.7099991      -7.12786061E-08
   22.7700005      -7.10023755E-08
   22.8299999      -7.03485625E-08
   22.8899994      -6.94170126E-08
   22.9500008      -6.83139731E-08
   23.0100002      -6.71370302E-08
   23.0699997      -6.59637820E-08
   23.1299992      -6.48471001E-08
   23.1900005      -6.38173816E-08
   23.2500000      -6.28902157E-08
   23.3099995      -6.20764453E-08
   23.3700008      -6.13909847E-08
   23.4300003      -6.08576727E-08
   23.4899998      -6.05089454E-08
   23.5499992      -6.03808985E-08
   23.6100006      -6.05055703E-08
   23.6700001      -6.09028419E-08
   23.7299995      -6.15742834E-08
   23.7900009      -6.25004404E-08
   23.8500004      -6.36419841E-08
   23.9099998      -6.49445013E-08
   23.9699993      -6.63456277E-08
   24.0300007      -6.77827785E-08
   24.0900002      -6.91996291E-08
   24.1499996      -7.05497385E-08
   24.2099991      -7.17966060E-08
   24.2700005      -7.29103888E-08
   24.3299999      -7.38628003E-08
   24.3899994      -7.46222000E-08
   24.4500008      -7.51509646E-08
   24.5100002      -7.54063691E-08
   24.5699997      -7.53453264E-08
   24.6299992      -7.49317053E-08
   24.6900005      -7.41444879E-08
   24.7500000      -7.29843777E-08
   24.8099995      -7.14769257E-08
   24.8700008      -6.96711453E-08
   24.9300003      -6.76334153E-08
   24.9899998      -6.54381509E-08
   25.0499992      -6.31571240E-08
   25.1100006      -6.08500486E-08
   25.1700001      -5.85585411E-08
   25.2299995      -5.63046214E-08
   25.2900009      -5.40934693E-08
   25.3500004      -5.19190344E-08
   25.4099998      -4.97701791E-08
   25.4699993      -4.76352575E-08
   25.5300007      -4.55038673E-08
   25.5900002      -4.33659331E-08
   25.6499996      -4.12094430E-08
   25.7099991      -3.90187651E-08
   25.7700005      -3.67750097E-08
   25.8299999      -3.44589708E-08
   25.8899994      -3.20555920E-08
   25.9500008      -2.95582545E-08
   26.0100002      -2.69709179E-08
   26.0699997      -2.43071536E-08
   26.1299992      -2.15863931E-08
   26.1900005      -1.88290059E-08
   26.2500000      -1.60522795E-08
   26.3099995      -1.32689060E-08
   26.3700008      -1.04885052E-08
   26.4300003      -7.72130804E-09
   26.4899998      -4.98238473E-09
   26.5499992      -2.29457831E-09
   26.6100006       3.11050824E-10
   26.6700001       2.79761214E-09
   26.7299995       5.12704945E-09
   26.7900009       7.26595806E-09
   26.8500004       9.19119980E-09
   26.9099998       1.08939862E-08
   26.9699993       1.23813058E-08
   27.0300007       1.36739615E-08
   27.0900002       1.48010866E-08
   27.1499996       1.57918532E-08
   27.2099991       1.66659184E-08
   27.2700005       1.74248527E-08
   27.3299999       1.80468724E-08
   27.3899994       1.84867233E-08
   27.4500008       1.86814191E-08
   27.5100002       1.85611171E-08
   27.5699997       1.80630639E-08
   27.6299992       1.71456378E-08
   27.6900005       1.57992890E-08
   27.7500000       1.40516576E-08
   27.8099995       1.19654384E-08
   27.8700008       9.62920588E-09
   27.9300003       7.14322734E-09
   27.9899998       4.60371119E-09
   28.0499992       2.08949902E-09
   28.1100006      -3.45413531E-10
   28.1700001      -2.67184341E-09
   28.2299995      -4.87854468E-09
   28.2900009      -6.96135460E-09
   28.3500004      -8.91246721E-09
   28.4099998      -1.07137481E-08
   28.4699993      -1.23364403E-08
   28.5300007      -1.37472895E-08
   28.5900002      -1.49188235E-08
   28.6499996      -1.58402287E-08
   28.7099991      -1.65250853E-08
   28.7700005      -1.70133898E-08
   28.8299999      -1.73670038E-08
   28.8899994      -1.76596124E-08
   28.9500008      -1.79636306E-08
   29.0100002      -1.83372677E-08
   29.0699997      -1.88147098E-08
   29.1299992      -1.94015630E-08
   29.1900005      -2.00762180E-08
   29.2500000      -2.07963122E-08
   29.3099995      -2.15082210E-08
   29.3700008      -2.21569252E-08
   29.4300003      -2.26939854E-08
   29.4899998      -2.30822650E-08
   29.5499992      -2.32973392E-08
   29.6100006      -2.33265052E-08
   29.6700001      -2.31666899E-08
   29.7299995      -2.28223822E-08
   29.7900009      -2.23042100E-08
   29.8500004      -2.16283169E-08
   29.9099998      -2.08164757E-08
   29.9699993      -1.98967012E-08
   30.0300007      -1.89040836E-08
   30.0900002      -1.78812058E-08
   30.1499996      -1.68774168E-08
   30.2099991      -1.59463092E-08
   30.2700005      -1.51413690E-08
   30.3299999      -1.45107100E-08
   30.3899994      -1.40925378E-08
   30.4500008      -1.39131027E-08
   30.5100002      -1.39880809E-08
   30.5699997      -1.43268570E-08
   30.6299992      -1.49378696E-08
   30.6900005      -1.58324784E-08
   30.7500000      -1.70253287E-08
   30.8099995      -1.85305566E-08
   30.8700008      -2.03547650E-08
   30.9300003      -2.24890773E-08
   30.9899998      -2.49029295E-08
   31.0499992      -2.75419421E-08
   31.1100006      -3.03310799E-08
   31.1700001      -3.31829071E-08
   31.2299995      -3.60093573E-08
   31.2900009      -3.87343846E-08
   31.3500004      -4.13045278E-08
   31.4099998      -4.36947083E-08
   31.4699993      -4.59080276E-08
   31.5300007      -4.79699551E-08
   31.5900002      -4.99189667E-08
   31.6499996      -5.17965830E-08
   31.7099991      -5.36395461E-08
   31.7700005      -5.54757840E-08
   31.8299999      -5.73242396E-08
   31.8899994      -5.91974327E-08
   31.9500008      -6.11050694E-08
   32.0099983      -6.30571009E-08
   32.0699997      -6.50651018E-08
   32.1300011      -6.71415350E-08
   32.1899986      -6.92969380E-08
   32.2500000      -7.15353750E-08
   32.3100014      -7.38491792E-08
   32.3699989      -7.62145547E-08
   32.4300003      -7.85897001E-08
   32.4900017      -8.09170189E-08
   32.5499992      -8.31298408E-08
   32.6100006      -8.51625330E-08
   32.6699982      -8.69614496E-08
   32.7299995      -8.84934650E-08
   32.7900009      -8.97494488E-08
   32.8499985      -9.07414801E-08
   32.9099998      -9.14948259E-08
   32.9700012      -9.20373964E-08
   33.0299988      -9.23899464E-08
   33.0900002      -9.25600858E-08
   33.1500015      -9.25410930E-08
   33.2099991      -9.23152115E-08
   33.2700005      -9.18592420E-08
   33.3300018      -9.11503690E-08
   33.3899994      -9.01701611E-08
   33.4500008      -8.89065177E-08
   33.5099983      -8.73540245E-08
   33.5699997      -8.55139817E-08
   33.6300011      -8.33949443E-08
   33.6899986      -8.10138090E-08
   33.7500000      -7.83968304E-08
   33.8100014      -7.55792868E-08
   33.8699989      -7.26032852E-08
   33.9300003      -6.95138169E-08
   33.9900017      -6.63540405E-08
   34.0499992      -6.31610462E-08
   34.1100006      -5.99632131E-08
   34.1699982      -5.67794309E-08
   34.2299995      -5.36201128E-08
   34.2900009      -5.04892519E-08
   34.3499985      -4.73872142E-08
   34.4099998      -4.43136372E-08
   34.4700012      -4.12700487E-08
   34.5299988      -3.82615113E-08
   34.5900002      -3.52967149E-08
   34.6500015      -3.23861258E-08
   34.7099991      -2.95386435E-08
   34.7700005      -2.67579772E-08
   34.8300018      -2.40403448E-08
   34.8899994      -2.13748770E-08
   34.9500008      -1.87469986E-08
   35.0099983      -1.61438205E-08
   35.0699997      -1.35596494E-08
   35.1300011      -1.09996154E-08
   35.1899986      -8.48027870E-09
   35.2500000      -6.02721162E-09
   35.3100014      -3.67070663E-09
   35.3699989      -1.44110879E-09
   35.4300003       6.34971409E-10
   35.4900017       2.53705013E-09
   35.5499992       4.25196500E-09
   35.6100006       5.77436721E-09
   35.6699982       7.10691284E-09
   35.7299995       8.26017654E-09
   35.7900009       9.25196897E-09
   35.8499985       1.01056665E-08
   35.9099998       1.08473399E-08
   35.9700012       1.15018413E-08
   36.0299988       1.20884094E-08
   36.0900002       1.26166562E-08
   36.1500015       1.30839322E-08
   36.2099991       1.34750406E-08
   36.2700005       1.37649625E-08
   36.3300018       1.39246508E-08
   36.3899994       1.39290757E-08
   36.4500008       1.37658001E-08
   36.5099983       1.34416345E-08
   36.5699997       1.29849775E-08
   36.6300011       1.24422668E-08
   36.6899986       1.18686119E-08
   36.7500000       1.13145848E-08
   36.8100014       1.08126263E-08
   36.8699989       1.03669722E-08
   36.9300003       9.95029126E-09
   36.9900017       9.50836476E-09
   37.0499992       8.97187125E-09
   37.1100006       8.27242186E-09
   37.1699982       7.35876915E-09
   37.2299995       6.20914253E-09
   37.2900009       4.83661777E-09
   37.3499985       3.28624394E-09
   37.4099998       1.62470781E-09
   37.4700012      -7.47055820E-11
   37.5299988      -1.74781101E-09
   37.5900002      -3.35160832E-09
   37.6500015      -4.86949858E-09
   37.7099991      -6.30848662E-09
   37.7700005      -7.68974218E-09
   37.8300018      -9.03603237E-09
   37.8899994      -1.03604005E-08
   37.9500008      -1.16598278E-08
   38.0099983      -1.29156197E-08
   38.0699997      -1.40997987E-08
   38.1300011      -1.51848560E-08
   38.1899986      -1.61533027E-08
   38.2500000      -1.70039698E-08
   38.3100014      -1.77533614E-08
   38.3699989      -1.84319582E-08
   38.4300003      -1.90768095E-08
   38.4900017      -1.97225241E-08
   38.5499992      -2.03930686E-08
   38.6100006      -2.10964863E-08
   38.6699982      -2.18239098E-08
   38.7299995      -2.25531647E-08
   38.7900009      -2.32558577E-08
   38.8499985      -2.39056437E-08
   38.9099998      -2.44847982E-08
   38.9700012      -2.49866705E-08
   39.0299988      -2.54130637E-08
   39.0900002      -2.57676174E-08
   39.1500015      -2.60479460E-08
   39.2099991      -2.62399951E-08
   39.2700005      -2.63172062E-08
   39.3300018      -2.62451731E-08
   39.3899994      -2.59902375E-08
   39.4500008      -2.55288537E-08
   39.5099983      -2.48542946E-08
   39.5699997      -2.39783091E-08
   39.6300011      -2.29272565E-08
   39.6899986      -2.17343121E-08
   39.7500000      -2.04304822E-08
   39.8100014      -1.90375644E-08
   39.8699989      -1.75652630E-08
   39.9300003      -1.60132654E-08
   39.9900017      -1.43774281E-08
   40.0499992      -1.26578961E-08
   40.1100006      -1.08663718E-08
   40.1699982      -9.03000963E-09
   40.2299995      -7.19048776E-09
   40.2900009      -5.39841993E-09
   40.3499985      -3.70488129E-09
   40.4099998      -2.15289120E-09
   40.4700012      -7.71753716E-10
   40.5299988       4.23846624E-10
   40.5900002       1.42982381E-09
   40.6500015       2.24540764E-09
   40.7099991       2.86546320E-09
   40.7700005       3.27545302E-09
   40.8300018       3.45112428E-09
   40.8899994       3.36333428E-09
   40.9500008       2.98658365E-09
   41.0099983       2.30849073E-09
   41.0699997       1.33698141E-09
   41.1300011       1.02566490E-10
   41.1899986      -1.34544964E-09
   41.2500000      -2.94808156E-09
   41.3100014      -4.64858996E-09
   41.3699989      -6.40372333E-09
   41.4300003      -8.19090129E-09
   41.4900017      -1.00092343E-08
   41.5499992      -1.18742580E-08
   41.6100006      -1.38082710E-08
   41.6699982      -1.58294586E-08
   41.7299995      -1.79432238E-08
   41.7900009      -2.01382431E-08
   41.8499985      -2.23882548E-08
   41.9099998      -2.46588652E-08
   41.9700012      -2.69172364E-08
   42.0299988      -2.91417415E-08
   42.0900002      -3.13286286E-08
   42.1500015      -3.34933361E-08
   42.2099991      -3.56656713E-08
   42.2700005      -3.78798966E-08
   42.3300018      -4.01627425E-08
   42.3899994      -4.25234212E-08
   42.4500008      -4.49494841E-08
   42.5099983      -4.74103992E-08
   42.5699997      -4.98678752E-08
   42.6300011      -5.22891916E-08
   42.6899986      -5.46583792E-08
   42.7500000      -5.69807668E-08
   42.8100014      -5.92789320E-08
   42.8699989      -6.15813249E-08
   42.9300003      -6.39076987E-08
   42.9900017      -6.62563835E-08
   43.0499992      -6.85980339E-08
   43.1100006      -7.08778387E-08
   43.1699982      -7.30258307E-08
   43.2299995      -7.49722915E-08
   43.2900009      -7.66639019E-08
   43.3499985      -7.80760772E-08
   43.4099998      -7.92178838E-08
   43.4700012      -8.01279327E-08
   43.5299988      -8.08621365E-08
   43.5900002      -8.14765571E-08
   43.6500015      -8.20104447E-08
   43.7099991      -8.24745641E-08
   43.7700005      -8.28486435E-08
   43.8300018      -8.30888993E-08
   43.8899994      -8.31431990E-08
   43.9500008      -8.29687323E-08
   44.0099983      -8.25461157E-08
   44.0699997      -8.18848847E-08
   44.1300011      -8.10185625E-08
   44.1899986      -7.99913451E-08
   44.2500000      -7.88416230E-08
   44.3100014      -7.75888651E-08
   44.3699989      -7.62290284E-08
   44.4300003      -7.47402780E-08
   44.4900017      -7.30967145E-08
   44.5499992      -7.12847879E-08
   44.6100006      -6.93162079E-08
   44.6699982      -6.72328753E-08
   44.7299995      -6.51024834E-08
   44.7900009      -6.30067660E-08
   44.8499985      -6.10264195E-08
   44.9099998      -5.92269451E-08
   44.9700012      -5.76486663E-08
   45.0299988      -5.63022695E-08
   45.0900002      -5.51701014E-08
   45.1500015      -5.42122400E-08
   45.2099991      -5.33760520E-08
   45.2700005      -5.26073514E-08
   45.3300018      -5.18608552E-08
   45.3899994      -5.11075768E-08
   45.4500008      -5.03372632E-08
   45.5099983      -4.95554850E-08
   45.5699997      -4.87767018E-08
   45.6300011      -4.80159983E-08
   45.6899986      -4.72825583E-08
   45.7500000      -4.65770000E-08
   45.8100014      -4.58929357E-08
   45.8699989      -4.52216042E-08
   45.9300003      -4.45574457E-08
   45.9900017      -4.39028440E-08
   46.0499992      -4.32710365E-08
   46.1100006      -4.26871658E-08
   46.1699982      -4.21878674E-08
   46.2299995      -4.18195505E-08
   46.2900009      -4.16350545E-08
   46.3499985      -4.16882457E-08
   46.4099998      -4.20264072E-08
   46.4700012      -4.26816698E-08
   46.5299988      -4.36637002E-08
   46.5900002      -4.49564439E-08
   46.6500015      -4.65209489E-08
   46.7099991      -4.83041482E-08
   46.7700005      -5.02511561E-08
   46.8300018      -5.23170769E-08
   46.8899994      -5.44741532E-08
   46.9500008      -5.67123912E-08
   47.0099983      -5.90344982E-08
   47.0699997      -6.14484463E-08
   47.1300011      -6.39614868E-08
   47.1899986      -6.65784441E-08
   47.2500000      -6.93041216E-08
   47.3100014      -7.21483744E-08
   47.3699989      -7.51312257E-08
   47.4300003      -7.82870089E-08
   47.4900017      -8.16674515E-08
   47.5499992      -8.53446664E-08
   47.6100006      -8.94140229E-08
   47.6699982      -9.39961069E-08
   47.7299995      -9.92361961E-08
   47.7900009      -1.05300913E-07
   47.8499985      -1.12373939E-07
   47.9099998      -1.20654533E-07
   47.9700012      -1.30362508E-07
   48.0299988      -1.41750547E-07
   48.0900002      -1.55121185E-07
   48.1500015      -1.70842654E-07
   48.2099991      -1.89357991E-07
   48.2700005      -2.11185650E-07
   48.3300018      -2.36913991E-07
   48.3899994      -2.67196384E-07
   48.4500008      -3.02754046E-07
   48.5099983      -3.44390344E-07
   48.5699997      -3.93017302E-07
   48.6300011      -4.49688969E-07
   48.6899986      -5.15636600E-07
   48.7500000      -5.92298875E-07
   48.8100014      -6.81344659E-07
   48.8699989      -7.84685824E-07
   48.9300003      -9.04482704E-07
   48.9900017      -1.04314574E-06
   49.0499992      -1.20333675E-06
   49.1100006      -1.38797736E-06
   49.1699982      -1.60026912E-06
   49.2299995      -1.84372675E-06
   49.2900009      -2.12222471E-06
   49.3499985      -2.44005264E-06
   49.4099998      -2.80197082E-06
   49.4700012      -3.21325888E-06
   49.5299988      -3.67975417E-06
   49.5900002      -4.20787546E-06
   49.6500015      -4.80463632E-06
   49.7099991      -5.47764876E-06
   49.7700005      -6.23512960E-06
   49.8300018      -7.08590960E-06
   49.8899994      -8.03945295E-06
   49.9500008      -9.10589279E-06
   50.0099983      -1.02960694E-05
   50.0699997      -1.16215660E-05
   50.1300011      -1.30947410E-05
   50.1899986      -1.47287292E-05
   50.2500000      -1.65374313E-05
   50.3100014      -1.85354802E-05
   50.3699989      -2.07381763E-05
   50.4300003      -2.31614504E-05
   50.4900017      -2.58218024E-05
   50.5499992      -2.87362564E-05
   50.6100006      -3.19223218E-05