 -0.750000000       0.00000000    
 -0.689999998       0.00000000    
 -0.629999995       0.00000000    
 -0.569999993       0.00000000    
 -0.509999990       0.00000000    
 -0.449999988       0.00000000    
 -0.389999986       0.00000000    
 -0.330000013       0.00000000    
 -0.270000011       0.00000000    
 -0.209999993       0.00000000    
 -0.150000006       0.00000000    
  -9.00000036E-02   8.07413121E-31
  -2.99999993E-02   9.87967154E-30
   2.99999993E-02   5.07141831E-29
   9.00000036E-02   9.83987521E-29
  0.150000006      -3.41684672E-28
  0.209999993      -3.29596679E-27
  0.270000011      -1.27821097E-26
  0.330000013      -2.88992506E-26
  0.389999986      -2.56302588E-26
  0.449999988       8.58062372E-26
  0.509999990       4.55727952E-25
  0.569999993       1.12515487E-24
  0.629999995       1.55636675E-24
  0.689999998       4.00955534E-26
  0.750000000      -6.12528010E-24
  0.810000002      -1.81123079E-23
  0.870000005      -2.98675581E-23
  0.930000007      -2.21356295E-23
  0.990000010       3.47161118E-23
   1.04999995       1.56857027E-22
   1.11000001       2.99882557E-22
   1.16999996       3.15781374E-22
   1.23000002      -2.12305820E-23
   1.28999996      -8.49840838E-22
   1.35000002      -1.92646124E-21
   1.40999997      -2.38337614E-21
   1.47000003      -8.99879711E-22
   1.52999997       3.38946828E-21
   1.59000003       9.38244312E-21
   1.64999998       1.28605898E-20
   1.71000004       7.36365471E-21
   1.76999998      -1.16191322E-20
   1.83000004      -3.99654995E-20
   1.88999999      -5.99635957E-20
   1.95000005      -4.37200367E-20
   2.00999999       3.03211778E-20
   2.06999993       1.51220623E-19
   2.13000011       2.55366346E-19
   2.19000006       2.35850105E-19
   2.25000000      -2.01265847E-21
   2.30999994      -4.49778114E-19
   2.36999989      -9.19316745E-19
   2.43000007      -1.05562877E-18
   2.49000001      -4.94387292E-19
   2.54999995       8.59545346E-19
   2.60999990       2.56950898E-18
   2.67000008       3.63500632E-18
   2.73000002       2.86363455E-18
   2.78999996      -3.79636946E-19
   2.84999990      -5.37096230E-18
   2.91000009      -9.72700459E-18
   2.97000003      -1.01082248E-17
   3.02999997      -3.98891679E-18
   3.08999991       8.16045686E-18
   3.15000010       2.15617564E-17
   3.21000004       2.80323966E-17
   3.26999998       1.96264747E-17
   3.32999992      -6.02710347E-18
   3.39000010      -4.13454946E-17
   3.45000005      -6.86668699E-17
   3.50999999      -6.64955936E-17
   3.56999993      -2.11858441E-17
   3.63000011       6.06978384E-17
   3.69000006       1.46697120E-16
   3.75000000       1.86051488E-16
   3.80999994       1.32063276E-16
   3.86999989      -2.75449523E-17
   3.93000007      -2.46984140E-16
   3.99000001      -4.22857350E-16
   4.05000019      -4.29614661E-16
   4.11000013      -1.84872471E-16
   4.17000008       2.80900345E-16
   4.23000002       7.90338120E-16
   4.28999996       1.05791938E-15
   4.34999990       8.11911838E-16
   4.40999985      -3.56660130E-17
   4.46999979      -1.25174868E-15
   4.53000021      -2.27562220E-15
   4.59000015      -2.40640260E-15
   4.65000010      -1.15866579E-15
   4.71000004       1.35341402E-15
   4.76999998       4.22178754E-15
   4.82999992       5.93808805E-15
   4.88999987       5.02305996E-15
   4.94999981       8.97695576E-16
   5.01000023      -5.42194853E-15
   5.07000017      -1.12852758E-14
   5.13000011      -1.32981708E-14
   5.19000006      -8.97257427E-15
   5.25000000       1.54839179E-15
   5.30999994       1.46626977E-14
   5.36999989       2.41671815E-14
   5.42999983       2.38744283E-14
   5.48999977       1.10641544E-14
   5.55000019      -1.09384302E-14
   5.61000013      -3.28002328E-14
   5.67000008      -4.26090675E-14
   5.73000002      -3.17578571E-14
   5.78999996      -6.70507999E-16
   5.84999990       3.89053820E-14
   5.90999985       6.72881821E-14
   5.96999979       6.55943263E-14
   6.03000021       2.63797857E-14
   6.09000015      -3.92117708E-14
   6.15000010      -1.02641406E-13
   6.21000004      -1.28957717E-13
   6.26999998      -9.39901843E-14
   6.32999992       7.54039715E-17
   6.38999987       1.19508936E-13
   6.44999981       2.09377573E-13
   6.51000023       2.17354794E-13
   6.57000017       1.21308982E-13
   6.63000011      -5.30286434E-14
   6.69000006      -2.35540374E-13
   6.75000000      -3.38663559E-13
   6.80999994      -2.98311451E-13
   6.86999989      -1.10282043E-13
   6.92999983       1.57299710E-13
   6.98999977       3.85995191E-13
   7.05000019       4.58102360E-13
   7.11000013       3.15589839E-13
   7.17000008      -1.66209877E-15
   7.23000002      -3.60883768E-13
   7.28999996      -5.88858064E-13
   7.34999990      -5.52629828E-13
   7.40999985      -2.32217457E-13
   7.46999979       2.52328188E-13
   7.53000021       6.79903020E-13
   7.59000015       8.23837797E-13
   7.65000010       5.64923650E-13
   7.71000004      -3.13414388E-14
   7.76999998      -7.16760418E-13
   7.82999992      -1.15274066E-12
   7.88999987      -1.06172287E-12
   7.94999981      -3.73699037E-13
   8.01000023       7.02771771E-13
   8.06999969       1.72951573E-12
   8.13000011       2.20179777E-12
   8.18999958       1.76598753E-12
   8.25000000       4.00181461E-13
   8.31000042      -1.52727397E-12
   8.36999989      -3.36019537E-12
   8.43000031      -4.38840284E-12
   8.48999977      -4.12257251E-12
   8.55000019      -2.49487648E-12
   8.60999966       1.04070425E-13
   8.67000008       2.97303892E-12
   8.72999954       5.37120522E-12
   8.78999996       6.79127761E-12
   8.85000038       7.10708185E-12
   8.90999985       6.52194835E-12
   8.97000027       5.33891768E-12
   9.02999973       3.66821287E-12
   9.09000015       1.23674703E-12
   9.14999962      -2.56058412E-12
   9.21000004      -8.32585390E-12
   9.27000046      -1.61333343E-11
   9.32999992      -2.50270742E-11
   9.39000034      -3.27973516E-11
   9.44999981      -3.62322984E-11
   9.51000023      -3.18856365E-11
   9.56999969      -1.72020505E-11
   9.63000011       8.32627457E-12
   9.68999958       4.23636334E-11
   9.75000000       7.96125388E-11
   9.81000042       1.12493785E-10
   9.86999989       1.32494515E-10
   9.93000031       1.31844882E-10
   9.98999977       1.05100019E-10
   10.0500002       5.02786805E-11
   10.1099997      -3.05896593E-11
   10.1700001      -1.31424996E-10
   10.2299995      -2.42324272E-10
   10.2900000      -3.49817064E-10
   10.3500004      -4.37072351E-10
   10.4099998      -4.84226492E-10
   10.4700003      -4.69202954E-10
   10.5299997      -3.69419828E-10
   10.5900002      -1.64575700E-10
   10.6499996       1.59697547E-10
   10.7100000       6.07971229E-10
   10.7700005       1.17191368E-09
   10.8299999       1.82892279E-09
   10.8900003       2.54314791E-09
   10.9499998       3.26896110E-09
   11.0100002       3.95626909E-09
   11.0699997       4.55657734E-09
   11.1300001       5.02856201E-09
   11.1899996       5.34216094E-09
   11.2500000       5.48074519E-09
   11.3100004       5.44153433E-09
   11.3699999       5.23485699E-09
   11.4300003       4.88293583E-09
   11.4899998       4.41860593E-09
   11.5500002       3.88388166E-09
   11.6099997       3.32785532E-09
   11.6700001       2.80327961E-09
   11.7299995       2.36146835E-09
   11.7900000       2.04580530E-09
   11.8500004       1.88491689E-09
   11.9099998       1.88708937E-09
   11.9700003       2.03755768E-09
   12.0299997       2.29971886E-09
   12.0900002       2.62029287E-09
   12.1499996       2.93733549E-09
   12.2100000       3.18917937E-09
   12.2700005       3.32220629E-09
   12.3299999       3.29589289E-09
   12.3900003       3.08462544E-09
   12.4499998       2.67694134E-09
   12.5100002       2.07364614E-09
   12.5699997       1.28636612E-09
   12.6300001       3.37475131E-10
   12.6899996      -7.38734851E-10
   12.7500000      -1.89481253E-09
   12.8100004      -3.07053005E-09
   12.8699999      -4.19630153E-09
   12.9300003      -5.20001286E-09
   12.9899998      -6.01624794E-09
   13.0500002      -6.59571064E-09
   13.1099997      -6.91221524E-09
   13.1700001      -6.96517377E-09
   13.2299995      -6.77688616E-09
   13.2900000      -6.38565867E-09
   13.3500004      -5.83709658E-09
   13.4099998      -5.17637666E-09
   13.4700003      -4.44365211E-09
   13.5299997      -3.67326858E-09
   13.5900002      -2.89582025E-09
   13.6499996      -2.14088636E-09
   13.7100000      -1.43816481E-09
   13.7700005      -8.15626289E-10
   13.8299999      -2.94931912E-10
   13.8900003       1.14066048E-10
   13.9499998       4.17096607E-10
   14.0100002       6.35215214E-10
   14.0699997       7.99657174E-10
   14.1300001       9.42917744E-10
   14.1899996       1.08887488E-09
   14.2500000       1.24545330E-09
   14.3100004       1.40263512E-09
   14.3699999       1.53675683E-09
   14.4300003       1.61969471E-09
   14.4899998       1.62963154E-09
   14.5500002       1.55940927E-09
   14.6099997       1.41930501E-09
   14.6700001       1.23316246E-09
   14.7299995       1.02935127E-09
   14.7900000       8.30064351E-10
   14.8500004       6.43158193E-10
   14.9099998       4.59807747E-10
   14.9700003       2.59022914E-10
   15.0299997       1.74014431E-11
   15.0900002      -2.79567119E-10
   15.1499996      -6.28949837E-10
   15.2100000      -1.00779030E-09
   15.2700005      -1.37734923E-09
   15.3299999      -1.69233194E-09
   15.3900003      -1.91137595E-09
   15.4499998      -2.00478523E-09
   15.5100002      -1.95691685E-09
   15.5699997      -1.76315806E-09
   15.6300001      -1.42393208E-09
   15.6899996      -9.39520350E-10
   15.7500000      -3.09040599E-10
   15.8100004       4.65153027E-10
   15.8699999       1.36917844E-09
   15.9300003       2.36922237E-09
   15.9899998       3.40745276E-09
   16.0499992       4.40533832E-09
   16.1100006       5.27467092E-09
   16.1700001       5.93343064E-09
   16.2299995       6.32151353E-09
   16.2900009       6.41110898E-09
   16.3500004       6.20835916E-09
   16.4099998       5.74611425E-09
   16.4699993       5.07087350E-09
   16.5300007       4.22907398E-09
   16.5900002       3.25792637E-09
   16.6499996       2.18399365E-09
   16.7099991       1.02941622E-09
   16.7700005      -1.77565254E-10
   16.8299999      -1.39308287E-09
   16.8899994      -2.55422150E-09
   16.9500008      -3.58451824E-09
   17.0100002      -4.40760939E-09
   17.0699997      -4.96479480E-09
   17.1299992      -5.23030508E-09
   17.1900005      -5.21846077E-09
   17.2500000      -4.97961716E-09
   17.3099995      -4.58584370E-09
   17.3700008      -4.11113366E-09
   17.4300003      -3.61303254E-09
   17.4899998      -3.12206394E-09
   17.5499992      -2.64229283E-09
   17.6100006      -2.16202500E-09
   17.6700001      -1.66967040E-09
   17.7299995      -1.16782317E-09
   17.7900009      -6.79467371E-10
   17.8500004      -2.43569082E-10
   17.9099998       9.81798531E-11
   17.9699993       3.17894849E-10
   18.0300007       4.14221296E-10
   18.0900002       4.15600304E-10
   18.1499996       3.72252645E-10
   18.2099991       3.39722500E-10
   18.2700005       3.60386249E-10
   18.3299999       4.50286863E-10
   18.3899994       5.96584893E-10
   18.4500008       7.66618435E-10
   18.5100002       9.24790300E-10
   18.5699997       1.05020992E-09
   18.6299992       1.14756948E-09
   18.6900005       1.24635313E-09
   18.7500000       1.38812783E-09
   18.8099995       1.60651370E-09
   18.8700008       1.90751748E-09
   18.9300003       2.25804975E-09
   18.9899998       2.58753285E-09
   19.0499992       2.80268475E-09
   19.1100006       2.81070611E-09
   19.1700001       2.54302179E-09
   19.2299995       1.97161198E-09
   19.2900009       1.11279574E-09
   19.3500004       1.79912370E-11
   19.4099998      -1.24433397E-09
   19.4699993      -2.60837307E-09
   19.5300007      -4.02508160E-09
   19.5900002      -5.46608492E-09
   19.6499996      -6.91713531E-09
   19.7099991      -8.36511127E-09
   19.7700005      -9.78499681E-09
   19.8299999      -1.11329728E-08
   19.8899994      -1.23489121E-08
   19.9500008      -1.33673383E-08
   20.0100002      -1.41321896E-08
   20.0699997      -1.46089896E-08
   20.1299992      -1.47890633E-08
   20.1900005      -1.46838142E-08
   20.2500000      -1.43113370E-08
   20.3099995      -1.36810909E-08
   20.3700008      -1.27833442E-08
   20.4300003      -1.15884564E-08
   20.4899998      -1.00570636E-08
   20.5499992      -8.15779533E-09
   20.6100006      -5.88583138E-09
   20.6700001      -3.27489813E-09
   20.7299995      -3.97490096E-10
   20.7900009       2.64758282E-09
   20.8500004       5.75644910E-09
   20.9099998       8.84294504E-09
   20.9699993       1.18549384E-08
   21.0300007       1.47785890E-08
   21.0900002       1.76294428E-08
   21.1499996       2.04341362E-08
   21.2099991       2.32099069E-08
   21.2700005       2.59497472E-08
   21.3299999       2.86184818E-08
   21.3899994       3.11606883E-08
   21.4500008       3.35166526E-08
   21.5100002       3.56396832E-08
   21.5699997       3.75079239E-08
   21.6299992       3.91265971E-08
   21.6900005       4.05207281E-08
   21.7500000       4.17223944E-08
   21.8099995       4.27584368E-08
   21.8700008       4.36438512E-08
   21.9300003       4.43831887E-08
   21.9899998       4.49784743E-08
   22.0499992       4.54393856E-08
   22.1100006       4.57905429E-08
   22.1700001       4.60723371E-08
   22.2299995       4.63345557E-08
   22.2900009       4.66252779E-08
   22.3500004       4.69793768E-08
   22.4099998       4.74110493E-08
   22.4699993       4.79130797E-08
   22.5300007       4.84628906E-08
   22.5900002       4.90329555E-08
   22.6499996       4.96016810E-08
   22.7099991       5.01608639E-08
   22.7700005       5.07174285E-08
   22.8299999       5.12891525E-08
   22.8899994       5.18963006E-08
   22.9500008       5.25524015E-08
   23.0100002       5.32575015E-08
   23.0699997       5.39960503E-08
   23.1299992       5.47398784E-08
   23.1900005       5.54546737E-08
   23.2500000       5.61074422E-08
   23.3099995       5.66721461E-08
   23.3700008       5.71319205E-08
   23.4300003       5.74777808E-08
   23.4899998       5.77050230E-08
   23.5499992       5.78094479E-08
   23.6100006       5.77849946E-08
   23.6700001       5.76234065E-08
   23.7299995       5.73154502E-08
   23.7900009       5.68523078E-08
   23.8500004       5.62261633E-08
   23.9099998       5.54295205E-08
   23.9699993       5.44540057E-08
   24.0300007       5.32898952E-08
   24.0900002       5.19274010E-08
   24.1499996       5.03598621E-08
   24.2099991       4.85877294E-08
   24.2700005       4.66215866E-08
   24.3299999       4.44824053E-08
   24.3899994       4.21985042E-08
   24.4500008       3.98000637E-08
   24.5100002       3.73135229E-08
   24.5699997       3.47582088E-08
   24.6299992       3.21467013E-08
   24.6900005       2.94885822E-08
   24.7500000       2.67954139E-08
   24.8099995       2.40841285E-08
   24.8700008       2.13766427E-08
   24.9300003       1.86955269E-08
   24.9899998       1.60575713E-08
   25.0499992       1.34684983E-08
   25.1100006       1.09216227E-08
   25.1700001       8.40145287E-09
   25.2299995       5.89069682E-09
   25.2900009       3.37740924E-09
   25.3500004       8.58796201E-10
   25.4099998      -1.66013525E-09
   25.4699993      -4.17222923E-09
   25.5300007      -6.67496103E-09
   25.5900002      -9.17434573E-09
   25.6499996      -1.16831886E-08
   25.7099991      -1.42135983E-08
   25.7700005      -1.67665828E-08
   25.8299999      -1.93232825E-08
   25.8899994      -2.18420642E-08
   25.9500008      -2.42633664E-08
   26.0100002      -2.65210218E-08
   26.0699997      -2.85559665E-08
   26.1299992      -3.03273815E-08
   26.1900005      -3.18173967E-08
   26.2500000      -3.30283356E-08
   26.3099995      -3.39745014E-08
   26.3700008      -3.46727447E-08
   26.4300003      -3.51361606E-08
   26.4899998      -3.53735885E-08
   26.5499992      -3.53949332E-08
   26.6100006      -3.52195499E-08
   26.6700001      -3.48834490E-08
   26.7299995      -3.44414737E-08
   26.7900009      -3.39622765E-08
   26.8500004      -3.35167556E-08
   26.9099998      -3.31630332E-08
   26.9699993      -3.29327925E-08
   27.0300007      -3.28237135E-08
   27.0900002      -3.28009762E-08
   27.1499996      -3.28082592E-08
   27.2099991      -3.27850458E-08
   27.2700005      -3.26848912E-08
   27.3299999      -3.24884581E-08
   27.3899994      -3.22066427E-08
   27.4500008      -3.18726663E-08
   27.5100002      -3.15260458E-08
   27.5699997      -3.11948227E-08
   27.6299992      -3.08831467E-08
   27.6900005      -3.05694314E-08
   27.7500000      -3.02157659E-08
   27.8099995      -2.97847720E-08
   27.8700008      -2.92565634E-08
   27.9300003      -2.86387483E-08
   27.9899998      -2.79651502E-08
   28.0499992      -2.72839298E-08
   28.1100006      -2.66400839E-08
   28.1700001      -2.60594177E-08
   28.2299995      -2.55400554E-08
   28.2900009      -2.50540264E-08
   28.3500004      -2.45572505E-08
   28.4099998      -2.40032101E-08
   28.4699993      -2.33548914E-08
   28.5300007      -2.25912800E-08
   28.5900002      -2.17076206E-08
   28.6499996      -2.07114166E-08
   28.7099991      -1.96174756E-08
   28.7700005      -1.84448457E-08
   28.8299999      -1.72167418E-08
   28.8899994      -1.59624882E-08
   28.9500008      -1.47191122E-08
   29.0100002      -1.35302489E-08
   29.0699997      -1.24412978E-08
   29.1299992      -1.14917285E-08
   29.1900005      -1.07071649E-08
   29.2500000      -1.00944773E-08
   29.3099995      -9.64220614E-09
   29.3700008      -9.32653155E-09
   29.4300003      -9.12054343E-09
   29.4899998      -9.00301700E-09
   29.5499992      -8.96297347E-09
   29.6100006      -8.99823771E-09
   29.6700001      -9.10896603E-09
   29.7299995      -9.28959398E-09
   29.7900009      -9.52331636E-09
   29.8500004      -9.78193260E-09
   29.9099998      -1.00311590E-08
   29.9699993      -1.02388116E-08
   30.0300007      -1.03819131E-08
   30.0900002      -1.04495070E-08
   30.1499996      -1.04402051E-08
   30.2099991      -1.03561080E-08
   30.2700005      -1.01963789E-08
   30.3299999      -9.95371607E-09
   30.3899994      -9.61542668E-09
   30.4500008      -9.16872533E-09
   30.5100002      -8.60799876E-09
   30.5699997      -7.94112687E-09
   30.6299992      -7.19221926E-09
   30.6900005      -6.39942455E-09
   30.7500000      -5.60805979E-09
   30.8099995      -4.86098362E-09
   30.8700008      -4.18927559E-09
   30.9300003      -3.60662256E-09
   30.9899998      -3.10989634E-09
   31.0499992      -2.68632472E-09
   31.1100006      -2.32499042E-09
   31.1700001      -2.02820627E-09
   31.2299995      -1.81779369E-09
   31.2900009      -1.73299342E-09
   31.3500004      -1.82015214E-09
   31.4099998      -2.11798512E-09
   31.4699993      -2.64432654E-09
   31.5300007      -3.38968853E-09
   31.5900002      -4.31983249E-09
   31.6499996      -5.38544453E-09
   31.7099991      -6.53397114E-09
   31.7700005      -7.71824737E-09
   31.8299999      -8.89884610E-09
   31.8899994      -1.00408393E-08
   31.9500008      -1.11087646E-08
   32.0099983      -1.20644170E-08
   32.0699997      -1.28701831E-08
   32.1300011      -1.34971412E-08
   32.1899986      -1.39339127E-08
   32.2500000      -1.41910990E-08
   32.3100014      -1.42976697E-08
   32.3699989      -1.42892720E-08
   32.4300003      -1.41923060E-08
   32.4900017      -1.40100020E-08
   32.5499992      -1.37164404E-08
   32.6100006      -1.32615545E-08
   32.6699982      -1.25859856E-08
   32.7299995      -1.16407568E-08
   32.7900009      -1.04048752E-08
   32.8499985      -8.89476137E-09
   32.9099998      -7.16248794E-09
   32.9700012      -5.28396127E-09
   33.0299988      -3.34168537E-09
   33.0900002      -1.40828760E-09
   33.1500015       4.63970251E-10
   33.2099991       2.24534991E-09
   33.2700005       3.92364718E-09
   33.3300018       5.49586110E-09
   33.3899994       6.96096025E-09
   33.4500008       8.31679436E-09
   33.5099983       9.56157109E-09
   33.5699997       1.06978408E-08
   33.6300011       1.17358114E-08
   33.6899986       1.26934330E-08
   33.7500000       1.35926523E-08
   33.8100014       1.44533496E-08
   33.8699989       1.52877107E-08
   33.9300003       1.60975731E-08
   33.9900017       1.68758678E-08
   34.0499992       1.76114625E-08
   34.1100006       1.82953741E-08
   34.1699982       1.89259612E-08
   34.2299995       1.95112175E-08
   34.2900009       2.00674357E-08
   34.3499985       2.06145270E-08
   34.4099998       2.11691802E-08
   34.4700012       2.17375327E-08
   34.5299988       2.23093579E-08
   34.5900002       2.28556321E-08
   34.6500015       2.33308857E-08
   34.7099991       2.36805260E-08
   34.7700005       2.38518272E-08
   34.8300018       2.38058320E-08
   34.8899994       2.35267965E-08
   34.9500008       2.30263826E-08
   35.0099983       2.23414833E-08
   35.0699997       2.15266898E-08
   35.1300011       2.06439505E-08
   35.1899986       1.97524255E-08
   35.2500000       1.89007139E-08
   35.3100014       1.81222681E-08
   35.3699989       1.74336048E-08
   35.4300003       1.68345835E-08
   35.4900017       1.63103699E-08
   35.5499992       1.58352691E-08
   35.6100006       1.53785749E-08
   35.6699982       1.49119117E-08
   35.7299995       1.44162788E-08
   35.7900009       1.38863001E-08
   35.8499985       1.33295144E-08
   35.9099998       1.27602506E-08
   35.9700012       1.21899850E-08
   36.0299988       1.16179768E-08
   36.0900002       1.10263176E-08
   36.1500015       1.03820161E-08
   36.2099991       9.64580860E-09
   36.2700005       8.78453754E-09
   36.3300018       7.78228237E-09
   36.3899994       6.64590427E-09
   36.4500008       5.40294876E-09
   36.5099983       4.09289536E-09
   36.5699997       2.75521916E-09
   36.6300011       1.41861178E-09
   36.6899986       9.47414230E-11
   36.7500000      -1.22219268E-09
   36.8100014      -2.55115018E-09
   36.8699989      -3.91767419E-09
   36.9300003      -5.34769873E-09
   36.9900017      -6.86347379E-09
   37.0499992      -8.48195469E-09
   37.1100006      -1.02149080E-08
   37.1699982      -1.20695463E-08
   37.2299995      -1.40488243E-08
   37.2900009      -1.61511249E-08
   37.3499985      -1.83696756E-08
   37.4099998      -2.06921733E-08
   37.4700012      -2.31009274E-08
   37.5299988      -2.55732431E-08
   37.5900002      -2.80815371E-08
   37.6500015      -3.05926413E-08
   37.7099991      -3.30662964E-08
   37.7700005      -3.54535885E-08
   37.8300018      -3.76967826E-08
   37.8899994      -3.97321251E-08
   37.9500008      -4.14964418E-08
   38.0099983      -4.29369642E-08
   38.0699997      -4.40220909E-08
   38.1300011      -4.47498465E-08
   38.1899986      -4.51506317E-08
   38.2500000      -4.52825688E-08
   38.3100014      -4.52200908E-08
   38.3699989      -4.50389948E-08
   38.4300003      -4.48025546E-08
   38.4900017      -4.45531541E-08
   38.5499992      -4.43118431E-08
   38.6100006      -4.40854606E-08
   38.6699982      -4.38780781E-08
   38.7299995      -4.37021512E-08
   38.7900009      -4.35848655E-08
   38.8499985      -4.35670096E-08
   38.9099998      -4.36943779E-08
   38.9700012      -4.40044978E-08
   39.0299988      -4.45132358E-08
   39.0900002      -4.52061926E-08
   39.1500015      -4.60382488E-08
   39.2099991      -4.69419810E-08
   39.2700005      -4.78422955E-08
   39.3300018      -4.86724367E-08
   39.3899994      -4.93856760E-08
   39.4500008      -4.99589099E-08
   39.5099983      -5.03876585E-08
   39.5699997      -5.06755526E-08
   39.6300011      -5.08236511E-08
   39.6899986      -5.08246316E-08
   39.7500000      -5.06642372E-08
   39.8100014      -5.03285484E-08
   39.8699989      -4.98128188E-08
   39.9300003      -4.91267791E-08
   39.9900017      -4.82932236E-08
   40.0499992      -4.73401549E-08
   40.1100006      -4.62899088E-08
   40.1699982      -4.51502729E-08
   40.2299995      -4.39116157E-08
   40.2900009      -4.25514699E-08
   40.3499985      -4.10447250E-08
   40.4099998      -3.93754540E-08
   40.4700012      -3.75459450E-08
   40.5299988      -3.55797241E-08
   40.5900002      -3.35180665E-08
   40.6500015      -3.14117230E-08
   40.7099991      -2.93113391E-08
   40.7700005      -2.72601479E-08
   40.8300018      -2.52913388E-08
   40.8899994      -2.34303084E-08
   40.9500008      -2.16999254E-08
   41.0099983      -2.01256629E-08
   41.0699997      -1.87376550E-08
   41.1300011      -1.75682864E-08
   41.1899986      -1.66461103E-08
   41.2500000      -1.59886113E-08
   41.3100014      -1.55968500E-08
   41.3699989      -1.54539368E-08
   41.4300003      -1.55275206E-08
   41.4900017      -1.57747060E-08
   41.5499992      -1.61473483E-08
   41.6100006      -1.65962852E-08
   41.6699982      -1.70744237E-08
   41.7299995      -1.75395733E-08
   41.7900009      -1.79578308E-08
   41.8499985      -1.83072508E-08
   41.9099998      -1.85803017E-08
   41.9700012      -1.87831546E-08
   42.0299988      -1.89307876E-08
   42.0900002      -1.90388505E-08
   42.1500015      -1.91150953E-08
   42.2099991      -1.91539105E-08
   42.2700005      -1.91364347E-08
   42.3300018      -1.90364204E-08
   42.3899994      -1.88295211E-08
   42.4500008      -1.85021811E-08
   42.5099983      -1.80566495E-08
   42.5699997      -1.75102919E-08
   42.6300011      -1.68897909E-08
   42.6899986      -1.62225824E-08
   42.7500000      -1.55286468E-08
   42.8100014      -1.48152255E-08
   42.8699989      -1.40757219E-08
   42.9300003      -1.32925697E-08
   42.9900017      -1.24426842E-08
   43.0499992      -1.15035874E-08
   43.1100006      -1.04583542E-08
   43.1699982      -9.29814270E-09
   43.2299995      -8.02200173E-09
   43.2900009      -6.63463640E-09
   43.3499985      -5.14356246E-09
   43.4099998      -3.55720697E-09
   43.4700012      -1.88505989E-09
   43.5299988      -1.39984108E-10
   43.5900002       1.65822311E-09
   43.6500015       3.47961082E-09
   43.7099991       5.28274802E-09
   43.7700005       7.01623160E-09
   43.8300018       8.62300276E-09
   43.8899994       1.00466364E-08
   43.9500008       1.12383169E-08
   44.0099983       1.21631656E-08
   44.0699997       1.28049216E-08
   44.1300011       1.31683064E-08
   44.1899986       1.32787967E-08
   44.2500000       1.31798252E-08
   44.3100014       1.29277700E-08
   44.3699989       1.25853532E-08
   44.4300003       1.22143593E-08
   44.4900017       1.18686865E-08
   44.5499992       1.15888232E-08
   44.6100006       1.13986953E-08
   44.6699982       1.13055911E-08
   44.7299995       1.13033405E-08
   44.7900009       1.13781642E-08
   44.8499985       1.15156835E-08
   44.9099998       1.17068879E-08
   44.9700012       1.19508057E-08
   45.0299988       1.22526087E-08
   45.0900002       1.26176172E-08
   45.1500015       1.30435964E-08
   45.2099991       1.35147689E-08
   45.2700005       1.40004701E-08
   45.3300018       1.44594141E-08
   45.3899994       1.48478954E-08
   45.4500008       1.51284798E-08
   45.5099983       1.52755693E-08
   45.5699997       1.52760364E-08
   45.6300011       1.51256554E-08
   45.6899986       1.48241810E-08
   45.7500000       1.43721781E-08
   45.8100014       1.37713432E-08
   45.8699989       1.30277753E-08
   45.9300003       1.21558914E-08
   45.9900017       1.11804228E-08
   46.0499992       1.01350652E-08
   46.1100006       9.05813824E-09
   46.1699982       7.98687871E-09
   46.2299995       6.95225433E-09
   46.2900009       5.97558714E-09
   46.3499985       5.06741493E-09
   46.4099998       4.22861968E-09
   46.4700012       3.45369888E-09
   46.5299988       2.73598122E-09
   46.5900002       2.07400408E-09
   46.6500015       1.47743906E-09
   46.7099991       9.70484026E-10
   46.7700005       5.91193483E-10
   46.8300018       3.86984667E-10
   46.8899994       4.08629602E-10
   46.9500008       7.06203984E-10
   47.0099983       1.32980138E-09
   47.0699997       2.33546249E-09
   47.1300011       3.79404197E-09
   47.1899986       5.79929926E-09
   47.2500000       8.47228154E-09
   47.3100014       1.19616086E-08
   47.3699989       1.64420317E-08
   47.4300003       2.21149428E-08
   47.4900017       2.92136022E-08
   47.5499992       3.80135532E-08
   47.6100006       4.88463137E-08
   47.6699982       6.21136493E-08
   47.7299995       7.83005376E-08
   47.7900009       9.79867849E-08
   47.8499985       1.21858534E-07
   47.9099998       1.50721263E-07
   47.9700012       1.85515148E-07
   48.0299988       2.27332848E-07
   48.0900002       2.77438971E-07
   48.1500015       3.37291596E-07
   48.2099991       4.08566450E-07
   48.2700005       4.93185269E-07
   48.3300018       5.93349341E-07
   48.3899994       7.11579617E-07
   48.4500008       8.50762717E-07
   48.5099983       1.01420335E-06
   48.5699997       1.20568086E-06
   48.6300011       1.42950819E-06
   48.6899986       1.69059479E-06
   48.7500000       1.99450869E-06
   48.8100014       2.34754202E-06
   48.8699989       2.75678394E-06
   48.9300003       3.23019913E-06
   48.9900017       3.77672200E-06
   49.0499992       4.40635995E-06
   49.1100006       5.13030272E-06
   49.1699982       5.96103791E-06
   49.2299995       6.91246032E-06
   49.2900009       7.99997724E-06
   49.3499985       9.24061078E-06
   49.4099998       1.06530979E-05
   49.4700012       1.22579913E-05
   49.5299988       1.40777674E-05
   49.5900002       1.61369353E-05
   49.6500015       1.84621622E-05
   49.7099991       2.10823837E-05
   49.7700005       2.40289282E-05
   49.8300018       2.73356272E-05
   49.8899994       3.10389078E-05
   49.9500008       3.51778472E-05
   50.0099983       3.97942276E-05
   50.0699997       4.49325271E-05
   50.1300011       5.06399301E-05
   50.1899986       5.69662880E-05
   50.2500000       6.39640930E-05
   50.3100014       7.16884097E-05
   50.3699989       8.01968272E-05
   50.4300003       8.95492922E-05
   50.4900017       9.98079850E-05
   50.5499992       1.11037050E-04
   50.6100006       1.23302365E-04