  -2.400000      0.0000000E+00
  -2.340000      0.0000000E+00
  -2.280000      0.0000000E+00
  -2.220000      0.0000000E+00
  -2.160000      0.0000000E+00
  -2.100000      0.0000000E+00
  -2.040000     -1.6651090E-22
  -1.980000     -1.4227347E-21
  -1.920000     -5.8341218E-21
  -1.860000     -1.4123728E-20
  -1.800000     -1.6876846E-20
  -1.740000      1.9318624E-20
  -1.680000      1.5819103E-19
  -1.620000      4.6884514E-19
  -1.560000      9.4907891E-19
  -1.500000      1.4054816E-18
  -1.440000      1.3490508E-18
  -1.380000      1.0192893E-20
  -1.320000     -3.4214006E-18
  -1.260000     -9.2967218E-18
  -1.200000     -1.6849997E-17
  -1.140000     -2.3646493E-17
  -1.080000     -2.5501666E-17
  -1.020000     -1.7200529E-17
 -0.9600000      5.8823158E-18
 -0.9000000      4.5552777E-17
 -0.8400000      9.8664158E-17
 -0.7800000      1.5599676E-16
 -0.7200000      2.0284220E-16
 -0.6600000      2.2127568E-16
 -0.6000000      1.9318190E-16
 -0.5400000      1.0256816E-16
 -0.4800000     -6.3806694E-17
 -0.4200000     -3.1673280E-16
 -0.3600000     -6.6272853E-16
 -0.3000000     -1.0957085E-15
 -0.2400000     -1.5791404E-15
 -0.1800000     -2.0207229E-15
 -0.1200000     -2.2493278E-15
 -5.9999999E-02 -2.0112171E-15
  0.0000000E+00 -1.0049586E-15
  5.9999999E-02  1.0319490E-15
  0.1200000      4.1883518E-15
  0.1800000      8.2245468E-15
  0.2400000      1.2450159E-14
  0.3000000      1.5703051E-14
  0.3600000      1.6491867E-14
  0.4200000      1.3329761E-14
  0.4800000      5.2226527E-15
  0.5400000     -7.8043981E-15
  0.6000000     -2.4325377E-14
  0.6600000     -4.1473633E-14
  0.7200000     -5.5373329E-14
  0.7800000     -6.2015761E-14
  0.8400000     -5.8354471E-14
  0.9000000     -4.3235418E-14
  0.9600000     -1.7765572E-14
   1.020000      1.5083959E-14
   1.080000      5.1479505E-14
   1.140000      8.7788345E-14
   1.200000      1.2099357E-13
   1.260000      1.4799286E-13
   1.320000      1.6399410E-13
   1.380000      1.6109477E-13
   1.440000      1.2872007E-13
   1.500000      5.7366994E-14
   1.560000     -5.4231041E-14
   1.620000     -1.9060354E-13
   1.680000     -3.1401151E-13
   1.740000     -3.6718068E-13
   1.800000     -2.8821696E-13
   1.860000     -3.7476082E-14
   1.920000      3.6990715E-13
   1.980000      8.3800507E-13
   2.040000      1.1856311E-12
   2.100000      1.1758039E-12
   2.160000      5.8247163E-13
   2.220000     -7.1604685E-13
   2.280000     -2.6420179E-12
   2.340000     -4.8563441E-12
   2.400000     -6.7637159E-12
   2.460000     -7.6052775E-12
   2.520000     -6.6345054E-12
   2.580000     -3.3427243E-12
   2.640000      2.3233650E-12
   2.700000      9.8188064E-12
   2.760000      1.7986966E-11
   2.820000      2.5198874E-11
   2.880000      2.9626371E-11
   2.940000      2.9591236E-11
   3.000000      2.3911265E-11
   3.060000      1.2168890E-11
   3.120000     -5.1432938E-12
   3.180000     -2.6605390E-11
   3.240000     -4.9952185E-11
   3.300000     -7.2212528E-11
   3.360000     -8.9879604E-11
   3.420000     -9.9121100E-11
   3.480000     -9.6074641E-11
   3.540000     -7.7288460E-11
   3.600000     -4.0344107E-11
   3.660000      1.5363677E-11
   3.720000      8.7798373E-11
   3.780000      1.7158908E-10
   3.840000      2.5769659E-10
   3.900000      3.3363973E-10
   3.960000      3.8439885E-10
   4.020000      3.9398396E-10
   4.080000      3.4750883E-10
   4.140000      2.3348862E-10
   4.200000      4.6009897E-11
   4.260000     -2.1357621E-10
   4.320000     -5.3570737E-10
   4.380000     -9.0254620E-10
   4.440000     -1.2887764E-09
   4.500000     -1.6630929E-09
   4.560000     -1.9901325E-09
   4.620000     -2.2325803E-09
   4.680000     -2.3532509E-09
   4.740000     -2.3170588E-09
   4.800000     -2.0929092E-09
   4.860000     -1.6556109E-09
   4.920000     -9.8789243E-10
   4.980000     -8.2504774E-11
   5.040000      1.0557879E-09
   5.100000      2.4086853E-09
   5.160000      3.9437649E-09
   5.220000      5.6152683E-09
   5.280000      7.3665314E-09
   5.340000      9.1340260E-09
   5.400000      1.0852637E-08
   5.460000      1.2461476E-08
   5.520000      1.3909352E-08
   5.580000      1.5159042E-08
   5.640000      1.6189688E-08
   5.700000      1.6997028E-08
   5.760000      1.7591606E-08
   5.820000      1.7995452E-08
   5.880000      1.8237925E-08
   5.940000      1.8351507E-08
   6.000000      1.8368102E-08
   6.060000      1.8316204E-08
   6.120000      1.8218982E-08
   6.180000      1.8093171E-08
   6.240000      1.7948587E-08
   6.300000      1.7788134E-08
   6.360000      1.7608231E-08
   6.420000      1.7399708E-08
   6.480000      1.7149230E-08
   6.540000      1.6841181E-08
   6.600000      1.6459898E-08
   6.660000      1.5991850E-08
   6.720000      1.5427414E-08
   6.780000      1.4761850E-08
   6.840000      1.3995212E-08
   6.900000      1.3131300E-08
   6.960000      1.2175941E-08
   7.020000      1.1135214E-08
   7.080000      1.0014269E-08
   7.140000      8.8172500E-09
   7.200000      7.5485058E-09
   7.260000      6.2148198E-09
   7.320000      4.8279878E-09
   7.380000      3.4068219E-09
   7.440000      1.9777366E-09
   7.500000      5.7342975E-10
   7.560000     -7.7027623E-10
   7.620000     -2.0187827E-09
   7.680000     -3.1432039E-09
   7.740000     -4.1238768E-09
   7.800000     -4.9520477E-09
   7.860000     -5.6294365E-09
   7.920000     -6.1659908E-09
   7.980000     -6.5766317E-09
   8.040000     -6.8779853E-09
   8.100000     -7.0859718E-09
   8.160000     -7.2147133E-09
   8.220000     -7.2767494E-09
   8.280000     -7.2841031E-09
   8.340000     -7.2495254E-09
   8.400000     -7.1872752E-09
   8.460000     -7.1130222E-09
   8.520000     -7.0428126E-09
   8.580000     -6.9913657E-09
   8.640000     -6.9702111E-09
   8.700000     -6.9862178E-09
   8.760000     -7.0410167E-09
   8.820000     -7.1315678E-09
   8.880000     -7.2518569E-09
   8.940000     -7.3954123E-09
   9.000000     -7.5580768E-09
   9.060000     -7.7403630E-09
   9.120000     -7.9487208E-09
   9.180000     -8.1952907E-09
   9.240000     -8.4960572E-09
   9.300000     -8.8677643E-09
   9.360000     -9.3243457E-09
   9.420000     -9.8738253E-09
   9.480000     -1.0516578E-08
   9.540000     -1.1245452E-08
   9.600000     -1.2047725E-08
   9.660000     -1.2908242E-08
   9.720000     -1.3812699E-08
   9.780000     -1.4749996E-08
   9.840000     -1.5712857E-08
   9.900000     -1.6696587E-08
   9.960000     -1.7696452E-08
   10.02000     -1.8704741E-08
   10.08000     -1.9708606E-08
   10.14000     -2.0689578E-08
   10.20000     -2.1624912E-08
   10.26000     -2.2490294E-08
   10.32000     -2.3262858E-08
   10.38000     -2.3923400E-08
   10.44000     -2.4456972E-08
   10.50000     -2.4851817E-08
   10.56000     -2.5097291E-08
   10.62000     -2.5181965E-08
   10.68000     -2.5093147E-08
   10.74000     -2.4818647E-08
   10.80000     -2.4350649E-08
   10.86000     -2.3690792E-08
   10.92000     -2.2854822E-08
   10.98000     -2.1875111E-08
   11.04000     -2.0799774E-08
   11.10000     -1.9688050E-08
   11.16000     -1.8602716E-08
   11.22000     -1.7601153E-08
   11.28000     -1.6727153E-08
   11.34000     -1.6005385E-08
   11.40000     -1.5439779E-08
   11.46000     -1.5016075E-08
   11.52000     -1.4707763E-08
   11.58000     -1.4483879E-08
   11.64000     -1.4316774E-08
   11.70000     -1.4188123E-08
   11.76000     -1.4091953E-08
   11.82000     -1.4034269E-08
   11.88000     -1.4029558E-08
   11.94000     -1.4095140E-08
   12.00000     -1.4244636E-08
   12.06000     -1.4481961E-08
   12.12000     -1.4797061E-08
   12.18000     -1.5164250E-08
   12.24000     -1.5543504E-08
   12.30000     -1.5884515E-08
   12.36000     -1.6132786E-08
   12.42000     -1.6236580E-08
   12.48000     -1.6153459E-08
   12.54000     -1.5855177E-08
   12.60000     -1.5330235E-08
   12.66000     -1.4583916E-08
   12.72000     -1.3636336E-08
   12.78000     -1.2519323E-08
   12.84000     -1.1273145E-08
   12.90000     -9.9437001E-09
   12.96000     -8.5804146E-09
   13.02000     -7.2346000E-09
   13.08000     -5.9577978E-09
   13.14000     -4.7996687E-09
   13.20000     -3.8052685E-09
   13.26000     -3.0118574E-09
   13.32000     -2.4456688E-09
   13.38000     -2.1191220E-09
   13.44000     -2.0288919E-09
   13.50000     -2.1550963E-09
   13.56000     -2.4617524E-09
   13.62000     -2.8985643E-09
   13.68000     -3.4040522E-09
   13.74000     -3.9098982E-09
   13.80000     -4.3461710E-09
   13.86000     -4.6468220E-09
   13.92000     -4.7546727E-09
   13.98000     -4.6251167E-09
   14.04000     -4.2280406E-09
   14.10000     -3.5479326E-09
   14.16000     -2.5825957E-09
   14.22000     -1.3411847E-09
   14.28000      1.5773817E-10
   14.34000      1.8877082E-09
   14.40000      3.8153978E-09
   14.46000      5.9014695E-09
   14.52000      8.1015852E-09
   14.58000      1.0367751E-08
   14.64000      1.2649878E-08
   14.70000      1.4897273E-08
   14.76000      1.7059765E-08
   14.82000      1.9088450E-08
   14.88000      2.0936394E-08
   14.94000      2.2559886E-08
   15.00000      2.3920775E-08
   15.06000      2.4989987E-08
   15.12000      2.5751740E-08
   15.18000      2.6207374E-08
   15.24000      2.6377482E-08
   15.30000      2.6301292E-08
   15.36000      2.6032955E-08
   15.42000      2.5635321E-08
   15.48000      2.5172563E-08
   15.54000      2.4703395E-08
   15.60000      2.4276318E-08
   15.66000      2.3927671E-08
   15.72000      2.3682286E-08
   15.78000      2.3555787E-08
   15.84000      2.3557220E-08
   15.90000      2.3690916E-08
   15.96000      2.3957021E-08
   16.02000      2.4350875E-08
   16.08000      2.4861917E-08
   16.14000      2.5473030E-08
   16.20000      2.6160947E-08
   16.26000      2.6897961E-08
   16.32000      2.7654634E-08
   16.38000      2.8402866E-08
   16.44000      2.9118571E-08
   16.50000      2.9783266E-08
   16.56000      3.0384236E-08
   16.62000      3.0913153E-08
   16.68000      3.1363498E-08
   16.74000      3.1727414E-08
   16.80000      3.1992869E-08
   16.86000      3.2142271E-08
   16.92000      3.2153352E-08
   16.98000      3.2002845E-08
   17.04000      3.1672528E-08
   17.10000      3.1156492E-08
   17.16000      3.0467564E-08
   17.22000      2.9640853E-08
   17.28000      2.8732691E-08
   17.34000      2.7814631E-08
   17.40000      2.6963447E-08
   17.46000      2.6249474E-08
   17.52000      2.5726200E-08
   17.58000      2.5423676E-08
   17.64000      2.5347108E-08
   17.70000      2.5480357E-08
   17.76000      2.5792602E-08
   17.82000      2.6245536E-08
   17.88000      2.6798679E-08
   17.94000      2.7411343E-08
   18.00000      2.8041311E-08
   18.06000      2.8641704E-08
   18.12000      2.9158224E-08
   18.18000      2.9529030E-08
   18.24000      2.9688415E-08
   18.30000      2.9574252E-08
   18.36000      2.9137766E-08
   18.42000      2.8353391E-08
   18.48000      2.7226395E-08
   18.54000      2.5796552E-08
   18.60000      2.4137162E-08
   18.66000      2.2349727E-08
   18.72000      2.0555348E-08
   18.78000      1.8884096E-08
   18.84000      1.7463611E-08
   18.90000      1.6407897E-08
   18.96000      1.5807153E-08
   19.02000      1.5719452E-08
   19.08000      1.6165206E-08
   19.14000      1.7125114E-08
   19.20000      1.8542108E-08
   19.26000      2.0326970E-08
   19.32000      2.2366635E-08
   19.38000      2.4533680E-08
   19.44000      2.6695428E-08
   19.50000      2.8721630E-08
   19.56000      3.0490501E-08
   19.62000      3.1893631E-08
   19.68000      3.2840575E-08
   19.74000      3.3263603E-08
   19.80000      3.3122358E-08
   19.86000      3.2407264E-08
   19.92000      3.1140221E-08
   19.98000      2.9371492E-08
   20.04000      2.7172707E-08
   20.10000      2.4627283E-08
   20.16000      2.1820512E-08
   20.22000      1.8831807E-08
   20.28000      1.5730761E-08
   20.34000      1.2577205E-08
   20.40000      9.4239194E-09
   20.46000      6.3196643E-09
   20.52000      3.3102885E-09
   20.58000      4.3673670E-10
   20.64000     -2.2696198E-09
   20.70000     -4.7924740E-09
   20.76000     -7.1344064E-09
   20.82000     -9.3170005E-09
   20.88000     -1.1376523E-08
   20.94000     -1.3356107E-08
   21.00000     -1.5296672E-08
   21.06000     -1.7229295E-08
   21.12000     -1.9171248E-08
   21.18000     -2.1126683E-08
   21.24000     -2.3091417E-08
   21.30000     -2.5060004E-08
   21.36000     -2.7032584E-08
   21.42000     -2.9019036E-08
   21.48000     -3.1038795E-08
   21.54000     -3.3115843E-08
   21.60000     -3.5269942E-08
   21.66000     -3.7506450E-08
   21.72000     -3.9807858E-08
   21.78000     -4.2130061E-08
   21.84000     -4.4405471E-08
   21.90000     -4.6553012E-08
   21.96000     -4.8493032E-08
   22.02000     -5.0163198E-08
   22.08000     -5.1530794E-08
   22.14000     -5.2597642E-08
   22.20000     -5.3395855E-08
   22.26000     -5.3975615E-08
   22.32000     -5.4388558E-08
   22.38000     -5.4672107E-08
   22.44000     -5.4839564E-08
   22.50000     -5.4879241E-08
   22.56000     -5.4762758E-08
   22.62000     -5.4459797E-08
   22.68000     -5.3954363E-08
   22.74000     -5.3256969E-08
   22.80000     -5.2408382E-08
   22.86000     -5.1473240E-08
   22.92000     -5.0525049E-08
   22.98000     -4.9627118E-08
   23.04000     -4.8815568E-08
   23.10000     -4.8090023E-08
   23.16000     -4.7415448E-08
   23.22000     -4.6734890E-08
   23.28000     -4.5989179E-08
   23.34000     -4.5137295E-08
   23.40000     -4.4170839E-08
   23.46000     -4.3117904E-08
   23.52000     -4.2035275E-08
   23.58000     -4.0991722E-08
   23.64000     -4.0048000E-08
   23.70000     -3.9239932E-08
   23.76000     -3.8569773E-08
   23.82000     -3.8008224E-08
   23.88000     -3.7506069E-08
   23.94000     -3.7011851E-08
   24.00000     -3.6490306E-08
   24.06000     -3.5936424E-08
   24.12000     -3.5381284E-08
   24.18000     -3.4887844E-08
   24.24000     -3.4537489E-08
   24.30000     -3.4410427E-08
   24.36000     -3.4564827E-08
   24.42000     -3.5020289E-08
   24.48000     -3.5750407E-08
   24.54000     -3.6687073E-08
   24.60000     -3.7735791E-08
   24.66000     -3.8797971E-08
   24.72000     -3.9793630E-08
   24.78000     -4.0677588E-08
   24.84000     -4.1444082E-08
   24.90000     -4.2118618E-08
   24.96000     -4.2740073E-08
   25.02000     -4.3339629E-08
   25.08000     -4.3924139E-08
   25.14000     -4.4469957E-08
   25.20000     -4.4929521E-08
   25.26000     -4.5248292E-08
   25.32000     -4.5385931E-08
   25.38000     -4.5334080E-08
   25.44000     -4.5124118E-08
   25.50000     -4.4821792E-08
   25.56000     -4.4509907E-08
   25.62000     -4.4264354E-08
   25.68000     -4.4130910E-08
   25.74000     -4.4110052E-08
   25.80000     -4.4154593E-08
   25.86000     -4.4181085E-08
   25.92000     -4.4091703E-08
   25.98000     -4.3800217E-08
   26.04000     -4.3254495E-08
   26.10000     -4.2449010E-08
   26.16000     -4.1423743E-08
   26.22000     -4.0250157E-08
   26.28000     -3.9008818E-08
   26.34000     -3.7765677E-08
   26.40000     -3.6554702E-08
   26.46000     -3.5372167E-08
   26.52000     -3.4184236E-08
   26.58000     -3.2944943E-08
   26.64000     -3.1618193E-08
   26.70000     -3.0196059E-08
   26.76000     -2.8706980E-08
   26.82000     -2.7210952E-08
   26.88000     -2.5783434E-08
   26.94000     -2.4493522E-08
   27.00000     -2.3383846E-08
   27.06000     -2.2459055E-08
   27.12000     -2.1686679E-08
   27.18000     -2.1010024E-08
   27.24000     -2.0368775E-08
   27.30000     -1.9720581E-08
   27.36000     -1.9056671E-08
   27.42000     -1.8406546E-08
   27.48000     -1.7830248E-08
   27.54000     -1.7400509E-08
   27.60000     -1.7180078E-08
   27.66000     -1.7200884E-08
   27.72000     -1.7451146E-08
   27.78000     -1.7874063E-08
   27.84000     -1.8378421E-08
   27.90000     -1.8858055E-08
   27.96000     -1.9214776E-08
   28.02000     -1.9378641E-08
   28.08000     -1.9320655E-08
   28.14000     -1.9055292E-08
   28.20000     -1.8633266E-08
   28.26000     -1.8127356E-08
   28.32000     -1.7615482E-08
   28.38000     -1.7165247E-08
   28.44000     -1.6823085E-08
   28.50000     -1.6609583E-08
   28.56000     -1.6520854E-08
   28.62000     -1.6534669E-08
   28.68000     -1.6619264E-08
   28.74000     -1.6742524E-08
   28.80000     -1.6879484E-08
   28.86000     -1.7016580E-08
   28.92000     -1.7151986E-08
   28.98000     -1.7292420E-08
   29.04000     -1.7447761E-08
   29.10000     -1.7625478E-08
   29.16000     -1.7826892E-08
   29.22000     -1.8046467E-08
   29.28000     -1.8274173E-08
   29.34000     -1.8499609E-08
   29.40000     -1.8715831E-08
   29.46000     -1.8920895E-08
   29.52000     -1.9116236E-08
   29.58000     -1.9302446E-08
   29.64000     -1.9474495E-08
   29.70000     -1.9618936E-08
   29.76000     -1.9715166E-08
   29.82000     -1.9741190E-08
   29.88000     -1.9682480E-08
   29.94000     -1.9540984E-08
   30.00000     -1.9340932E-08
   30.06000     -1.9128974E-08
   30.12000     -1.8968089E-08
   30.18000     -1.8926846E-08
   30.24000     -1.9067221E-08
   30.30000     -1.9434495E-08
   30.36000     -2.0051852E-08
   30.42000     -2.0920494E-08
   30.48000     -2.2024070E-08
   30.54000     -2.3334970E-08
   30.60000     -2.4819865E-08
   30.66000     -2.6442786E-08
   30.72000     -2.8165593E-08
   30.78000     -2.9947060E-08
   30.84000     -3.1742424E-08
   30.90000     -3.3504904E-08
   30.96000     -3.5189533E-08
   31.02000     -3.6758340E-08
   31.08000     -3.8184936E-08
   31.14000     -3.9456737E-08
   31.20000     -4.0573834E-08
   31.26000     -4.1545015E-08
   31.32000     -4.2382680E-08
   31.38000     -4.3098890E-08
   31.44000     -4.3704393E-08
   31.50000     -4.4211166E-08
   31.56000     -4.4637286E-08
   31.62000     -4.5011884E-08
   31.68000     -4.5377440E-08
   31.74000     -4.5787463E-08
   31.80000     -4.6299096E-08
   31.86000     -4.6961901E-08
   31.92000     -4.7805550E-08
   31.98000     -4.8829563E-08
   32.04000     -4.9997873E-08
   32.10000     -5.1239727E-08
   32.16000     -5.2457111E-08
   32.22000     -5.3537409E-08
   32.28000     -5.4369352E-08
   32.34000     -5.4859690E-08
   32.40000     -5.4948121E-08
   32.46000     -5.4617992E-08
   32.52000     -5.3900621E-08
   32.58000     -5.2871759E-08
   32.64000     -5.1639965E-08
   32.70000     -5.0328339E-08
   32.76000     -4.9053060E-08
   32.82000     -4.7903612E-08
   32.88000     -4.6929703E-08
   32.94000     -4.6138720E-08
   33.00000     -4.5504432E-08
   33.06000     -4.4984500E-08
   33.12000     -4.4541032E-08
   33.18000     -4.4157471E-08
   33.24000     -4.3845784E-08
   33.30000     -4.3641315E-08
   33.36000     -4.3586589E-08
   33.42000     -4.3709541E-08
   33.48000     -4.4003535E-08
   33.54000     -4.4416389E-08
   33.60000     -4.4852690E-08
   33.66000     -4.5189392E-08
   33.72000     -4.5300233E-08
   33.78000     -4.5081521E-08
   33.84000     -4.4471385E-08
   33.90000     -4.3456598E-08
   33.96000     -4.2065228E-08
   34.02000     -4.0348045E-08
   34.08000     -3.8355122E-08
   34.14000     -3.6115804E-08
   34.20000     -3.3628780E-08
   34.26000     -3.0865856E-08
   34.32000     -2.7788213E-08
   34.38000     -2.4369834E-08
   34.44000     -2.0620190E-08
   34.50000     -1.6598120E-08
   34.56000     -1.2411457E-08
   34.62000     -8.2011447E-09
   34.68000     -4.1135753E-09
   34.74000     -2.6881156E-10
   34.80000      3.2659180E-09
   34.86000      6.4891048E-09
   34.92000      9.4596517E-09
   34.98000      1.2274090E-08
   35.04000      1.5032379E-08
   35.10000      1.7801971E-08
   35.16000      2.0590583E-08
   35.22000      2.3335685E-08
   35.28000      2.5913778E-08
   35.34000      2.8166728E-08
   35.40000      2.9937361E-08
   35.46000      3.1103923E-08
   35.52000      3.1603644E-08
   35.58000      3.1439185E-08
   35.64000      3.0667135E-08
   35.70000      2.9373217E-08
   35.76000      2.7642967E-08
   35.82000      2.5537691E-08
   35.88000      2.3083679E-08
   35.94000      2.0278021E-08
   36.00000      1.7108675E-08
   36.06000      1.3581454E-08
   36.12000      9.7438679E-09
   36.18000      5.6965348E-09
   36.24000      1.5867382E-09
   36.30000     -2.4152627E-09
   36.36000     -6.1505814E-09
   36.42000     -9.5061052E-09
   36.48000     -1.2437829E-08
   36.54000     -1.4975223E-08
   36.60000     -1.7204734E-08
   36.66000     -1.9237214E-08
   36.72000     -2.1169363E-08
   36.78000     -2.3051195E-08
   36.84000     -2.4869543E-08
   36.90000     -2.6552458E-08
   36.96000     -2.7992524E-08
   37.02000     -2.9081145E-08
   37.08000     -2.9742573E-08
   37.14000     -2.9956826E-08
   37.20000     -2.9764628E-08
   37.26000     -2.9253483E-08
   37.32000     -2.8530216E-08
   37.38000     -2.7689239E-08
   37.44000     -2.6786868E-08
   37.50000     -2.5829367E-08
   37.56000     -2.4777654E-08
   37.62000     -2.3566045E-08
   37.68000     -2.2128248E-08
   37.74000     -2.0422025E-08
   37.80000     -1.8445112E-08
   37.86000     -1.6238182E-08
   37.92000     -1.3874942E-08
   37.98000     -1.1443253E-08
   38.04000     -9.0234016E-09
   38.10000     -6.6700250E-09
   38.16000     -4.4026578E-09
   38.22000     -2.2071482E-09
   38.28000     -4.7071867E-11
   38.34000      2.1184641E-09
   38.40000      4.3158987E-09
   38.46000      6.5427170E-09
   38.52000      8.7617016E-09
   38.58000      1.0905814E-08
   38.64000      1.2892609E-08
   38.70000      1.4644260E-08
   38.76000      1.6107544E-08
   38.82000      1.7268020E-08
   38.88000      1.8154227E-08
   38.94000      1.8830750E-08
   39.00000      1.9382298E-08
   39.06000      1.9893671E-08
   39.12000      2.0431612E-08
   39.18000      2.1033784E-08
   39.24000      2.1707566E-08
   39.30000      2.2438110E-08
   39.36000      2.3202155E-08
   39.42000      2.3982304E-08
   39.48000      2.4776769E-08
   39.54000      2.5601350E-08
   39.60000      2.6483372E-08
   39.66000      2.7449996E-08
   39.72000      2.8515311E-08
   39.78000      2.9670630E-08
   39.84000      3.0881306E-08
   39.90000      3.2090853E-08
   39.96000      3.3230840E-08
   40.02000      3.4233306E-08
   40.08000      3.5041925E-08
   40.14000      3.5619131E-08
   40.20000      3.5948105E-08
   40.26000      3.6030258E-08
   40.32000      3.5880252E-08
   40.38000      3.5520610E-08
   40.44000      3.4977482E-08
   40.50000      3.4277807E-08
   40.56000      3.3447339E-08
   40.62000      3.2508517E-08
   40.68000      3.1477764E-08
   40.74000      3.0362497E-08
   40.80000      2.9159024E-08
   40.86000      2.7852673E-08
   40.92000      2.6420814E-08
   40.98000      2.4838409E-08
   41.04000      2.3084494E-08
   41.10000      2.1147510E-08
   41.16000      1.9027713E-08
   41.22000      1.6736079E-08
   41.28000      1.4290637E-08
   41.34000      1.1712165E-08
   41.40000      9.0214920E-09
   41.46000      6.2397465E-09
   41.52000      3.3913545E-09
   41.58000      5.0811660E-10
   41.64000     -2.3681970E-09
   41.70000     -5.1870082E-09
   41.76000     -7.8948270E-09
   41.82000     -1.0444999E-08
   41.88000     -1.2808729E-08
   41.94000     -1.4983929E-08
   42.00000     -1.6998673E-08
   42.06000     -1.8907421E-08
   42.12000     -2.0780128E-08
   42.18000     -2.2686478E-08
   42.24000     -2.4678942E-08
   42.30000     -2.6778963E-08
   42.36000     -2.8969922E-08
   42.42000     -3.1198972E-08
   42.48000     -3.3387622E-08
   42.54000     -3.5448661E-08
   42.60000     -3.7305490E-08
   42.66000     -3.8909160E-08
   42.72000     -4.0249049E-08
   42.78000     -4.1354529E-08
   42.84000     -4.2287144E-08
   42.90000     -4.3125162E-08
   42.96000     -4.3943942E-08
   43.02000     -4.4797066E-08
   43.08000     -4.5702720E-08
   43.14000     -4.6639009E-08
   43.20000     -4.7549314E-08
   43.26000     -4.8356203E-08
   43.32000     -4.8979491E-08
   43.38000     -4.9352749E-08
   43.44000     -4.9432671E-08
   43.50000     -4.9197915E-08
   43.56000     -4.8637531E-08
   43.62000     -4.7732708E-08
   43.68000     -4.6437847E-08
   43.74000     -4.4667164E-08
   43.80000     -4.2290832E-08
   43.86000     -3.9140676E-08
   43.92000     -3.5021717E-08
   43.98000     -2.9722941E-08
   44.04000     -2.3020732E-08
   44.10000     -1.4670638E-08
   44.16000     -4.3874788E-09
   44.22000      8.1818516E-09
   44.28000      2.3485601E-08
   44.34000      4.2087080E-08
   44.40000      6.4672790E-08
   44.46000      9.2049099E-08
   44.52000      1.2513289E-07
   44.58000      1.6494457E-07
   44.64000      2.1261192E-07
   44.70000      2.6939060E-07
   44.76000      3.3670182E-07
   44.82000      4.1618333E-07
   44.88000      5.0974637E-07
   44.94000      6.1963169E-07
   45.00000      7.4845866E-07
   45.06000      8.9926687E-07
   45.12000      1.0755523E-06
   45.18000      1.2813023E-06
   45.24000      1.5210366E-06
   45.30000      1.7998578E-06
   45.36000      2.1235139E-06
   45.42000      2.4984731E-06
   45.48000      2.9320072E-06
   45.54000      3.4322841E-06
   45.60000      4.0084637E-06
   45.66000      4.6707951E-06
   45.72000      5.4307193E-06
   45.78000      6.3009688E-06
   45.84000      7.2956750E-06
   45.90000      8.4304766E-06
   45.96000      9.7226266E-06
   46.02000      1.1191108E-05
   46.08000      1.2856737E-05
   46.14000      1.4742280E-05
   46.20000      1.6872558E-05
   46.26000      1.9274559E-05
   46.32000      2.1977552E-05
   46.38000      2.5013176E-05
   46.44000      2.8415545E-05
   46.50000      3.2221316E-05
   46.56000      3.6469748E-05
   46.62000      4.1202744E-05
   46.68000      4.6464877E-05
   46.74000      5.2303381E-05
   46.80000      5.8768142E-05
   46.86000      6.5911670E-05
   46.92000      7.3789008E-05
   46.98000      8.2457700E-05
   47.04000      9.1977570E-05
   47.10000      1.0241062E-04
   47.16000      1.1382074E-04
   47.22000      1.2627346E-04
   47.28000      1.3983564E-04
   47.34000      1.5457504E-04
   47.40000      1.7056006E-04
   47.46000      1.8785916E-04
   47.52000      2.0654048E-04
   47.58000      2.2667134E-04
   47.64000      2.4831758E-04
   47.70000      2.7154302E-04
   47.76000      2.9640892E-04
   47.82000      3.2297306E-04
   47.88000      3.5128917E-04
   47.94000      3.8140622E-04
   48.00000      4.1336767E-04
   48.06000      4.4721068E-04
   48.12000      4.8296555E-04
   48.18000      5.2065472E-04
   48.24000      5.6029251E-04
   48.30000      6.0188404E-04
   48.36000      6.4542470E-04
   48.42000      6.9089973E-04
   48.48000      7.3828362E-04
   48.54000      7.8753947E-04
   48.60000      8.3861890E-04
   48.66000      8.9146162E-04
   48.72000      9.4599539E-04
   48.78000      1.0021360E-03
   48.84000      1.0597873E-03
   48.90000      1.1188415E-03
   48.96000      1.1791791E-03
   49.02000      1.2406697E-03
   49.08000      1.3031726E-03
   49.14000      1.3665375E-03
   49.20000      1.4306052E-03
   49.26000      1.4952085E-03
   49.32000      1.5601737E-03
   49.38000      1.6253215E-03
   49.44000      1.6904686E-03
   49.50000      1.7554291E-03
   49.56000      1.8200158E-03
   49.62000      1.8840422E-03
   49.68000      1.9473234E-03
   49.74000      2.0096784E-03
   49.80000      2.0709317E-03
   49.86000      2.1309142E-03
   49.92000      2.1894658E-03
   49.98000      2.2464364E-03
   50.04000      2.3016878E-03
   50.10000      2.3550936E-03
   50.16000      2.4065431E-03
   50.22000      2.4559405E-03
   50.28000      2.5032065E-03
   50.34000      2.5482795E-03
   50.40000      2.5911145E-03
   50.46000      2.6316855E-03
   50.52000      2.6699847E-03
   50.58000      2.7060222E-03
   50.64000      2.7398262E-03
   50.70000      2.7714430E-03
   50.76000      2.8009356E-03
   50.82000      2.8283834E-03
   50.88000      2.8538804E-03
   50.94000      2.8775344E-03
   51.00000      2.8994652E-03
   51.06000      2.9198029E-03
   51.12000      2.9386869E-03
   51.18000      2.9562628E-03
   51.24000      2.9726818E-03
   51.30000      2.9880973E-03
   51.36000      3.0026645E-03
   51.42000      3.0165373E-03
   51.48000      3.0298661E-03
   51.54000      3.0427957E-03
   51.60000      3.0554640E-03
   51.66000      3.0679998E-03
   51.72000      3.0805219E-03
   51.78000      3.0931369E-03
   51.84000      3.1059375E-03
   51.90000      3.1190026E-03
   51.96000      3.1323954E-03
   52.02000      3.1461637E-03
   52.08000      3.1603372E-03
   52.14000      3.1749306E-03
   52.20000      3.1899421E-03
   52.26000      3.2053543E-03
   52.32000      3.2211342E-03
   52.38000      3.2372333E-03
   52.44000      3.2535910E-03
   52.50000      3.2701327E-03
   52.56000      3.2867738E-03
   52.62000      3.3034198E-03
   52.68000      3.3199694E-03
   52.74000      3.3363155E-03
   52.80000      3.3523478E-03
   52.86000      3.3679532E-03
   52.92000      3.3830204E-03
   52.98000      3.3974384E-03
   53.04000      3.4111005E-03
   53.10000      3.4239055E-03
   53.16000      3.4357600E-03
   53.22000      3.4465797E-03
   53.28000      3.4562910E-03
   53.34000      3.4648320E-03
   53.40000      3.4721538E-03
   53.46000      3.4782221E-03
   53.52000      3.4830158E-03
   53.58000      3.4865283E-03
   53.64000      3.4887672E-03
   53.70000      3.4897546E-03
   53.76000      3.4895265E-03
   53.82000      3.4881320E-03
   53.88000      3.4856345E-03
   53.94000      3.4821071E-03
   54.00000      3.4776346E-03
   54.06000      3.4723103E-03
   54.12000      3.4662345E-03
   54.18000      3.4595125E-03
   54.24000      3.4522538E-03
   54.30000      3.4445697E-03
   54.36000      3.4365708E-03
   54.42000      3.4283667E-03
   54.48000      3.4200633E-03
   54.54000      3.4117608E-03
   54.60000      3.4035519E-03
   54.66000      3.3955208E-03
   54.72000      3.3877406E-03
   54.78000      3.3802728E-03
   54.84000      3.3731663E-03
   54.90000      3.3664568E-03
   54.96000      3.3601648E-03
   55.02000      3.3542966E-03
   55.08000      3.3488423E-03
   55.14000      3.3437770E-03
   55.20000      3.3390608E-03
   55.26000      3.3346380E-03
   55.32000      3.3304400E-03
   55.38000      3.3263848E-03
   55.44000      3.3223792E-03
   55.50000      3.3183191E-03
   55.56000      3.3140907E-03