 -0.750000000       0.00000000    
 -0.689999998       0.00000000    
 -0.629999995       0.00000000    
 -0.569999993       0.00000000    
 -0.509999990       0.00000000    
 -0.449999988       0.00000000    
 -0.389999986       0.00000000    
 -0.330000013       0.00000000    
 -0.270000011       0.00000000    
 -0.209999993       0.00000000    
 -0.150000006       0.00000000    
  -9.00000036E-02   1.27920425E-32
  -2.99999993E-02   4.00307501E-31
   2.99999993E-02   4.58344695E-30
   9.00000036E-02   2.98917026E-29
  0.150000006       1.27935241E-28
  0.209999993       3.68095431E-28
  0.270000011       6.09526879E-28
  0.330000013      -2.31012288E-28
  0.389999986      -5.40039808E-27
  0.449999988      -2.05725464E-26
  0.509999990      -4.89318679E-26
  0.569999993      -7.45665779E-26
  0.629999995      -3.12281282E-26
  0.689999998       2.28616352E-25
  0.750000000       9.10688245E-25
  0.810000002       2.09631207E-24
  0.870000005       3.27762989E-24
  0.930000007       2.61929470E-24
  0.990000010      -3.60035249E-24
   1.04999995      -2.01041312E-23
   1.11000001      -4.82746050E-23
   1.16999996      -7.69844309E-23
   1.23000002      -7.12521005E-23
   1.28999996       3.03306353E-23
   1.35000002       2.89622140E-22
   1.40999997       6.96449372E-22
   1.47000003       1.05968905E-21
   1.52999997       9.31994352E-22
   1.59000003      -2.95980384E-22
   1.64999998      -2.99517778E-21
   1.71000004      -6.60761850E-21
   1.76999998      -9.01217316E-21
   1.83000004      -6.65380167E-21
   1.88999999       3.81719094E-21
   1.95000005       2.23279376E-20
   2.00999999       4.19775452E-20
   2.06999993       4.83895812E-20
   2.13000011       2.49814700E-20
   2.19000006      -3.52714854E-20
   2.25000000      -1.16384933E-19
   2.30999994      -1.74526876E-19
   2.36999989      -1.52637829E-19
   2.43000007      -1.65074166E-20
   2.49000001       2.03051696E-19
   2.54999995       3.93671099E-19
   2.60999990       4.02063105E-19
   2.67000008       1.34893125E-19
   2.73000002      -3.27852519E-19
   2.78999996      -6.97569941E-19
   2.84999990      -6.01454707E-19
   2.91000009       1.38989672E-19
   2.97000003       1.22063693E-18
   3.02999997       1.81060737E-18
   3.08999991       9.37029474E-19
   3.15000010      -1.73465399E-18
   3.21000004      -5.16045724E-18
   3.26999998      -6.86942562E-18
   3.32999992      -4.09208606E-18
   3.39000010       4.13450182E-18
   3.45000005       1.50120096E-17
   3.50999999       2.18503001E-17
   3.56999993       1.69430545E-17
   3.63000011      -3.08012571E-18
   3.69000006      -3.21893001E-17
   3.75000000      -5.42237538E-17
   3.80999994      -4.93830895E-17
   3.86999989      -6.87911770E-18
   3.93000007       6.24444534E-17
   3.99000001       1.22767738E-16
   4.05000019       1.26209140E-16
   4.11000013       4.06256655E-17
   4.17000008      -1.20230676E-16
   4.23000002      -2.83983942E-16
   4.28999996      -3.40762255E-16
   4.34999990      -1.98669090E-16
   4.40999985       1.48526221E-16
   4.46999979       5.80253991E-16
   4.53000021       8.70911230E-16
   4.59000015       7.84375856E-16
   4.65000010       2.09560941E-16
   4.71000004      -7.29894749E-16
   4.76999998      -1.66394381E-15
   4.82999992      -2.09843773E-15
   4.88999987      -1.64075565E-15
   4.94999981      -2.32718649E-16
   5.01000023       1.73142767E-15
   5.07000017       3.48860006E-15
   5.13000011       4.18994800E-15
   5.19000006       3.27920547E-15
   5.25000000       7.98955198E-16
   5.30999994      -2.52945553E-15
   5.36999989      -5.51674803E-15
   5.42999983      -6.94373809E-15
   5.48999977      -6.05613819E-15
   5.55000019      -2.91000414E-15
   5.61000013       1.58600228E-15
   5.67000008       5.96701211E-15
   5.73000002       8.74613526E-15
   5.78999996       8.98345526E-15
   5.84999990       6.65748415E-15
   5.90999985       2.66572407E-15
   5.96999979      -1.58097704E-15
   6.03000021      -4.82539635E-15
   6.09000015      -6.59030851E-15
   6.15000010      -7.41142055E-15
   6.21000004      -8.44680059E-15
   6.26999998      -1.05313673E-14
   6.32999992      -1.31161476E-14
   6.38999987      -1.37777752E-14
   6.44999981      -8.89674365E-15
   6.51000023       4.40057587E-15
   6.57000017       2.57114191E-14
   6.63000011       4.95709769E-14
   6.69000006       6.58386919E-14
   6.75000000       6.29519765E-14
   6.80999994       3.33408668E-14
   6.86999989      -2.11669705E-14
   6.92999983      -8.68239603E-14
   6.98999977      -1.40521600E-13
   7.05000019      -1.57587512E-13
   7.11000013      -1.22337795E-13
   7.17000008      -3.69369384E-14
   7.23000002       7.60004039E-14
   7.28999996       1.79475006E-13
   7.34999990       2.35496301E-13
   7.40999985       2.20737423E-13
   7.46999979       1.37547254E-13
   7.53000021       1.46646763E-14
   7.59000015      -1.03842933E-13
   7.65000010      -1.77421486E-13
   7.71000004      -1.87398681E-13
   7.76999998      -1.45841008E-13
   7.82999992      -8.94425457E-14
   7.88999987      -5.98067602E-14
   7.94999981      -7.86485948E-14
   8.01000023      -1.30451653E-13
   8.06999969      -1.63429857E-13
   8.13000011      -1.12132478E-13
   8.18999958       6.56203675E-14
   8.25000000       3.53839923E-13
   8.31000042       6.64552126E-13
   8.36999989       8.57814958E-13
   8.43000031       7.94378018E-13
   8.48999977       4.03430436E-13
   8.55000019      -2.63499509E-13
   8.60999966      -1.02139488E-12
   8.67000008      -1.59855451E-12
   8.72999954      -1.73294213E-12
   8.78999996      -1.28523993E-12
   8.85000038      -3.21694792E-13
   8.90999985       8.75469890E-13
   8.97000027       1.88762244E-12
   9.02999973       2.30998792E-12
   9.09000015       1.91913434E-12
   9.14999962       7.88648335E-13
   9.21000004      -7.03083858E-13
   9.27000046      -1.98960640E-12
   9.32999992      -2.52279144E-12
   9.39000034      -1.99257212E-12
   9.44999981      -4.71889346E-13
   9.51000023       1.57561767E-12
   9.56999969       3.43378841E-12
   9.63000011       4.36756534E-12
   9.68999958       3.86418285E-12
   9.75000000       1.79535152E-12
   9.81000042      -1.54716593E-12
   9.86999989      -5.53327002E-12
   9.93000031      -9.33803122E-12
   9.98999977      -1.20790426E-11
   10.0500002      -1.29063947E-11
   10.1099997      -1.10540908E-11
   10.1700001      -5.90616488E-12
   10.2299995       2.85852852E-12
   10.2900000       1.50136917E-11
   10.3500004       2.94664085E-11
   10.4099998       4.39889722E-11
   10.4700003       5.51658198E-11
   10.5299997       5.87084756E-11
   10.5900002       5.02146311E-11
   10.6499996       2.63194536E-11
   10.7100000      -1.39579563E-11
   10.7700005      -6.79896209E-11
   10.8299999      -1.28806354E-10
   10.8900003      -1.85190682E-10
   10.9499998      -2.22793867E-10
   11.0100002      -2.26267005E-10
   11.0699997      -1.82158635E-10
   11.1300001      -8.21249249E-11
   11.1899996       7.41190304E-11
   11.2500000       2.76670215E-10
   11.3100004       5.04558617E-10
   11.3699999       7.26319671E-10
   11.4300003       9.01970554E-10
   11.4899998       9.86140059E-10
   11.5500002       9.31994593E-10
   11.6099997       6.95601132E-10
   11.6700001       2.40428621E-10
   11.7299995      -4.58250882E-10
   11.7900000      -1.40930534E-09
   11.8500004      -2.60236899E-09
   11.9099998      -4.00563716E-09
   11.9700003      -5.56542412E-09
   12.0299997      -7.20805593E-09
   12.0900002      -8.84441498E-09
   12.1499996      -1.03770255E-08
   12.2100000      -1.17090160E-08
   12.2700005      -1.27538122E-08
   12.3299999      -1.34441738E-08
   12.3900003      -1.37392560E-08
   12.4499998      -1.36287683E-08
   12.5100002      -1.31338433E-08
   12.5699997      -1.23047545E-08
   12.6300001      -1.12160148E-08
   12.6899996      -9.95948746E-09
   12.7500000      -8.63610516E-09
   12.8100004      -7.34673922E-09
   12.8699999      -6.18278317E-09
   12.9300003      -5.21720267E-09
   12.9899998      -4.49708581E-09
   13.0500002      -4.03890121E-09
   13.1099997      -3.82758136E-09
   13.1700001      -3.82005760E-09
   13.2299995      -3.95306321E-09
   13.2900000      -4.15404333E-09
   13.3500004      -4.35320713E-09
   13.4099998      -4.49438664E-09
   13.4700003      -4.54258497E-09
   13.5299997      -4.48690463E-09
   13.5900002      -4.33866010E-09
   13.6499996      -4.12562917E-09
   13.7100000      -3.88419386E-09
   13.7700005      -3.65136654E-09
   13.8299999      -3.45837026E-09
   13.8900003      -3.32670025E-09
   13.9499998      -3.26674243E-09
   14.0100002      -3.27834804E-09
   14.0699997      -3.35246364E-09
   14.1300001      -3.47301965E-09
   14.1899996      -3.61865626E-09
   14.2500000      -3.76432352E-09
   14.3100004      -3.88308363E-09
   14.3699999      -3.94847843E-09
   14.4300003      -3.93759114E-09
   14.4899998      -3.83451759E-09
   14.5500002      -3.63356545E-09
   14.6099997      -3.34130301E-09
   14.6700001      -2.97664560E-09
   14.7299995      -2.56860599E-09
   14.7900000      -2.15193441E-09
   14.8500004      -1.76152670E-09
   14.9099998      -1.42689272E-09
   14.9700003      -1.16799548E-09
   15.0299997      -9.93342186E-10
   15.0900002      -9.00471586E-10
   15.1499996      -8.78210726E-10
   15.2100000      -9.09603504E-10
   15.2700005      -9.74448744E-10
   15.3299999      -1.05092768E-09
   15.3900003      -1.11656850E-09
   15.4499998      -1.14939513E-09
   15.5100002      -1.13015575E-09
   15.5699997      -1.04590836E-09
   15.6300001      -8.94183561E-10
   15.6899996      -6.85960788E-10
   15.7500000      -4.45384257E-10
   15.8100004      -2.04853828E-10
   15.8699999       4.23028192E-12
   15.9300003       1.62790351E-10
   15.9899998       2.73711109E-10
   16.0499992       3.65867892E-10
   16.1100006       4.90053942E-10
   16.1700001       7.06996683E-10
   16.2299995       1.07061060E-09
   16.2900009       1.61167613E-09
   16.3500004       2.32736075E-09
   16.4099998       3.18020521E-09
   16.4699993       4.10700762E-09
   16.5300007       5.03466246E-09
   16.5900002       5.89774052E-09
   16.6499996       6.65228184E-09
   16.7099991       7.28192884E-09
   16.7700005       7.79542475E-09
   16.8299999       8.21749069E-09
   16.8899994       8.57700044E-09
   16.9500008       8.89670559E-09
   17.0100002       9.18752363E-09
   17.0699997       9.44828926E-09
   17.1299992       9.66980540E-09
   17.1900005       9.84069271E-09
   17.2500000       9.95235183E-09
   17.3099995       1.00011732E-08
   17.3700008       9.98754413E-09
   17.4300003       9.91255433E-09
   17.4899998       9.77423031E-09
   17.5499992       9.56519131E-09
   17.6100006       9.27300814E-09
   17.6700001       8.88337937E-09
   17.7299995       8.38509706E-09
   17.7900009       7.77496378E-09
   17.8500004       7.06079284E-09
   17.9099998       6.26129060E-09
   17.9699993       5.40280798E-09
   18.0300007       4.51414550E-09
   18.0900002       3.62132813E-09
   18.1499996       2.74419820E-09
   18.2099991       1.89580329E-09
   18.2700005       1.08432308E-09
   18.3299999       3.16143361E-10
   18.3899994      -4.01749384E-10
   18.4500008      -1.06147180E-09
   18.5100002      -1.65635594E-09
   18.5699997      -2.18450324E-09
   18.6299992      -2.65197730E-09
   18.6900005      -3.07385251E-09
   18.7500000      -3.47223450E-09
   18.8099995      -3.87173271E-09
   18.8700008      -4.29407310E-09
   18.9300003      -4.75396034E-09
   18.9899998      -5.25772492E-09
   19.0499992      -5.80492898E-09
   19.1100006      -6.39162145E-09
   19.1700001      -7.01303593E-09
   19.2299995      -7.66379848E-09
   19.2900009      -8.33500557E-09
   19.3500004      -9.00942609E-09
   19.4099998      -9.65752545E-09
   19.4699993      -1.02373354E-08
   19.5300007      -1.06999796E-08
   19.5900002      -1.10003668E-08
   19.6499996      -1.11100373E-08
   19.7099991      -1.10276357E-08
   19.7700005      -1.07825899E-08
   19.8299999      -1.04296030E-08
   19.8899994      -1.00346842E-08
   19.9500008      -9.65660440E-09
   20.0100002      -9.32957445E-09
   20.0699997      -9.05295838E-09
   20.1299992      -8.79171136E-09
   20.1900005      -8.48787352E-09
   20.2500000      -8.07974576E-09
   20.3099995      -7.52275486E-09
   20.3700008      -6.80521239E-09
   20.4300003      -5.95363536E-09
   20.4899998      -5.02557285E-09
   20.5499992      -4.09200052E-09
   20.6100006      -3.21502269E-09
   20.6700001      -2.42847675E-09
   20.7299995      -1.72839398E-09
   20.7900009      -1.07714271E-09
   20.8500004      -4.20406571E-10
   20.9099998       2.88425256E-10
   20.9699993       1.06474907E-09
   21.0300007       1.87843074E-09
   21.0900002       2.65410938E-09
   21.1499996       3.28675065E-09
   21.2099991       3.66807029E-09
   21.2700005       3.71594466E-09
   21.3299999       3.39808115E-09
   21.3899994       2.74313083E-09
   21.4500008       1.83632454E-09
   21.5100002       8.01241073E-10
   21.5699997      -2.26959077E-10
   21.6299992      -1.12952037E-09
   21.6900005      -1.82614590E-09
   21.7500000      -2.28602892E-09
   21.8099995      -2.52599608E-09
   21.8700008      -2.59744870E-09
   21.9300003      -2.56666599E-09
   21.9899998      -2.49453347E-09
   22.0499992      -2.42152076E-09
   22.1100006      -2.36180320E-09
   22.1700001      -2.30738539E-09
   22.2299995      -2.23986696E-09
   22.2900009      -2.14509166E-09
   22.3500004      -2.02515116E-09
   22.4099998      -1.90330640E-09
   22.4699993      -1.82001902E-09
   22.5300007      -1.82152515E-09
   22.5900002      -1.94512517E-09
   22.6499996      -2.20662688E-09
   22.7099991      -2.59468536E-09
   22.7700005      -3.07433856E-09
   22.8299999      -3.59873131E-09
   22.8899994      -4.12495993E-09
   22.9500008      -4.62838923E-09
   23.0100002      -5.11020382E-09
   23.0699997      -5.59531887E-09
   23.1299992      -6.12126527E-09
   23.1900005      -6.72195544E-09
   23.2500000      -7.41217487E-09
   23.3099995      -8.17847567E-09
   23.3700008      -8.97991992E-09
   23.4300003      -9.75868275E-09
   23.4899998      -1.04570370E-08
   23.5499992      -1.10350520E-08
   23.6100006      -1.14830847E-08
   23.6700001      -1.18249712E-08
   23.7299995      -1.21110002E-08
   23.7900009      -1.24031567E-08
   23.8500004      -1.27575932E-08
   23.9099998      -1.32100313E-08
   23.9699993      -1.37685294E-08
   24.0300007      -1.44153773E-08
   24.0900002      -1.51166883E-08
   24.1499996      -1.58357043E-08
   24.2099991      -1.65448260E-08
   24.2700005      -1.72321535E-08
   24.3299999      -1.79006356E-08
   24.3899994      -1.85607405E-08
   24.4500008      -1.92199661E-08
   24.5100002      -1.98735481E-08
   24.5699997      -2.05000426E-08
   24.6299992      -2.10635793E-08
   24.6900005      -2.15219629E-08
   24.7500000      -2.18377618E-08
   24.8099995      -2.19884981E-08
   24.8700008      -2.19725909E-08
   24.9300003      -2.18092140E-08
   24.9899998      -2.15325091E-08
   25.0499992      -2.11822613E-08
   25.1100006      -2.07942374E-08
   25.1700001      -2.03930881E-08
   25.2299995      -1.99896117E-08
   25.2900009      -1.95825791E-08
   25.3500004      -1.91638048E-08
   25.4099998      -1.87243412E-08
   25.4699993      -1.82596018E-08
   25.5300007      -1.77719031E-08
   25.5900002      -1.72700734E-08
   25.6499996      -1.67668261E-08
   25.7099991      -1.62752904E-08
   25.7700005      -1.58062274E-08
   25.8299999      -1.53669237E-08
   25.8899994      -1.49620281E-08
   25.9500008      -1.45955896E-08
   26.0100002      -1.42731311E-08
   26.0699997      -1.40024365E-08
   26.1299992      -1.37922633E-08
   26.1900005      -1.36490028E-08
   26.2500000      -1.35722189E-08
   26.3099995      -1.35506593E-08
   26.3700008      -1.35604417E-08
   26.4300003      -1.35667184E-08
   26.4899998      -1.35291307E-08
   26.5499992      -1.34102365E-08
   26.6100006      -1.31849838E-08
   26.6700001      -1.28486128E-08
   26.7299995      -1.24204078E-08
   26.7900009      -1.19415473E-08
   26.8500004      -1.14668275E-08
   26.9099998      -1.10519300E-08
   26.9699993      -1.07395728E-08
   27.0300007      -1.05486979E-08
   27.0900002      -1.04703650E-08
   27.1499996      -1.04722133E-08
   27.2099991      -1.05106688E-08
   27.2700005      -1.05473763E-08
   27.3299999      -1.05647029E-08
   27.3899994      -1.05751727E-08
   27.4500008      -1.06215792E-08
   27.5100002      -1.07675726E-08
   27.5699997      -1.10816911E-08
   27.6299992      -1.16199059E-08
   27.6900005      -1.24120465E-08
   27.7500000      -1.34558409E-08
   27.8099995      -1.47195518E-08
   27.8700008      -1.61512919E-08
   27.9300003      -1.76911978E-08
   27.9899998      -1.92823251E-08
   28.0499992      -2.08773194E-08
   28.1100006      -2.24399450E-08
   28.1700001      -2.39425990E-08
   28.2299995      -2.53621515E-08
   28.2900009      -2.66765898E-08
   28.3500004      -2.78641217E-08
   28.4099998      -2.89050242E-08
   28.4699993      -2.97853120E-08
   28.5300007      -3.05004306E-08
   28.5900002      -3.10571373E-08
   28.6499996      -3.14722470E-08
   28.7099991      -3.17680282E-08
   28.7700005      -3.19652500E-08
   28.8299999      -3.20760876E-08
   28.8899994      -3.20994111E-08
   28.9500008      -3.20206475E-08
   29.0100002      -3.18169029E-08
   29.0699997      -3.14660262E-08
   29.1299992      -3.09566524E-08
   29.1900005      -3.02953715E-08
   29.2500000      -2.95080067E-08
   29.3099995      -2.86341031E-08
   29.3700008      -2.77162293E-08
   29.4300003      -2.67878661E-08
   29.4899998      -2.58640735E-08
   29.5499992      -2.49380783E-08
   29.6100006      -2.39845850E-08
   29.6700001      -2.29681145E-08
   29.7299995      -2.18531486E-08
   29.7900009      -2.06125126E-08
   29.8500004      -1.92316332E-08
   29.9099998      -1.77079507E-08
   29.9699993      -1.60466485E-08
   30.0300007      -1.42548924E-08
   30.0900002      -1.23371979E-08
   30.1499996      -1.02940279E-08
   30.2099991      -8.12459255E-09
   30.2700005      -5.83342485E-09
   30.3299999      -3.43879614E-09
   30.3899994      -9.79989312E-10
   30.4500008       1.47979862E-09
   30.5100002       3.85731758E-09
   30.5699997       6.06033401E-09
   30.6299992       8.00389799E-09
   30.6900005       9.62754498E-09
   30.7500000       1.09081482E-08
   30.8099995       1.18637962E-08
   30.8700008       1.25465025E-08
   30.9300003       1.30249935E-08
   30.9899998       1.33621239E-08
   31.0499992       1.35935334E-08
   31.1100006       1.37140805E-08
   31.1700001       1.36764369E-08
   31.2299995       1.34024987E-08
   31.2900009       1.28043558E-08
   31.3500004       1.18085630E-08
   31.4099998       1.03765574E-08
   31.4699993       8.51533066E-09
   31.5300007       6.27566221E-09
   31.5900002       3.73899134E-09
   31.6499996       9.97371075E-10
   31.7099991      -1.86734717E-09
   31.7700005      -4.79919171E-09
   31.8299999      -7.77468667E-09
   31.8899994      -1.07994520E-08
   31.9500008      -1.38967557E-08
   32.0099983      -1.70920789E-08
   32.0699997      -2.03984971E-08
   32.1300011      -2.38069973E-08
   32.1899986      -2.72841234E-08
   32.2500000      -3.07770591E-08
   32.3100014      -3.42241187E-08
   32.3699989      -3.75670908E-08
   32.4300003      -4.07616092E-08
   32.4900017      -4.37824781E-08
   32.5499992      -4.66227803E-08
   32.6100006      -4.92876957E-08
   32.6699982      -5.17857544E-08
   32.7299995      -5.41210419E-08
   32.7900009      -5.62892524E-08
   32.8499985      -5.82788040E-08
   32.9099998      -6.00761254E-08
   32.9700012      -6.16724805E-08
   33.0299988      -6.30690877E-08
   33.0900002      -6.42781828E-08
   33.1500015      -6.53192913E-08
   33.2099991      -6.62121167E-08
   33.2700005      -6.69690294E-08
   33.3300018      -6.75901575E-08
   33.3899994      -6.80630947E-08
   33.4500008      -6.83673065E-08
   33.5099983      -6.84815618E-08
   33.5699997      -6.83913299E-08
   33.6300011      -6.80934988E-08
   33.6899986      -6.75967087E-08
   33.7500000      -6.69174867E-08
   33.8100014      -6.60739587E-08
   33.8699989      -6.50797389E-08
   33.9300003      -6.39404618E-08
   33.9900017      -6.26545074E-08
   34.0499992      -6.12178894E-08
   34.1100006      -5.96316596E-08
   34.1699982      -5.79092969E-08
   34.2299995      -5.60809816E-08
   34.2900009      -5.41926681E-08
   34.3499985      -5.22992316E-08
   34.4099998      -5.04532665E-08
   34.4700012      -4.86929359E-08
   34.5299988      -4.70332218E-08
   34.5900002      -4.54641338E-08
   34.6500015      -4.39572077E-08
   34.7099991      -4.24784794E-08
   34.7700005      -4.10032790E-08
   34.8300018      -3.95272224E-08
   34.8899994      -3.80687233E-08
   34.9500008      -3.66615964E-08
   35.0099983      -3.53400722E-08
   35.0699997      -3.41217081E-08
   35.1300011      -3.29949223E-08
   35.1899986      -3.19162439E-08
   35.2500000      -3.08193826E-08
   35.3100014      -2.96339184E-08
   35.3699989      -2.83079302E-08
   35.4300003      -2.68272942E-08
   35.4900017      -2.52249865E-08
   35.5499992      -2.35765576E-08
   35.6100006      -2.19822631E-08
   35.6699982      -2.05407016E-08
   35.7299995      -1.93219361E-08
   35.7900009      -1.83488034E-08
   35.8499985      -1.75929866E-08
   35.9099998      -1.69877552E-08
   35.9700012      -1.64537042E-08
   36.0299988      -1.59291105E-08
   36.0900002      -1.53944324E-08
   36.1500015      -1.48820982E-08
   36.2099991      -1.44674850E-08
   36.2700005      -1.42434340E-08
   36.3300018      -1.42864378E-08
   36.3899994      -1.46257424E-08
   36.4500008      -1.52259521E-08
   36.5099983      -1.59894320E-08
   36.5699997      -1.67784862E-08
   36.6300011      -1.74508941E-08
   36.6899986      -1.78981612E-08
   36.7500000      -1.80748732E-08
   36.8100014      -1.80103203E-08
   36.8699989      -1.77988788E-08
   36.9300003      -1.75720967E-08
   36.9900017      -1.74607937E-08
   37.0499992      -1.75584578E-08
   37.1100006      -1.78966690E-08
   37.1699982      -1.84396427E-08
   37.2299995      -1.90991898E-08
   37.2900009      -1.97652632E-08
   37.3499985      -2.03424921E-08
   37.4099998      -2.07813038E-08
   37.4700012      -2.10937117E-08
   37.5299988      -2.13487024E-08
   37.5900002      -2.16484466E-08
   37.6500015      -2.20928200E-08
   37.7099991      -2.27437980E-08
   37.7700005      -2.36015651E-08
   37.8300018      -2.46006628E-08
   37.8899994      -2.56279780E-08
   37.9500008      -2.65570002E-08
   38.0099983      -2.72871059E-08
   38.0699997      -2.77746395E-08
   38.1300011      -2.80450987E-08
   38.1899986      -2.81820469E-08
   38.2500000      -2.82963271E-08
   38.3100014      -2.84860260E-08
   38.3699989      -2.88009741E-08
   38.4300003      -2.92241467E-08
   38.4900017      -2.96766576E-08
   38.5499992      -3.00448839E-08
   38.6100006      -3.02205834E-08
   38.6699982      -3.01401926E-08
   38.7299995      -2.98095983E-08
   38.7900009      -2.93055411E-08
   38.8499985      -2.87528490E-08
   38.9099998      -2.82850401E-08
   38.9700012      -2.80016579E-08
   39.0299988      -2.79369186E-08
   39.0900002      -2.80504153E-08
   39.1500015      -2.82430683E-08
   39.2099991      -2.83929431E-08
   39.2700005      -2.83987802E-08
   39.3300018      -2.82165207E-08
   39.3899994      -2.78763839E-08
   39.4500008      -2.74745400E-08
   39.5099983      -2.71418141E-08
   39.5699997      -2.69994853E-08
   39.6300011      -2.71166769E-08
   39.6899986      -2.74835514E-08
   39.7500000      -2.80095716E-08
   39.8100014      -2.85480564E-08
   39.8699989      -2.89394606E-08
   39.9300003      -2.90595370E-08
   39.9900017      -2.88565829E-08
   40.0499992      -2.83655304E-08
   40.1100006      -2.76943375E-08
   40.1699982      -2.69876086E-08
   40.2299995      -2.63800253E-08
   40.2900009      -2.59555151E-08
   40.3499985      -2.57257344E-08
   40.4099998      -2.56343586E-08
   40.4700012      -2.55845549E-08
   40.5299988      -2.54790624E-08
   40.5900002      -2.52584318E-08
   40.6500015      -2.49243488E-08
   40.7099991      -2.45407410E-08
   40.7700005      -2.42133691E-08
   40.8300018      -2.40558951E-08
   40.8899994      -2.41544811E-08
   40.9500008      -2.45428531E-08
   41.0099983      -2.51955594E-08
   41.0699997      -2.60407376E-08
   41.1300011      -2.69870881E-08
   41.1899986      -2.79552594E-08
   41.2500000      -2.89026652E-08
   41.3100014      -2.98333021E-08
   41.3699989      -3.07893977E-08
   41.4300003      -3.18281934E-08
   41.4900017      -3.29923502E-08
   41.5499992      -3.42850726E-08
   41.6100006      -3.56595109E-08
   41.6699982      -3.70272595E-08
   41.7299995      -3.82839360E-08
   41.7900009      -3.93434583E-08
   41.8499985      -4.01690912E-08
   41.9099998      -4.07897431E-08
   41.9700012      -4.12947507E-08
   42.0299988      -4.18076951E-08
   42.0900002      -4.24473185E-08
   42.1500015      -4.32884200E-08
   42.2099991      -4.43363639E-08
   42.2700005      -4.55244908E-08
   42.3300018      -4.67360479E-08
   42.3899994      -4.78438444E-08
   42.4500008      -4.87542344E-08
   42.5099983      -4.94403949E-08
   42.5699997      -4.99531545E-08
   42.6300011      -5.04054256E-08
   42.6899986      -5.09352311E-08
   42.7500000      -5.16598249E-08
   42.8100014      -5.26360502E-08
   42.8699989      -5.38398268E-08
   42.9300003      -5.51709221E-08
   42.9900017      -5.64808751E-08
   43.0499992      -5.76147627E-08
   43.1100006      -5.84538320E-08
   43.1699982      -5.89464761E-08
   43.2299995      -5.91190634E-08
   43.2900009      -5.90643729E-08
   43.3499985      -5.89118443E-08
   43.4099998      -5.87887321E-08
   43.4700012      -5.87836801E-08
   43.5299988      -5.89233125E-08
   43.5900002      -5.91681975E-08
   43.6500015      -5.94287108E-08
   43.7099991      -5.95947469E-08
   43.7700005      -5.95690715E-08
   43.8300018      -5.92932992E-08
   43.8899994      -5.87586548E-08
   43.9500008      -5.79995998E-08
   44.0099983      -5.70746899E-08
   44.0699997      -5.60430387E-08
   44.1300011      -5.49455379E-08
   44.1899986      -5.37967217E-08
   44.2500000      -5.25886890E-08
   44.3100014      -5.13036618E-08
   44.3699989      -4.99292838E-08
   44.4300003      -4.84707314E-08
   44.4900017      -4.69557300E-08
   44.5499992      -4.54316016E-08
   44.6100006      -4.39560708E-08
   44.6699982      -4.25853841E-08
   44.7299995      -4.13633394E-08
   44.7900009      -4.03143652E-08
   44.8499985      -3.94420745E-08
   44.9099998      -3.87332122E-08
   44.9700012      -3.81653180E-08
   45.0299988      -3.77156510E-08
   45.0900002      -3.73687357E-08
   45.1500015      -3.71205147E-08
   45.2099991      -3.69782498E-08
   45.2700005      -3.69566386E-08
   45.3300018      -3.70716080E-08
   45.3899994      -3.73339510E-08
   45.4500008      -3.77449787E-08
   45.5099983      -3.82955427E-08
   45.5699997      -3.89687393E-08
   45.6300011      -3.97451778E-08
   45.6899986      -4.06087928E-08
   45.7500000      -4.15508943E-08
   45.8100014      -4.25708855E-08
   45.8699989      -4.36734453E-08
   45.9300003      -4.48635014E-08
   45.9900017      -4.61411780E-08
   46.0499992      -4.74988191E-08
   46.1100006      -4.89211942E-08
   46.1699982      -5.03884756E-08
   46.2299995      -5.18804839E-08
   46.2900009      -5.33802371E-08
   46.3499985      -5.48752617E-08
   46.4099998      -5.63562139E-08
   46.4700012      -5.78133097E-08
   46.5299988      -5.92323630E-08
   46.5900002      -6.05923915E-08
   46.6500015      -6.18666292E-08
   46.7099991      -6.30277412E-08
   46.7700005      -6.40563442E-08
   46.8300018      -6.49502994E-08
   46.8899994      -6.57312214E-08
   46.9500008      -6.64446915E-08
   47.0099983      -6.71528895E-08
   47.0699997      -6.79209364E-08
   47.1300011      -6.88012349E-08
   47.1899986      -6.98213825E-08
   47.2500000      -7.09805548E-08
   47.3100014      -7.22566469E-08
   47.3699989      -7.36226085E-08
   47.4300003      -7.50674829E-08
   47.4900017      -7.66156418E-08
   47.5499992      -7.83385232E-08
   47.6100006      -8.03551075E-08
   47.6699982      -8.28210602E-08
   47.7299995      -8.59101092E-08
   47.7900009      -8.97938577E-08
   47.8499985      -9.46273744E-08
   47.9099998      -1.00546629E-07
   47.9700012      -1.07680179E-07
   48.0299988      -1.16172920E-07
   48.0900002      -1.26215610E-07
   48.1500015      -1.38071741E-07
   48.2099991      -1.52094515E-07
   48.2700005      -1.68730224E-07
   48.3300018      -1.88509631E-07
   48.3899994      -2.12032717E-07
   48.4500008      -2.39954346E-07
   48.5099983      -2.72977786E-07
   48.5699997      -3.11860219E-07
   48.6300011      -3.57431531E-07
   48.6899986      -4.10624068E-07
   48.7500000      -4.72507679E-07
   48.8100014      -5.44324564E-07
   48.8699989      -6.27517409E-07
   48.9300003      -7.23745870E-07
   48.9900017      -8.34892376E-07
   49.0499992      -9.63058824E-07
   49.1100006      -1.11056363E-06
   49.1699982      -1.27994531E-06
   49.2299995      -1.47397918E-06
   49.2900009      -1.69570808E-06
   49.3499985      -1.94848258E-06
   49.4099998      -2.23600273E-06
   49.4700012      -2.56235762E-06
   49.5299988      -2.93205267E-06
   49.5900002      -3.35003051E-06
   49.6500015      -3.82168264E-06
   49.7099991      -4.35285847E-06
   49.7700005      -4.94987489E-06
   49.8300018      -5.61952720E-06
   49.8899994      -6.36910590E-06
   49.9500008      -7.20641128E-06
   50.0099983      -8.13977204E-06
   50.0699997      -9.17805482E-06
   50.1300011      -1.03306611E-05
   50.1899986      -1.16075216E-05
   50.2500000      -1.30190747E-05
   50.3100014      -1.45762388E-05
   50.3699989      -1.62903871E-05
   50.4300003      -1.81733230E-05
   50.4900017      -2.02372557E-05
   50.5499992      -2.24947507E-05
   50.6100006      -2.49587101E-05