  -2.400000      0.0000000E+00
  -2.340000      0.0000000E+00
  -2.280000      0.0000000E+00
  -2.220000      0.0000000E+00
  -2.160000      0.0000000E+00
  -2.100000      0.0000000E+00
  -2.040000      1.1511850E-23
  -1.980000      1.0940098E-22
  -1.920000      5.3140624E-22
  -1.860000      1.7369605E-21
  -1.800000      4.2250350E-21
  -1.740000      7.9359070E-21
  -1.680000      1.1326089E-20
  -1.620000      1.0584286E-20
  -1.560000     -3.6349865E-22
  -1.500000     -2.8587921E-20
  -1.440000     -7.9370888E-20
  -1.380000     -1.5138170E-19
  -1.320000     -2.2892927E-19
  -1.260000     -2.7207666E-19
  -1.200000     -2.1183541E-19
  -1.140000      3.2087551E-20
  -1.080000      4.8904572E-19
  -1.020000      1.0277247E-18
 -0.9600000      1.2512964E-18
 -0.9000000      5.2671558E-19
 -0.8400000     -1.6851010E-18
 -0.7800000     -5.1268828E-18
 -0.7200000     -7.8900548E-18
 -0.6600000     -6.0481486E-18
 -0.6000000      5.2901414E-18
 -0.5400000      2.8820716E-17
 -0.4800000      6.0182214E-17
 -0.4200000      8.3618550E-17
 -0.3600000      7.2111005E-17
 -0.3000000     -3.8949590E-18
 -0.2400000     -1.5780516E-16
 -0.1800000     -3.6285669E-16
 -0.1200000     -5.3475863E-16
 -5.9999999E-02 -5.3766189E-16
  0.0000000E+00 -2.2711786E-16
  5.9999999E-02  4.7008624E-16
  0.1200000      1.4618839E-15
  0.1800000      2.4280629E-15
  0.2400000      2.8433083E-15
  0.3000000      2.1241860E-15
  0.3600000     -1.0856047E-16
  0.4200000     -3.7263563E-15
  0.4800000     -7.8790488E-15
  0.5400000     -1.1017967E-14
  0.6000000     -1.1251516E-14
  0.6600000     -7.0111945E-15
  0.7200000      2.1451819E-15
  0.7800000      1.4889686E-14
  0.8400000      2.7966966E-14
  0.9000000      3.6747376E-14
  0.9600000      3.6488014E-14
   1.020000      2.4015500E-14
   1.080000     -6.9187149E-16
   1.140000     -3.3628844E-14
   1.200000     -6.7070359E-14
   1.260000     -9.1201440E-14
   1.320000     -9.6760077E-14
   1.380000     -7.7966503E-14
   1.440000     -3.4789639E-14
   1.500000      2.6303041E-14
   1.560000      9.3527914E-14
   1.620000      1.5263915E-13
   1.680000      1.9051637E-13
   1.740000      1.9817543E-13
   1.800000      1.7207497E-13
   1.860000      1.1337466E-13
   1.920000      2.5914002E-14
   1.980000     -8.5425062E-14
   2.040000     -2.1424805E-13
   2.100000     -3.4944150E-13
   2.160000     -4.7057638E-13
   2.220000     -5.4518542E-13
   2.280000     -5.3178198E-13
   2.340000     -3.9086968E-13
   2.400000     -1.0248153E-13
   2.460000      3.1559578E-13
   2.520000      7.9751982E-13
   2.580000      1.2347243E-12
   2.640000      1.4994859E-12
   2.700000      1.4816192E-12
   2.760000      1.1262888E-12
   2.820000      4.5842843E-13
   2.880000     -4.1685603E-13
   2.940000     -1.3393437E-12
   3.000000     -2.1350998E-12
   3.060000     -2.6581940E-12
   3.120000     -2.8170734E-12
   3.180000     -2.5777588E-12
   3.240000     -1.9477150E-12
   3.300000     -9.5408512E-13
   3.360000      3.6717781E-13
   3.420000      1.9605801E-12
   3.480000      3.7201587E-12
   3.540000      5.4524566E-12
   3.600000      6.8548899E-12
   3.660000      7.5293088E-12
   3.720000      7.0403522E-12
   3.780000      5.0132502E-12
   3.840000      1.2518998E-12
   3.900000     -4.1501286E-12
   3.960000     -1.0733320E-11
   4.020000     -1.7651727E-11
   4.080000     -2.3718629E-11
   4.140000     -2.7516888E-11
   4.200000     -2.7562041E-11
   4.260000     -2.2497469E-11
   4.320000     -1.1294958E-11
   4.380000      6.5695023E-12
   4.440000      3.0993170E-11
   4.500000      6.1198692E-11
   4.560000      9.5769004E-11
   4.620000      1.3275626E-10
   4.680000      1.6984131E-10
   4.740000      2.0451228E-10
   4.800000      2.3423535E-10
   4.860000      2.5660354E-10
   4.920000      2.6946875E-10
   4.980000      2.7107344E-10
   5.040000      2.6019853E-10
   5.100000      2.3632712E-10
   5.160000      1.9980037E-10
   5.220000      1.5191920E-10
   5.280000      9.4942491E-11
   5.340000      3.1947559E-11
   5.400000     -3.3445479E-11
   5.460000     -9.7444441E-11
   5.520000     -1.5648051E-10
   5.580000     -2.0755460E-10
   5.640000     -2.4847902E-10
   5.700000     -2.7799441E-10
   5.760000     -2.9577668E-10
   5.820000     -3.0237168E-10
   5.880000     -2.9909480E-10
   5.940000     -2.8791741E-10
   6.000000     -2.7133831E-10
   6.060000     -2.5221672E-10
   6.120000     -2.3354182E-10
   6.180000     -2.1812584E-10
   6.240000     -2.0823838E-10
   6.300000     -2.0523262E-10
   6.360000     -2.0924534E-10
   6.420000     -2.1905879E-10
   6.480000     -2.3219493E-10
   6.540000     -2.4526070E-10
   6.600000     -2.5449637E-10
   6.660000     -2.5640903E-10
   6.720000     -2.4833322E-10
   6.780000     -2.2876805E-10
   6.840000     -1.9740076E-10
   6.900000     -1.5483162E-10
   6.960000     -1.0211385E-10
   7.020000     -4.0292276E-11
   7.080000      2.9884810E-11
   7.140000      1.0798112E-10
   7.200000      1.9364275E-10
   7.260000      2.8626740E-10
   7.320000      3.8477571E-10
   7.380000      4.8765519E-10
   7.440000      5.9332994E-10
   7.500000      7.0075162E-10
   7.560000      8.0997609E-10
   7.620000      9.2244967E-10
   7.680000      1.0408022E-09
   7.740000      1.1681159E-09
   7.800000      1.3068396E-09
   7.860000      1.4576768E-09
   7.920000      1.6188135E-09
   7.980000      1.7857691E-09
   8.040000      1.9519502E-09
   8.100000      2.1097784E-09
   8.160000      2.2520807E-09
   8.220000      2.3733846E-09
   8.280000      2.4708136E-09
   8.340000      2.5444342E-09
   8.400000      2.5970754E-09
   8.460000      2.6337688E-09
   8.520000      2.6610179E-09
   8.580000      2.6860754E-09
   8.640000      2.7163534E-09
   8.700000      2.7590112E-09
   8.760000      2.8207168E-09
   8.820000      2.9075540E-09
   8.880000      3.0250444E-09
   8.940000      3.1782499E-09
   9.000000      3.3719241E-09
   9.060000      3.6106798E-09
   9.120000      3.8991521E-09
   9.180000      4.2421515E-09
   9.240000      4.6447988E-09
   9.300000      5.1126365E-09
   9.360000      5.6516671E-09
   9.420000      6.2682348E-09
   9.480000      6.9686457E-09
   9.540000      7.7584579E-09
   9.600000      8.6414431E-09
   9.660000      9.6183479E-09
   9.720000      1.0685638E-08
   9.780000      1.1834477E-08
   9.840000      1.3050093E-08
   9.900000      1.4311647E-08
   9.960000      1.5592555E-08
   10.02000      1.6861227E-08
   10.08000      1.8082147E-08
   10.14000      1.9217254E-08
   10.20000      2.0227658E-08
   10.26000      2.1075614E-08
   10.32000      2.1726645E-08
   10.38000      2.2151575E-08
   10.44000      2.2328141E-08
   10.50000      2.2241942E-08
   10.56000      2.1886560E-08
   10.62000      2.1262959E-08
   10.68000      2.0378360E-08
   10.74000      1.9244933E-08
   10.80000      1.7878600E-08
   10.86000      1.6298038E-08
   10.92000      1.4523907E-08
   10.98000      1.2578185E-08
   11.04000      1.0483520E-08
   11.10000      8.2626430E-09
   11.16000      5.9379701E-09
   11.22000      3.5315808E-09
   11.28000      1.0657427E-09
   11.34000     -1.4360854E-09
   11.40000     -3.9480015E-09
   11.46000     -6.4405641E-09
   11.52000     -8.8802947E-09
   11.58000     -1.1230108E-08
   11.64000     -1.3450784E-08
   11.70000     -1.5503343E-08
   11.76000     -1.7351981E-08
   11.82000     -1.8967125E-08
   11.88000     -2.0328180E-08
   11.94000     -2.1425633E-08
   12.00000     -2.2262332E-08
   12.06000     -2.2853879E-08
   12.12000     -2.3228168E-08
   12.18000     -2.3424159E-08
   12.24000     -2.3489941E-08
   12.30000     -2.3480132E-08
   12.36000     -2.3452651E-08
   12.42000     -2.3464919E-08
   12.48000     -2.3569635E-08
   12.54000     -2.3810454E-08
   12.60000     -2.4217956E-08
   12.66000     -2.4806495E-08
   12.72000     -2.5572403E-08
   12.78000     -2.6493892E-08
   12.84000     -2.7532767E-08
   12.90000     -2.8637759E-08
   12.96000     -2.9748973E-08
   13.02000     -3.0802909E-08
   13.08000     -3.1737351E-08
   13.14000     -3.2495599E-08
   13.20000     -3.3029650E-08
   13.26000     -3.3302122E-08
   13.32000     -3.3287019E-08
   13.38000     -3.2969535E-08
   13.44000     -3.2345383E-08
   13.50000     -3.1420026E-08
   13.56000     -3.0208195E-08
   13.62000     -2.8733702E-08
   13.68000     -2.7029454E-08
   13.74000     -2.5137167E-08
   13.80000     -2.3106381E-08
   13.86000     -2.0992445E-08
   13.92000     -1.8853513E-08
   13.98000     -1.6746837E-08
   14.04000     -1.4724875E-08
   14.10000     -1.2831718E-08
   14.16000     -1.1100161E-08
   14.22000     -9.5495434E-09
   14.28000     -8.1843812E-09
   14.34000     -6.9938459E-09
   14.40000     -5.9522947E-09
   14.46000     -5.0211275E-09
   14.52000     -4.1521848E-09
   14.58000     -3.2925309E-09
   14.64000     -2.3900624E-09
   14.70000     -1.3990001E-09
   14.76000     -2.8427938E-10
   14.82000      9.7585684E-10
   14.88000      2.3891904E-09
   14.94000      3.9503556E-09
   15.00000      5.6424261E-09
   15.06000      7.4386097E-09
   15.12000      9.3038102E-09
   15.18000      1.1196287E-08
   15.24000      1.3069948E-08
   15.30000      1.4877672E-08
   15.36000      1.6575679E-08
   15.42000      1.8128299E-08
   15.48000      1.9512170E-08
   15.54000      2.0718799E-08
   15.60000      2.1754779E-08
   15.66000      2.2639631E-08
   15.72000      2.3401846E-08
   15.78000      2.4074048E-08
   15.84000      2.4688283E-08
   15.90000      2.5272175E-08
   15.96000      2.5846276E-08
   16.02000      2.6422668E-08
   16.08000      2.7004646E-08
   16.14000      2.7587332E-08
   16.20000      2.8159080E-08
   16.26000      2.8703507E-08
   16.32000      2.9201857E-08
   16.38000      2.9635244E-08
   16.44000      2.9986239E-08
   16.50000      3.0239342E-08
   16.56000      3.0380285E-08
   16.62000      3.0394560E-08
   16.68000      3.0266129E-08
   16.74000      2.9977326E-08
   16.80000      2.9510876E-08
   16.86000      2.8854149E-08
   16.92000      2.8004997E-08
   16.98000      2.6977615E-08
   17.04000      2.5806633E-08
   17.10000      2.4547777E-08
   17.16000      2.3274310E-08
   17.22000      2.2069514E-08
   17.28000      2.1016591E-08
   17.34000      2.0187933E-08
   17.40000      1.9635863E-08
   17.46000      1.9386436E-08
   17.52000      1.9437158E-08
   17.58000      1.9758582E-08
   17.64000      2.0299078E-08
   17.70000      2.0991580E-08
   17.76000      2.1760977E-08
   17.82000      2.2530845E-08
   17.88000      2.3228489E-08
   17.94000      2.3787756E-08
   18.00000      2.4149649E-08
   18.06000      2.4261528E-08
   18.12000      2.4076138E-08
   18.18000      2.3551948E-08
   18.24000      2.2655943E-08
   18.30000      2.1369116E-08
   18.36000      1.9693775E-08
   18.42000      1.7660724E-08
   18.48000      1.5333809E-08
   18.54000      1.2809604E-08
   18.60000      1.0211099E-08
   18.66000      7.6758271E-09
   18.72000      5.3404667E-09
   18.78000      3.3249614E-09
   18.84000      1.7193315E-09
   18.90000      5.7551869E-10
   18.96000     -9.4774841E-11
   19.02000     -3.1682310E-10
   19.08000     -1.4583081E-10
   19.14000      3.4183717E-10
   19.20000      1.0573998E-09
   19.26000      1.9073179E-09
   19.32000      2.7995621E-09
   19.38000      3.6486769E-09
   19.44000      4.3799240E-09
   19.50000      4.9326321E-09
   19.56000      5.2626143E-09
   19.62000      5.3433578E-09
   19.68000      5.1657274E-09
   19.74000      4.7361253E-09
   19.80000      4.0732413E-09
   19.86000      3.2037495E-09
   19.92000      2.1573880E-09
   19.98000      9.6196762E-10
   20.04000     -3.6107997E-10
   20.10000     -1.7999310E-09
   20.16000     -3.3537402E-09
   20.22000     -5.0317541E-09
   20.28000     -6.8502084E-09
   20.34000     -8.8275902E-09
   20.40000     -1.0979295E-08
   20.46000     -1.3312835E-08
   20.52000     -1.5824543E-08
   20.58000     -1.8498140E-08
   20.64000     -2.1305020E-08
   20.70000     -2.4205681E-08
   20.76000     -2.7151756E-08
   20.82000     -3.0088387E-08
   20.88000     -3.2957111E-08
   20.94000     -3.5699678E-08
   21.00000     -3.8262996E-08
   21.06000     -4.0605073E-08
   21.12000     -4.2701078E-08
   21.18000     -4.4548123E-08
   21.24000     -4.6167305E-08
   21.30000     -4.7601795E-08
   21.36000     -4.8910724E-08
   21.42000     -5.0159386E-08
   21.48000     -5.1407643E-08
   21.54000     -5.2698699E-08
   21.60000     -5.4050865E-08
   21.66000     -5.5454230E-08
   21.72000     -5.6873187E-08
   21.78000     -5.8254230E-08
   21.84000     -5.9537207E-08
   21.90000     -6.0666999E-08
   21.96000     -6.1602670E-08
   22.02000     -6.2321789E-08
   22.08000     -6.2819268E-08
   22.14000     -6.3101666E-08
   22.20000     -6.3179534E-08
   22.26000     -6.3060860E-08
   22.32000     -6.2748029E-08
   22.38000     -6.2239465E-08
   22.44000     -6.1534898E-08
   22.50000     -6.0642101E-08
   22.56000     -5.9581907E-08
   22.62000     -5.8388952E-08
   22.68000     -5.7107012E-08
   22.74000     -5.5779701E-08
   22.80000     -5.4439088E-08
   22.86000     -5.3095601E-08
   22.92000     -5.1732727E-08
   22.98000     -5.0308522E-08
   23.04000     -4.8764328E-08
   23.10000     -4.7038874E-08
   23.16000     -4.5084438E-08
   23.22000     -4.2880998E-08
   23.28000     -4.0444636E-08
   23.34000     -3.7827910E-08
   23.40000     -3.5111825E-08
   23.46000     -3.2391256E-08
   23.52000     -2.9757267E-08
   23.58000     -2.7280665E-08
   23.64000     -2.5000681E-08
   23.70000     -2.2921354E-08
   23.76000     -2.1016071E-08
   23.82000     -1.9238582E-08
   23.88000     -1.7537229E-08
   23.94000     -1.5868471E-08
   24.00000     -1.4206413E-08
   24.06000     -1.2546479E-08
   24.12000     -1.0903334E-08
   24.18000     -9.3047356E-09
   24.24000     -7.7839273E-09
   24.30000     -6.3730967E-09
   24.36000     -5.0994928E-09
   24.42000     -3.9845141E-09
   24.48000     -3.0449328E-09
   24.54000     -2.2948297E-09
   24.60000     -1.7468701E-09
   24.66000     -1.4121911E-09
   24.72000     -1.2989584E-09
   24.78000     -1.4103079E-09
   24.84000     -1.7426738E-09
   24.90000     -2.2853399E-09
   24.96000     -3.0215996E-09
   25.02000     -3.9313273E-09
   25.08000     -4.9942854E-09
   25.14000     -6.1932286E-09
   25.20000     -7.5159088E-09
   25.26000     -8.9554026E-09
   25.32000     -1.0508742E-08
   25.38000     -1.2174387E-08
   25.44000     -1.3949532E-08
   25.50000     -1.5828332E-08
   25.56000     -1.7801758E-08
   25.62000     -1.9859105E-08
   25.68000     -2.1990312E-08
   25.74000     -2.4187749E-08
   25.80000     -2.6446170E-08
   25.86000     -2.8760212E-08
   25.92000     -3.1120003E-08
   25.98000     -3.3506474E-08
   26.04000     -3.5888458E-08
   26.10000     -3.8223352E-08
   26.16000     -4.0461689E-08
   26.22000     -4.2554671E-08
   26.28000     -4.4462322E-08
   26.34000     -4.6159691E-08
   26.40000     -4.7639052E-08
   26.46000     -4.8907722E-08
   26.52000     -4.9982415E-08
   26.58000     -5.0882306E-08
   26.64000     -5.1623154E-08
   26.70000     -5.2214222E-08
   26.76000     -5.2658581E-08
   26.82000     -5.2956196E-08
   26.88000     -5.3108373E-08
   26.94000     -5.3121877E-08
   27.00000     -5.3011220E-08
   27.06000     -5.2798388E-08
   27.12000     -5.2509797E-08
   27.18000     -5.2171309E-08
   27.24000     -5.1802587E-08
   27.30000     -5.1412293E-08
   27.36000     -5.0995670E-08
   27.42000     -5.0535281E-08
   27.48000     -5.0004822E-08
   27.54000     -4.9374894E-08
   27.60000     -4.8619015E-08
   27.66000     -4.7718132E-08
   27.72000     -4.6662553E-08
   27.78000     -4.5451294E-08
   27.84000     -4.4089955E-08
   27.90000     -4.2588574E-08
   27.96000     -4.0960810E-08
   28.02000     -3.9224616E-08
   28.08000     -3.7403726E-08
   28.14000     -3.5528348E-08
   28.20000     -3.3633672E-08
   28.26000     -3.1755643E-08
   28.32000     -2.9924845E-08
   28.38000     -2.8160411E-08
   28.44000     -2.6466418E-08
   28.50000     -2.4832609E-08
   28.56000     -2.3239895E-08
   28.62000     -2.1669489E-08
   28.68000     -2.0113051E-08
   28.74000     -1.8580685E-08
   28.80000     -1.7104123E-08
   28.86000     -1.5733709E-08
   28.92000     -1.4529729E-08
   28.98000     -1.3550244E-08
   29.04000     -1.2838790E-08
   29.10000     -1.2415296E-08
   29.16000     -1.2272783E-08
   29.22000     -1.2380614E-08
   29.28000     -1.2693210E-08
   29.34000     -1.3161467E-08
   29.40000     -1.3743373E-08
   29.46000     -1.4410696E-08
   29.52000     -1.5150009E-08
   29.58000     -1.5958298E-08
   29.64000     -1.6835296E-08
   29.70000     -1.7775850E-08
   29.76000     -1.8765535E-08
   29.82000     -1.9781533E-08
   29.88000     -2.0798746E-08
   29.94000     -2.1799000E-08
   30.00000     -2.2779817E-08
   30.06000     -2.3759034E-08
   30.12000     -2.4772783E-08
   30.18000     -2.5866521E-08
   30.24000     -2.7081276E-08
   30.30000     -2.8439201E-08
   30.36000     -2.9933073E-08
   30.42000     -3.1523438E-08
   30.48000     -3.3144833E-08
   30.54000     -3.4719516E-08
   30.60000     -3.6174708E-08
   30.66000     -3.7458030E-08
   30.72000     -3.8546300E-08
   30.78000     -3.9445155E-08
   30.84000     -4.0179913E-08
   30.90000     -4.0781241E-08
   30.96000     -4.1270841E-08
   31.02000     -4.1652246E-08
   31.08000     -4.1909828E-08
   31.14000     -4.2016001E-08
   31.20000     -4.1943625E-08
   31.26000     -4.1678796E-08
   31.32000     -4.1229193E-08
   31.38000     -4.0625121E-08
   31.44000     -3.9912887E-08
   31.50000     -3.9142989E-08
   31.56000     -3.8357022E-08
   31.62000     -3.7577301E-08
   31.68000     -3.6801975E-08
   31.74000     -3.6006547E-08
   31.80000     -3.5150777E-08
   31.86000     -3.4188961E-08
   31.92000     -3.3080973E-08
   31.98000     -3.1801878E-08
   32.04000     -3.0348325E-08
   32.10000     -2.8740773E-08
   32.16000     -2.7021290E-08
   32.22000     -2.5247388E-08
   32.28000     -2.3483148E-08
   32.34000     -2.1789441E-08
   32.40000     -2.0215300E-08
   32.46000     -1.8792202E-08
   32.52000     -1.7532253E-08
   32.58000     -1.6430212E-08
   32.64000     -1.5468357E-08
   32.70000     -1.4622630E-08
   32.76000     -1.3868530E-08
   32.82000     -1.3185636E-08
   32.88000     -1.2560245E-08
   32.94000     -1.1986121E-08
   33.00000     -1.1463557E-08
   33.06000     -1.0997066E-08
   33.12000     -1.0591955E-08
   33.18000     -1.0250289E-08
   33.24000     -9.9669428E-09
   33.30000     -9.7267865E-09
   33.36000     -9.5039994E-09
   33.42000     -9.2641992E-09
   33.48000     -8.9692644E-09
   33.54000     -8.5838652E-09
   33.60000     -8.0819840E-09
   33.66000     -7.4515736E-09
   33.72000     -6.6959518E-09
   33.78000     -5.8315215E-09
   33.84000     -4.8826214E-09
   33.90000     -3.8752259E-09
   33.96000     -2.8315834E-09
   34.02000     -1.7675147E-09
   34.08000     -6.9309697E-10
   34.14000      3.8377307E-10
   34.20000      1.4525262E-09
   34.26000      2.4958660E-09
   34.32000      3.4883181E-09
   34.38000      4.3981867E-09
   34.44000      5.1923683E-09
   34.50000      5.8422378E-09
   34.56000      6.3283112E-09
   34.62000      6.6417716E-09
   34.68000      6.7822366E-09
   34.74000      6.7528494E-09
   34.80000      6.5550947E-09
   34.86000      6.1861765E-09
   34.92000      5.6408656E-09
   34.98000      4.9178008E-09
   35.04000      4.0279957E-09
   35.10000      3.0017857E-09
   35.16000      1.8904234E-09
   35.22000      7.6021300E-10
   35.28000     -3.2003875E-10
   35.34000     -1.2945347E-09
   35.40000     -2.1334543E-09
   35.46000     -2.8381628E-09
   35.52000     -3.4358654E-09
   35.58000     -3.9646744E-09
   35.64000     -4.4537365E-09
   35.70000     -4.9052478E-09
   35.76000     -5.2848916E-09
   35.82000     -5.5245470E-09
   35.88000     -5.5369065E-09
   35.94000     -5.2375144E-09
   36.00000     -4.5671542E-09
   36.06000     -3.5074552E-09
   36.12000     -2.0850217E-09
   36.18000     -3.6341313E-10
   36.24000      1.5735646E-09
   36.30000      3.6410166E-09
   36.36000      5.7678444E-09
   36.42000      7.9025391E-09
   36.48000      1.0008602E-08
   36.54000      1.2052208E-08
   36.60000      1.3987620E-08
   36.66000      1.5746728E-08
   36.72000      1.7237763E-08
   36.78000      1.8354937E-08
   36.84000      1.8996968E-08
   36.90000      1.9088995E-08
   36.96000      1.8600820E-08
   37.02000      1.7555184E-08
   37.08000      1.6022723E-08
   37.14000      1.4104464E-08
   37.20000      1.1906836E-08
   37.26000      9.5166834E-09
   37.32000      6.9838495E-09
   37.38000      4.3163113E-09
   37.44000      1.4886742E-09
   37.50000     -1.5396198E-09
   37.56000     -4.8030153E-09
   37.62000     -8.3127265E-09
   37.68000     -1.2049030E-08
   37.74000     -1.5964543E-08
   37.80000     -1.9996168E-08
   37.86000     -2.4080641E-08
   37.92000     -2.8167925E-08
   37.98000     -3.2228105E-08
   38.04000     -3.6250075E-08
   38.10000     -4.0233321E-08
   38.16000     -4.4176147E-08
   38.22000     -4.8064610E-08
   38.28000     -5.1865705E-08
   38.34000     -5.5526989E-08
   38.40000     -5.8982774E-08
   38.46000     -6.2165192E-08
   38.52000     -6.5017097E-08
   38.58000     -6.7503436E-08
   38.64000     -6.9617734E-08
   38.70000     -7.1381891E-08
   38.76000     -7.2839228E-08
   38.82000     -7.4042681E-08
   38.88000     -7.5041726E-08
   38.94000     -7.5871910E-08
   39.00000     -7.6550108E-08
   39.06000     -7.7076500E-08
   39.12000     -7.7441982E-08
   39.18000     -7.7637807E-08
   39.24000     -7.7663501E-08
   39.30000     -7.7530267E-08
   39.36000     -7.7258790E-08
   39.42000     -7.6872865E-08
   39.48000     -7.6391728E-08
   39.54000     -7.5824417E-08
   39.60000     -7.5168572E-08
   39.66000     -7.4414196E-08
   39.72000     -7.3551362E-08
   39.78000     -7.2579226E-08
   39.84000     -7.1513689E-08
   39.90000     -7.0391110E-08
   39.96000     -6.9266882E-08
   40.02000     -6.8208884E-08
   40.08000     -6.7286905E-08
   40.14000     -6.6560240E-08
   40.20000     -6.6066328E-08
   40.26000     -6.5813012E-08
   40.32000     -6.5776604E-08
   40.38000     -6.5906541E-08
   40.44000     -6.6135684E-08
   40.50000     -6.6393788E-08
   40.56000     -6.6620643E-08
   40.62000     -6.6775307E-08
   40.68000     -6.6839171E-08
   40.74000     -6.6812170E-08
   40.80000     -6.6703983E-08
   40.86000     -6.6523199E-08
   40.92000     -6.6268171E-08
   40.98000     -6.5922393E-08
   41.04000     -6.5455801E-08
   41.10000     -6.4831184E-08
   41.16000     -6.4013541E-08
   41.22000     -6.2979083E-08
   41.28000     -6.1721146E-08
   41.34000     -6.0251075E-08
   41.40000     -5.8593951E-08
   41.46000     -5.6780543E-08
   41.52000     -5.4838083E-08
   41.58000     -5.2782809E-08
   41.64000     -5.0616791E-08
   41.70000     -4.8330200E-08
   41.76000     -4.5908596E-08
   41.82000     -4.3343128E-08
   41.88000     -4.0640668E-08
   41.94000     -3.7830596E-08
   42.00000     -3.4965968E-08
   42.06000     -3.2118226E-08
   42.12000     -2.9366648E-08
   42.18000     -2.6785287E-08
   42.24000     -2.4430763E-08
   42.30000     -2.2334333E-08
   42.36000     -2.0500195E-08
   42.42000     -1.8910367E-08
   42.48000     -1.7534466E-08
   42.54000     -1.6341525E-08
   42.60000     -1.5310391E-08
   42.66000     -1.4435912E-08
   42.72000     -1.3729527E-08
   42.78000     -1.3214557E-08
   42.84000     -1.2918064E-08
   42.90000     -1.2861945E-08
   42.96000     -1.3055858E-08
   43.02000     -1.3493756E-08
   43.08000     -1.4154592E-08
   43.14000     -1.5006526E-08
   43.20000     -1.6013198E-08
   43.26000     -1.7140282E-08
   43.32000     -1.8360714E-08
   43.38000     -1.9657488E-08
   43.44000     -2.1023665E-08
   43.50000     -2.2459897E-08
   43.56000     -2.3970609E-08
   43.62000     -2.5560299E-08
   43.68000     -2.7231534E-08
   43.74000     -2.8985648E-08
   43.80000     -3.0826243E-08
   43.86000     -3.2764515E-08
   43.92000     -3.4824485E-08
   43.98000     -3.7046309E-08
   44.04000     -3.9486228E-08
   44.10000     -4.2213106E-08
   44.16000     -4.5302929E-08
   44.22000     -4.8833456E-08
   44.28000     -5.2881486E-08
   44.34000     -5.7524495E-08
   44.40000     -6.2846915E-08
   44.46000     -6.8949937E-08
   44.52000     -7.5962681E-08
   44.58000     -8.4052083E-08
   44.64000     -9.3429435E-08
   44.70000     -1.0435285E-07
   44.76000     -1.1712599E-07
   44.82000     -1.3209481E-07
   44.88000     -1.4964485E-07
   44.94000     -1.7020128E-07
   45.00000     -1.9423383E-07
   45.06000     -2.2226700E-07
   45.12000     -2.5489513E-07
   45.18000     -2.9280048E-07
   45.24000     -3.3677233E-07
   45.30000     -3.8772387E-07
   45.36000     -4.4670634E-07
   45.42000     -5.1492009E-07
   45.48000     -5.9372366E-07
   45.54000     -6.8464396E-07
   45.60000     -7.8938888E-07
   45.66000     -9.0986464E-07
   45.72000     -1.0481972E-06
   45.78000     -1.2067549E-06
   45.84000     -1.3881717E-06
   45.90000     -1.5953675E-06
   45.96000     -1.8315676E-06
   46.02000     -2.1003177E-06
   46.08000     -2.4055021E-06
   46.14000     -2.7513627E-06
   46.20000     -3.1425218E-06
   46.26000     -3.5840087E-06
   46.32000     -4.0812847E-06
   46.38000     -4.6402679E-06
   46.44000     -5.2673577E-06
   46.50000     -5.9694498E-06
   46.56000     -6.7539499E-06
   46.62000     -7.6287843E-06
   46.68000     -8.6023965E-06
   46.74000     -9.6837502E-06
   46.80000     -1.0882323E-05
   46.86000     -1.2208090E-05
   46.92000     -1.3671520E-05
   46.98000     -1.5283558E-05
   47.04000     -1.7055614E-05
   47.10000     -1.8999539E-05
   47.16000     -2.1127596E-05
   47.22000     -2.3452421E-05
   47.28000     -2.5986961E-05
   47.34000     -2.8744409E-05
   47.40000     -3.1738116E-05
   47.46000     -3.4981498E-05
   47.52000     -3.8487939E-05
   47.58000     -4.2270709E-05
   47.64000     -4.6342837E-05
   47.70000     -5.0717037E-05
   47.76000     -5.5405617E-05
   47.82000     -6.0420338E-05
   47.88000     -6.5772307E-05
   47.94000     -7.1471848E-05
   48.00000     -7.7528333E-05
   48.06000     -8.3950043E-05
   48.12000     -9.0743975E-05
   48.18000     -9.7915763E-05
   48.24000     -1.0546952E-04
   48.30000     -1.1340765E-04
   48.36000     -1.2173082E-04
   48.42000     -1.3043779E-04
   48.48000     -1.3952533E-04
   48.54000     -1.4898820E-04
   48.60000     -1.5881893E-04
   48.66000     -1.6900797E-04
   48.72000     -1.7954341E-04
   48.78000     -1.9041108E-04
   48.84000     -2.0159449E-04
   48.90000     -2.1307488E-04
   48.96000     -2.2483121E-04
   49.02000     -2.3684022E-04
   49.08000     -2.4907666E-04
   49.14000     -2.6151325E-04
   49.20000     -2.7412098E-04
   49.26000     -2.8686915E-04
   49.32000     -2.9972562E-04
   49.38000     -3.1265704E-04
   49.44000     -3.2562891E-04
   49.50000     -3.3860598E-04
   49.56000     -3.5155256E-04
   49.62000     -3.6443269E-04
   49.68000     -3.7721067E-04
   49.74000     -3.8985102E-04
   49.80000     -4.0231907E-04
   49.86000     -4.1458110E-04
   49.92000     -4.2660470E-04
   49.98000     -4.3835916E-04
   50.04000     -4.4981568E-04
   50.10000     -4.6094766E-04
   50.16000     -4.7173101E-04
   50.22000     -4.8214430E-04
   50.28000     -4.9216900E-04
   50.34000     -5.0178968E-04
   50.40000     -5.1099400E-04
   50.46000     -5.1977305E-04
   50.52000     -5.2812125E-04
   50.58000     -5.3603668E-04
   50.64000     -5.4352096E-04
   50.70000     -5.5057916E-04
   50.76000     -5.5721955E-04
   50.82000     -5.6345365E-04
   50.88000     -5.6929578E-04
   50.94000     -5.7476305E-04
   51.00000     -5.7987531E-04
   51.06000     -5.8465468E-04
   51.12000     -5.8912538E-04
   51.18000     -5.9331348E-04
   51.24000     -5.9724634E-04
   51.30000     -6.0095219E-04
   51.36000     -6.0445955E-04
   51.42000     -6.0779718E-04
   51.48000     -6.1099353E-04
   51.54000     -6.1407656E-04
   51.60000     -6.1707327E-04
   51.66000     -6.2000932E-04
   51.72000     -6.2290882E-04
   51.78000     -6.2579365E-04
   51.84000     -6.2868337E-04
   51.90000     -6.3159497E-04
   51.96000     -6.3454220E-04
   52.02000     -6.3753611E-04
   52.08000     -6.4058445E-04
   52.14000     -6.4369192E-04
   52.20000     -6.4686011E-04
   52.26000     -6.5008731E-04
   52.32000     -6.5336877E-04
   52.38000     -6.5669609E-04
   52.44000     -6.6005829E-04
   52.50000     -6.6344126E-04
   52.56000     -6.6682859E-04
   52.62000     -6.7020161E-04
   52.68000     -6.7353982E-04
   52.74000     -6.7682099E-04
   52.80000     -6.8002194E-04
   52.86000     -6.8311853E-04
   52.92000     -6.8608578E-04
   52.98000     -6.8889896E-04
   53.04000     -6.9153344E-04
   53.10000     -6.9396547E-04
   53.16000     -6.9617236E-04
   53.22000     -6.9813302E-04
   53.28000     -6.9982820E-04
   53.34000     -7.0124085E-04
   53.40000     -7.0235593E-04
   53.46000     -7.0316123E-04
   53.52000     -7.0364703E-04
   53.58000     -7.0380676E-04
   53.64000     -7.0363667E-04
   53.70000     -7.0313655E-04
   53.76000     -7.0230913E-04
   53.82000     -7.0116017E-04
   53.88000     -6.9969881E-04
   53.94000     -6.9793657E-04
   54.00000     -6.9588784E-04
   54.06000     -6.9356948E-04
   54.12000     -6.9100031E-04
   54.18000     -6.8820111E-04
   54.24000     -6.8519398E-04
   54.30000     -6.8200252E-04
   54.36000     -6.7865069E-04
   54.42000     -6.7516312E-04
   54.48000     -6.7156425E-04
   54.54000     -6.6787825E-04
   54.60000     -6.6412863E-04
   54.66000     -6.6033762E-04
   54.72000     -6.5652613E-04
   54.78000     -6.5271312E-04
   54.84000     -6.4891530E-04
   54.90000     -6.4514700E-04
   54.96000     -6.4141949E-04
   55.02000     -6.3774164E-04
   55.08000     -6.3411909E-04
   55.14000     -6.3055468E-04
   55.20000     -6.2704808E-04
   55.26000     -6.2359613E-04
   55.32000     -6.2019209E-04
   55.38000     -6.1682641E-04
   55.44000     -6.1348610E-04
   55.50000     -6.1015569E-04
   55.56000     -6.0681702E-04