  -2.400000      0.0000000E+00
  -2.340000      0.0000000E+00
  -2.280000      0.0000000E+00
  -2.220000      0.0000000E+00
  -2.160000      0.0000000E+00
  -2.100000      0.0000000E+00
  -2.040000     -8.9344171E-23
  -1.980000     -7.7866589E-22
  -1.920000     -3.2985992E-21
  -1.860000     -8.5134810E-21
  -1.800000     -1.2508326E-20
  -1.740000      1.0513927E-21
  -1.680000      6.6151094E-20
  -1.620000      2.2568524E-19
  -1.560000      4.9778592E-19
  -1.500000      8.1942254E-19
  -1.440000      9.9326866E-19
  -1.380000      6.8480996E-19
  -1.320000     -4.8543544E-19
  -1.260000     -2.7490086E-18
  -1.200000     -5.9599290E-18
  -1.140000     -9.4573371E-18
  -1.080000     -1.2155522E-17
  -1.020000     -1.2899632E-17
 -0.9600000     -1.0930891E-17
 -0.9000000     -6.1017983E-18
 -0.8400000      1.5646351E-18
 -0.7800000      1.3096260E-17
 -0.7200000      3.2052474E-17
 -0.6600000      6.4966362E-17
 -0.6000000      1.1907338E-16
 -0.5400000      1.9629738E-16
 -0.4800000      2.8442842E-16
 -0.4200000      3.4922245E-16
 -0.3600000      3.3337144E-16
 -0.3000000      1.6805697E-16
 -0.2400000     -2.0117944E-16
 -0.1800000     -7.7977345E-16
 -0.1200000     -1.4939745E-15
 -5.9999999E-02 -2.1824194E-15
  0.0000000E+00 -2.6228907E-15
  5.9999999E-02 -2.5951453E-15
  0.1200000     -1.9627528E-15
  0.1800000     -7.4086706E-16
  0.2400000      8.8844386E-16
  0.3000000      2.6400202E-15
  0.3600000      4.2659171E-15
  0.4200000      5.7290746E-15
  0.4800000      7.3288670E-15
  0.5400000      9.6779791E-15
  0.6000000      1.3447476E-14
  0.6600000      1.8862363E-14
  0.7200000      2.5041470E-14
  0.7800000      2.9410631E-14
  0.8400000      2.7529291E-14
  0.9000000      1.3692500E-14
  0.9600000     -1.7460080E-14
   1.020000     -6.8404456E-14
   1.080000     -1.3577872E-13
   1.140000     -2.0797548E-13
   1.200000     -2.6449581E-13
   1.260000     -2.7816204E-13
   1.320000     -2.2070463E-13
   1.380000     -7.1260529E-14
   1.440000      1.7380860E-13
   1.500000      4.9230319E-13
   1.560000      8.3170677E-13
   1.620000      1.1114567E-12
   1.680000      1.2335496E-12
   1.740000      1.1014898E-12
   1.800000      6.4569519E-13
   1.860000     -1.4850260E-13
   1.920000     -1.2159993E-12
   1.980000     -2.3973631E-12
   2.040000     -3.4422402E-12
   2.100000     -4.0371751E-12
   2.160000     -3.8607195E-12
   2.220000     -2.6624787E-12
   2.280000     -3.5458810E-13
   2.340000      2.9041194E-12
   2.400000      6.6565429E-12
   2.460000      1.0153658E-11
   2.520000      1.2436718E-11
   2.580000      1.2498610E-11
   2.640000      9.5080810E-12
   2.700000      3.0605509E-12
   2.760000     -6.5961858E-12
   2.820000     -1.8418997E-11
   2.880000     -3.0560558E-11
   2.940000     -4.0527304E-11
   3.000000     -4.5508288E-11
   3.060000     -4.2845526E-11
   3.120000     -3.0584538E-11
   3.180000     -8.0197992E-12
   3.240000      2.3860677E-11
   3.300000      6.2122057E-11
   3.360000      1.0189100E-10
   3.420000      1.3666507E-10
   3.480000      1.5892780E-10
   3.540000      1.6103952E-10
   3.600000      1.3634398E-10
   3.660000      8.0403573E-11
   3.720000     -7.7506751E-12
   3.780000     -1.2449708E-10
   3.840000     -2.6079719E-10
   3.900000     -4.0184986E-10
   3.960000     -5.2739890E-10
   4.020000     -6.1281979E-10
   4.080000     -6.3101702E-10
   4.140000     -5.5503502E-10
   4.200000     -3.6114181E-10
   4.260000     -3.2022107E-11
   4.320000      4.4034845E-10
   4.380000      1.0525650E-09
   4.440000      1.7887073E-09
   4.500000      2.6204545E-09
   4.560000      3.5083647E-09
   4.620000      4.4041091E-09
   4.680000      5.2533591E-09
   4.740000      5.9990155E-09
   4.800000      6.5845440E-09
   4.860000      6.9573147E-09
   4.920000      7.0719461E-09
   4.980000      6.8936976E-09
   5.040000      6.4019008E-09
   5.100000      5.5932299E-09
   5.160000      4.4844199E-09
   5.220000      3.1138236E-09
   5.280000      1.5411241E-09
   5.340000     -1.5538644E-10
   5.400000     -1.8842494E-09
   5.460000     -3.5488339E-09
   5.520000     -5.0571649E-09
   5.580000     -6.3323631E-09
   5.640000     -7.3221176E-09
   5.700000     -8.0055349E-09
   5.760000     -8.3959231E-09
   5.820000     -8.5386409E-09
   5.880000     -8.5039122E-09
   5.940000     -8.3754568E-09
   6.000000     -8.2366372E-09
   6.060000     -8.1564275E-09
   6.120000     -8.1777172E-09
   6.180000     -8.3101330E-09
   6.240000     -8.5287724E-09
   6.300000     -8.7791072E-09
   6.360000     -8.9871062E-09
   6.420000     -9.0725800E-09
   6.480000     -8.9631547E-09
   6.540000     -8.6062597E-09
   6.600000     -7.9770359E-09
   6.660000     -7.0810287E-09
   6.720000     -5.9516299E-09
   6.780000     -4.6432533E-09
   6.840000     -3.2219099E-09
   6.900000     -1.7551497E-09
   6.960000     -3.0314401E-10
   7.020000      1.0877579E-09
   7.080000      2.3883180E-09
   7.140000      3.5865104E-09
   7.200000      4.6849427E-09
   7.260000      5.6964682E-09
   7.320000      6.6390284E-09
   7.380000      7.5307325E-09
   7.440000      8.3859879E-09
   7.500000      9.2132062E-09
   7.560000      1.0014225E-08
   7.620000      1.0785254E-08
   7.680000      1.1518877E-08
   7.740000      1.2206494E-08
   7.800000      1.2840578E-08
   7.860000      1.3416278E-08
   7.920000      1.3932038E-08
   7.980000      1.4389167E-08
   8.040000      1.4790477E-08
   8.100000      1.5138271E-08
   8.160000      1.5432120E-08
   8.220000      1.5667002E-08
   8.280000      1.5832320E-08
   8.340000      1.5912386E-08
   8.400000      1.5888549E-08
   8.460000      1.5742913E-08
   8.520000      1.5462998E-08
   8.580000      1.5046396E-08
   8.640000      1.4504165E-08
   8.700000      1.3861938E-08
   8.760000      1.3158131E-08
   8.820000      1.2439343E-08
   8.880000      1.1753809E-08
   8.940000      1.1144252E-08
   9.000000      1.0641659E-08
   9.060000      1.0261258E-08
   9.120000      1.0001283E-08
   9.180000      9.8444675E-09
   9.240000      9.7614707E-09
   9.300000      9.7152055E-09
   9.360000      9.6650590E-09
   9.420000      9.5704094E-09
   9.480000      9.3933767E-09
   9.540000      9.1011216E-09
   9.600000      8.6680974E-09
   9.660000      8.0783833E-09
   9.720000      7.3277167E-09
   9.780000      6.4243912E-09
   9.840000      5.3880331E-09
   9.900000      4.2456532E-09
   9.960000      3.0252130E-09
   10.02000      1.7479952E-09
   10.08000      4.2191386E-10
   10.14000     -9.6188046E-10
   10.20000     -2.4273537E-09
   10.26000     -4.0065129E-09
   10.32000     -5.7282423E-09
   10.38000     -7.6059008E-09
   10.44000     -9.6272919E-09
   10.50000     -1.1750306E-08
   10.56000     -1.3906116E-08
   10.62000     -1.6009777E-08
   10.68000     -1.7975815E-08
   10.74000     -1.9734857E-08
   10.80000     -2.1246722E-08
   10.86000     -2.2506127E-08
   10.92000     -2.3539100E-08
   10.98000     -2.4390644E-08
   11.04000     -2.5106855E-08
   11.10000     -2.5716464E-08
   11.16000     -2.6217347E-08
   11.22000     -2.6572531E-08
   11.28000     -2.6717698E-08
   11.34000     -2.6578936E-08
   11.40000     -2.6096279E-08
   11.46000     -2.5246340E-08
   11.52000     -2.4057066E-08
   11.58000     -2.2609298E-08
   11.64000     -2.1023412E-08
   11.70000     -1.9433648E-08
   11.76000     -1.7956550E-08
   11.82000     -1.6662282E-08
   11.88000     -1.5557147E-08
   11.94000     -1.4582906E-08
   12.00000     -1.3633736E-08
   12.06000     -1.2586579E-08
   12.12000     -1.1336568E-08
   12.18000     -9.8276045E-09
   12.24000     -8.0693656E-09
   12.30000     -6.1359939E-09
   12.36000     -4.1469681E-09
   12.42000     -2.2358533E-09
   12.48000     -5.1602006E-10
   12.54000      9.4691599E-10
   12.60000      2.1483955E-09
   12.66000      3.1408436E-09
   12.72000      4.0142676E-09
   12.78000      4.8679580E-09
   12.84000      5.7820300E-09
   12.90000      6.7971522E-09
   12.96000      7.9079694E-09
   13.02000      9.0713286E-09
   13.08000      1.0225921E-08
   13.14000      1.1316603E-08
   13.20000      1.2315525E-08
   13.26000      1.3233477E-08
   13.32000      1.4118148E-08
   13.38000      1.5040184E-08
   13.44000      1.6071796E-08
   13.50000      1.7264853E-08
   13.56000      1.8635449E-08
   13.62000      2.0159735E-08
   13.68000      2.1782103E-08
   13.74000      2.3432912E-08
   13.80000      2.5049923E-08
   13.86000      2.6596679E-08
   13.92000      2.8072046E-08
   13.98000      2.9508204E-08
   14.04000      3.0957949E-08
   14.10000      3.2475540E-08
   14.16000      3.4097226E-08
   14.22000      3.5827533E-08
   14.28000      3.7635566E-08
   14.34000      3.9462329E-08
   14.40000      4.1236778E-08
   14.46000      4.2895714E-08
   14.52000      4.4401311E-08
   14.58000      4.5751047E-08
   14.64000      4.6976911E-08
   14.70000      4.8134119E-08
   14.76000      4.9282708E-08
   14.82000      5.0467587E-08
   14.88000      5.1703065E-08
   14.94000      5.2966534E-08
   15.00000      5.4203156E-08
   15.06000      5.5340092E-08
   15.12000      5.6305826E-08
   15.18000      5.7048737E-08
   15.24000      5.7549371E-08
   15.30000      5.7822817E-08
   15.36000      5.7910835E-08
   15.42000      5.7866341E-08
   15.48000      5.7735296E-08
   15.54000      5.7541541E-08
   15.60000      5.7279330E-08
   15.66000      5.6915702E-08
   15.72000      5.6401976E-08
   15.78000      5.5690709E-08
   15.84000      5.4752952E-08
   15.90000      5.3590465E-08
   15.96000      5.2239031E-08
   16.02000      5.0761848E-08
   16.08000      4.9234760E-08
   16.14000      4.7727735E-08
   16.20000      4.6287994E-08
   16.26000      4.4929678E-08
   16.32000      4.3632969E-08
   16.38000      4.2352777E-08
   16.44000      4.1034266E-08
   16.50000      3.9630613E-08
   16.56000      3.8117996E-08
   16.62000      3.6503636E-08
   16.68000      3.4824950E-08
   16.74000      3.3140381E-08
   16.80000      3.1514617E-08
   16.86000      3.0002496E-08
   16.92000      2.8635819E-08
   16.98000      2.7416450E-08
   17.04000      2.6317315E-08
   17.10000      2.5290712E-08
   17.16000      2.4281578E-08
   17.22000      2.3242222E-08
   17.28000      2.2144784E-08
   17.34000      2.0988463E-08
   17.40000      1.9799936E-08
   17.46000      1.8627150E-08
   17.52000      1.7528203E-08
   17.58000      1.6558147E-08
   17.64000      1.5756832E-08
   17.70000      1.5140490E-08
   17.76000      1.4698673E-08
   17.82000      1.4396774E-08
   17.88000      1.4182961E-08
   17.94000      1.3997325E-08
   18.00000      1.3780663E-08
   18.06000      1.3480645E-08
   18.12000      1.3054159E-08
   18.18000      1.2466005E-08
   18.24000      1.1685453E-08
   18.30000      1.0683018E-08
   18.36000      9.4297805E-09
   18.42000      7.9006925E-09
   18.48000      6.0818031E-09
   18.54000      3.9797059E-09
   18.60000      1.6303908E-09
   18.66000     -8.9561419E-10
   18.72000     -3.4941534E-09
   18.78000     -6.0352945E-09
   18.84000     -8.3772553E-09
   18.90000     -1.0384068E-08
   18.96000     -1.1943832E-08
   19.02000     -1.2984394E-08
   19.08000     -1.3483942E-08
   19.14000     -1.3475099E-08
   19.20000     -1.3042262E-08
   19.26000     -1.2313001E-08
   19.32000     -1.1445053E-08
   19.38000     -1.0610822E-08
   19.44000     -9.9813331E-09
   19.50000     -9.7112496E-09
   19.56000     -9.9261426E-09
   19.62000     -1.0712697E-08
   19.68000     -1.2112233E-08
   19.74000     -1.4117821E-08
   19.80000     -1.6675390E-08
   19.86000     -1.9689296E-08
   19.92000     -2.3032628E-08
   19.98000     -2.6562006E-08
   20.04000     -3.0135524E-08
   20.10000     -3.3631487E-08
   20.16000     -3.6964611E-08
   20.22000     -4.0096367E-08
   20.28000     -4.3036923E-08
   20.34000     -4.5837801E-08
   20.40000     -4.8576677E-08
   20.46000     -5.1337544E-08
   20.52000     -5.4190835E-08
   20.58000     -5.7178003E-08
   20.64000     -6.0303883E-08
   20.70000     -6.3538067E-08
   20.76000     -6.6824015E-08
   20.82000     -7.0092973E-08
   20.88000     -7.3278223E-08
   20.94000     -7.6326124E-08
   21.00000     -7.9201207E-08
   21.06000     -8.1884906E-08
   21.12000     -8.4369546E-08
   21.18000     -8.6650438E-08
   21.24000     -8.8719389E-08
   21.30000     -9.0562047E-08
   21.36000     -9.2159979E-08
   21.42000     -9.3496567E-08
   21.48000     -9.4564179E-08
   21.54000     -9.5369927E-08
   21.60000     -9.5937303E-08
   21.66000     -9.6302728E-08
   21.72000     -9.6507343E-08
   21.78000     -9.6586128E-08
   21.84000     -9.6557301E-08
   21.90000     -9.6415135E-08
   21.96000     -9.6128375E-08
   22.02000     -9.5645184E-08
   22.08000     -9.4903889E-08
   22.14000     -9.3847035E-08
   22.20000     -9.2435606E-08
   22.26000     -9.0659753E-08
   22.32000     -8.8543359E-08
   22.38000     -8.6141213E-08
   22.44000     -8.3529464E-08
   22.50000     -8.0791757E-08
   22.56000     -7.8004710E-08
   22.62000     -7.5226318E-08
   22.68000     -7.2490081E-08
   22.74000     -6.9805957E-08
   22.80000     -6.7167079E-08
   22.86000     -6.4559927E-08
   22.92000     -6.1974561E-08
   22.98000     -5.9411878E-08
   23.04000     -5.6885980E-08
   23.10000     -5.4421236E-08
   23.16000     -5.2045284E-08
   23.22000     -4.9780368E-08
   23.28000     -4.7635886E-08
   23.34000     -4.5604633E-08
   23.40000     -4.3664333E-08
   23.46000     -4.1784311E-08
   23.52000     -3.9935923E-08
   23.58000     -3.8103849E-08
   23.64000     -3.6294992E-08
   23.70000     -3.4542076E-08
   23.76000     -3.2900381E-08
   23.82000     -3.1437864E-08
   23.88000     -3.0220981E-08
   23.94000     -2.9299853E-08
   24.00000     -2.8696725E-08
   24.06000     -2.8400910E-08
   24.12000     -2.8371442E-08
   24.18000     -2.8546493E-08
   24.24000     -2.8856698E-08
   24.30000     -2.9238580E-08
   24.36000     -2.9644522E-08
   24.42000     -3.0047136E-08
   24.48000     -3.0437835E-08
   24.54000     -3.0821223E-08
   24.60000     -3.1208103E-08
   24.66000     -3.1609883E-08
   24.72000     -3.2036226E-08
   24.78000     -3.2496100E-08
   24.84000     -3.3000756E-08
   24.90000     -3.3566192E-08
   24.96000     -3.4212636E-08
   25.02000     -3.4959630E-08
   25.08000     -3.5817202E-08
   25.14000     -3.6775404E-08
   25.20000     -3.7795669E-08
   25.26000     -3.8807727E-08
   25.32000     -3.9714372E-08
   25.38000     -4.0404494E-08
   25.44000     -4.0772086E-08
   25.50000     -4.0737092E-08
   25.56000     -4.0262918E-08
   25.62000     -3.9365968E-08
   25.68000     -3.8114237E-08
   25.74000     -3.6614615E-08
   25.80000     -3.4991370E-08
   25.86000     -3.3360351E-08
   25.92000     -3.1804799E-08
   25.98000     -3.0358244E-08
   26.04000     -2.8998626E-08
   26.10000     -2.7654917E-08
   26.16000     -2.6224850E-08
   26.22000     -2.4599396E-08
   26.28000     -2.2688148E-08
   26.34000     -2.0439542E-08
   26.40000     -1.7851249E-08
   26.46000     -1.4968784E-08
   26.52000     -1.1873436E-08
   26.58000     -8.6635188E-09
   26.64000     -5.4343672E-09
   26.70000     -2.2625193E-09
   26.76000      8.0218227E-10
   26.82000      3.7354946E-09
   26.88000      6.5304171E-09
   26.94000      9.1853858E-09
   27.00000      1.1693540E-08
   27.06000      1.4036809E-08
   27.12000      1.6186590E-08
   27.18000      1.8110436E-08
   27.24000      1.9782126E-08
   27.30000      2.1191486E-08
   27.36000      2.2350584E-08
   27.42000      2.3294266E-08
   27.48000      2.4074790E-08
   27.54000      2.4752119E-08
   27.60000      2.5382507E-08
   27.66000      2.6008228E-08
   27.72000      2.6650667E-08
   27.78000      2.7308026E-08
   27.84000      2.7957649E-08
   27.90000      2.8562100E-08
   27.96000      2.9077617E-08
   28.02000      2.9463269E-08
   28.08000      2.9689273E-08
   28.14000      2.9743120E-08
   28.20000      2.9632446E-08
   28.26000      2.9384125E-08
   28.32000      2.9039693E-08
   28.38000      2.8647882E-08
   28.44000      2.8255860E-08
   28.50000      2.7901068E-08
   28.56000      2.7605571E-08
   28.62000      2.7374211E-08
   28.68000      2.7196739E-08
   28.74000      2.7052902E-08
   28.80000      2.6918379E-08
   28.86000      2.6769143E-08
   28.92000      2.6582345E-08
   28.98000      2.6333080E-08
   29.04000      2.5988296E-08
   29.10000      2.5500555E-08
   29.16000      2.4805102E-08
   29.22000      2.3823199E-08
   29.28000      2.2472731E-08
   29.34000      2.0684709E-08
   29.40000      1.8421689E-08
   29.46000      1.5692825E-08
   29.52000      1.2560377E-08
   29.58000      9.1343972E-09
   29.64000      5.5555098E-09
   29.70000      1.9690105E-09
   29.76000     -1.5036891E-09
   29.82000     -4.7891597E-09
   29.88000     -7.8752471E-09
   29.94000     -1.0809742E-08
   30.00000     -1.3684295E-08
   30.06000     -1.6607288E-08
   30.12000     -1.9672434E-08
   30.18000     -2.2931271E-08
   30.24000     -2.6376954E-08
   30.30000     -2.9943941E-08
   30.36000     -3.3523872E-08
   30.42000     -3.6993317E-08
   30.48000     -4.0245542E-08
   30.54000     -4.3216964E-08
   30.60000     -4.5900570E-08
   30.66000     -4.8342297E-08
   30.72000     -5.0621914E-08
   30.78000     -5.2824497E-08
   30.84000     -5.5011824E-08
   30.90000     -5.7202449E-08
   30.96000     -5.9366442E-08
   31.02000     -6.1435578E-08
   31.08000     -6.3324840E-08
   31.14000     -6.4957710E-08
   31.20000     -6.6286908E-08
   31.26000     -6.7304292E-08
   31.32000     -6.8037700E-08
   31.38000     -6.8536586E-08
   31.44000     -6.8851982E-08
   31.50000     -6.9017574E-08
   31.56000     -6.9037817E-08
   31.62000     -6.8886870E-08
   31.68000     -6.8518119E-08
   31.74000     -6.7881402E-08
   31.80000     -6.6942228E-08
   31.86000     -6.5697179E-08
   31.92000     -6.4180398E-08
   31.98000     -6.2459058E-08
   32.04000     -6.0618817E-08
   32.10000     -5.8743456E-08
   32.16000     -5.6895004E-08
   32.22000     -5.5100404E-08
   32.28000     -5.3349019E-08
   32.34000     -5.1601589E-08
   32.40000     -4.9807454E-08
   32.46000     -4.7924100E-08
   32.52000     -4.5932087E-08
   32.58000     -4.3840235E-08
   32.64000     -4.1679417E-08
   32.70000     -3.9487510E-08
   32.76000     -3.7291347E-08
   32.82000     -3.5092683E-08
   32.88000     -3.2863884E-08
   32.94000     -3.0555505E-08
   33.00000     -2.8113730E-08
   33.06000     -2.5502155E-08
   33.12000     -2.2720711E-08
   33.18000     -1.9815444E-08
   33.24000     -1.6875658E-08
   33.30000     -1.4018951E-08
   33.36000     -1.1368255E-08
   33.42000     -9.0272900E-09
   33.48000     -7.0611210E-09
   33.54000     -5.4867146E-09
   33.60000     -4.2754622E-09
   33.66000     -3.3661167E-09
   33.72000     -2.6838645E-09
   33.78000     -2.1598248E-09
   33.84000     -1.7455929E-09
   33.90000     -1.4192472E-09
   33.96000     -1.1819939E-09
   34.02000     -1.0474436E-09
   34.08000     -1.0275960E-09
   34.14000     -1.1203818E-09
   34.20000     -1.3028724E-09
   34.26000     -1.5323107E-09
   34.32000     -1.7545239E-09
   34.38000     -1.9168716E-09
   34.44000     -1.9813886E-09
   34.50000     -1.9336641E-09
   34.56000     -1.7843444E-09
   34.62000     -1.5625187E-09
   34.68000     -1.3029726E-09
   34.74000     -1.0314319E-09
   34.80000     -7.5276535E-10
   34.86000     -4.4630460E-10
   34.92000     -7.0179848E-11
   34.98000      4.2642417E-10
   35.04000      1.0868830E-09
   35.10000      1.9318369E-09
   35.16000      2.9498288E-09
   35.22000      4.0966666E-09
   35.28000      5.3033125E-09
   35.34000      6.4893113E-09
   35.40000      7.5771940E-09
   35.46000      8.5034708E-09
   35.52000      9.2236014E-09
   35.58000      9.7108570E-09
   35.64000      9.9512425E-09
   35.70000      9.9377653E-09
   35.76000      9.6669375E-09
   35.82000      9.1388870E-09
   35.88000      8.3605052E-09
   35.94000      7.3496373E-09
   36.00000      6.1379057E-09
   36.06000      4.7703974E-09
   36.12000      3.3018102E-09
   36.18000      1.7899737E-09
   36.24000      2.8850805E-10
   36.30000     -1.1595545E-09
   36.36000     -2.5259219E-09
   36.42000     -3.7985664E-09
   36.48000     -4.9809539E-09
   36.54000     -6.0897221E-09
   36.60000     -7.1515611E-09
   36.66000     -8.1998364E-09
   36.72000     -9.2712016E-09
   36.78000     -1.0402256E-08
   36.84000     -1.1626207E-08
   36.90000     -1.2969560E-08
   36.96000     -1.4449001E-08
   37.02000     -1.6068809E-08
   37.08000     -1.7819373E-08
   37.14000     -1.9677495E-08
   37.20000     -2.1609145E-08
   37.26000     -2.3574941E-08
   37.32000     -2.5537942E-08
   37.38000     -2.7472348E-08
   37.44000     -2.9370989E-08
   37.50000     -3.1249051E-08
   37.56000     -3.3142090E-08
   37.62000     -3.5097848E-08
   37.68000     -3.7163264E-08
   37.74000     -3.9370043E-08
   37.80000     -4.1723183E-08
   37.86000     -4.4196419E-08
   37.92000     -4.6736673E-08
   37.98000     -4.9276824E-08
   38.04000     -5.1753165E-08
   38.10000     -5.4122211E-08
   38.16000     -5.6371594E-08
   38.22000     -5.8521451E-08
   38.28000     -6.0616145E-08
   38.34000     -6.2709212E-08
   38.40000     -6.4846766E-08
   38.46000     -6.7054742E-08
   38.52000     -6.9334128E-08
   38.58000     -7.1664758E-08
   38.64000     -7.4015688E-08
   38.70000     -7.6357750E-08
   38.76000     -7.8673196E-08
   38.82000     -8.0959097E-08
   38.88000     -8.3223313E-08
   38.94000     -8.5474689E-08
   39.00000     -8.7711406E-08
   39.06000     -8.9911659E-08
   39.12000     -9.2030390E-08
   39.18000     -9.4003710E-08
   39.24000     -9.5760306E-08
   39.30000     -9.7237013E-08
   39.36000     -9.8394416E-08
   39.42000     -9.9228110E-08
   39.48000     -9.9772151E-08
   39.54000     -1.0009308E-07
   39.60000     -1.0027539E-07
   39.66000     -1.0040144E-07
   39.72000     -1.0053097E-07
   39.78000     -1.0068551E-07
   39.84000     -1.0084234E-07
   39.90000     -1.0093988E-07
   39.96000     -1.0089359E-07
   40.02000     -1.0061816E-07
   40.08000     -1.0004975E-07
   40.14000     -9.9162278E-08
   40.20000     -9.7973043E-08
   40.26000     -9.6536318E-08
   40.32000     -9.4927103E-08
   40.38000     -9.3219882E-08
   40.44000     -9.1468657E-08
   40.50000     -8.9693998E-08
   40.56000     -8.7880622E-08
   40.62000     -8.5985867E-08
   40.68000     -8.3956436E-08
   40.74000     -8.1748162E-08
   40.80000     -7.9342882E-08
   40.86000     -7.6757388E-08
   40.92000     -7.4041601E-08
   40.98000     -7.1266328E-08
   41.04000     -6.8504278E-08
   41.10000     -6.5809992E-08
   41.16000     -6.3205029E-08
   41.22000     -6.0673393E-08
   41.28000     -5.8169100E-08
   41.34000     -5.5634217E-08
   41.40000     -5.3022124E-08
   41.46000     -5.0318764E-08
   41.52000     -4.7554998E-08
   41.58000     -4.4805297E-08
   41.64000     -4.2172168E-08
   41.70000     -3.9760003E-08
   41.76000     -3.7645531E-08
   41.82000     -3.5853549E-08
   41.88000     -3.4345451E-08
   41.94000     -3.3024858E-08
   42.00000     -3.1759676E-08
   42.06000     -3.0415372E-08
   42.12000     -2.8890554E-08
   42.18000     -2.7145131E-08
   42.24000     -2.5213053E-08
   42.30000     -2.3195870E-08
   42.36000     -2.1238719E-08
   42.42000     -1.9495355E-08
   42.48000     -1.8091995E-08
   42.54000     -1.7099834E-08
   42.60000     -1.6523503E-08
   42.66000     -1.6307895E-08
   42.72000     -1.6360424E-08
   42.78000     -1.6581453E-08
   42.84000     -1.6893658E-08
   42.90000     -1.7261874E-08
   42.96000     -1.7698184E-08
   43.02000     -1.8251818E-08
   43.08000     -1.8987862E-08
   43.14000     -1.9962163E-08
   43.20000     -2.1200503E-08
   43.26000     -2.2688452E-08
   43.32000     -2.4374602E-08
   43.38000     -2.6185504E-08
   43.44000     -2.8046928E-08
   43.50000     -2.9904434E-08
   43.56000     -3.1736878E-08
   43.62000     -3.3559328E-08
   43.68000     -3.5415564E-08
   43.74000     -3.7363794E-08
   43.80000     -3.9461181E-08
   43.86000     -4.1752678E-08
   43.92000     -4.4267956E-08
   43.98000     -4.7027164E-08
   44.04000     -5.0053380E-08
   44.10000     -5.3387549E-08
   44.16000     -5.7101097E-08
   44.22000     -6.1302543E-08
   44.28000     -6.6136707E-08
   44.34000     -7.1777770E-08
   44.40000     -7.8419866E-08
   44.46000     -8.6269722E-08
   44.52000     -9.5545261E-08
   44.58000     -1.0648229E-07
   44.64000     -1.1934871E-07
   44.70000     -1.3446333E-07
   44.76000     -1.5221494E-07
   44.82000     -1.7307761E-07
   44.88000     -1.9761923E-07
   44.94000     -2.2650318E-07
   45.00000     -2.6048482E-07
   45.06000     -3.0040738E-07
   45.12000     -3.4720182E-07
   45.18000     -4.0189477E-07
   45.24000     -4.6562687E-07
   45.30000     -5.3968000E-07
   45.36000     -6.2551067E-07
   45.42000     -7.2478406E-07
   45.48000     -8.3940512E-07
   45.54000     -9.7154316E-07
   45.60000     -1.1236502E-06
   45.66000     -1.2984750E-06
   45.72000     -1.4990763E-06
   45.78000     -1.7288386E-06
   45.84000     -1.9914939E-06
   45.90000     -2.2911506E-06
   45.96000     -2.6323294E-06
   46.02000     -3.0200042E-06
   46.08000     -3.4596455E-06
   46.14000     -3.9572619E-06
   46.20000     -4.5194333E-06
   46.26000     -5.1533407E-06
   46.32000     -5.8667788E-06
   46.38000     -6.6681660E-06
   46.44000     -7.5665507E-06
   46.50000     -8.5716165E-06
   46.56000     -9.6936892E-06
   46.62000     -1.0943751E-05
   46.68000     -1.2333460E-05
   46.74000     -1.3875161E-05
   46.80000     -1.5581900E-05
   46.86000     -1.7467424E-05
   46.92000     -1.9546174E-05
   46.98000     -2.1833244E-05
   47.04000     -2.4344346E-05
   47.10000     -2.7095748E-05
   47.16000     -3.0104193E-05
   47.22000     -3.3386816E-05
   47.28000     -3.6961053E-05
   47.34000     -4.0844545E-05
   47.40000     -4.5055036E-05
   47.46000     -4.9610288E-05
   47.52000     -5.4527940E-05
   47.58000     -5.9825437E-05
   47.64000     -6.5519860E-05
   47.70000     -7.1627786E-05
   47.76000     -7.8165118E-05
   47.82000     -8.5146938E-05
   47.88000     -9.2587230E-05
   47.94000     -1.0049876E-04
   48.00000     -1.0889283E-04
   48.06000     -1.1777904E-04
   48.12000     -1.2716516E-04
   48.18000     -1.3705695E-04
   48.24000     -1.4745790E-04
   48.30000     -1.5836924E-04
   48.36000     -1.6978961E-04
   48.42000     -1.8171514E-04
   48.48000     -1.9413911E-04
   48.54000     -2.0705201E-04
   48.60000     -2.2044133E-04
   48.66000     -2.3429152E-04
   48.72000     -2.4858391E-04
   48.78000     -2.6329665E-04
   48.84000     -2.7840488E-04
   48.90000     -2.9388058E-04
   48.96000     -3.0969278E-04
   49.02000     -3.2580772E-04
   49.08000     -3.4218893E-04
   49.14000     -3.5879758E-04
   49.20000     -3.7559256E-04
   49.26000     -3.9253078E-04
   49.32000     -4.0956755E-04
   49.38000     -4.2665671E-04
   49.44000     -4.4375108E-04
   49.50000     -4.6080275E-04
   49.56000     -4.7776359E-04
   49.62000     -4.9458555E-04
   49.68000     -5.1122118E-04
   49.74000     -5.2762398E-04
   49.80000     -5.4374908E-04
   49.86000     -5.5955333E-04
   49.92000     -5.7499588E-04
   49.98000     -5.9003872E-04
   50.04000     -6.0464669E-04
   50.10000     -6.1878830E-04
   50.16000     -6.3243549E-04
   50.22000     -6.4556446E-04
   50.28000     -6.5815554E-04
   50.34000     -6.7019375E-04
   50.40000     -6.8166887E-04
   50.46000     -6.9257530E-04
   50.52000     -7.0291234E-04
   50.58000     -7.1268412E-04
   50.64000     -7.2189950E-04
   50.70000     -7.3057198E-04
   50.76000     -7.3871948E-04
   50.82000     -7.4636412E-04
   50.88000     -7.5353211E-04
   50.94000     -7.6025317E-04
   51.00000     -7.6656038E-04
   51.06000     -7.7248941E-04
   51.12000     -7.7807833E-04
   51.18000     -7.8336691E-04
   51.24000     -7.8839628E-04
   51.30000     -7.9320825E-04
   51.36000     -7.9784455E-04
   51.42000     -8.0234645E-04
   51.48000     -8.0675422E-04
   51.54000     -8.1110658E-04
   51.60000     -8.1543997E-04
   51.66000     -8.1978849E-04
   51.72000     -8.2418299E-04
   51.78000     -8.2865113E-04
   51.84000     -8.3321659E-04
   51.90000     -8.3789870E-04
   51.96000     -8.4271253E-04
   52.02000     -8.4766804E-04
   52.08000     -8.5277040E-04
   52.14000     -8.5801940E-04
   52.20000     -8.6341018E-04
   52.26000     -8.6893287E-04
   52.32000     -8.7457296E-04
   52.38000     -8.8031159E-04
   52.44000     -8.8612572E-04
   52.50000     -8.9198834E-04
   52.56000     -8.9786889E-04
   52.62000     -9.0373371E-04
   52.68000     -9.0954604E-04
   52.74000     -9.1526721E-04
   52.80000     -9.2085678E-04
   52.86000     -9.2627323E-04
   52.92000     -9.3147485E-04
   52.98000     -9.3641994E-04
   53.04000     -9.4106776E-04
   53.10000     -9.4537897E-04
   53.16000     -9.4931602E-04
   53.22000     -9.5284387E-04
   53.28000     -9.5593039E-04
   53.34000     -9.5854671E-04
   53.40000     -9.6066768E-04
   53.46000     -9.6227229E-04
   53.52000     -9.6334354E-04
   53.58000     -9.6386921E-04
   53.64000     -9.6384162E-04
   53.70000     -9.6325792E-04
   53.76000     -9.6211984E-04
   53.82000     -9.6043403E-04
   53.88000     -9.5821160E-04
   53.94000     -9.5546810E-04
   54.00000     -9.5222326E-04
   54.06000     -9.4850076E-04
   54.12000     -9.4432785E-04
   54.18000     -9.3973463E-04
   54.24000     -9.3475421E-04
   54.30000     -9.2942140E-04
   54.36000     -9.2377281E-04
   54.42000     -9.1784581E-04
   54.48000     -9.1167825E-04
   54.54000     -9.0530806E-04
   54.60000     -8.9877268E-04
   54.66000     -8.9210854E-04
   54.72000     -8.8535063E-04
   54.78000     -8.7853218E-04
   54.84000     -8.7168405E-04
   54.90000     -8.6483429E-04
   54.96000     -8.5800787E-04
   55.02000     -8.5122627E-04
   55.08000     -8.4450730E-04
   55.14000     -8.3786482E-04
   55.20000     -8.3130907E-04
   55.26000     -8.2484592E-04
   55.32000     -8.1847765E-04
   55.38000     -8.1220240E-04
   55.44000     -8.0601452E-04
   55.50000     -7.9990493E-04
   55.56000     -7.9386099E-04