 -0.750000000       0.00000000    
 -0.689999998       0.00000000    
 -0.629999995       0.00000000    
 -0.569999993       0.00000000    
 -0.509999990       0.00000000    
 -0.449999988       0.00000000    
 -0.389999986       0.00000000    
 -0.330000013       0.00000000    
 -0.270000011      -7.86719753E-28
 -0.209999993       1.15319685E-26
 -0.150000006       2.01134965E-25
  -9.00000036E-02   1.31724950E-24
  -2.99999993E-02   5.14788341E-24
   2.99999993E-02   1.30449376E-23
   9.00000036E-02   1.87192559E-23
  0.150000006      -5.60032946E-24
  0.209999993      -1.16442824E-22
  0.270000011      -3.64841732E-22
  0.330000013      -6.83816187E-22
  0.389999986      -7.23850537E-22
  0.449999988       1.98463179E-22
  0.509999990       2.75596931E-21
  0.569999993       6.70766454E-21
  0.629999995       9.80368646E-21
  0.689999998       7.62566174E-21
  0.750000000      -4.25099789E-21
  0.810000002      -2.55747993E-20
  0.870000005      -4.68141866E-20
  0.930000007      -4.99329839E-20
  0.990000010      -1.90639880E-20
   1.04999995       4.12971472E-20
   1.11000001       9.39024996E-20
   1.16999996       8.16671283E-20
   1.23000002      -2.48360720E-20
   1.28999996      -1.66341782E-19
   1.35000002      -1.76282412E-19
   1.40999997       1.34170854E-19
   1.47000003       7.82482771E-19
   1.52999997       1.41898791E-18
   1.59000003       1.33254454E-18
   1.64999998      -1.67219524E-19
   1.71000004      -3.04357632E-18
   1.76999998      -5.91675509E-18
   1.83000004      -6.20517229E-18
   1.88999999      -1.51197263E-18
   1.95000005       8.01949701E-18
   2.00999999       1.77417916E-17
   2.06999993       1.89641810E-17
   2.13000011       3.27190257E-18
   2.19000006      -3.00725813E-17
   2.25000000      -6.74650228E-17
   2.30999994      -8.08094512E-17
   2.36999989      -3.83698183E-17
   2.43000007       7.43071498E-17
   2.49000001       2.32131894E-16
   2.54999995       3.61446905E-16
   2.60999990       3.57641636E-16
   2.67000008       1.32167580E-16
   2.73000002      -3.25556346E-16
   2.78999996      -9.01395628E-16
   2.84999990      -1.35840251E-15
   2.91000009      -1.40582884E-15
   2.97000003      -8.23046404E-16
   3.02999997       4.07118789E-16
   3.08999991       2.01909996E-15
   3.15000010       3.49200471E-15
   3.21000004       4.19655655E-15
   3.26999998       3.62104002E-15
   3.32999992       1.59380832E-15
   3.39000010      -1.58864195E-15
   3.45000005      -5.18749658E-15
   3.50999999      -8.20210040E-15
   3.56999993      -9.64648469E-15
   3.63000011      -8.82978315E-15
   3.69000006      -5.55357999E-15
   3.75000000      -1.77095081E-16
   3.80999994       6.44865707E-15
   3.86999989       1.31367170E-14
   3.93000007       1.85538654E-14
   3.99000001       2.13991202E-14
   4.05000019       2.05549621E-14
   4.11000013       1.52286783E-14
   4.17000008       5.12422576E-15
   4.23000002      -9.31835514E-15
   4.28999996      -2.66224573E-14
   4.34999990      -4.40052895E-14
   4.40999985      -5.73332411E-14
   4.46999979      -6.15568252E-14
   4.53000021      -5.18213232E-14
   4.59000015      -2.52204534E-14
   4.65000010       1.72096935E-14
   4.71000004       6.90317961E-14
   4.76999998       1.18412916E-13
   4.82999992       1.50259457E-13
   4.88999987       1.50418279E-13
   4.94999981       1.10890762E-13
   5.01000023       3.41855145E-14
   5.07000017      -6.52334835E-14
   5.13000011      -1.63676378E-13
   5.19000006      -2.34835778E-13
   5.25000000      -2.58197272E-13
   5.30999994      -2.26039388E-13
   5.36999989      -1.46009696E-13
   5.42999983      -3.79378366E-14
   5.48999977       7.39147242E-14
   5.55000019       1.69722485E-13
   5.61000013       2.39876885E-13
   5.67000008       2.84794730E-13
   5.73000002       3.08848568E-13
   5.78999996       3.11796785E-13
   5.84999990       2.82975032E-13
   5.90999985       2.02778996E-13
   5.96999979       5.26262214E-14
   6.03000021      -1.70017578E-13
   6.09000015      -4.38616998E-13
   6.15000010      -6.94310061E-13
   6.21000004      -8.57082417E-13
   6.26999998      -8.50099017E-13
   6.32999992      -6.29546654E-13
   6.38999987      -2.08439236E-13
   6.44999981       3.36496103E-13
   6.51000023       8.80248511E-13
   6.57000017       1.28420169E-12
   6.63000011       1.43886801E-12
   6.69000006       1.29918331E-12
   6.75000000       8.98544856E-13
   6.80999994       3.35304809E-13
   6.86999989      -2.63816069E-13
   6.92999983      -7.89157964E-13
   6.98999977      -1.18359879E-12
   7.05000019      -1.45236958E-12
   7.11000013      -1.64172137E-12
   7.17000008      -1.79461936E-12
   7.23000002      -1.90317532E-12
   7.28999996      -1.88163222E-12
   7.34999990      -1.57764145E-12
   7.40999985      -8.24798346E-13
   7.46999979       4.78680246E-13
   7.53000021       2.29410132E-12
   7.59000015       4.40126494E-12
   7.65000010       6.41403727E-12
   7.71000004       7.85380701E-12
   7.76999998       8.25934286E-12
   7.82999992       7.29637878E-12
   7.88999987       4.83002700E-12
   7.94999981       9.39139391E-13
   8.01000023      -4.12189336E-12
   8.06999969      -9.98364932E-12
   8.13000011      -1.62031343E-11
   8.18999958      -2.22547761E-11
   8.25000000      -2.74678856E-11
   8.31000042      -3.09427102E-11
   8.36999989      -3.15016312E-11
   8.43000031      -2.77315965E-11
   8.48999977      -1.81443454E-11
   8.55000019      -1.43176096E-12
   8.60999966       2.32543949E-11
   8.67000008       5.60934042E-11
   8.72999954       9.65384092E-11
   8.78999996       1.43443188E-10
   8.85000038       1.95336344E-10
   8.90999985       2.50750171E-10
   8.97000027       3.08486070E-10
   9.02999973       3.67720770E-10
   9.09000015       4.27914676E-10
   9.14999962       4.88554031E-10
   9.21000004       5.48817325E-10
   9.27000046       6.07275563E-10
   9.32999992       6.61721899E-10
   9.39000034       7.09179326E-10
   9.44999981       7.46085971E-10
   9.51000023       7.68624331E-10
   9.56999969       7.73152042E-10
   9.63000011       7.56706031E-10
   9.68999958       7.17569171E-10
   9.75000000       6.55885291E-10
   9.81000042       5.74275683E-10
   9.86999989       4.78353190E-10
   9.93000031       3.76967318E-10
   9.98999977       2.81986490E-10
   10.0500002       2.07450196E-10
   10.1099997       1.68021860E-10
   10.1700001       1.76817380E-10
   10.2299995       2.42842690E-10
   10.2900000       3.68400366E-10
   10.3500004       5.46884649E-10
   10.4099998       7.61368857E-10
   10.4700003       9.84301862E-10
   10.5299997       1.17850008E-09
   10.5900002       1.29946554E-09
   10.6499996       1.29890509E-09
   10.7100000       1.12917509E-09
   10.7700005       7.48251849E-10
   10.8299999       1.24739552E-10
   10.8900003      -7.57602647E-10
   10.9499998      -1.89629801E-09
   11.0100002      -3.26793437E-09
   11.0699997      -4.82753659E-09
   11.1300001      -6.50962217E-09
   11.1899996      -8.23093149E-09
   11.2500000      -9.89474103E-09
   11.3100004      -1.13966268E-08
   11.3699999      -1.26314879E-08
   11.4300003      -1.35015377E-08
   11.4899998      -1.39247653E-08
   11.5500002      -1.38431782E-08
   11.6099997      -1.32298821E-08
   11.6700001      -1.20939569E-08
   11.7299995      -1.04821298E-08
   11.7900000      -8.47651993E-09
   11.8500004      -6.18824236E-09
   11.9099998      -3.74728160E-09
   11.9700003      -1.28969735E-09
   12.0299997       1.05622089E-09
   12.0900002       3.18296722E-09
   12.1499996       5.01415398E-09
   12.2100000       6.51071508E-09
   12.2700005       7.67217312E-09
   12.3299999       8.53297788E-09
   12.3900003       9.15472320E-09
   12.4499998       9.61563718E-09
   12.5100002       9.99911087E-09
   12.5699997       1.03829549E-08
   12.6300001       1.08307932E-08
   12.6899996       1.13863976E-08
   12.7500000       1.20712134E-08
   12.8100004       1.28847226E-08
   12.8699999       1.38070142E-08
   12.9300003       1.48028185E-08
   12.9899998       1.58263411E-08
   13.0500002       1.68265526E-08
   13.1099997       1.77526367E-08
   13.1700001       1.85595628E-08
   13.2299995       1.92134895E-08
   13.2900000       1.96965342E-08
   13.3500004       2.00102264E-08
   13.4099998       2.01767385E-08
   13.4700003       2.02372519E-08
   13.5299997       2.02471409E-08
   13.5900002       2.02684038E-08
   13.6499996       2.03604458E-08
   13.7100000       2.05708606E-08
   13.7700005       2.09280220E-08
   13.8299999       2.14370495E-08
   13.8900003       2.20800391E-08
   13.9499998       2.28205455E-08
   14.0100002       2.36113795E-08
   14.0699997       2.44040645E-08
   14.1300001       2.51579078E-08
   14.1899996       2.58466528E-08
   14.2500000       2.64612563E-08
   14.3100004       2.70081699E-08
   14.3699999       2.75037131E-08
   14.4300003       2.79661485E-08
   14.4899998       2.84078308E-08
   14.5500002       2.88298736E-08
   14.6099997       2.92210505E-08
   14.6700001       2.95613631E-08
   14.7299995       2.98291631E-08
   14.7900000       3.00094420E-08
   14.8500004       3.01004448E-08
   14.9099998       3.01161975E-08
   14.9700003       3.00839353E-08
   15.0299997       3.00369578E-08
   15.0900002       3.00050651E-08
   15.1499996       3.00055305E-08
   15.2100000       3.00374410E-08
   15.2700005       3.00811962E-08
   15.3299999       3.01035179E-08
   15.3900003       3.00664844E-08
   15.4499998       2.99378655E-08
   15.5100002       2.96995761E-08
   15.5699997       2.93513853E-08
   15.6300001       2.89085573E-08
   15.6899996       2.83938437E-08
   15.7500000       2.78262107E-08
   15.8100004       2.72098006E-08
   15.8699999       2.65267701E-08
   15.9300003       2.57366377E-08
   15.9899998       2.47827927E-08
   16.0499992       2.36047377E-08
   16.1100006       2.21528449E-08
   16.1700001       2.04016821E-08
   16.2299995       1.83582962E-08
   16.2900009       1.60632858E-08
   16.3500004       1.35844154E-08
   16.4099998       1.10045626E-08
   16.4699993       8.40719316E-09
   16.5300007       5.86316729E-09
   16.5900002       3.42215123E-09
   16.6499996       1.11046772E-09
   16.7099991      -1.06476095E-09
   16.7700005      -3.10726667E-09
   16.8299999      -5.02244069E-09
   16.8899994      -6.81079015E-09
   16.9500008      -8.46646042E-09
   17.0100002      -9.98134109E-09
   17.0699997      -1.13531327E-08
   17.1299992      -1.25941719E-08
   17.1900005      -1.37373952E-08
   17.2500000      -1.48365835E-08
   17.3099995      -1.59597775E-08
   17.3700008      -1.71768875E-08
   17.4300003      -1.85442968E-08
   17.4899998      -2.00903578E-08
   17.5499992      -2.18056240E-08
   17.6100006      -2.36407622E-08
   17.6700001      -2.55133159E-08
   17.7299995      -2.73223648E-08
   17.7900009      -2.89680795E-08
   17.8500004      -3.03715950E-08
   17.9099998      -3.14901740E-08
   17.9699993      -3.23234950E-08
   18.0300007      -3.29090959E-08
   18.0900002      -3.33079591E-08
   18.1499996      -3.35842003E-08
   18.2099991      -3.37846906E-08
   18.2700005      -3.39245929E-08
   18.3299999      -3.39830031E-08
   18.3899994      -3.39096857E-08
   18.4500008      -3.36404931E-08
   18.5100002      -3.31165282E-08
   18.5699997      -3.23011378E-08
   18.6299992      -3.11899591E-08
   18.6900005      -2.98116341E-08
   18.7500000      -2.82197323E-08
   18.8099995      -2.64790252E-08
   18.8700008      -2.46505163E-08
   18.9300003      -2.27798296E-08
   18.9899998      -2.08922035E-08
   19.0499992      -1.89953742E-08
   19.1100006      -1.70890875E-08
   19.1700001      -1.51779833E-08
   19.2299995      -1.32831959E-08
   19.2900009      -1.14481171E-08
   19.3500004      -9.73533787E-09
   19.4099998      -8.21449397E-09
   19.4699993      -6.94405911E-09
   19.5300007      -5.95261929E-09
   19.5900002      -5.22607069E-09
   19.6499996      -4.70587525E-09
   19.7099991      -4.30020419E-09
   19.7700005      -3.90565136E-09
   19.8299999      -3.43354523E-09
   19.8899994      -2.83309132E-09
   19.9500008      -2.10425233E-09
   20.0100002      -1.29628364E-09
   20.0699997      -4.92152319E-10
   20.1299992       2.16634183E-10
   20.1900005       7.57334473E-10
   20.2500000       1.09726095E-09
   20.3099995       1.25265298E-09
   20.3700008       1.28247046E-09
   20.4300003       1.26904498E-09
   20.4899998       1.29167843E-09
   20.5499992       1.40159451E-09
   20.6100006       1.60634905E-09
   20.6700001       1.86883020E-09
   20.7299995       2.12121765E-09
   20.7900009       2.28930186E-09
   20.8500004       2.31907826E-09
   20.9099998       2.19679075E-09
   20.9699993       1.95581351E-09
   21.0300007       1.66817982E-09
   21.0900002       1.42358103E-09
   21.1499996       1.30262956E-09
   21.2099991       1.35284439E-09
   21.2700005       1.57483748E-09
   21.3299999       1.92298844E-09
   21.3899994       2.32057795E-09
   21.4500008       2.68513678E-09
   21.5100002       2.95679281E-09
   21.5699997       3.12141313E-09
   21.6299992       3.22163163E-09
   21.6900005       3.35210348E-09
   21.7500000       3.63975916E-09
   21.8099995       4.21415791E-09
   21.8700008       5.17597254E-09
   21.9300003       6.57217036E-09
   21.9899998       8.38432346E-09
   22.0499992       1.05324318E-08
   22.1100006       1.28919320E-08
   22.1700001       1.53179709E-08
   22.2299995       1.76695405E-08
   22.2900009       1.98272048E-08
   22.3500004       2.17011689E-08
   22.4099998       2.32300543E-08
   22.4699993       2.43737439E-08
   22.5300007       2.51048800E-08
   22.5900002       2.54031320E-08
   22.6499996       2.52543675E-08
   22.7099991       2.46545664E-08
   22.7700005       2.36163054E-08
   22.8299999       2.21748166E-08
   22.8899994       2.03907984E-08
   22.9500008       1.83483522E-08
   23.0100002       1.61479488E-08
   23.0699997       1.38957583E-08
   23.1299992       1.16915411E-08
   23.1900005       9.61750768E-09
   23.2500000       7.73013209E-09
   23.3099995       6.05613382E-09
   23.3700008       4.59291494E-09
   23.4300003       3.31297567E-09
   23.4899998       2.17129825E-09
   23.5499992       1.11440812E-09
   23.6100006       8.97446562E-11
   23.6700001      -9.46025369E-10
   23.7299995      -2.02105621E-09
   23.7900009      -3.14592152E-09
   23.8500004      -4.31564340E-09
   23.9099998      -5.51641310E-09
   23.9699993      -6.73624445E-09
   24.0300007      -7.97749777E-09
   24.0900002      -9.26797394E-09
   24.1499996      -1.06666223E-08
   24.2099991      -1.22604851E-08
   24.2700005      -1.41514045E-08
   24.3299999      -1.64341198E-08
   24.3899994      -1.91706722E-08
   24.4500008      -2.23683045E-08
   24.5100002      -2.59681432E-08
   24.5699997      -2.98494669E-08
   24.6299992      -3.38497870E-08
   24.6900005      -3.77959068E-08
   24.7500000      -4.15374615E-08
   24.8099995      -4.49733371E-08
   24.8700008      -4.80638107E-08
   24.9300003      -5.08258431E-08
   24.9899998      -5.33144338E-08
   25.0499992      -5.55968640E-08
   25.1100006      -5.77283537E-08
   25.1700001      -5.97359957E-08
   25.2299995      -6.16146636E-08
   25.2900009      -6.33341699E-08
   25.3500004      -6.48539000E-08
   25.4099998      -6.61392079E-08
   25.4699993      -6.71742129E-08
   25.5300007      -6.79674130E-08
   25.5900002      -6.85489496E-08
   25.6499996      -6.89612065E-08
   25.7099991      -6.92463402E-08
   25.7700005      -6.94349112E-08
   25.8299999      -6.95398015E-08
   25.8899994      -6.95571742E-08
   25.9500008      -6.94741402E-08
   26.0100002      -6.92799631E-08
   26.0699997      -6.89766466E-08
   26.1299992      -6.85847752E-08
   26.1900005      -6.81424268E-08
   26.2500000      -6.76973144E-08
   26.3099995      -6.72950193E-08
   26.3700008      -6.69671962E-08
   26.4300003      -6.67233024E-08
   26.4899998      -6.65480258E-08
   26.5499992      -6.64047377E-08
   26.6100006      -6.62436292E-08
   26.6700001      -6.60124684E-08
   26.7299995      -6.56677344E-08
   26.7900009      -6.51838548E-08
   26.8500004      -6.45588685E-08
   26.9099998      -6.38149587E-08
   26.9699993      -6.29934362E-08
   27.0300007      -6.21448493E-08
   27.0900002      -6.13165838E-08
   27.1499996      -6.05413959E-08
   27.2099991      -5.98305476E-08
   27.2700005      -5.91739635E-08
   27.3299999      -5.85475526E-08
   27.3899994      -5.79254475E-08
   27.4500008      -5.72930787E-08
   27.5100002      -5.66566669E-08
   27.5699997      -5.60461615E-08
   27.6299992      -5.55105935E-08
   27.6900005      -5.51075310E-08
   27.7500000      -5.48897532E-08
   27.8099995      -5.48931709E-08
   27.8700008      -5.51292558E-08
   27.9300003      -5.55840458E-08
   27.9899998      -5.62236941E-08
   28.0499992      -5.70048329E-08
   28.1100006      -5.78866413E-08
   28.1700001      -5.88409321E-08
   28.2299995      -5.98574914E-08
   28.2900009      -6.09433002E-08
   28.3500004      -6.21164773E-08
   28.4099998      -6.33973372E-08
   28.4699993      -6.47998277E-08
   28.5300007      -6.63257822E-08
   28.5900002      -6.79633274E-08
   28.6499996      -6.96885536E-08
   28.7099991      -7.14690884E-08
   28.7700005      -7.32675787E-08
   28.8299999      -7.50442339E-08
   28.8899994      -7.67585036E-08
   28.9500008      -7.83707890E-08
   29.0100002      -7.98448028E-08
   29.0699997      -8.11507945E-08
   29.1299992      -8.22687696E-08
   29.1900005      -8.31903719E-08
   29.2500000      -8.39180814E-08
   29.3099995      -8.44613339E-08
   29.3700008      -8.48298356E-08
   29.4300003      -8.50253912E-08
   29.4899998      -8.50344222E-08
   29.5499992      -8.48230357E-08
   29.6100006      -8.43364774E-08
   29.6700001      -8.35042471E-08
   29.7299995      -8.22504802E-08
   29.7900009      -8.05083076E-08
   29.8500004      -7.82351748E-08
   29.9099998      -7.54255964E-08
   29.9699993      -7.21177571E-08
   30.0300007      -6.83917065E-08
   30.0900002      -6.43588720E-08
   30.1499996      -6.01449059E-08
   30.2099991      -5.58695810E-08
   30.2700005      -5.16282128E-08
   30.3299999      -4.74785828E-08
   30.3899994      -4.34359855E-08
   30.4500008      -3.94771291E-08
   30.5100002      -3.55515617E-08
   30.5699997      -3.15979669E-08
   30.6299992      -2.75615690E-08
   30.6900005      -2.34088589E-08
   30.7500000      -1.91364933E-08
   30.8099995      -1.47725867E-08
   30.8700008      -1.03705284E-08
   30.9300003      -5.99728400E-09
   30.9899998      -1.71955350E-09
   31.0499992       2.40843412E-09
   31.1100006       6.35233377E-09
   31.1700001       1.00987014E-08
   31.2299995       1.36499176E-08
   31.2900009       1.70150454E-08
   31.3500004       2.01996606E-08
   31.4099998       2.31978561E-08
   31.4699993       2.59887987E-08
   31.5300007       2.85389188E-08
   31.5900002       3.08091295E-08
   31.6499996       3.27650476E-08
   31.7099991       3.43872131E-08
   31.7700005       3.56782195E-08
   31.8299999       3.66644244E-08
   31.8899994       3.73914943E-08
   31.9500008       3.79148624E-08
   32.0099983       3.82879115E-08
   32.0699997       3.85513133E-08
   32.1300011       3.87265651E-08
   32.1899986       3.88155001E-08
   32.2500000       3.88052683E-08
   32.3100014       3.86767418E-08
   32.3699989       3.84131198E-08
   32.4300003       3.80058474E-08
   32.4900017       3.74560223E-08
   32.5499992       3.67711941E-08
   32.6100006       3.59592534E-08
   32.6699982       3.50217739E-08
   32.7299995       3.39495116E-08
   32.7900009       3.27217577E-08
   32.8499985       3.13099520E-08
   32.9099998       2.96846352E-08
   32.9700012       2.78237344E-08
   33.0299988       2.57199524E-08
   33.0900002       2.33852528E-08
   33.1500015       2.08513775E-08
   33.2099991       1.81664479E-08
   33.2700005       1.53885722E-08
   33.3300018       1.25780906E-08
   33.3899994       9.79005765E-09
   33.4500008       7.06834147E-09
   33.5099983       4.44207338E-09
   33.5699997       1.92458605E-09
   33.6300011      -4.85415708E-10
   33.6899986      -2.80095036E-09
   33.7500000      -5.04260811E-09
   33.8100014      -7.23359506E-09
   33.8699989      -9.39443456E-09
   33.9300003      -1.15379057E-08
   33.9900017      -1.36650353E-08
   34.0499992      -1.57631153E-08
   34.1100006      -1.78066735E-08
   34.1699982      -1.97619094E-08
   34.2299995      -2.15943317E-08
   34.2900009      -2.32783535E-08
   34.3499985      -2.48065550E-08
   34.4099998      -2.61958455E-08
   34.4700012      -2.74880225E-08
   34.5299988      -2.87432425E-08
   34.5900002      -3.00269747E-08
   34.6500015      -3.13931459E-08
   34.7099991      -3.28679235E-08
   34.7700005      -3.44392319E-08
   34.8300018      -3.60559937E-08
   34.8899994      -3.76385074E-08
   34.9500008      -3.90978485E-08
   35.0099983      -4.03590512E-08
   35.0699997      -4.13810213E-08
   35.1300011      -4.21666471E-08
   35.1899986      -4.27595381E-08
   35.2500000      -4.32280167E-08
   35.3100014      -4.36414034E-08
   35.3699989      -4.40463133E-08
   35.4300003      -4.44509709E-08
   35.4900017      -4.48226558E-08
   35.5499992      -4.50991848E-08
   35.6100006      -4.52102782E-08
   35.6699982      -4.51016540E-08
   35.7299995      -4.47536976E-08
   35.7900009      -4.41887735E-08
   35.8499985      -4.34652243E-08
   35.9099998      -4.26605915E-08
   35.9700012      -4.18499297E-08
   36.0299988      -4.10864587E-08
   36.0900002      -4.03903400E-08
   36.1500015      -3.97485529E-08
   36.2099991      -3.91249628E-08
   36.2700005      -3.84766103E-08
   36.3300018      -3.77706080E-08
   36.3899994      -3.69963580E-08
   36.4500008      -3.61695776E-08
   36.5099983      -3.53274956E-08
   36.5699997      -3.45172069E-08
   36.6300011      -3.37812018E-08
   36.6899986      -3.31447296E-08
   36.7500000      -3.26087992E-08
   36.8100014      -3.21509326E-08
   36.8699989      -3.17332685E-08
   36.9300003      -3.13154800E-08
   36.9900017      -3.08685841E-08
   37.0499992      -3.03854080E-08
   37.1100006      -2.98845215E-08
   37.1699982      -2.94064595E-08
   37.2299995      -2.90032052E-08
   37.2900009      -2.87240578E-08
   37.3499985      -2.86019084E-08
   37.4099998      -2.86439406E-08
   37.4700012      -2.88294171E-08
   37.5299988      -2.91151867E-08
   37.5900002      -2.94473956E-08
   37.6500015      -2.97761584E-08
   37.7099991      -3.00691738E-08
   37.7700005      -3.03204963E-08
   37.8300018      -3.05521013E-08
   37.8899994      -3.08077261E-08
   37.9500008      -3.11406581E-08
   38.0099983      -3.15987805E-08
   38.0699997      -3.22110090E-08
   38.1300011      -3.29789458E-08
   38.1899986      -3.38759598E-08
   38.2500000      -3.48537377E-08
   38.3100014      -3.58541499E-08
   38.3699989      -3.68226232E-08
   38.4300003      -3.77190617E-08
   38.4900017      -3.85233783E-08
   38.5499992      -3.92346990E-08
   38.6100006      -3.98654336E-08
   38.6699982      -4.04328375E-08
   38.7299995      -4.09510825E-08
   38.7900009      -4.14259844E-08
   38.8499985      -4.18533652E-08
   38.9099998      -4.22205737E-08
   38.9700012      -4.25100879E-08
   39.0299988      -4.27039488E-08
   39.0900002      -4.27882050E-08
   39.1500015      -4.27568487E-08
   39.2099991      -4.26147864E-08
   39.2700005      -4.23794013E-08
   39.3300018      -4.20797690E-08
   39.3899994      -4.17530153E-08
   39.4500008      -4.14376231E-08
   39.5099983      -4.11647783E-08
   39.5699997      -4.09496650E-08
   39.6300011      -4.07855474E-08
   39.6899986      -4.06429876E-08
   39.7500000      -4.04756300E-08
   39.8100014      -4.02318499E-08
   39.8699989      -3.98696542E-08
   39.9300003      -3.93705548E-08
   39.9900017      -3.87479062E-08
   40.0499992      -3.80463980E-08
   40.1100006      -3.73320113E-08
   40.1699982      -3.66746882E-08
   40.2299995      -3.61287675E-08
   40.2900009      -3.57172318E-08
   40.3499985      -3.54248222E-08
   40.4099998      -3.52024720E-08
   40.4700012      -3.49818379E-08
   40.5299988      -3.46953541E-08
   40.5900002      -3.42956774E-08
   40.6500015      -3.37685684E-08
   40.7099991      -3.31355494E-08
   40.7700005      -3.24460210E-08
   40.8300018      -3.17615836E-08
   40.8899994      -3.11376986E-08
   40.9500008      -3.06081986E-08
   41.0099983      -3.01772545E-08
   41.0699997      -2.98208747E-08
   41.1300011      -2.94970786E-08
   41.1899986      -2.91612015E-08
   41.2500000      -2.87811197E-08
   41.3100014      -2.83471717E-08
   41.3699989      -2.78733321E-08
   41.4300003      -2.73892411E-08
   41.4900017      -2.69260436E-08
   41.5499992      -2.65013487E-08
   41.6100006      -2.61092215E-08
   41.6699982      -2.57192934E-08
   41.7299995      -2.52857877E-08
   41.7900009      -2.47634855E-08
   41.8499985      -2.41250060E-08
   41.9099998      -2.33731061E-08
   41.9700012      -2.25434835E-08
   42.0299988      -2.16967653E-08
   42.0900002      -2.09021405E-08
   42.1500015      -2.02177866E-08
   42.2099991      -1.96744008E-08
   42.2700005      -1.92670964E-08
   42.3300018      -1.89583780E-08
   42.3899994      -1.86915425E-08
   42.4500008      -1.84105513E-08
   42.5099983      -1.80803035E-08
   42.5699997      -1.77008648E-08
   42.6300011      -1.73107804E-08
   42.6899986      -1.69778804E-08
   42.7500000      -1.67800192E-08
   42.8100014      -1.67815823E-08
   42.8699989      -1.70134076E-08
   42.9300003      -1.74628987E-08
   42.9900017      -1.80779356E-08
   43.0499992      -1.87836235E-08
   43.1100006      -1.95064604E-08
   43.1699982      -2.01979091E-08
   43.2299995      -2.08493223E-08
   43.2900009      -2.14930704E-08
   43.3499985      -2.21893277E-08
   43.4099998      -2.30028387E-08
   43.4700012      -2.39775879E-08
   43.5299988      -2.51180907E-08
   43.5900002      -2.63840096E-08
   43.6500015      -2.77003753E-08
   43.7099991      -2.89803808E-08
   43.7700005      -3.01532772E-08
   43.8300018      -3.11878843E-08
   43.8899994      -3.21035785E-08
   43.9500008      -3.29646106E-08
   44.0099983      -3.38593544E-08
   44.0699997      -3.48712312E-08
   44.1300011      -3.60507997E-08
   44.1899986      -3.73982694E-08
   44.2500000      -3.88619057E-08
   44.3100014      -4.03526847E-08
   44.3699989      -4.17703276E-08
   44.4300003      -4.30322302E-08
   44.4900017      -4.40965522E-08
   44.5499992      -4.49726727E-08
   44.6100006      -4.57164369E-08
   44.6699982      -4.64123531E-08
   44.7299995      -4.71485322E-08
   44.7900009      -4.79921276E-08
   44.8499985      -4.89724314E-08
   44.9099998      -5.00761175E-08
   44.9700012      -5.12553626E-08
   45.0299988      -5.24456034E-08
   45.0900002      -5.35870548E-08
   45.1500015      -5.46435324E-08
   45.2099991      -5.56135262E-08
   45.2700005      -5.65312739E-08
   45.3300018      -5.74589407E-08
   45.3899994      -5.84733506E-08
   45.4500008      -5.96517893E-08
   45.5099983      -6.10608026E-08
   45.5699997      -6.27504022E-08
   45.6300011      -6.47544169E-08
   45.6899986      -6.70962237E-08
   45.7500000      -6.97983396E-08
   45.8100014      -7.28944372E-08
   45.8699989      -7.64421912E-08
   45.9300003      -8.05359974E-08
   45.9900017      -8.53178790E-08
   46.0499992      -9.09855657E-08
   46.1100006      -9.77961108E-08
   46.1699982      -1.06064178E-07
   46.2299995      -1.16155064E-07
   46.2900009      -1.28473857E-07
   46.3499985      -1.43454173E-07
   46.4099998      -1.61550375E-07
   46.4700012      -1.83237631E-07
   46.5299988      -2.09022531E-07
   46.5900002      -2.39464214E-07
   46.6500015      -2.75203377E-07
   46.7099991      -3.16994118E-07
   46.7700005      -3.65733939E-07
   46.8300018      -4.22486636E-07
   46.8899994      -4.88498017E-07
   46.9500008      -5.65204289E-07
   47.0099983      -6.54236715E-07
   47.0699997      -7.57426335E-07
   47.1300011      -8.76810873E-07
   47.1899986      -1.01464639E-06
   47.2500000      -1.17342347E-06
   47.3100014      -1.35589016E-06
   47.3699989      -1.56507974E-06
   47.4300003      -1.80434529E-06
   47.4900017      -2.07739959E-06
   47.5499992      -2.38835810E-06
   47.6100006      -2.74178319E-06
   47.6699982      -3.14272279E-06
   47.7299995      -3.59674368E-06
   47.7900009      -4.10995290E-06
   47.8499985      -4.68901271E-06
   47.9099998      -5.34114724E-06
   47.9700012      -6.07415632E-06
   48.0299988      -6.89642457E-06
   48.0900002      -7.81694507E-06
   48.1500015      -8.84535257E-06
   48.2099991      -9.99194526E-06
   48.2700005      -1.12677217E-05
   48.3300018      -1.26843870E-05
   48.3899994      -1.42543622E-05
   48.4500008      -1.59907686E-05
   48.5099983      -1.79073995E-05
   48.5699997      -2.00186769E-05
   48.6300011      -2.23396164E-05
   48.6899986      -2.48857759E-05
   48.7500000      -2.76731953E-05
   48.8100014      -3.07183618E-05
   48.8699989      -3.40381375E-05
   48.9300003      -3.76496646E-05
   48.9900017      -4.15703144E-05
   49.0499992      -4.58175455E-05
   49.1100006      -5.04088021E-05
   49.1699982      -5.53613827E-05
   49.2299995      -6.06922877E-05
   49.2900009      -6.64181061E-05
   49.3499985      -7.25548161E-05
   49.4099998      -7.91177008E-05
   49.4700012      -8.61211229E-05
   49.5299988      -9.35783901E-05
   49.5900002      -1.01501544E-04
   49.6500015      -1.09901208E-04
   49.7099991      -1.18786382E-04
   49.7700005      -1.28164203E-04
   49.8300018      -1.38039788E-04
   49.8899994      -1.48416075E-04
   49.9500008      -1.59293617E-04
   50.0099983      -1.70670493E-04
   50.0699997      -1.82542164E-04
   50.1300011      -1.94901411E-04
   50.1899986      -2.07738238E-04
   50.2500000      -2.21039765E-04
   50.3100014      -2.34790219E-04
   50.3699989      -2.48970726E-04
   50.4300003      -2.63559516E-04
   50.4900017      -2.78531836E-04
   50.5499992      -2.93859921E-04
   50.6100006      -3.09513242E-04