  -2.400000      0.0000000E+00
  -2.340000      0.0000000E+00
  -2.280000      0.0000000E+00
  -2.220000      0.0000000E+00
  -2.160000      0.0000000E+00
  -2.100000      0.0000000E+00
  -2.040000      0.0000000E+00
  -1.980000      0.0000000E+00
  -1.920000     -6.3721342E-28
  -1.860000      1.1925468E-26
  -1.800000      1.9461839E-25
  -1.740000      1.2573544E-24
  -1.680000      4.8979470E-24
  -1.620000      1.2468022E-23
  -1.560000      1.8345596E-23
  -1.500000     -2.9816761E-24
  -1.440000     -1.0449926E-22
  -1.380000     -3.3757713E-22
  -1.320000     -6.5216249E-22
  -1.260000     -7.4556736E-22
  -1.200000      9.4441096E-25
  -1.140000      2.2532967E-21
  -1.080000      5.9682874E-21
  -1.020000      9.4228207E-21
 -0.9600000      8.9240849E-21
 -0.9000000      3.2968938E-22
 -0.8400000     -1.7388555E-20
 -0.7800000     -3.8426068E-20
 -0.7200000     -5.0166194E-20
 -0.6600000     -4.0164495E-20
 -0.6000000     -8.1839925E-21
 -0.5400000      2.6327257E-20
 -0.4800000      3.4378525E-20
 -0.4200000      9.3255397E-21
 -0.3600000      2.1546005E-21
 -0.3000000      1.1926920E-19
 -0.2400000      4.4510723E-19
 -0.1800000      9.0109654E-19
 -0.1200000      1.1353260E-18
 -5.9999999E-02  5.9500994E-19
  0.0000000E+00 -1.1158303E-18
  5.9999999E-02 -3.6884112E-18
  0.1200000     -5.7366874E-18
  0.1800000     -5.1069887E-18
  0.2400000     -1.5379067E-19
  0.3000000      8.3892856E-18
  0.3600000      1.6128268E-17
  0.4200000      1.5874941E-17
  0.4800000      1.5287955E-18
  0.5400000     -2.6032223E-17
  0.6000000     -5.4352010E-17
  0.6600000     -6.0537359E-17
  0.7200000     -2.1041870E-17
  0.7800000      7.1600191E-17
  0.8400000      1.9269641E-16
  0.9000000      2.8128127E-16
  0.9600000      2.5714012E-16
   1.020000      5.8991702E-17
   1.080000     -3.0931399E-16
   1.140000     -7.4810135E-16
   1.200000     -1.0703591E-15
   1.260000     -1.0595569E-15
   1.320000     -5.6350095E-16
   1.380000      4.1169076E-16
   1.440000      1.6525303E-15
   1.500000      2.7670273E-15
   1.560000      3.2941948E-15
   1.620000      2.8614857E-15
   1.680000      1.3341005E-15
   1.740000     -1.0994450E-15
   1.800000     -3.9372836E-15
   1.860000     -6.4667124E-15
   1.920000     -7.9274898E-15
   1.980000     -7.6926041E-15
   2.040000     -5.4284808E-15
   2.100000     -1.2087607E-15
   2.160000      4.4358777E-15
   2.220000      1.0547164E-14
   2.280000      1.5859723E-14
   2.340000      1.9009539E-14
   2.400000      1.8800105E-14
   2.460000      1.4469617E-14
   2.520000      5.8975385E-15
   2.580000     -6.2844580E-15
   2.640000     -2.0667451E-14
   2.700000     -3.5089573E-14
   2.760000     -4.6698695E-14
   2.820000     -5.2121542E-14
   2.880000     -4.7887983E-14
   2.940000     -3.1257315E-14
   3.000000     -1.4415299E-15
   3.060000      3.9064479E-14
   3.120000      8.3629731E-14
   3.180000      1.2180213E-13
   3.240000      1.4124241E-13
   3.300000      1.3113101E-13
   3.360000      8.6151206E-14
   3.420000      9.6061337E-15
   3.480000     -8.5764004E-14
   3.540000     -1.8000598E-13
   3.600000     -2.5079323E-13
   3.660000     -2.7932219E-13
   3.720000     -2.5518249E-13
   3.780000     -1.7853792E-13
   3.840000     -5.9184909E-14
   3.900000      8.6500990E-14
   3.960000      2.3884640E-13
   4.020000      3.7674735E-13
   4.080000      4.7779570E-13
   4.140000      5.1802741E-13
   4.200000      4.7367470E-13
   4.260000      3.2682155E-13
   4.320000      7.4780128E-14
   4.380000     -2.5983396E-13
   4.440000     -6.2347707E-13
   4.500000     -9.3564859E-13
   4.560000     -1.1048766E-12
   4.620000     -1.0543730E-12
   4.680000     -7.5005448E-13
   4.740000     -2.2075407E-13
   4.800000      4.3863985E-13
   4.860000      1.0853893E-12
   4.920000      1.5651583E-12
   4.980000      1.7556459E-12
   5.040000      1.6028760E-12
   5.100000      1.1367556E-12
   5.160000      4.5937207E-13
   5.220000     -2.9033761E-13
   5.280000     -9.8226451E-13
   5.340000     -1.5328877E-12
   5.400000     -1.9191768E-12
   5.460000     -2.1621880E-12
   5.520000     -2.2873086E-12
   5.580000     -2.2799347E-12
   5.640000     -2.0601277E-12
   5.700000     -1.4943645E-12
   5.760000     -4.4781274E-13
   5.820000      1.1380461E-12
   5.880000      3.1723543E-12
   5.940000      5.3799235E-12
   6.000000      7.3272473E-12
   6.060000      8.5100720E-12
   6.120000      8.4777532E-12
   6.180000      6.9520787E-12
   6.240000      3.8976032E-12
   6.300000     -4.8092514E-13
   6.360000     -5.8069595E-12
   6.420000     -1.1628207E-11
   6.480000     -1.7486642E-11
   6.540000     -2.2918771E-11
   6.600000     -2.7376514E-11
   6.660000     -3.0104270E-11
   6.720000     -3.0042826E-11
   6.780000     -2.5835986E-11
   6.840000     -1.5984067E-11
   6.900000      8.7266967E-13
   6.960000      2.5622103E-11
   7.020000      5.8420685E-11
   7.080000      9.8618481E-11
   7.140000      1.4492216E-10
   7.200000      1.9575899E-10
   7.260000      2.4971911E-10
   7.320000      3.0590919E-10
   7.380000      3.6406872E-10
   7.440000      4.2437900E-10
   7.500000      4.8700777E-10
   7.560000      5.5153176E-10
   7.620000      6.1643496E-10
   7.680000      6.7885886E-10
   7.740000      7.3470391E-10
   7.800000      7.7906809E-10
   7.860000      8.0691281E-10
   7.920000      8.1380092E-10
   7.980000      7.9656992E-10
   8.040000      7.5387169E-10
   8.100000      6.8658285E-10
   8.160000      5.9812932E-10
   8.220000      4.9474314E-10
   8.280000      3.8558867E-10
   8.340000      2.8260386E-10
   8.400000      1.9984484E-10
   8.460000      1.5215981E-10
   8.520000      1.5314988E-10
   8.580000      2.1257557E-10
   8.640000      3.3357234E-10
   8.700000      5.1017685E-10
   8.760000      7.2568762E-10
   8.820000      9.5228192E-10
   8.880000      1.1521134E-09
   8.940000      1.2798779E-09
   9.000000      1.2866114E-09
   9.060000      1.1243242E-09
   9.120000      7.5098755E-10
   9.180000      1.3537524E-10
   9.240000     -7.3868484E-10
   9.300000     -1.8690149E-09
   9.360000     -3.2330105E-09
   9.420000     -4.7869535E-09
   9.480000     -6.4668191E-09
   9.540000     -8.1906331E-09
   9.600000     -9.8624087E-09
   9.660000     -1.1377645E-08
   9.720000     -1.2630277E-08
   9.780000     -1.3520782E-08
   9.840000     -1.3964928E-08
   9.900000     -1.3902376E-08
   9.960000     -1.3304091E-08
   10.02000     -1.2177466E-08
   10.08000     -1.0568121E-08
   10.14000     -8.5576817E-09
   10.20000     -6.2573462E-09
   10.26000     -3.7977137E-09
   10.32000     -1.3159511E-09
   10.38000      1.0580971E-09
   10.44000      3.2150047E-09
   10.50000      5.0762492E-09
   10.56000      6.6006387E-09
   10.62000      7.7858555E-09
   10.68000      8.6650571E-09
   10.74000      9.2992645E-09
   10.80000      9.7669020E-09
   10.86000      1.0152194E-08
   10.92000      1.0534198E-08
   10.98000      1.0977913E-08
   11.04000      1.1528392E-08
   11.10000      1.2208146E-08
   11.16000      1.3017499E-08
   11.22000      1.3937265E-08
   11.28000      1.4932853E-08
   11.34000      1.5959129E-08
   11.40000      1.6965553E-08
   11.46000      1.7901410E-08
   11.52000      1.8721089E-08
   11.58000      1.9389331E-08
   11.64000      1.9886063E-08
   11.70000      2.0210159E-08
   11.76000      2.0381242E-08
   11.82000      2.0438625E-08
   11.88000      2.0436946E-08
   11.94000      2.0438733E-08
   12.00000      2.0504968E-08
   12.06000      2.0685373E-08
   12.12000      2.1010457E-08
   12.18000      2.1487079E-08
   12.24000      2.2098542E-08
   12.30000      2.2809218E-08
   12.36000      2.3572641E-08
   12.42000      2.4341201E-08
   12.48000      2.5075270E-08
   12.54000      2.5749669E-08
   12.60000      2.6356094E-08
   12.66000      2.6901073E-08
   12.72000      2.7400135E-08
   12.78000      2.7869966E-08
   12.84000      2.8320860E-08
   12.90000      2.8751847E-08
   12.96000      2.9150042E-08
   13.02000      2.9494551E-08
   13.08000      2.9763715E-08
   13.14000      2.9943301E-08
   13.20000      3.0032833E-08
   13.26000      3.0047765E-08
   13.32000      3.0016462E-08
   13.38000      2.9972753E-08
   13.44000      2.9946126E-08
   13.50000      2.9952673E-08
   13.56000      2.9989607E-08
   13.62000      3.0035157E-08
   13.68000      3.0054125E-08
   13.74000      3.0007531E-08
   13.80000      2.9863408E-08
   13.86000      2.9605415E-08
   13.92000      2.9236322E-08
   13.98000      2.8775014E-08
   14.04000      2.8247628E-08
   14.10000      2.7675425E-08
   14.16000      2.7063219E-08
   14.22000      2.6392218E-08
   14.28000      2.5619839E-08
   14.34000      2.4687031E-08
   14.40000      2.3531340E-08
   14.46000      2.2102135E-08
   14.52000      2.0373928E-08
   14.58000      1.8354202E-08
   14.64000      1.6083792E-08
   14.70000      1.3629893E-08
   14.76000      1.1073737E-08
   14.82000      8.4962357E-09
   14.88000      5.9653438E-09
   14.94000      3.5281820E-09
   15.00000      1.2095385E-09
   15.06000     -9.8362019E-10
   15.12000     -3.0538070E-09
   15.18000     -5.0041726E-09
   15.24000     -6.8325181E-09
   15.30000     -8.5304190E-09
   15.36000     -1.0087763E-08
   15.42000     -1.1500971E-08
   15.48000     -1.2781702E-08
   15.54000     -1.3962486E-08
   15.60000     -1.5096614E-08
   15.66000     -1.6251308E-08
   15.72000     -1.7495283E-08
   15.78000     -1.8883489E-08
   15.84000     -2.0442823E-08
   15.90000     -2.2162588E-08
   15.96000     -2.3992589E-08
   16.02000     -2.5850037E-08
   16.08000     -2.7634361E-08
   16.14000     -2.9246879E-08
   16.20000     -3.0610693E-08
   16.26000     -3.1685694E-08
   16.32000     -3.2474414E-08
   16.38000     -3.3016850E-08
   16.44000     -3.3375397E-08
   16.50000     -3.3614132E-08
   16.56000     -3.3778498E-08
   16.62000     -3.3881360E-08
   16.68000     -3.3899472E-08
   16.74000     -3.3781152E-08
   16.80000     -3.3462378E-08
   16.86000     -3.2886184E-08
   16.92000     -3.2019415E-08
   16.98000     -3.0862143E-08
   17.04000     -2.9447500E-08
   17.10000     -2.7832671E-08
   17.16000     -2.6084360E-08
   17.22000     -2.4263354E-08
   17.28000     -2.2412863E-08
   17.34000     -2.0553955E-08
   17.40000     -1.8689251E-08
   17.46000     -1.6813447E-08
   17.52000     -1.4927110E-08
   17.58000     -1.3048854E-08
   17.64000     -1.1221252E-08
   17.70000     -9.5075627E-09
   17.76000     -7.9791596E-09
   17.82000     -6.6968893E-09
   17.88000     -5.6919784E-09
   17.94000     -4.9529154E-09
   18.00000     -4.4233657E-09
   18.06000     -4.0129482E-09
   18.12000     -3.6186565E-09
   18.18000     -3.1511294E-09
   18.24000     -2.5581297E-09
   18.30000     -1.8381142E-09
   18.36000     -1.0395738E-09
   18.42000     -2.4601923E-10
   18.48000      4.4915918E-10
   18.54000      9.7058173E-10
   18.60000      1.2831649E-09
   18.66000      1.4020100E-09
   18.72000      1.3868084E-09
   18.78000      1.3224672E-09
   18.84000      1.2920551E-09
   18.90000      1.3507293E-09
   18.96000      1.5091002E-09
   19.02000      1.7314812E-09
   19.08000      1.9495845E-09
   19.14000      2.0871094E-09
   19.20000      2.0870614E-09
   19.26000      1.9327928E-09
   19.32000      1.6559140E-09
   19.38000      1.3285795E-09
   19.44000      1.0427128E-09
   19.50000      8.8281549E-10
   19.56000      9.0090618E-10
   19.62000      1.1013871E-09
   19.68000      1.4405969E-09
   19.74000      1.8414434E-09
   19.80000      2.2190589E-09
   19.86000      2.5101092E-09
   19.92000      2.6971343E-09
   19.98000      2.8205043E-09
   20.04000      2.9740035E-09
   20.10000      3.2847740E-09
   20.16000      3.8829810E-09
   20.22000      4.8696140E-09
   20.28000      6.2912990E-09
   20.34000      8.1286702E-09
   20.40000      1.0300552E-08
   20.46000      1.2681421E-08
   20.52000      1.5125993E-08
   20.58000      1.7493488E-08
   20.64000      1.9665316E-08
   20.70000      2.1553005E-08
   20.76000      2.3096796E-08
   20.82000      2.4258242E-08
   20.88000      2.5011385E-08
   20.94000      2.5336639E-08
   21.00000      2.5219636E-08
   21.06000      2.4655014E-08
   21.12000      2.3653119E-08
   21.18000      2.2246585E-08
   21.24000      2.0493841E-08
   21.30000      1.8477676E-08
   21.36000      1.6298527E-08
   21.42000      1.4063726E-08
   21.48000      1.1874933E-08
   21.54000      9.8163673E-09
   21.60000      7.9460332E-09
   21.66000      6.2913319E-09
   21.72000      4.8494067E-09
   21.78000      3.5917180E-09
   21.84000      2.4717677E-09
   21.90000      1.4345735E-09
   21.96000      4.2646964E-10
   22.02000     -5.9621619E-10
   22.08000     -1.6610047E-09
   22.14000     -2.7769138E-09
   22.20000     -3.9368655E-09
   22.26000     -5.1250670E-09
   22.32000     -6.3284347E-09
   22.38000     -7.5497031E-09
   22.44000     -8.8186205E-09
   22.50000     -1.0197184E-08
   22.56000     -1.1775619E-08
   22.62000     -1.3658041E-08
   22.68000     -1.5939859E-08
   22.74000     -1.8682147E-08
   22.80000     -2.1890186E-08
   22.86000     -2.5503120E-08
   22.92000     -2.9399066E-08
   22.98000     -3.3415507E-08
   23.04000     -3.7380119E-08
   23.10000     -4.1143650E-08
   23.16000     -4.4605819E-08
   23.22000     -4.7727241E-08
   23.28000     -5.0524903E-08
   23.34000     -5.3053821E-08
   23.40000     -5.5381399E-08
   23.46000     -5.7562779E-08
   23.52000     -5.9624291E-08
   23.58000     -6.1558936E-08
   23.64000     -6.3333715E-08
   23.70000     -6.4904860E-08
   23.76000     -6.6235252E-08
   23.82000     -6.7308051E-08
   23.88000     -6.8132501E-08
   23.94000     -6.8740775E-08
   24.00000     -6.9177666E-08
   24.06000     -6.9487221E-08
   24.12000     -6.9701031E-08
   24.18000     -6.9832204E-08
   24.24000     -6.9876798E-08
   24.30000     -6.9821823E-08
   24.36000     -6.9656558E-08
   24.42000     -6.9382892E-08
   24.48000     -6.9020857E-08
   24.54000     -6.8607399E-08
   24.60000     -6.8188783E-08
   24.66000     -6.7809303E-08
   24.72000     -6.7499890E-08
   24.78000     -6.7270037E-08
   24.84000     -6.7104949E-08
   24.90000     -6.6968610E-08
   24.96000     -6.6811516E-08
   25.02000     -6.6581322E-08
   25.08000     -6.6234200E-08
   25.14000     -6.5744501E-08
   25.20000     -6.5110648E-08
   25.26000     -6.4355767E-08
   25.32000     -6.3522265E-08
   25.38000     -6.2661570E-08
   25.44000     -6.1821311E-08
   25.50000     -6.1033788E-08
   25.56000     -6.0309290E-08
   25.62000     -5.9636719E-08
   25.68000     -5.8991279E-08
   25.74000     -5.8346942E-08
   25.80000     -5.7689352E-08
   25.86000     -5.7025101E-08
   25.92000     -5.6384369E-08
   25.98000     -5.5816290E-08
   26.04000     -5.5378585E-08
   26.10000     -5.5124694E-08
   26.16000     -5.5091977E-08
   26.22000     -5.5294180E-08
   26.28000     -5.5719987E-08
   26.34000     -5.6337836E-08
   26.40000     -5.7105471E-08
   26.46000     -5.7981424E-08
   26.52000     -5.8935182E-08
   26.58000     -5.9953102E-08
   26.64000     -6.1038705E-08
   26.70000     -6.2207654E-08
   26.76000     -6.3479483E-08
   26.82000     -6.4869042E-08
   26.88000     -6.6380160E-08
   26.94000     -6.8003011E-08
   27.00000     -6.9714979E-08
   27.06000     -7.1483704E-08
   27.12000     -7.3270762E-08
   27.18000     -7.5034926E-08
   27.24000     -7.6734651E-08
   27.30000     -7.8330281E-08
   27.36000     -7.9786545E-08
   27.42000     -8.1075321E-08
   27.48000     -8.2178225E-08
   27.54000     -8.3087912E-08
   27.60000     -8.3807166E-08
   27.66000     -8.4345146E-08
   27.72000     -8.4711083E-08
   27.78000     -8.4906553E-08
   27.84000     -8.4918049E-08
   27.90000     -8.4711964E-08
   27.96000     -8.4233832E-08
   28.02000     -8.3413049E-08
   28.08000     -8.2173145E-08
   28.14000     -8.0446121E-08
   28.20000     -7.8187959E-08
   28.26000     -7.5391711E-08
   28.32000     -7.2094565E-08
   28.38000     -6.8376387E-08
   28.44000     -6.4349500E-08
   28.50000     -6.0141382E-08
   28.56000     -5.5874029E-08
   28.62000     -5.1644626E-08
   28.68000     -4.7511726E-08
   28.74000     -4.3489887E-08
   28.80000     -3.9553690E-08
   28.86000     -3.5649858E-08
   28.92000     -3.1714457E-08
   28.98000     -2.7691092E-08
   29.04000     -2.3546008E-08
   29.10000     -1.9276845E-08
   29.16000     -1.4913454E-08
   29.22000     -1.0511100E-08
   29.28000     -6.1382877E-09
   29.34000     -1.8626594E-09
   29.40000      2.2612723E-09
   29.46000      6.1994623E-09
   29.52000      9.9391917E-09
   29.58000      1.3483769E-08
   29.64000      1.6843117E-08
   29.70000      2.0023373E-08
   29.76000      2.3018760E-08
   29.82000      2.5808228E-08
   29.88000      2.8357881E-08
   29.94000      3.0628449E-08
   30.00000      3.2585621E-08
   30.06000      3.4210125E-08
   30.12000      3.5504563E-08
   30.18000      3.6494839E-08
   30.24000      3.7225686E-08
   30.30000      3.7751438E-08
   30.36000      3.8124647E-08
   30.42000      3.8385839E-08
   30.48000      3.8557197E-08
   30.54000      3.8641790E-08
   30.60000      3.8628151E-08
   30.66000      3.8498236E-08
   30.72000      3.8235861E-08
   30.78000      3.7832638E-08
   30.84000      3.7289571E-08
   30.90000      3.6614033E-08
   30.96000      3.5813677E-08
   31.02000      3.4889794E-08
   31.08000      3.3832819E-08
   31.14000      3.2621752E-08
   31.20000      3.1227962E-08
   31.26000      2.9622143E-08
   31.32000      2.7782452E-08
   31.38000      2.5701549E-08
   31.44000      2.3390717E-08
   31.50000      2.0880279E-08
   31.56000      1.8216459E-08
   31.62000      1.5455562E-08
   31.68000      1.2656842E-08
   31.74000      9.8753787E-09
   31.80000      7.1561241E-09
   31.86000      4.5299151E-09
   31.92000      2.0118605E-09
   31.98000     -3.9791090E-10
   32.04000     -2.7114524E-09
   32.10000     -4.9487126E-09
   32.16000     -7.1324058E-09
   32.22000     -9.2826911E-09
   32.28000     -1.1412315E-08
   32.34000     -1.3522876E-08
   32.40000     -1.5602984E-08
   32.46000     -1.7629041E-08
   32.52000     -1.9569223E-08
   32.58000     -2.1390528E-08
   32.64000     -2.3067946E-08
   32.70000     -2.4593643E-08
   32.76000     -2.5983432E-08
   32.82000     -2.7277782E-08
   32.88000     -2.8535769E-08
   32.94000     -2.9822285E-08
   33.00000     -3.1191203E-08
   33.06000     -3.2669011E-08
   33.12000     -3.4244142E-08
   33.18000     -3.5866002E-08
   33.24000     -3.7455223E-08
   33.30000     -3.8922966E-08
   33.36000     -4.0194053E-08
   33.42000     -4.1226880E-08
   33.48000     -4.2023675E-08
   33.54000     -4.2627477E-08
   33.60000     -4.3106347E-08
   33.66000     -4.3529809E-08
   33.72000     -4.3945061E-08
   33.78000     -4.4360913E-08
   33.84000     -4.4744805E-08
   33.90000     -4.5033882E-08
   33.96000     -4.5156373E-08
   34.02000     -4.5056002E-08
   34.08000     -4.4711310E-08
   34.14000     -4.4143679E-08
   34.20000     -4.3411791E-08
   34.26000     -4.2594809E-08
   34.32000     -4.1770321E-08
   34.38000     -4.0994212E-08
   34.44000     -4.0288842E-08
   34.50000     -3.9642526E-08
   34.56000     -3.9019600E-08
   34.62000     -3.8376989E-08
   34.68000     -3.7681428E-08
   34.74000     -3.6921840E-08
   34.80000     -3.6113345E-08
   34.86000     -3.5292285E-08
   34.92000     -3.4504577E-08
   34.98000     -3.3791480E-08
   35.04000     -3.3177308E-08
   35.10000     -3.2662925E-08
   35.16000     -3.2226552E-08
   35.22000     -3.1831579E-08
   35.28000     -3.1438820E-08
   35.34000     -3.1019621E-08
   35.40000     -3.0565996E-08
   35.46000     -3.0094842E-08
   35.52000     -2.9644923E-08
   35.58000     -2.9267261E-08
   35.64000     -2.9011574E-08
   35.70000     -2.8912511E-08
   35.76000     -2.8979645E-08
   35.82000     -2.9194233E-08
   35.88000     -2.9513876E-08
   35.94000     -2.9883832E-08
   36.00000     -3.0251943E-08
   36.06000     -3.0582843E-08
   36.12000     -3.0867543E-08
   36.18000     -3.1125662E-08
   36.24000     -3.1399729E-08
   36.30000     -3.1743163E-08
   36.36000     -3.2205314E-08
   36.42000     -3.2817617E-08
   36.48000     -3.3584598E-08
   36.54000     -3.4482085E-08
   36.60000     -3.5462843E-08
   36.66000     -3.6467839E-08
   36.72000     -3.7439637E-08
   36.78000     -3.8334097E-08
   36.84000     -3.9127151E-08
   36.90000     -3.9815284E-08
   36.96000     -4.0410391E-08
   37.02000     -4.0931351E-08
   37.08000     -4.1395356E-08
   37.14000     -4.1811635E-08
   37.20000     -4.2178847E-08
   37.26000     -4.2486089E-08
   37.32000     -4.2716486E-08
   37.38000     -4.2851994E-08
   37.44000     -4.2878277E-08
   37.50000     -4.2789033E-08
   37.56000     -4.2589189E-08
   37.62000     -4.2296428E-08
   37.68000     -4.1940297E-08
   37.74000     -4.1558291E-08
   37.80000     -4.1188891E-08
   37.86000     -4.0862751E-08
   37.92000     -4.0593982E-08
   37.98000     -4.0374534E-08
   38.04000     -4.0173834E-08
   38.10000     -3.9945007E-08
   38.16000     -3.9636770E-08
   38.22000     -3.9208214E-08
   38.28000     -3.8642344E-08
   38.34000     -3.7954010E-08
   38.40000     -3.7189114E-08
   38.46000     -3.6414477E-08
   38.52000     -3.5700602E-08
   38.58000     -3.5102186E-08
   38.64000     -3.4642373E-08
   38.70000     -3.4305806E-08
   38.76000     -3.4043151E-08
   38.82000     -3.3785795E-08
   38.88000     -3.3466272E-08
   38.94000     -3.3037988E-08
   39.00000     -3.2488085E-08
   39.06000     -3.1839715E-08
   39.12000     -3.1143482E-08
   39.18000     -3.0461170E-08
   39.24000     -2.9847122E-08
   39.30000     -2.9333004E-08
   39.36000     -2.8920365E-08
   39.42000     -2.8582795E-08
   39.48000     -2.8276599E-08
   39.54000     -2.7956311E-08
   39.60000     -2.7589870E-08
   39.66000     -2.7168456E-08
   39.72000     -2.6707561E-08
   39.78000     -2.6238906E-08
   39.84000     -2.5795984E-08
   39.90000     -2.5398530E-08
   39.96000     -2.5041899E-08
   40.02000     -2.4695675E-08
   40.08000     -2.4312573E-08
   40.14000     -2.3844775E-08
   40.20000     -2.3261908E-08
   40.26000     -2.2564173E-08
   40.32000     -2.1785683E-08
   40.38000     -2.0986608E-08
   40.44000     -2.0236559E-08
   40.50000     -1.9594587E-08
   40.56000     -1.9092308E-08
   40.62000     -1.8725521E-08
   40.68000     -1.8457140E-08
   40.74000     -1.8230597E-08
   40.80000     -1.7989782E-08
   40.86000     -1.7699373E-08
   40.92000     -1.7359120E-08
   40.98000     -1.7007242E-08
   41.04000     -1.6711295E-08
   41.10000     -1.6548936E-08
   41.16000     -1.6584377E-08
   41.22000     -1.6848180E-08
   41.28000     -1.7327269E-08
   41.34000     -1.7968830E-08
   41.40000     -1.8697213E-08
   41.46000     -1.9438371E-08
   41.52000     -2.0143684E-08
   41.58000     -2.0804992E-08
   41.64000     -2.1455570E-08
   41.70000     -2.2156595E-08
   41.76000     -2.2973584E-08
   41.82000     -2.3950898E-08
   41.88000     -2.5093192E-08
   41.94000     -2.6360381E-08
   42.00000     -2.7678253E-08
   42.06000     -2.8961377E-08
   42.12000     -3.0140729E-08
   42.18000     -3.1186605E-08
   42.24000     -3.2118983E-08
   42.30000     -3.3001459E-08
   42.36000     -3.3920646E-08
   42.42000     -3.4957626E-08
   42.48000     -3.6160902E-08
   42.54000     -3.7529460E-08
   42.60000     -3.9011493E-08
   42.66000     -4.0518866E-08
   42.72000     -4.1952646E-08
   42.78000     -4.3231591E-08
   42.84000     -4.4314842E-08
   42.90000     -4.5212278E-08
   42.96000     -4.5979828E-08
   43.02000     -4.6701803E-08
   43.08000     -4.7465985E-08
   43.14000     -4.8339174E-08
   43.20000     -4.9350330E-08
   43.26000     -5.0485806E-08
   43.32000     -5.1697437E-08
   43.38000     -5.2920225E-08
   43.44000     -5.4093835E-08
   43.50000     -5.5181470E-08
   43.56000     -5.6181054E-08
   43.62000     -5.7126428E-08
   43.68000     -5.8079607E-08
   43.74000     -5.9117475E-08
   43.80000     -6.0317433E-08
   43.86000     -6.1746064E-08
   43.92000     -6.3453271E-08
   43.98000     -6.5472683E-08
   44.04000     -6.7827422E-08
   44.10000     -7.0539855E-08
   44.16000     -7.3643541E-08
   44.22000     -7.7196141E-08
   44.28000     -8.1292022E-08
   44.34000     -8.6073342E-08
   44.40000     -9.1738166E-08
   44.46000     -9.8544199E-08
   44.52000     -1.0680698E-07
   44.58000     -1.1689274E-07
   44.64000     -1.2920748E-07
   44.70000     -1.4418552E-07
   44.76000     -1.6228195E-07
   44.82000     -1.8397266E-07
   44.88000     -2.0976502E-07
   44.94000     -2.4021864E-07
   45.00000     -2.7597414E-07
   45.06000     -3.1778472E-07
   45.12000     -3.6654595E-07
   45.18000     -4.2331959E-07
   45.24000     -4.8934936E-07
   45.30000     -5.6607053E-07
   45.36000     -6.5511432E-07
   45.42000     -7.5831292E-07
   45.48000     -8.7770525E-07
   45.54000     -1.0155483E-06
   45.60000     -1.1743332E-06
   45.66000     -1.3568074E-06
   45.72000     -1.5660041E-06
   45.78000     -1.8052763E-06
   45.84000     -2.0783366E-06
   45.90000     -2.3893017E-06
   45.96000     -2.7427350E-06
   46.02000     -3.1436846E-06
   46.08000     -3.5977164E-06
   46.14000     -4.1109365E-06
   46.20000     -4.6900041E-06
   46.26000     -5.3421440E-06
   46.32000     -6.0751518E-06
   46.38000     -6.8974132E-06
   46.44000     -7.8179237E-06
   46.50000     -8.8463157E-06
   46.56000     -9.9928911E-06
   46.62000     -1.1268646E-05
   46.68000     -1.2685286E-05
   46.74000     -1.4255232E-05
   46.80000     -1.5991602E-05
   46.86000     -1.7908189E-05
   46.92000     -2.0019417E-05
   46.98000     -2.2340302E-05
   47.04000     -2.4886402E-05
   47.10000     -2.7673759E-05
   47.16000     -3.0718860E-05
   47.22000     -3.4038556E-05
   47.28000     -3.7650007E-05
   47.34000     -4.1570580E-05
   47.40000     -4.5817738E-05
   47.46000     -5.0408933E-05
   47.52000     -5.5361455E-05
   47.58000     -6.0692313E-05
   47.64000     -6.6418070E-05
   47.70000     -7.2554729E-05
   47.76000     -7.9117541E-05
   47.82000     -8.6120875E-05
   47.88000     -9.3578070E-05
   47.94000     -1.0150117E-04
   48.00000     -1.0990079E-04
   48.06000     -1.1878590E-04
   48.12000     -1.2816364E-04
   48.18000     -1.3803913E-04
   48.24000     -1.4841532E-04
   48.30000     -1.5929276E-04
   48.36000     -1.7066953E-04
   48.42000     -1.8254113E-04
   48.48000     -1.9490031E-04
   48.54000     -2.0773707E-04
   48.60000     -2.2103853E-04
   48.66000     -2.3478885E-04
   48.72000     -2.4896927E-04
   48.78000     -2.6355794E-04
   48.84000     -2.7853015E-04
   48.90000     -2.9385817E-04
   48.96000     -3.0951150E-04
   49.02000     -3.2545687E-04
   49.08000     -3.4165857E-04
   49.14000     -3.5807854E-04
   49.20000     -3.7467672E-04
   49.26000     -3.9141122E-04
   49.32000     -4.0823859E-04
   49.38000     -4.2511424E-04
   49.44000     -4.4199260E-04
   49.50000     -4.5882748E-04
   49.56000     -4.7557260E-04
   49.62000     -4.9218192E-04
   49.68000     -5.0860993E-04
   49.74000     -5.2481255E-04
   49.80000     -5.4074673E-04
   49.86000     -5.5637152E-04
   49.92000     -5.7164795E-04
   49.98000     -5.8654009E-04
   50.04000     -6.0101465E-04
   50.10000     -6.1504217E-04
   50.16000     -6.2859670E-04
   50.22000     -6.4165611E-04
   50.28000     -6.5420248E-04
   50.34000     -6.6622213E-04
   50.40000     -6.7770580E-04
   50.46000     -6.8864884E-04
   50.52000     -6.9905113E-04
   50.58000     -7.0891733E-04
   50.64000     -7.1825652E-04
   50.70000     -7.2708225E-04
   50.76000     -7.3541235E-04
   50.82000     -7.4326852E-04
   50.88000     -7.5067626E-04
   50.94000     -7.5766438E-04
   51.00000     -7.6426461E-04
   51.06000     -7.7051111E-04
   51.12000     -7.7644014E-04
   51.18000     -7.8208977E-04
   51.24000     -7.8749884E-04
   51.30000     -7.9270708E-04
   51.36000     -7.9775398E-04
   51.42000     -8.0267846E-04
   51.48000     -8.0751849E-04
   51.54000     -8.1231038E-04
   51.60000     -8.1708870E-04
   51.66000     -8.2188530E-04
   51.72000     -8.2672923E-04
   51.78000     -8.3164586E-04
   51.84000     -8.3665684E-04
   51.90000     -8.4177969E-04
   51.96000     -8.4702764E-04
   52.02000     -8.5240946E-04
   52.08000     -8.5792941E-04
   52.14000     -8.6358702E-04
   52.20000     -8.6937717E-04
   52.26000     -8.7528978E-04
   52.32000     -8.8131055E-04
   52.38000     -8.8742079E-04
   52.44000     -8.9359801E-04
   52.50000     -8.9981611E-04
   52.56000     -9.0604567E-04
   52.62000     -9.1225444E-04
   52.68000     -9.1840763E-04
   52.74000     -9.2446822E-04
   52.80000     -9.3039760E-04
   52.86000     -9.3615637E-04
   52.92000     -9.4170467E-04
   52.98000     -9.4700302E-04
   53.04000     -9.5201266E-04
   53.10000     -9.5669628E-04
   53.16000     -9.6101844E-04
   53.22000     -9.6494582E-04
   53.28000     -9.6844812E-04
   53.34000     -9.7149797E-04
   53.40000     -9.7407174E-04
   53.46000     -9.7614963E-04
   53.52000     -9.7771594E-04
   53.58000     -9.7875961E-04
   53.64000     -9.7927381E-04
   53.70000     -9.7925612E-04
   53.76000     -9.7870885E-04
   53.82000     -9.7763888E-04
   53.88000     -9.7605708E-04
   53.94000     -9.7397901E-04
   54.00000     -9.7142393E-04
   54.06000     -9.6841482E-04
   54.12000     -9.6497807E-04
   54.18000     -9.6114288E-04
   54.24000     -9.5694110E-04
   54.30000     -9.5240684E-04
   54.36000     -9.4757578E-04
   54.42000     -9.4248500E-04
   54.48000     -9.3717192E-04
   54.54000     -9.3167427E-04
   54.60000     -9.2602900E-04
   54.66000     -9.2027214E-04
   54.72000     -9.1443845E-04
   54.78000     -9.0856099E-04
   54.84000     -9.0267096E-04
   54.90000     -8.9679688E-04
   54.96000     -8.9096470E-04
   55.02000     -8.8519714E-04
   55.08000     -8.7951327E-04
   55.14000     -8.7392918E-04
   55.20000     -8.6845690E-04
   55.26000     -8.6310529E-04
   55.32000     -8.5787947E-04
   55.38000     -8.5278106E-04
   55.44000     -8.4780820E-04
   55.50000     -8.4295555E-04
   55.56000     -8.3821442E-04