  -2.400000      0.0000000E+00
  -2.340000      0.0000000E+00
  -2.280000      0.0000000E+00
  -2.220000      0.0000000E+00
  -2.160000      0.0000000E+00
  -2.100000      0.0000000E+00
  -2.040000      0.0000000E+00
  -1.980000      0.0000000E+00
  -1.920000      2.2780052E-27
  -1.860000     -1.3863984E-26
  -1.800000     -3.4300924E-25
  -1.740000     -2.3989132E-24
  -1.680000     -9.7508201E-24
  -1.620000     -2.5999390E-23
  -1.560000     -4.2706699E-23
  -1.500000     -1.4945997E-23
  -1.440000      1.5502475E-22
  -1.380000      5.6883561E-22
  -1.320000      1.1524320E-21
  -1.260000      1.3705097E-21
  -1.200000      7.5328063E-23
  -1.140000     -4.0499696E-21
  -1.080000     -1.1073685E-20
  -1.020000     -1.7737685E-20
 -0.9600000     -1.6274989E-20
 -0.9000000      3.3382128E-21
 -0.8400000      4.5860289E-20
 -0.7800000      9.9666055E-20
 -0.7200000      1.2933123E-19
 -0.6600000      8.3382462E-20
 -0.6000000     -7.4247254E-20
 -0.5400000     -3.1467359E-19
 -0.4800000     -5.0481633E-19
 -0.4200000     -4.2524329E-19
 -0.3600000      1.1488609E-19
 -0.3000000      1.0746369E-18
 -0.2400000      1.9846755E-18
 -0.1800000      1.9338124E-18
 -0.1200000     -7.9686257E-20
 -5.9999999E-02 -4.3915060E-18
  0.0000000E+00 -9.7624195E-18
  5.9999999E-02 -1.2904688E-17
  0.1200000     -9.1761743E-18
  0.1800000      5.1283486E-18
  0.2400000      2.9315946E-17
  0.3000000      5.5266696E-17
  0.3600000      6.7297502E-17
  0.4200000      4.7083531E-17
  0.4800000     -1.6205295E-17
  0.5400000     -1.1382582E-16
  0.6000000     -2.1011478E-16
  0.6600000     -2.4761184E-16
  0.7200000     -1.6903200E-16
  0.7800000      4.7680606E-17
  0.8400000      3.5538691E-16
  0.9000000      6.2637515E-16
  0.9600000      6.8311074E-16
   1.020000      3.7572404E-16
   1.080000     -3.1471941E-16
   1.140000     -1.1944058E-15
   1.200000     -1.8554394E-15
   1.260000     -1.7971589E-15
   1.320000     -6.6252625E-16
   1.380000      1.4877906E-15
   1.440000      4.0003138E-15
   1.500000      5.6988982E-15
   1.560000      5.2771741E-15
   1.620000      1.9448116E-15
   1.680000     -3.9149532E-15
   1.740000     -1.0435231E-14
   1.800000     -1.4626743E-14
   1.860000     -1.3500669E-14
   1.920000     -5.6563437E-15
   1.980000      7.3485072E-15
   2.040000      2.0690274E-14
   2.100000      2.7633327E-14
   2.160000      2.2458606E-14
   2.220000      3.9681990E-15
   2.280000     -2.2144811E-14
   2.340000     -4.3803631E-14
   2.400000     -4.6748761E-14
   2.460000     -2.1526470E-14
   2.520000      2.9493762E-14
   2.580000      8.8837080E-14
   2.640000      1.2745589E-13
   2.700000      1.1558651E-13
   2.760000      3.7753234E-14
   2.820000     -9.4438976E-14
   2.880000     -2.3892021E-13
   2.940000     -3.3373483E-13
   3.000000     -3.2040199E-13
   3.060000     -1.7215377E-13
   3.120000      8.5367003E-14
   3.180000      3.7281105E-13
   3.240000      5.8049480E-13
   3.300000      6.1094917E-13
   3.360000      4.2466272E-13
   3.420000      6.8079900E-14
   3.480000     -3.3286706E-13
   3.540000     -6.1721103E-13
   3.600000     -6.5737948E-13
   3.660000     -4.2346083E-13
   3.720000     -1.1942867E-14
   3.780000      3.8117686E-13
   3.840000      5.4004544E-13
   3.900000      3.3278136E-13
   3.960000     -2.0582844E-13
   4.020000     -8.5626580E-13
   4.080000     -1.2817737E-12
   4.140000     -1.1660540E-12
   4.200000     -3.7049183E-13
   4.260000      9.5773129E-13
   4.320000      2.3849249E-12
   4.380000      3.3175806E-12
   4.440000      3.2233190E-12
   4.500000      1.8665017E-12
   4.560000     -5.3934792E-13
   4.620000     -3.3384409E-12
   4.680000     -5.6176938E-12
   4.740000     -6.5161275E-12
   4.800000     -5.5471062E-12
   4.860000     -2.8051686E-12
   4.920000      1.0346263E-12
   4.980000      4.9378956E-12
   5.040000      7.8739220E-12
   5.100000      9.1758615E-12
   5.160000      8.7452302E-12
   5.220000      7.0064874E-12
   5.280000      4.6240763E-12
   5.340000      2.1060757E-12
   5.400000     -5.1420326E-13
   5.460000     -3.7405357E-12
   5.520000     -8.3396614E-12
   5.580000     -1.4799828E-11
   5.640000     -2.2732519E-11
   5.700000     -3.0498003E-11
   5.760000     -3.5293466E-11
   5.820000     -3.3792195E-11
   5.880000     -2.3211958E-11
   5.940000     -2.4996021E-12
   6.000000      2.6774407E-11
   6.060000      6.0166941E-11
   6.120000      9.0927307E-11
   6.180000      1.1128418E-10
   6.240000      1.1412221E-10
   6.300000      9.4589683E-11
   6.360000      5.1215535E-11
   6.420000     -1.3695620E-11
   6.480000     -9.4353719E-11
   6.540000     -1.8218275E-10
   6.600000     -2.6654493E-10
   6.660000     -3.3517589E-10
   6.720000     -3.7424475E-10
   6.780000     -3.6823597E-10
   6.840000     -3.0006916E-10
   6.900000     -1.5190647E-10
   6.960000      9.3089980E-11
   7.020000      4.4814838E-10
   7.080000      9.1992136E-10
   7.140000      1.5059409E-09
   7.200000      2.1932951E-09
   7.260000      2.9590619E-09
   7.320000      3.7725560E-09
   7.380000      4.5989088E-09
   7.440000      5.4031108E-09
   7.500000      6.1535448E-09
   7.560000      6.8242794E-09
   7.620000      7.3958542E-09
   7.680000      7.8548403E-09
   7.740000      8.1928340E-09
   7.800000      8.4056255E-09
   7.860000      8.4930489E-09
   7.920000      8.4594980E-09
   7.980000      8.3146361E-09
   8.040000      8.0735099E-09
   8.100000      7.7553626E-09
   8.160000      7.3808679E-09
   8.220000      6.9681789E-09
   8.280000      6.5287900E-09
   8.340000      6.0645378E-09
   8.400000      5.5669243E-09
   8.460000      5.0193312E-09
   8.520000      4.4018607E-09
   8.580000      3.6976728E-09
   8.640000      2.8992075E-09
   8.700000      2.0126829E-09
   8.760000      1.0598056E-09
   8.820000      7.6473779E-11
   8.880000     -8.9086627E-10
   8.940000     -1.7899925E-09
   9.000000     -2.5675253E-09
   9.060000     -3.1725578E-09
   9.120000     -3.5592025E-09
   9.180000     -3.6886783E-09
   9.240000     -3.5318903E-09
   9.300000     -3.0732503E-09
   9.360000     -2.3157278E-09
   9.420000     -1.2861565E-09
   9.480000     -3.9016897E-11
   9.540000      1.3432828E-09
   9.600000      2.7550202E-09
   9.660000      4.0767913E-09
   9.720000      5.1887459E-09
   9.780000      5.9847509E-09
   9.840000      6.3843530E-09
   9.900000      6.3399814E-09
   9.960000      5.8382512E-09
   10.02000      4.8960409E-09
   10.08000      3.5534582E-09
   10.14000      1.8664557E-09
   10.20000     -9.8660344E-11
   10.26000     -2.2679010E-09
   10.32000     -4.5601762E-09
   10.38000     -6.8877295E-09
   10.44000     -9.1586356E-09
   10.50000     -1.1282757E-08
   10.56000     -1.3180907E-08
   10.62000     -1.4795243E-08
   10.68000     -1.6097783E-08
   10.74000     -1.7093939E-08
   10.80000     -1.7819291E-08
   10.86000     -1.8329839E-08
   10.92000     -1.8688187E-08
   10.98000     -1.8949560E-08
   11.04000     -1.9151566E-08
   11.10000     -1.9310415E-08
   11.16000     -1.9424004E-08
   11.22000     -1.9479991E-08
   11.28000     -1.9465398E-08
   11.34000     -1.9374044E-08
   11.40000     -1.9209230E-08
   11.46000     -1.8981183E-08
   11.52000     -1.8700780E-08
   11.58000     -1.8372534E-08
   11.64000     -1.7989860E-08
   11.70000     -1.7534685E-08
   11.76000     -1.6981591E-08
   11.82000     -1.6305043E-08
   11.88000     -1.5487073E-08
   11.94000     -1.4522900E-08
   12.00000     -1.3422726E-08
   12.06000     -1.2209576E-08
   12.12000     -1.0914374E-08
   12.18000     -9.5703836E-09
   12.24000     -8.2091098E-09
   12.30000     -6.8590476E-09
   12.36000     -5.5472538E-09
   12.42000     -4.3024784E-09
   12.48000     -3.1576857E-09
   12.54000     -2.1498743E-09
   12.60000     -1.3160523E-09
   12.66000     -6.8582501E-10
   12.72000     -2.7270711E-10
   12.78000     -6.7255930E-11
   12.84000     -3.4977830E-11
   12.90000     -1.2057678E-10
   12.96000     -2.5796010E-10
   13.02000     -3.8330170E-10
   13.08000     -4.4723969E-10
   13.14000     -4.2249426E-10
   13.20000     -3.0477698E-10
   13.26000     -1.0721493E-10
   13.32000      1.4928751E-10
   13.38000      4.4611700E-10
   13.44000      7.7401868E-10
   13.50000      1.1351897E-09
   13.56000      1.5404943E-09
   13.62000      2.0037743E-09
   13.68000      2.5361753E-09
   13.74000      3.1431246E-09
   13.80000      3.8252064E-09
   13.86000      4.5822817E-09
   13.92000      5.4185239E-09
   13.98000      6.3453389E-09
   14.04000      7.3796969E-09
   14.10000      8.5371967E-09
   14.16000      9.8214352E-09
   14.22000      1.1213196E-08
   14.28000      1.2663665E-08
   14.34000      1.4095009E-08
   14.40000      1.5409391E-08
   14.46000      1.6504652E-08
   14.52000      1.7292578E-08
   14.58000      1.7714674E-08
   14.64000      1.7751095E-08
   14.70000      1.7420538E-08
   14.76000      1.6771647E-08
   14.82000      1.5868935E-08
   14.88000      1.4777529E-08
   14.94000      1.3551061E-08
   15.00000      1.2225521E-08
   15.06000      1.0819910E-08
   15.12000      9.3422399E-09
   15.18000      7.7979552E-09
   15.24000      6.1974039E-09
   15.30000      4.5597615E-09
   15.36000      2.9124747E-09
   15.42000      1.2872238E-09
   15.48000     -2.8523151E-10
   15.54000     -1.7786584E-09
   15.60000     -3.1716541E-09
   15.66000     -4.4445989E-09
   15.72000     -5.5748983E-09
   15.78000     -6.5330599E-09
   15.84000     -7.2818236E-09
   15.90000     -7.7792039E-09
   15.96000     -7.9845384E-09
   16.02000     -7.8653013E-09
   16.08000     -7.4021655E-09
   16.14000     -6.5906036E-09
   16.20000     -5.4388338E-09
   16.26000     -3.9634087E-09
   16.32000     -2.1845665E-09
   16.38000     -1.2333803E-10
   16.44000      2.1985553E-09
   16.50000      4.7562967E-09
   16.56000      7.5185165E-09
   16.62000      1.0444782E-08
   16.68000      1.3485748E-08
   16.74000      1.6586766E-08
   16.80000      1.9694339E-08
   16.86000      2.2763620E-08
   16.92000      2.5764415E-08
   16.98000      2.8683312E-08
   17.04000      3.1520734E-08
   17.10000      3.4283303E-08
   17.16000      3.6973656E-08
   17.22000      3.9581113E-08
   17.28000      4.2076330E-08
   17.34000      4.4412232E-08
   17.40000      4.6531380E-08
   17.46000      4.8377878E-08
   17.52000      4.9910536E-08
   17.58000      5.1113449E-08
   17.64000      5.2000942E-08
   17.70000      5.2615455E-08
   17.76000      5.3018763E-08
   17.82000      5.3278843E-08
   17.88000      5.3455668E-08
   17.94000      5.3589382E-08
   18.00000      5.3693686E-08
   18.06000      5.3755780E-08
   18.12000      5.3742561E-08
   18.18000      5.3611036E-08
   18.24000      5.3320125E-08
   18.30000      5.2840658E-08
   18.36000      5.2161262E-08
   18.42000      5.1289202E-08
   18.48000      5.0246651E-08
   18.54000      4.9064170E-08
   18.60000      4.7773590E-08
   18.66000      4.6402167E-08
   18.72000      4.4969198E-08
   18.78000      4.3485187E-08
   18.84000      4.1952955E-08
   18.90000      4.0369720E-08
   18.96000      3.8729119E-08
   19.02000      3.7022723E-08
   19.08000      3.5240856E-08
   19.14000      3.3373155E-08
   19.20000      3.1409382E-08
   19.26000      2.9341065E-08
   19.32000      2.7164237E-08
   19.38000      2.4883128E-08
   19.44000      2.2514014E-08
   19.50000      2.0087988E-08
   19.56000      1.7651253E-08
   19.62000      1.5261799E-08
   19.68000      1.2982354E-08
   19.74000      1.0870609E-08
   19.80000      8.9691090E-09
   19.86000      7.2977793E-09
   19.92000      5.8517649E-09
   19.98000      4.6058144E-09
   20.04000      3.5242866E-09
   20.10000      2.5737739E-09
   20.16000      1.7341043E-09
   20.22000      1.0037954E-09
   20.28000      3.9785261E-10
   20.34000     -6.1452843E-11
   20.40000     -3.5756950E-10
   20.46000     -4.9168947E-10
   20.52000     -4.8936166E-10
   20.58000     -3.9919101E-10
   20.64000     -2.8394859E-10
   20.70000     -2.0705357E-10
   20.76000     -2.1884441E-10
   20.82000     -3.4685205E-10
   20.88000     -5.9263267E-10
   20.94000     -9.3533203E-10
   21.00000     -1.3399906E-09
   21.06000     -1.7674046E-09
   21.12000     -2.1824345E-09
   21.18000     -2.5587634E-09
   21.24000     -2.8796798E-09
   21.30000     -3.1358367E-09
   21.36000     -3.3216760E-09
   21.42000     -3.4322305E-09
   21.48000     -3.4614758E-09
   21.54000     -3.4026895E-09
   21.60000     -3.2506240E-09
   21.66000     -3.0048573E-09
   21.72000     -2.6734293E-09
   21.78000     -2.2757316E-09
   21.84000     -1.8436107E-09
   21.90000     -1.4198588E-09
   21.96000     -1.0537846E-09
   22.02000     -7.9440371E-10
   22.08000     -6.8272504E-10
   22.14000     -7.4530665E-10
   22.20000     -9.9129571E-10
   22.26000     -1.4143552E-09
   22.32000     -1.9993380E-09
   22.38000     -2.7317641E-09
   22.44000     -3.6067875E-09
   22.50000     -4.6340460E-09
   22.56000     -5.8359055E-09
   22.62000     -7.2388793E-09
   22.68000     -8.8607370E-09
   22.74000     -1.0697915E-08
   22.80000     -1.2718381E-08
   22.86000     -1.4863600E-08
   22.92000     -1.7060071E-08
   22.98000     -1.9237206E-08
   23.04000     -2.1345528E-08
   23.10000     -2.3368594E-08
   23.16000     -2.5324121E-08
   23.22000     -2.7253874E-08
   23.28000     -2.9206189E-08
   23.34000     -3.1217951E-08
   23.40000     -3.3302904E-08
   23.46000     -3.5450380E-08
   23.52000     -3.7634067E-08
   23.58000     -3.9826141E-08
   23.64000     -4.2010004E-08
   23.70000     -4.4185704E-08
   23.76000     -4.6365631E-08
   23.82000     -4.8562551E-08
   23.88000     -5.0775597E-08
   23.94000     -5.2980816E-08
   24.00000     -5.5131096E-08
   24.06000     -5.7166190E-08
   24.12000     -5.9029400E-08
   24.18000     -6.0684442E-08
   24.24000     -6.2125928E-08
   24.30000     -6.3379204E-08
   24.36000     -6.4489626E-08
   24.42000     -6.5505411E-08
   24.48000     -6.6460743E-08
   24.54000     -6.7365484E-08
   24.60000     -6.8205374E-08
   24.66000     -6.8951820E-08
   24.72000     -6.9577077E-08
   24.78000     -7.0068168E-08
   24.84000     -7.0433835E-08
   24.90000     -7.0701788E-08
   24.96000     -7.0907831E-08
   25.02000     -7.1081701E-08
   25.08000     -7.1235867E-08
   25.14000     -7.1362003E-08
   25.20000     -7.1436538E-08
   25.26000     -7.1432801E-08
   25.32000     -7.1334320E-08
   25.38000     -7.1143681E-08
   25.44000     -7.0882926E-08
   25.50000     -7.0585209E-08
   25.56000     -7.0281025E-08
   25.62000     -6.9984338E-08
   25.68000     -6.9684333E-08
   25.74000     -6.9345987E-08
   25.80000     -6.8919547E-08
   25.86000     -6.8355440E-08
   25.92000     -6.7619084E-08
   25.98000     -6.6700537E-08
   26.04000     -6.5615495E-08
   26.10000     -6.4398009E-08
   26.16000     -6.3088152E-08
   26.22000     -6.1719881E-08
   26.28000     -6.0313781E-08
   26.34000     -5.8877134E-08
   26.40000     -5.7410563E-08
   26.46000     -5.5917290E-08
   26.52000     -5.4410236E-08
   26.58000     -5.2912917E-08
   26.64000     -5.1453377E-08
   26.70000     -5.0053622E-08
   26.76000     -4.8719578E-08
   26.82000     -4.7436632E-08
   26.88000     -4.6173607E-08
   26.94000     -4.4894151E-08
   27.00000     -4.3571113E-08
   27.06000     -4.2197836E-08
   27.12000     -4.0791519E-08
   27.18000     -3.9387277E-08
   27.24000     -3.8025490E-08
   27.30000     -3.6738108E-08
   27.36000     -3.5539600E-08
   27.42000     -3.4425991E-08
   27.48000     -3.3381447E-08
   27.54000     -3.2388407E-08
   27.60000     -3.1435928E-08
   27.66000     -3.0522042E-08
   27.72000     -2.9649257E-08
   27.78000     -2.8815696E-08
   27.84000     -2.8006632E-08
   27.90000     -2.7190936E-08
   27.96000     -2.6324711E-08
   28.02000     -2.5360965E-08
   28.08000     -2.4261499E-08
   28.14000     -2.3006015E-08
   28.20000     -2.1594554E-08
   28.26000     -2.0042133E-08
   28.32000     -1.8367663E-08
   28.38000     -1.6581724E-08
   28.44000     -1.4678526E-08
   28.50000     -1.2635827E-08
   28.56000     -1.0423609E-08
   28.62000     -8.0186924E-09
   28.68000     -5.4197455E-09
   28.74000     -2.6566551E-09
   28.80000      2.0998316E-10
   28.86000      3.0997378E-09
   28.92000      5.9300476E-09
   28.98000      8.6345091E-09
   29.04000      1.1175358E-08
   29.10000      1.3546165E-08
   29.16000      1.5764739E-08
   29.22000      1.7859954E-08
   29.28000      1.9858025E-08
   29.34000      2.1773310E-08
   29.40000      2.3606011E-08
   29.46000      2.5346113E-08
   29.52000      2.6980493E-08
   29.58000      2.8499592E-08
   29.64000      2.9900971E-08
   29.70000      3.1188971E-08
   29.76000      3.2371400E-08
   29.82000      3.3455009E-08
   29.88000      3.4441406E-08
   29.94000      3.5324589E-08
   30.00000      3.6090569E-08
   30.06000      3.6719065E-08
   30.12000      3.7187057E-08
   30.18000      3.7473651E-08
   30.24000      3.7565169E-08
   30.30000      3.7459106E-08
   30.36000      3.7165428E-08
   30.42000      3.6704346E-08
   30.48000      3.6100751E-08
   30.54000      3.5377035E-08
   30.60000      3.4546716E-08
   30.66000      3.3611467E-08
   30.72000      3.2562934E-08
   30.78000      3.1389131E-08
   30.84000      3.0083235E-08
   30.90000      2.8651746E-08
   30.96000      2.7118991E-08
   31.02000      2.5526104E-08
   31.08000      2.3924448E-08
   31.14000      2.2365132E-08
   31.20000      2.0887537E-08
   31.26000      1.9510029E-08
   31.32000      1.8225517E-08
   31.38000      1.7003291E-08
   31.44000      1.5796942E-08
   31.50000      1.4556476E-08
   31.56000      1.3241365E-08
   31.62000      1.1830711E-08
   31.68000      1.0327120E-08
   31.74000      8.7527008E-09
   31.80000      7.1381328E-09
   31.86000      5.5084235E-09
   31.92000      3.8705923E-09
   31.98000      2.2082147E-09
   32.04000      4.8544974E-10
   32.10000     -1.3405042E-09
   32.16000     -3.3030831E-09
   32.22000     -5.4125842E-09
   32.28000     -7.6505939E-09
   32.34000     -9.9751132E-09
   32.40000     -1.2334540E-08
   32.46000     -1.4685041E-08
   32.52000     -1.7004421E-08
   32.58000     -1.9296984E-08
   32.64000     -2.1587528E-08
   32.70000     -2.3906875E-08
   32.76000     -2.6274675E-08
   32.82000     -2.8686152E-08
   32.88000     -3.1107824E-08
   32.94000     -3.3483776E-08
   33.00000     -3.5749995E-08
   33.06000     -3.7851478E-08
   33.12000     -3.9755808E-08
   33.18000     -4.1458584E-08
   33.24000     -4.2979241E-08
   33.30000     -4.4349569E-08
   33.36000     -4.5599812E-08
   33.42000     -4.6747992E-08
   33.48000     -4.7796387E-08
   33.54000     -4.8735892E-08
   33.60000     -4.9555680E-08
   33.66000     -5.0253345E-08
   33.72000     -5.0840832E-08
   33.78000     -5.1343527E-08
   33.84000     -5.1792991E-08
   33.90000     -5.2216677E-08
   33.96000     -5.2629076E-08
   34.02000     -5.3027986E-08
   34.08000     -5.3397045E-08
   34.14000     -5.3713094E-08
   34.20000     -5.3955052E-08
   34.26000     -5.4110714E-08
   34.32000     -5.4179480E-08
   34.38000     -5.4170709E-08
   34.44000     -5.4099470E-08
   34.50000     -5.3981800E-08
   34.56000     -5.3831176E-08
   34.62000     -5.3656592E-08
   34.68000     -5.3461658E-08
   34.74000     -5.3243834E-08
   34.80000     -5.2993467E-08
   34.86000     -5.2693334E-08
   34.92000     -5.2319876E-08
   34.98000     -5.1847124E-08
   35.04000     -5.1253004E-08
   35.10000     -5.0526388E-08
   35.16000     -4.9672245E-08
   35.22000     -4.8712636E-08
   35.28000     -4.7682803E-08
   35.34000     -4.6623615E-08
   35.40000     -4.5573163E-08
   35.46000     -4.4560593E-08
   35.52000     -4.3604192E-08
   35.58000     -4.2713449E-08
   35.64000     -4.1893234E-08
   35.70000     -4.1147157E-08
   35.76000     -4.0478135E-08
   35.82000     -3.9885812E-08
   35.88000     -3.9362476E-08
   35.94000     -3.8890256E-08
   36.00000     -3.8441936E-08
   36.06000     -3.7986300E-08
   36.12000     -3.7496605E-08
   36.18000     -3.6959246E-08
   36.24000     -3.6379195E-08
   36.30000     -3.5779745E-08
   36.36000     -3.5196219E-08
   36.42000     -3.4665572E-08
   36.48000     -3.4215340E-08
   36.54000     -3.3855670E-08
   36.60000     -3.3577169E-08
   36.66000     -3.3355033E-08
   36.72000     -3.3157988E-08
   36.78000     -3.2958720E-08
   36.84000     -3.2742324E-08
   36.90000     -3.2510037E-08
   36.96000     -3.2277356E-08
   37.02000     -3.2067543E-08
   37.08000     -3.1903042E-08
   37.14000     -3.1797700E-08
   37.20000     -3.1752229E-08
   37.26000     -3.1753874E-08
   37.32000     -3.1779894E-08
   37.38000     -3.1803140E-08
   37.44000     -3.1797764E-08
   37.50000     -3.1743397E-08
   37.56000     -3.1627149E-08
   37.62000     -3.1443765E-08
   37.68000     -3.1194926E-08
   37.74000     -3.0888636E-08
   37.80000     -3.0539042E-08
   37.86000     -3.0166319E-08
   37.92000     -2.9795430E-08
   37.98000     -2.9453053E-08
   38.04000     -2.9162335E-08
   38.10000     -2.8936640E-08
   38.16000     -2.8774208E-08
   38.22000     -2.8656006E-08
   38.28000     -2.8548216E-08
   38.34000     -2.8409294E-08
   38.40000     -2.8199681E-08
   38.46000     -2.7891112E-08
   38.52000     -2.7472392E-08
   38.58000     -2.6949643E-08
   38.64000     -2.6341183E-08
   38.70000     -2.5669104E-08
   38.76000     -2.4950774E-08
   38.82000     -2.4193380E-08
   38.88000     -2.3393094E-08
   38.94000     -2.2538538E-08
   39.00000     -2.1616584E-08
   39.06000     -2.0617888E-08
   39.12000     -1.9540224E-08
   39.18000     -1.8388986E-08
   39.24000     -1.7175669E-08
   39.30000     -1.5915729E-08
   39.36000     -1.4627077E-08
   39.42000     -1.3329353E-08
   39.48000     -1.2043300E-08
   39.54000     -1.0789059E-08
   39.60000     -9.5827364E-09
   39.66000     -8.4316847E-09
   39.72000     -7.3301458E-09
   39.78000     -6.2574905E-09
   39.84000     -5.1808917E-09
   39.90000     -4.0628936E-09
   39.96000     -2.8723726E-09
   40.02000     -1.5956255E-09
   40.08000     -2.4352440E-10
   40.14000      1.1486658E-09
   40.20000      2.5299831E-09
   40.26000      3.8489985E-09
   40.32000      5.0706235E-09
   40.38000      6.1880896E-09
   40.44000      7.2246982E-09
   40.50000      8.2234353E-09
   40.56000      9.2274393E-09
   40.62000      1.0258576E-08
   40.68000      1.1303078E-08
   40.74000      1.2311137E-08
   40.80000      1.3212116E-08
   40.86000      1.3940503E-08
   40.92000      1.4462813E-08
   40.98000      1.4794499E-08
   41.04000      1.4999305E-08
   41.10000      1.5170279E-08
   41.16000      1.5398921E-08
   41.22000      1.5743954E-08
   41.28000      1.6211608E-08
   41.34000      1.6754994E-08
   41.40000      1.7292866E-08
   41.46000      1.7740511E-08
   41.52000      1.8040827E-08
   41.58000      1.8183522E-08
   41.64000      1.8205078E-08
   41.70000      1.8169615E-08
   41.76000      1.8138309E-08
   41.82000      1.8139657E-08
   41.88000      1.8152535E-08
   41.94000      1.8108940E-08
   42.00000      1.7915513E-08
   42.06000      1.7485331E-08
   42.12000      1.6767459E-08
   42.18000      1.5762746E-08
   42.24000      1.4520166E-08
   42.30000      1.3116039E-08
   42.36000      1.1625432E-08
   42.42000      1.0097891E-08
   42.48000      8.5473095E-09
   42.54000      6.9592887E-09
   42.60000      5.3115619E-09
   42.66000      3.5975127E-09
   42.72000      1.8417269E-09
   42.78000      1.0040559E-10
   42.84000     -1.5535229E-09
   42.90000     -3.0537308E-09
   42.96000     -4.3614619E-09
   43.02000     -5.4742531E-09
   43.08000     -6.4178720E-09
   43.14000     -7.2243749E-09
   43.20000     -7.9054896E-09
   43.26000     -8.4328207E-09
   43.32000     -8.7336351E-09
   43.38000     -8.7042791E-09
   43.44000     -8.2355456E-09
   43.50000     -7.2388633E-09
   43.56000     -5.6615344E-09
   43.62000     -3.4836320E-09
   43.68000     -6.9680756E-10
   43.74000      2.7272693E-09
   43.80000      6.8670087E-09
   43.86000      1.1868767E-08
   43.92000      1.7947311E-08
   43.98000      2.5371431E-08
   44.04000      3.4443470E-08
   44.10000      4.5483965E-08
   44.16000      5.8829858E-08
   44.22000      7.4848977E-08
   44.28000      9.3966925E-08
   44.34000      1.1669812E-07
   44.40000      1.4367295E-07
   44.46000      1.7565640E-07
   44.52000      2.1355920E-07
   44.58000      2.5844722E-07
   44.64000      3.1155622E-07
   44.70000      3.7431795E-07
   44.76000      4.4839754E-07
   44.82000      5.3573905E-07
   44.88000      6.3861188E-07
   44.94000      7.5965198E-07
   45.00000      9.0189570E-07
   45.06000      1.0688086E-06
   45.12000      1.2643166E-06
   45.18000      1.4928434E-06
   45.24000      1.7593669E-06
   45.30000      2.0694886E-06
   45.36000      2.4295177E-06
   45.42000      2.8465636E-06
   45.48000      3.3286287E-06
   45.54000      3.8847020E-06
   45.60000      4.5248466E-06
   45.66000      5.2602904E-06
   45.72000      6.1035221E-06
   45.78000      7.0683896E-06
   45.84000      8.1702110E-06
   45.90000      9.4258858E-06
   45.96000      1.0854019E-05
   46.02000      1.2475029E-05
   46.08000      1.4311269E-05
   46.14000      1.6387130E-05
   46.20000      1.8729143E-05
   46.26000      2.1366079E-05
   46.32000      2.4329038E-05
   46.38000      2.7651546E-05
   46.44000      3.1369633E-05
   46.50000      3.5521891E-05
   46.56000      4.0149538E-05
   46.62000      4.5296427E-05
   46.68000      5.1009050E-05
   46.74000      5.7336511E-05
   46.80000      6.4330445E-05
   46.86000      7.2044939E-05
   46.92000      8.0536411E-05
   46.98000      8.9863461E-05
   47.04000      1.0008673E-04
   47.10000      1.1126864E-04
   47.16000      1.2347315E-04
   47.22000      1.3676542E-04
   47.28000      1.5121153E-04
   47.34000      1.6687799E-04
   47.40000      1.8383129E-04
   47.46000      2.0213745E-04
   47.52000      2.2186147E-04
   47.58000      2.4306674E-04
   47.64000      2.6581433E-04
   47.70000      2.9016254E-04
   47.76000      3.1616614E-04
   47.82000      3.4387549E-04
   47.88000      3.7333611E-04
   47.94000      4.0458766E-04
   48.00000      4.3766343E-04
   48.06000      4.7258940E-04
   48.12000      5.0938374E-04
   48.18000      5.4805609E-04
   48.24000      5.8860646E-04
   48.30000      6.3102541E-04
   48.36000      6.7529286E-04
   48.42000      7.2137767E-04
   48.48000      7.6923729E-04
   48.54000      8.1881747E-04
   48.60000      8.7005197E-04
   48.66000      9.2286227E-04
   48.72000      9.7715808E-04
   48.78000      1.0328371E-03
   48.84000      1.0897849E-03
   48.90000      1.1478760E-03
   48.96000      1.2069740E-03
   49.02000      1.2669320E-03
   49.08000      1.3275937E-03
   49.14000      1.3887942E-03
   49.20000      1.4503616E-03
   49.26000      1.5121175E-03
   49.32000      1.5738782E-03
   49.38000      1.6354572E-03
   49.44000      1.6966652E-03
   49.50000      1.7573129E-03
   49.56000      1.8172121E-03
   49.62000      1.8761770E-03
   49.68000      1.9340274E-03
   49.74000      1.9905886E-03
   49.80000      2.0456945E-03
   49.86000      2.0991890E-03
   49.92000      2.1509272E-03
   49.98000      2.2007762E-03
   50.04000      2.2486185E-03
   50.10000      2.2943525E-03
   50.16000      2.3378921E-03
   50.22000      2.3791702E-03
   50.28000      2.4181376E-03
   50.34000      2.4547654E-03
   50.40000      2.4890432E-03
   50.46000      2.5209801E-03
   50.52000      2.5506055E-03
   50.58000      2.5779686E-03
   50.64000      2.6031367E-03
   50.70000      2.6261962E-03
   50.76000      2.6472500E-03
   50.82000      2.6664170E-03
   50.88000      2.6838304E-03
   50.94000      2.6996366E-03
   51.00000      2.7139927E-03
   51.06000      2.7270655E-03
   51.12000      2.7390283E-03
   51.18000      2.7500598E-03
   51.24000      2.7603407E-03
   51.30000      2.7700532E-03
   51.36000      2.7793772E-03
   51.42000      2.7884881E-03
   51.48000      2.7975554E-03
   51.54000      2.8067403E-03
   51.60000      2.8161933E-03
   51.66000      2.8260518E-03
   51.72000      2.8364400E-03
   51.78000      2.8474659E-03
   51.84000      2.8592213E-03
   51.90000      2.8717797E-03
   51.96000      2.8851966E-03
   52.02000      2.8995075E-03
   52.08000      2.9147284E-03
   52.14000      2.9308551E-03
   52.20000      2.9478646E-03
   52.26000      2.9657150E-03
   52.32000      2.9843452E-03
   52.38000      3.0036785E-03
   52.44000      3.0236223E-03
   52.50000      3.0440700E-03
   52.56000      3.0649011E-03
   52.62000      3.0859853E-03
   52.68000      3.1071836E-03
   52.74000      3.1283495E-03
   52.80000      3.1493322E-03
   52.86000      3.1699787E-03
   52.92000      3.1901360E-03
   52.98000      3.2096538E-03
   53.04000      3.2283855E-03
   53.10000      3.2461907E-03
   53.16000      3.2629385E-03
   53.22000      3.2785062E-03
   53.28000      3.2927843E-03
   53.34000      3.3056757E-03
   53.40000      3.3170979E-03
   53.46000      3.3269839E-03
   53.52000      3.3352820E-03
   53.58000      3.3419577E-03
   53.64000      3.3469934E-03
   53.70000      3.3503887E-03
   53.76000      3.3521603E-03
   53.82000      3.3523398E-03
   53.88000      3.3509748E-03
   53.94000      3.3481263E-03
   54.00000      3.3438692E-03
   54.06000      3.3382885E-03
   54.12000      3.3314808E-03
   54.18000      3.3235508E-03
   54.24000      3.3146094E-03
   54.30000      3.3047732E-03
   54.36000      3.2941611E-03
   54.42000      3.2828921E-03
   54.48000      3.2710845E-03
   54.54000      3.2588532E-03
   54.60000      3.2463081E-03
   54.66000      3.2335522E-03
   54.72000      3.2206806E-03
   54.78000      3.2077786E-03
   54.84000      3.1949200E-03
   54.90000      3.1821679E-03
   54.96000      3.1695704E-03
   55.02000      3.1571626E-03
   55.08000      3.1449646E-03
   55.14000      3.1329815E-03
   55.20000      3.1212047E-03
   55.26000      3.1096106E-03
   55.32000      3.0981628E-03
   55.38000      3.0868107E-03
   55.44000      3.0754919E-03
   55.50000      3.0641318E-03
   55.56000      3.0526463E-03