 -0.750000000       0.00000000    
 -0.689999998       0.00000000    
 -0.629999995       0.00000000    
 -0.569999993       0.00000000    
 -0.509999990       0.00000000    
 -0.449999988       0.00000000    
 -0.389999986       0.00000000    
 -0.330000013       0.00000000    
 -0.270000011       0.00000000    
 -0.209999993       1.99892702E-28
 -0.150000006       2.34384557E-27
  -9.00000036E-02   1.18974546E-26
  -2.99999993E-02   2.55112024E-26
   2.99999993E-02  -5.60639748E-26
   9.00000036E-02  -6.87653502E-25
  0.150000006      -3.06546279E-24
  0.209999993      -8.97643325E-24
  0.270000011      -1.83908673E-23
  0.330000013      -2.27693893E-23
  0.389999986       4.78962263E-24
  0.449999988       1.12466019E-22
  0.509999990       3.43887617E-22
  0.569999993       6.60982488E-22
  0.629999995       8.24603196E-22
  0.689999998       3.16266908E-22
  0.750000000      -1.53114110E-21
  0.810000002      -5.02311041E-21
  0.870000005      -9.23669696E-21
  0.930000007      -1.12383335E-20
  0.990000010      -6.28072059E-21
   1.04999995       1.00720694E-20
   1.11000001       3.77553537E-20
   1.16999996       6.75615857E-20
   1.23000002       7.95770109E-20
   1.28999996       4.87644652E-20
   1.35000002      -4.06675238E-20
   1.40999997      -1.76096813E-19
   1.47000003      -3.03133312E-19
   1.52999997      -3.31921213E-19
   1.59000003      -1.72331280E-19
   1.64999998       2.06418592E-19
   1.71000004       7.14631110E-19
   1.76999998       1.11634538E-18
   1.83000004       1.07507196E-18
   1.88999999       2.86539216E-19
   1.95000005      -1.32357480E-18
   2.00999999      -3.40218910E-18
   2.06999993      -5.07071063E-18
   2.13000011      -5.03432088E-18
   2.19000006      -1.97649596E-18
   2.25000000       4.76575064E-18
   2.30999994       1.43895909E-17
   2.36999989       2.39960480E-17
   2.43000007       2.86049578E-17
   2.49000001       2.22746620E-17
   2.54999995       5.06856420E-19
   2.60999990      -3.64852262E-17
   2.67000008      -8.08559123E-17
   2.73000002      -1.16373685E-16
   2.78999996      -1.21581733E-16
   2.84999990      -7.74718899E-17
   2.91000009       2.18996630E-17
   2.97000003       1.59909974E-16
   3.02999997       2.94548455E-16
   3.08999991       3.67022685E-16
   3.15000010       3.22695968E-16
   3.21000004       1.39124248E-16
   3.26999998      -1.50165521E-16
   3.32999992      -4.50308973E-16
   3.39000010      -6.28848483E-16
   3.45000005      -5.68742231E-16
   3.50999999      -2.35640887E-16
   3.56999993       2.69474400E-16
   3.63000011       7.06306840E-16
   3.69000006       7.63974061E-16
   3.75000000       2.00093680E-16
   3.80999994      -9.88991116E-16
   3.86999989      -2.43974839E-15
   3.93000007      -3.42031205E-15
   3.99000001      -3.01843007E-15
   4.05000019      -5.15539509E-16
   4.11000013       4.14836080E-15
   4.17000008       1.00016719E-14
   4.23000002       1.49802469E-14
   4.28999996       1.63469244E-14
   4.34999990       1.16056846E-14
   4.40999985      -2.99972033E-16
   4.46999979      -1.79293090E-14
   4.53000021      -3.69495219E-14
   4.59000015      -5.08151938E-14
   4.65000010      -5.25929872E-14
   4.71000004      -3.75171018E-14
   4.76999998      -5.41462339E-15
   4.82999992       3.80425163E-14
   4.88999987       8.20578075E-14
   4.94999981       1.13530435E-13
   5.01000023       1.21215538E-13
   5.07000017       9.97317531E-14
   5.13000011       5.17336316E-14
   5.19000006      -1.28699033E-14
   5.25000000      -8.05643529E-14
   5.30999994      -1.39271095E-13
   5.36999989      -1.82385953E-13
   5.42999983      -2.09531286E-13
   5.48999977      -2.23063348E-13
   5.55000019      -2.21544151E-13
   5.61000013      -1.93523528E-13
   5.67000008      -1.16014376E-13
   5.73000002       3.88424915E-14
   5.78999996       2.88394308E-13
   5.84999990       6.19159943E-13
   5.90999985       9.69520796E-13
   5.96999979       1.22547599E-12
   6.03000021       1.23802672E-12
   6.09000015       8.65047671E-13
   6.15000010       3.14575975E-14
   6.21000004      -1.20847191E-12
   6.26999998      -2.63017321E-12
   6.32999992      -3.84371398E-12
   6.38999987      -4.36123143E-12
   6.44999981      -3.72662621E-12
   6.51000023      -1.68460406E-12
   6.57000017       1.65592355E-12
   6.63000011       5.72248846E-12
   6.69000006       9.49938652E-12
   6.75000000       1.17005104E-11
   6.80999994       1.10868485E-11
   6.86999989       6.87117334E-12
   6.92999983      -8.91865900E-13
   6.98999977      -1.10552340E-11
   7.05000019      -2.13833309E-11
   7.11000013      -2.88772149E-11
   7.17000008      -3.04101605E-11
   7.23000002      -2.35714399E-11
   7.28999996      -7.53619649E-12
   7.34999990       1.62655115E-11
   7.40999985       4.38999150E-11
   7.46999979       6.92553168E-11
   7.53000021       8.49837908E-11
   7.59000015       8.39607620E-11
   7.65000010       6.10288348E-11
   7.71000004       1.46908319E-11
   7.76999998      -5.16240835E-11
   7.82999992      -1.29065800E-10
   7.88999987      -2.03878706E-10
   7.94999981      -2.59002070E-10
   8.01000023      -2.76634438E-10
   8.06999969      -2.41449721E-10
   8.13000011      -1.43999854E-10
   8.18999958       1.62437130E-11
   8.25000000       2.28750449E-10
   8.31000042       4.71136186E-10
   8.36999989       7.09979020E-10
   8.43000031       9.03283059E-10
   8.48999977       1.00438569E-09
   8.55000019       9.66887237E-10
   8.60999966       7.50026985E-10
   8.67000008       3.23857136E-10
   8.72999954      -3.26418365E-10
   8.78999996      -1.19747012E-09
   8.85000038      -2.26660846E-09
   8.90999985      -3.49247098E-09
   8.97000027      -4.81761875E-09
   9.02999973      -6.17285290E-09
   9.09000015      -7.48289519E-09
   9.14999962      -8.67294325E-09
   9.21000004      -9.67549152E-09
   9.27000046      -1.04367164E-08
   9.32999992      -1.09216884E-08
   9.39000034      -1.11177183E-08
   9.44999981      -1.10353042E-08
   9.51000023      -1.07064180E-08
   9.56999969      -1.01802575E-08
   9.63000011      -9.51697121E-09
   9.68999958      -8.78024498E-09
   9.75000000      -8.02983280E-09
   9.81000042      -7.31510941E-09
   9.86999989      -6.67052102E-09
   9.93000031      -6.11342310E-09
   9.98999977      -5.64432900E-09
   10.0500002      -5.24918109E-09
   10.1099997      -4.90293894E-09
   10.1700001      -4.57370586E-09
   10.2299995      -4.22668212E-09
   10.2900000      -3.82749121E-09
   10.3500004      -3.34473294E-09
   10.4099998      -2.75188894E-09
   10.4700003      -2.02888617E-09
   10.5299997      -1.16362386E-09
   10.5900002      -1.53602589E-10
   10.6499996       9.92484317E-10
   10.7100000       2.25363772E-09
   10.7700005       3.59657215E-09
   10.8299999       4.97753172E-09
   10.8900003       6.34631148E-09
   10.9499998       7.65241026E-09
   11.0100002       8.85263418E-09
   11.0699997       9.91886306E-09
   11.1300001       1.08443814E-08
   11.1899996       1.16471446E-08
   11.2500000       1.23688526E-08
   11.3100004       1.30694637E-08
   11.3699999       1.38178011E-08
   11.4300003       1.46798227E-08
   11.4899998       1.57067568E-08
   11.5500002       1.69254299E-08
   11.6099997       1.83327593E-08
   11.6700001       1.98955092E-08
   11.7299995       2.15553246E-08
   11.7900000       2.32379662E-08
   11.8500004       2.48648337E-08
   11.9099998       2.63644928E-08
   11.9700003       2.76820789E-08
   12.0299997       2.87850899E-08
   12.0900002       2.96649407E-08
   12.1499996       3.03346468E-08
   12.2100000       3.08236991E-08
   12.2700005       3.11716057E-08
   12.3299999       3.14214148E-08
   12.3900003       3.16142987E-08
   12.4499998       3.17855005E-08
   12.5100002       3.19616156E-08
   12.5699997       3.21588089E-08
   12.6300001       3.23817275E-08
   12.6899996       3.26229319E-08
   12.7500000       3.28632659E-08
   12.8100004       3.30735830E-08
   12.8699999       3.32182353E-08
   12.9300003       3.32602923E-08
   12.9899998       3.31677903E-08
   13.0500002       3.29198748E-08
   13.1099997       3.25113092E-08
   13.1700001       3.19540980E-08
   13.2299995       3.12756541E-08
   13.2900000       3.05137782E-08
   13.3500004       2.97097280E-08
   13.4099998       2.89009883E-08
   13.4700003       2.81155899E-08
   13.5299997       2.73691061E-08
   13.5900002       2.66646971E-08
   13.6499996       2.59956696E-08
   13.7100000       2.53493315E-08
   13.7700005       2.47108183E-08
   13.8299999       2.40658160E-08
   13.8900003       2.34017214E-08
   13.9499998       2.27075247E-08
   14.0100002       2.19731806E-08
   14.0699997       2.11894058E-08
   14.1300001       2.03486596E-08
   14.1899996       1.94474516E-08
   14.2500000       1.84894802E-08
   14.3100004       1.74885955E-08
   14.3699999       1.64702350E-08
   14.4300003       1.54702082E-08
   14.4899998       1.45302161E-08
   14.5500002       1.36904221E-08
   14.6099997       1.29802658E-08
   14.6700001       1.24095623E-08
   14.7299995       1.19622499E-08
   14.7900000       1.15949135E-08
   14.8500004       1.12413137E-08
   14.9099998       1.08227418E-08
   14.9700003       1.02624371E-08
   15.0299997       9.50096180E-09
   15.0900002       8.50884430E-09
   15.1499996       7.29317851E-09
   15.2100000       5.89629501E-09
   15.2700005       4.38671632E-09
   15.3299999       2.84477819E-09
   15.3900003       1.34682399E-09
   15.4499998      -4.77185444E-11
   15.5100002      -1.30303790E-09
   15.5699997      -2.40607778E-09
   15.6300001      -3.35916894E-09
   15.6899996      -4.16921564E-09
   15.7500000      -4.83743845E-09
   15.8100004      -5.35329026E-09
   15.8699999      -5.69457637E-09
   15.9300003      -5.83365756E-09
   15.9899998      -5.74753090E-09
   16.0499992      -5.42830625E-09
   16.1100006      -4.89043339E-09
   16.1700001      -4.17204493E-09
   16.2299995      -3.32960104E-09
   16.2900009      -2.42709519E-09
   16.3500004      -1.52284985E-09
   16.4099998      -6.57787380E-10
   16.4699993       1.51142487E-10
   16.5300007       9.10073628E-10
   16.5900002       1.63968206E-09
   16.6499996       2.36113373E-09
   16.7099991       3.08049453E-09
   16.7700005       3.77631260E-09
   16.8299999       4.39442216E-09
   16.8899994       4.85206719E-09
   16.9500008       5.05075004E-09
   17.0100002       4.89459628E-09
   17.0699997       4.30934621E-09
   17.1299992       3.25685656E-09
   17.1900005       1.74138193E-09
   17.2500000      -1.93632416E-10
   17.3099995      -2.47669507E-09
   17.3700008      -5.02357356E-09
   17.4300003      -7.75200615E-09
   17.4899998      -1.05916191E-08
   17.5499992      -1.34866811E-08
   17.6100006      -1.63917750E-08
   17.6700001      -1.92628509E-08
   17.7299995      -2.20475584E-08
   17.7900009      -2.46790037E-08
   17.8500004      -2.70759060E-08
   17.9099998      -2.91501614E-08
   17.9699993      -3.08203241E-08
   18.0300007      -3.20276712E-08
   18.0900002      -3.27503180E-08
   18.1499996      -3.30112471E-08
   18.2099991      -3.28774412E-08
   18.2700005      -3.24495382E-08
   18.3299999      -3.18439177E-08
   18.3899994      -3.11709627E-08
   18.4500008      -3.05142898E-08
   18.5100002      -2.99155545E-08
   18.5699997      -2.93681452E-08
   18.6299992      -2.88210167E-08
   18.6900005      -2.81916339E-08
   18.7500000      -2.73848872E-08
   18.8099995      -2.63135984E-08
   18.8700008      -2.49158951E-08
   18.9300003      -2.31656756E-08
   18.9899998      -2.10741558E-08
   19.0499992      -1.86828437E-08
   19.1100006      -1.60505458E-08
   19.1700001      -1.32384814E-08
   19.2299995      -1.02979119E-08
   19.2900009      -7.26371763E-09
   19.3500004      -4.15528367E-09
   19.4099998      -9.83727988E-10
   19.4699993       2.23760077E-09
   19.5300007       5.48337820E-09
   19.5900002       8.71103012E-09
   19.6499996       1.18620962E-08
   19.7099991       1.48701700E-08
   19.7700005       1.76731305E-08
   19.8299999       2.02259258E-08
   19.8899994       2.25098589E-08
   19.9500008       2.45352592E-08
   20.0100002       2.63364619E-08
   20.0699997       2.79601888E-08
   20.1299992       2.94505487E-08
   20.1900005       3.08348369E-08
   20.2500000       3.21141371E-08
   20.3099995       3.32614043E-08
   20.3700008       3.42274546E-08
   20.4300003       3.49532883E-08
   20.4899998       3.53852982E-08
   20.5499992       3.54895775E-08
   20.6100006       3.52618343E-08
   20.6700001       3.47309630E-08
   20.7299995       3.39558781E-08
   20.7900009       3.30169030E-08
   20.8500004       3.20039923E-08
   20.9099998       3.10044364E-08
   20.9699993       3.00924050E-08
   21.0300007       2.93219529E-08
   21.0900002       2.87241715E-08
   21.1499996       2.83081985E-08
   21.2099991       2.80650685E-08
   21.2700005       2.79730035E-08
   21.3299999       2.80026917E-08
   21.3899994       2.81214589E-08
   21.4500008       2.82957480E-08
   21.5100002       2.84919661E-08
   21.5699997       2.86761566E-08
   21.6299992       2.88132593E-08
   21.6900005       2.88667561E-08
   21.7500000       2.87993576E-08
   21.8099995       2.85750232E-08
   21.8700008       2.81622832E-08
   21.9300003       2.75382401E-08
   21.9899998       2.66922218E-08
   22.0499992       2.56278341E-08
   22.1100006       2.43622811E-08
   22.1700001       2.29224995E-08
   22.2299995       2.13386109E-08
   22.2900009       1.96363281E-08
   22.3500004       1.78305406E-08
   22.4099998       1.59222928E-08
   22.4699993       1.39005136E-08
   22.5300007       1.17482966E-08
   22.5900002       9.45211287E-09
   22.6499996       7.01109482E-09
   22.7099991       4.44340875E-09
   22.7700005       1.78732851E-09
   22.8299999      -9.03868314E-10
   22.8899994      -3.57236507E-09
   22.9500008      -6.16922913E-09
   23.0100002      -8.66739125E-09
   23.0699997      -1.10706768E-08
   23.1299992      -1.34161313E-08
   23.1900005      -1.57685385E-08
   23.2500000      -1.82080360E-08
   23.3099995      -2.08137099E-08
   23.3700008      -2.36473383E-08
   23.4300003      -2.67415228E-08
   23.4899998      -3.00952685E-08
   23.5499992      -3.36778641E-08
   23.6100006      -3.74392926E-08
   23.6700001      -4.13235774E-08
   23.7299995      -4.52806184E-08
   23.7900009      -4.92729875E-08
   23.8500004      -5.32760112E-08
   23.9099998      -5.72718868E-08
   23.9699993      -6.12405486E-08
   24.0300007      -6.51507648E-08
   24.0900002      -6.89547335E-08
   24.1499996      -7.25880938E-08
   24.2099991      -7.59754641E-08
   24.2700005      -7.90400776E-08
   24.3299999      -8.17150152E-08
   24.3899994      -8.39530614E-08
   24.4500008      -8.57327080E-08
   24.5100002      -8.70587158E-08
   24.5699997      -8.79573321E-08
   24.6299992      -8.84674449E-08
   24.6900005      -8.86305074E-08
   24.7500000      -8.84822455E-08
   24.8099995      -8.80487647E-08
   24.8700008      -8.73481127E-08
   24.9300003      -8.63963407E-08
   24.9899998      -8.52155893E-08
   25.0499992      -8.38407601E-08
   25.1100006      -8.23219324E-08
   25.1700001      -8.07211293E-08
   25.2299995      -7.91041828E-08
   25.2900009      -7.75298830E-08
   25.3500004      -7.60396901E-08
   25.4099998      -7.46508988E-08
   25.4699993      -7.33549328E-08
   25.5300007      -7.21212032E-08
   25.5900002      -7.09053083E-08
   25.6499996      -6.96594853E-08
   25.7099991      -6.83429775E-08
   25.7700005      -6.69301627E-08
   25.8299999      -6.54148522E-08
   25.8899994      -6.38105533E-08
   25.9500008      -6.21471585E-08
   26.0100002      -6.04655312E-08
   26.0699997      -5.88117892E-08
   26.1299992      -5.72326115E-08
   26.1900005      -5.57724462E-08
   26.2500000      -5.44720145E-08
   26.3099995      -5.33671844E-08
   26.3700008      -5.24869535E-08
   26.4300003      -5.18498560E-08
   26.4899998      -5.14593808E-08
   26.5499992      -5.12998497E-08
   26.6100006      -5.13349470E-08
   26.6700001      -5.15108347E-08
   26.7299995      -5.17646193E-08
   26.7900009      -5.20372900E-08
   26.8500004      -5.22884740E-08
   26.9099998      -5.25091792E-08
   26.9699993      -5.27284136E-08
   27.0300007      -5.30106945E-08
   27.0900002      -5.34436140E-08
   27.1499996      -5.41173648E-08
   27.2099991      -5.51008768E-08
   27.2700005      -5.64208200E-08
   27.3299999      -5.80495296E-08
   27.3899994      -5.99059931E-08
   27.4500008      -6.18704803E-08
   27.5100002      -6.38094022E-08
   27.5699997      -6.56040413E-08
   27.6299992      -6.71753426E-08
   27.6900005      -6.84981956E-08
   27.7500000      -6.96016187E-08
   27.8099995      -7.05554157E-08
   27.8700008      -7.14473742E-08
   27.9300003      -7.23575226E-08
   27.9899998      -7.33362455E-08
   28.0499992      -7.43914796E-08
   28.1100006      -7.54873923E-08
   28.1700001      -7.65540165E-08
   28.2299995      -7.75043176E-08
   28.2900009      -7.82539118E-08
   28.3500004      -7.87381254E-08
   28.4099998      -7.89221701E-08
   28.4699993      -7.88023300E-08
   28.5300007      -7.83985428E-08
   28.5900002      -7.77412197E-08
   28.6499996      -7.68566011E-08
   28.7099991      -7.57553948E-08
   28.7700005      -7.44281508E-08
   28.8299999      -7.28485716E-08
   28.8899994      -7.09832335E-08
   28.9500008      -6.88041979E-08
   29.0100002      -6.63000961E-08
   29.0699997      -6.34820196E-08
   29.1299992      -6.03823693E-08
   29.1900005      -5.70474725E-08
   29.2500000      -5.35266729E-08
   29.3099995      -4.98617005E-08
   29.3700008      -4.60798582E-08
   29.4300003      -4.21930295E-08
   29.4899998      -3.82026002E-08
   29.5499992      -3.41084103E-08
   29.6100006      -2.99186595E-08
   29.6700001      -2.56574157E-08
   29.7299995      -2.13671232E-08
   29.7900009      -1.71049237E-08
   29.8500004      -1.29334987E-08
   29.9099998      -8.90869689E-09
   29.9699993      -5.06737319E-09
   30.0300007      -1.41896928E-09
   30.0900002       2.05645057E-09
   30.1499996       5.40267298E-09
   30.2099991       8.67534045E-09
   30.2700005       1.19263959E-08
   30.3299999       1.51890269E-08
   30.3899994       1.84671922E-08
   30.4500008       2.17326992E-08
   30.5100002       2.49307313E-08
   30.5699997       2.79924208E-08
   30.6299992       3.08509414E-08
   30.6900005       3.34565406E-08
   30.7500000       3.57860763E-08
   30.8099995       3.78441563E-08
   30.8700008       3.96555073E-08
   30.9300003       4.12510204E-08
   30.9899998       4.26520010E-08
   31.0499992       4.38580834E-08
   31.1100006       4.48431123E-08
   31.1700001       4.55607960E-08
   31.2299995       4.59584939E-08
   31.2900009       4.59946428E-08
   31.3500004       4.56539304E-08
   31.4099998       4.49550832E-08
   31.4699993       4.39488232E-08
   31.5300007       4.27068940E-08
   31.5900002       4.13061372E-08
   31.6499996       3.98129281E-08
   31.7099991       3.82727450E-08
   31.7700005       3.67073127E-08
   31.8299999       3.51191218E-08
   31.8899994       3.35006156E-08
   31.9500008       3.18442552E-08
   32.0099983       3.01498240E-08
   32.0699997       2.84267561E-08
   32.1300011       2.66910014E-08
   32.1899986       2.49577763E-08
   32.2500000       2.32328823E-08
   32.3100014       2.15058051E-08
   32.3699989       1.97475707E-08
   32.4300003       1.79150543E-08
   32.4900017       1.59615539E-08
   32.5499992       1.38512979E-08
   32.6100006       1.15737357E-08
   32.6699982       9.15295395E-09
   32.7299995       6.64848221E-09
   32.7900009       4.14619095E-09
   32.8499985       1.74110015E-09
   32.9099998      -4.83350304E-10
   32.9700012      -2.47370791E-09
   33.0299988      -4.21732693E-09
   33.0900002      -5.74263126E-09
   33.1500015      -7.10904668E-09
   33.2099991      -8.38975289E-09
   33.2700005      -9.65221503E-09
   33.3300018      -1.09416698E-08
   33.3899994      -1.22715376E-08
   33.4500008      -1.36226257E-08
   33.5099983      -1.49506807E-08
   33.5699997      -1.61999267E-08
   33.6300011      -1.73189587E-08
   33.6899986      -1.82750810E-08
   33.7500000      -1.90635880E-08
   33.8100014      -1.97098142E-08
   33.8699989      -2.02634887E-08
   33.9300003      -2.07869100E-08
   33.9900017      -2.13401012E-08
   34.0499992      -2.19669829E-08
   34.1100006      -2.26863701E-08
   34.1699982      -2.34902284E-08
   34.2299995      -2.43494345E-08
   34.2900009      -2.52249706E-08
   34.3499985      -2.60808282E-08
   34.4099998      -2.68944476E-08
   34.4700012      -2.76614749E-08
   34.5299988      -2.83937123E-08
   34.5900002      -2.91114279E-08
   34.6500015      -2.98332203E-08
   34.7099991      -3.05672003E-08
   34.7700005      -3.13066053E-08
   34.8300018      -3.20312488E-08
   34.8899994      -3.27137961E-08
   34.9500008      -3.33284191E-08
   35.0099983      -3.38584414E-08
   35.0699997      -3.43003599E-08
   35.1300011      -3.46632056E-08
   35.1899986      -3.49639606E-08
   35.2500000      -3.52212837E-08
   35.3100014      -3.54502134E-08
   35.3699989      -3.56598129E-08
   35.4300003      -3.58544874E-08
   35.4900017      -3.60379886E-08
   35.5499992      -3.62182355E-08
   35.6100006      -3.64107144E-08
   35.6699982      -3.66387312E-08
   35.7299995      -3.69301603E-08
   35.7900009      -3.73113060E-08
   35.8499985      -3.77996585E-08
   35.9099998      -3.83976513E-08
   35.9700012      -3.90894215E-08
   36.0299988      -3.98418045E-08
   36.0900002      -4.06097662E-08
   36.1500015      -4.13454124E-08
   36.2099991      -4.20085549E-08
   36.2700005      -4.25763531E-08
   36.3300018      -4.30495213E-08
   36.3899994      -4.34532197E-08
   36.4500008      -4.38321628E-08
   36.5099983      -4.42408741E-08
   36.5699997      -4.47313724E-08
   36.6300011      -4.53413165E-08
   36.6899986      -4.60855389E-08
   36.7500000      -4.69529375E-08
   36.8100014      -4.79094915E-08
   36.8699989      -4.89065677E-08
   36.9300003      -4.98924564E-08
   36.9900017      -5.08243510E-08
   37.0499992      -5.16778407E-08
   37.1100006      -5.24515862E-08
   37.1699982      -5.31660440E-08
   37.2299995      -5.38567413E-08
   37.2900009      -5.45641683E-08
   37.3499985      -5.53235218E-08
   37.4099998      -5.61574325E-08
   37.4700012      -5.70738266E-08
   37.5299988      -5.80689985E-08
   37.5900002      -5.91337894E-08
   37.6500015      -6.02595307E-08
   37.7099991      -6.14407227E-08
   37.7700005      -6.26728109E-08
   37.8300018      -6.39462598E-08
   37.8899994      -6.52400018E-08
   37.9500008      -6.65182114E-08
   38.0099983      -6.77331329E-08
   38.0699997      -6.88344457E-08
   38.1300011      -6.97823097E-08
   38.1899986      -7.05598993E-08
   38.2500000      -7.11805370E-08
   38.3100014      -7.16864292E-08
   38.3699989      -7.21384339E-08
   38.4300003      -7.25995477E-08
   38.4900017      -7.31165315E-08
   38.5499992      -7.37049675E-08
   38.6100006      -7.43421964E-08
   38.6699982      -7.49705293E-08
   38.7299995      -7.55104992E-08
   38.7900009      -7.58810188E-08
   38.8499985      -7.60212160E-08
   38.9099998      -7.59079128E-08
   38.9700012      -7.55633280E-08
   39.0299988      -7.50502664E-08
   39.0900002      -7.44556417E-08
   39.1500015      -7.38668362E-08
   39.2099991      -7.33477989E-08
   39.2700005      -7.29219849E-08
   39.3300018      -7.25671327E-08
   39.3899994      -7.22232372E-08
   39.4500008      -7.18106321E-08
   39.5099983      -7.12526500E-08
   39.5699997      -7.04959149E-08
   39.6300011      -6.95228337E-08
   39.6899986      -6.83532448E-08
   39.7500000      -6.70357707E-08
   39.8100014      -6.56319159E-08
   39.8699989      -6.41978559E-08
   39.9300003      -6.27690895E-08
   39.9900017      -6.13518409E-08
   40.0499992      -5.99234653E-08
   40.1100006      -5.84411559E-08
   40.1699982      -5.68562726E-08
   40.2299995      -5.51298740E-08
   40.2900009      -5.32449853E-08
   40.3499985      -5.12121510E-08
   40.4099998      -4.90670224E-08
   40.4700012      -4.68611780E-08
   40.5299988      -4.46491804E-08
   40.5900002      -4.24757083E-08
   40.6500015      -4.03661389E-08
   40.7099991      -3.83226961E-08
   40.7700005      -3.63265436E-08
   40.8300018      -3.43448896E-08
   40.8899994      -3.23409495E-08
   40.9500008      -3.02842160E-08
   41.0099983      -2.81584569E-08
   41.0699997      -2.59652282E-08
   41.1300011      -2.37219933E-08
   41.1899986      -2.14551754E-08
   41.2500000      -1.91902192E-08
   41.3100014      -1.69418133E-08
   41.3699989      -1.47076031E-08
   41.4300003      -1.24677291E-08
   41.4900017      -1.01905568E-08
   41.5499992      -7.84288900E-09
   41.6100006      -5.40142597E-09
   41.6699982      -2.86198643E-09
   41.7299995      -2.43894044E-10
   41.7900009       2.41138354E-09
   41.8499985       5.04662756E-09
   41.9099998       7.59846674E-09
   41.9700012       1.00079962E-08
   42.0299988       1.22304211E-08
   42.0900002       1.42421293E-08
   42.1500015       1.60439733E-08
   42.2099991       1.76599642E-08
   42.2700005       1.91311766E-08
   42.3300018       2.05056025E-08
   42.3899994       2.18258176E-08
   42.4500008       2.31172326E-08
   42.5099983       2.43800429E-08
   42.5699997       2.55872301E-08
   42.6300011       2.66894595E-08
   42.6899986       2.76257044E-08
   42.7500000       2.83367640E-08
   42.8100014       2.87778619E-08
   42.8699989       2.89268858E-08
   42.9300003       2.87860491E-08
   42.9900017       2.83767658E-08
   43.0499992       2.77295911E-08
   43.1100006       2.68726126E-08
   43.1699982       2.58221764E-08
   43.2299995       2.45792489E-08
   43.2900009       2.31328521E-08
   43.3499985       2.14696279E-08
   43.4099998       1.95862064E-08
   43.4700012       1.74997670E-08
   43.5299988       1.52523576E-08
   43.5900002       1.29065008E-08
   43.6500015       1.05326254E-08
   43.7099991       8.19198664E-09
   43.7700005       5.92059113E-09
   43.8300018       3.71969389E-09
   43.8899994       1.55637547E-09
   43.9500008      -6.25579644E-10
   44.0099983      -2.88763990E-09
   44.0699997      -5.27675192E-09
   44.1300011      -7.80973863E-09
   44.1899986      -1.04664117E-08
   44.2500000      -1.31932705E-08
   44.3100014      -1.59165410E-08
   44.3699989      -1.85606588E-08
   44.4300003      -2.10668230E-08
   44.4900017      -2.34063027E-08
   44.5499992      -2.55848072E-08
   44.6100006      -2.76370464E-08
   44.6699982      -2.96137035E-08
   44.7299995      -3.15656834E-08
   44.7900009      -3.35313359E-08
   44.8499985      -3.55314249E-08
   44.9099998      -3.75736064E-08
   44.9700012      -3.96645881E-08
   45.0299988      -4.18250998E-08
   45.0900002      -4.41015473E-08
   45.1500015      -4.65695251E-08
   45.2099991      -4.93274790E-08
   45.2700005      -5.24828145E-08
   45.3300018      -5.61358533E-08
   45.3899994      -6.03680519E-08
   45.4500008      -6.52396324E-08
   45.5099983      -7.07985208E-08
   45.5699997      -7.70986688E-08
   45.6300011      -8.42228545E-08
   45.6899986      -9.23038783E-08
   45.7500000      -1.01539023E-07
   45.8100014      -1.12195245E-07
   45.8699989      -1.24605663E-07
   45.9300003      -1.39160420E-07
   45.9900017      -1.56296480E-07
   46.0499992      -1.76490843E-07
   46.1100006      -2.00260118E-07
   46.1699982      -2.28168119E-07
   46.2299995      -2.60840778E-07
   46.2900009      -2.98986748E-07
   46.3499985      -3.43420822E-07
   46.4099998      -3.95087568E-07
   46.4700012      -4.55082017E-07
   46.5299988      -5.24666632E-07
   46.5900002      -6.05283844E-07
   46.6500015      -6.98566225E-07
   46.7099991      -8.06346975E-07
   46.7700005      -9.30674332E-07
   46.8300018      -1.07383244E-06
   46.8899994      -1.23836890E-06
   46.9500008      -1.42712793E-06
   47.0099983      -1.64328617E-06
   47.0699997      -1.89038599E-06
   47.1300011      -2.17236243E-06
   47.1899986      -2.49356549E-06
   47.2500000      -2.85877422E-06
   47.3100014      -3.27321118E-06
   47.3699989      -3.74256092E-06
   47.4300003      -4.27299165E-06
   47.4900017      -4.87119223E-06
   47.5499992      -5.54441067E-06
   47.6100006      -6.30050226E-06
   47.6699982      -7.14797034E-06
   47.7299995      -8.09600351E-06
   47.7900009      -9.15448982E-06
   47.8499985      -1.03340280E-05
   47.9099998      -1.16459059E-05
   47.9700012      -1.31020879E-05
   48.0299988      -1.47151877E-05
   48.0900002      -1.64984449E-05
   48.1500015      -1.84657092E-05
   48.2099991      -2.06314235E-05
   48.2700005      -2.30106161E-05
   48.3300018      -2.56188741E-05
   48.3899994      -2.84723101E-05
   48.4500008      -3.15875004E-05
   48.5099983      -3.49814218E-05
   48.5699997      -3.86713364E-05
   48.6300011      -4.26746919E-05
   48.6899986      -4.70089981E-05
   48.7500000      -5.16916734E-05
   48.8100014      -5.67399293E-05
   48.8699989      -6.21706276E-05
   48.9300003      -6.80001176E-05
   48.9900017      -7.42441480E-05
   49.0499992      -8.09176854E-05
   49.1100006      -8.80347507E-05
   49.1699982      -9.56082877E-05
   49.2299995      -1.03649945E-04
   49.2900009      -1.12169895E-04
   49.3499985      -1.21176650E-04
   49.4099998      -1.30676883E-04
   49.4700012      -1.40675213E-04
   49.5299988      -1.51174070E-04
   49.5900002      -1.62173514E-04
   49.6500015      -1.73671026E-04
   49.7099991      -1.85661513E-04
   49.7700005      -1.98137030E-04
   49.8300018      -2.11086881E-04
   49.8899994      -2.24497489E-04
   49.9500008      -2.38352353E-04
   50.0099983      -2.52632017E-04
   50.0699997      -2.67314113E-04
   50.1300011      -2.82373367E-04
   50.1899986      -2.97781691E-04
   50.2500000      -3.13508237E-04
   50.3100014      -3.29519564E-04
   50.3699989      -3.45779845E-04
   50.4300003      -3.62251041E-04
   50.4900017      -3.78893077E-04
   50.5499992      -3.95664305E-04
   50.6100006      -4.12521505E-04