 -0.750000000       0.00000000    
 -0.689999998       0.00000000    
 -0.629999995       0.00000000    
 -0.569999993       0.00000000    
 -0.509999990       0.00000000    
 -0.449999988       0.00000000    
 -0.389999986       0.00000000    
 -0.330000013       0.00000000    
 -0.270000011       2.01491523E-27
 -0.209999993      -1.71494879E-26
 -0.150000006      -3.60449653E-25
  -9.00000036E-02  -2.44075221E-24
  -2.99999993E-02  -9.71651889E-24
   2.99999993E-02  -2.53406357E-23
   9.00000036E-02  -4.00587607E-23
  0.150000006      -9.04710178E-24
  0.209999993       1.60419245E-22
  0.270000011       5.54821904E-22
  0.330000013       1.07784794E-21
  0.389999986       1.19371846E-21
  0.449999988      -1.60294327E-22
  0.509999990      -4.06956988E-21
  0.569999993      -1.02813970E-20
  0.629999995      -1.54529552E-20
  0.689999998      -1.25764096E-20
  0.750000000       6.26142039E-21
  0.810000002       4.28152821E-20
  0.870000005       8.39020669E-20
  0.930000007       9.80629014E-20
  0.990000010       4.67066790E-20
   1.04999995      -8.64479414E-20
   1.11000001      -2.57675239E-19
   1.16999996      -3.44699603E-19
   1.23000002      -1.83018273E-19
   1.28999996       3.23004336E-19
   1.35000002       1.04123686E-18
   1.40999997       1.49711605E-18
   1.47000003       9.41014417E-19
   1.52999997      -1.29007161E-18
   1.59000003      -5.13905353E-18
   1.64999998      -9.17558863E-18
   1.71000004      -1.04029931E-17
   1.76999998      -5.06081300E-18
   1.83000004       9.33258916E-18
   1.88999999       3.11483727E-17
   1.95000005       5.23852225E-17
   2.00999999       5.89711286E-17
   2.06999993       3.53405935E-17
   2.13000011      -2.66600576E-17
   2.19000006      -1.17343273E-16
   2.25000000      -2.02958994E-16
   2.30999994      -2.30494341E-16
   2.36999989      -1.47627890E-16
   2.43000007       6.50801221E-17
   2.49000001       3.62221040E-16
   2.54999995       6.21660456E-16
   2.60999990       6.71942873E-16
   2.67000008       3.65205137E-16
   2.73000002      -3.22285263E-16
   2.78999996      -1.20643231E-15
   2.84999990      -1.88710640E-15
   2.91000009      -1.86076452E-15
   2.97000003      -7.52043602E-16
   3.02999997       1.40781535E-15
   3.08999991       3.99128320E-15
   3.15000010       5.82501212E-15
   3.21000004       5.56765556E-15
   3.26999998       2.35714785E-15
   3.32999992      -3.50998785E-15
   3.39000010      -1.02304716E-14
   3.45000005      -1.48150060E-14
   3.50999999      -1.41865525E-14
   3.56999993      -6.77475374E-15
   3.63000011       6.07036580E-15
   3.69000006       1.96985982E-14
   3.75000000       2.74323749E-14
   3.80999994       2.34331800E-14
   3.86999989       6.19100277E-15
   3.93000007      -1.90533895E-14
   3.99000001      -4.06917440E-14
   4.05000019      -4.47744191E-14
   4.11000013      -2.18219099E-14
   4.17000008       2.62664697E-14
   4.23000002       8.29000090E-14
   4.28999996       1.20120683E-13
   4.34999990       1.09097586E-13
   4.40999985       3.47171836E-14
   4.46999979      -9.19312437E-14
   4.53000021      -2.30212849E-13
   4.59000015      -3.20216754E-13
   4.65000010      -3.05500173E-13
   4.71000004      -1.60584911E-13
   4.76999998       8.89471941E-14
   4.82999992       3.65378301E-13
   4.88999987       5.61940902E-13
   4.94999981       5.84629621E-13
   5.01000023       3.96965094E-13
   5.07000017       4.70548723E-14
   5.13000011      -3.39517151E-13
   5.19000006      -6.04331635E-13
   5.25000000      -6.24247941E-13
   5.30999994      -3.74879896E-13
   5.36999989       4.18555707E-14
   5.42999983       4.26076302E-13
   5.48999977       5.61045730E-13
   5.55000019       3.18066238E-13
   5.61000013      -2.60634288E-13
   5.67000008      -9.44937379E-13
   5.73000002      -1.38678901E-12
   5.78999996      -1.26128068E-12
   5.84999990      -4.27204306E-13
   5.90999985       9.62789852E-13
   5.96999979       2.46173676E-12
   6.03000021       3.45791668E-12
   6.09000015       3.40064066E-12
   6.15000010       2.04119729E-12
   6.21000004      -4.10642088E-13
   6.26999998      -3.29205673E-12
   6.32999992      -5.67373926E-12
   6.38999987      -6.67328302E-12
   6.44999981      -5.78242489E-12
   6.51000023      -3.07837241E-12
   6.57000017       7.73888657E-13
   6.63000011       4.74160555E-12
   6.69000006       7.78741568E-12
   6.75000000       9.23040810E-12
   6.80999994       8.95175253E-12
   6.86999989       7.35082568E-12
   6.92999983       5.06471601E-12
   6.98999977       2.57578854E-12
   7.05000019      -1.01405355E-13
   7.11000013      -3.47657688E-12
   7.17000008      -8.30480129E-12
   7.23000002      -1.50432878E-11
   7.28999996      -2.32558989E-11
   7.34999990      -3.12462521E-11
   7.40999985      -3.61571328E-11
   7.46999979      -3.46221038E-11
   7.53000021      -2.38443310E-11
   7.59000015      -2.78688379E-12
   7.65000010       2.69332143E-11
   7.71000004       6.08025436E-11
   7.76999998       9.19875912E-11
   7.82999992       1.12635151E-10
   7.88999987       1.15562955E-10
   7.94999981       9.58798943E-11
   8.01000023       5.21132235E-11
   8.06999969      -1.33908423E-11
   8.13000011      -9.47584511E-11
   8.18999958      -1.83297724E-10
   8.25000000      -2.68243205E-10
   8.31000042      -3.37218309E-10
   8.36999989      -3.76323028E-10
   8.43000031      -3.70036279E-10
   8.48999977      -3.01339648E-10
   8.55000019      -1.52510560E-10
   8.60999966       9.31479616E-11
   8.67000008       4.48726278E-10
   8.72999954       9.20762688E-10
   8.78999996       1.50669888E-09
   8.85000038       2.19354446E-09
   8.90999985       2.95829583E-09
   8.97000027       3.77018505E-09
   9.02999973       4.59428318E-09
   9.09000015       5.39559331E-09
   9.14999962       6.14263440E-09
   9.21000004       6.80975765E-09
   9.27000046       7.37790717E-09
   9.32999992       7.83409337E-09
   9.39000034       8.17026358E-09
   9.44999981       8.38236236E-09
   9.51000023       8.47010995E-09
   9.56999969       8.43755199E-09
   9.63000011       8.29387670E-09
   9.68999958       8.05368927E-09
   9.75000000       7.73597719E-09
   9.81000042       7.36141326E-09
   9.86999989       6.94837921E-09
   9.93000031       6.50868959E-09
   9.98999977       6.04443118E-09
   10.0500002       5.54715296E-09
   10.1099997       5.00006214E-09
   10.1700001       4.38296555E-09
   10.2299995       3.67879416E-09
   10.2900000       2.88001401E-09
   10.3500004       1.99322092E-09
   10.4099998       1.04079845E-09
   10.4700003       5.94319594E-11
   10.5299997      -9.03786213E-10
   10.5900002      -1.79633397E-09
   10.6499996      -2.56495469E-09
   10.7100000      -3.15921334E-09
   10.7700005      -3.53387786E-09
   10.8299999      -3.65085118E-09
   10.8900003      -3.48169493E-09
   10.9499998      -3.01152192E-09
   11.0100002      -2.24418684E-09
   11.0699997      -1.20768517E-09
   11.1300001       4.21312013E-11
   11.1899996       1.42153722E-09
   11.2500000       2.82394175E-09
   11.3100004       4.12989554E-09
   11.3699999       5.22050936E-09
   11.4300003       5.99151928E-09
   11.4899998       6.36487796E-09
   11.5500002       6.29547037E-09
   11.6099997       5.77198422E-09
   11.6700001       4.81276530E-09
   11.7299995       3.45882167E-09
   11.7900000       1.76663395E-09
   11.8500004      -1.97124192E-10
   11.9099998      -2.35819120E-09
   11.9700003      -4.63542049E-09
   12.0299997      -6.94146207E-09
   12.0900002      -9.18548704E-09
   12.1499996      -1.12791847E-08
   12.2100000      -1.31457210E-08
   12.2700005      -1.47297303E-08
   12.3299999      -1.60053553E-08
   12.3900003      -1.69794419E-08
   12.4499998      -1.76881763E-08
   12.5100002      -1.81874231E-08
   12.5699997      -1.85391702E-08
   12.6300001      -1.87977758E-08
   12.6899996      -1.89999021E-08
   12.7500000      -1.91607903E-08
   12.8100004      -1.92773566E-08
   12.8699999      -1.93363192E-08
   12.9300003      -1.93239309E-08
   12.9899998      -1.92335801E-08
   13.0500002      -1.90686418E-08
   13.1099997      -1.88399163E-08
   13.1700001      -1.85591968E-08
   13.2299995      -1.82319493E-08
   13.2900000      -1.78522352E-08
   13.3500004      -1.74020869E-08
   13.4099998      -1.68556298E-08
   13.4700003      -1.61865010E-08
   13.5299997      -1.53758801E-08
   13.5900002      -1.44184549E-08
   13.6499996      -1.33244686E-08
   13.7100000      -1.21175887E-08
   13.7700005      -1.08298126E-08
   13.8299999      -9.49556522E-09
   13.8900003      -8.14724466E-09
   13.9499998      -6.81367940E-09
   14.0100002      -5.52158985E-09
   14.0699997      -4.29881153E-09
   14.1300001      -3.17707216E-09
   14.1899996      -2.19212271E-09
   14.2500000      -1.37995493E-09
   14.3100004      -7.69481201E-10
   14.3699999      -3.73770653E-10
   14.4300003      -1.83022042E-10
   14.4899998      -1.62346234E-10
   14.5500002      -2.56035942E-10
   14.6099997      -3.97751582E-10
   14.6700001      -5.23833643E-10
   14.7299995      -5.85666404E-10
   14.7900000      -5.57238422E-10
   14.8500004      -4.35743441E-10
   14.9099998      -2.35554631E-10
   14.9700003       2.18068150E-11
   15.0299997       3.17884941E-10
   15.0900002       6.44184150E-10
   15.1499996       1.00386288E-09
   15.2100000       1.40853640E-09
   15.2700005       1.87237315E-09
   15.3299999       2.40650588E-09
   15.3900003       3.01630854E-09
   15.4499998       3.70257536E-09
   15.5100002       4.46571491E-09
   15.5699997       5.31054134E-09
   15.6300001       6.24870333E-09
   15.6899996       7.29656069E-09
   15.7500000       8.46808135E-09
   15.8100004       9.76450742E-09
   15.8699999       1.11642215E-08
   15.9300003       1.26167592E-08
   15.9899998       1.40439571E-08
   16.0499992       1.53490589E-08
   16.1100006       1.64319864E-08
   16.1700001       1.72068670E-08
   16.2299995       1.76170794E-08
   16.2900009       1.76437531E-08
   16.3500004       1.73056538E-08
   16.4099998       1.66509402E-08
   16.4699993       1.57435824E-08
   16.5300007       1.46485553E-08
   16.5900002       1.34199061E-08
   16.6499996       1.20945414E-08
   16.7099991       1.06925766E-08
   16.7700005       9.22294863E-09
   16.8299999       7.69146080E-09
   16.8899994       6.10798478E-09
   16.9500008       4.49030990E-09
   17.0100002       2.86377677E-09
   17.0699997       1.25767763E-09
   17.1299992      -2.99294811E-10
   17.1900005      -1.78207438E-09
   17.2500000      -3.16919913E-09
   17.3099995      -4.43985293E-09
   17.3700008      -5.56962032E-09
   17.4300003      -6.52730936E-09
   17.4899998      -7.27474658E-09
   17.5499992      -7.77011877E-09
   17.6100006      -7.97380029E-09
   17.6700001      -7.85456233E-09
   17.7299995      -7.39388639E-09
   17.7900009      -6.58705801E-09
   17.8500004      -5.44102186E-09
   17.9099998      -3.97033828E-09
   17.9699993      -2.19316609E-09
   18.0300007      -1.28994038E-10
   18.0900002       2.20106733E-09
   18.1499996       4.77182871E-09
   18.2099991       7.55079554E-09
   18.2700005       1.04960245E-08
   18.3299999       1.35566358E-08
   18.3899994       1.66766654E-08
   18.4500008       1.98016696E-08
   18.5100002       2.28862689E-08
   18.5699997       2.59001425E-08
   18.6299992       2.88301987E-08
   18.6900005       3.16775477E-08
   18.7500000       3.44498119E-08
   18.8099995       3.71507909E-08
   18.8700008       3.97708462E-08
   18.9300003       4.22812789E-08
   18.9899998       4.46349695E-08
   19.0499992       4.67735504E-08
   19.1100006       4.86393432E-08
   19.1700001       5.01887705E-08
   19.2299995       5.14033864E-08
   19.2900009       5.22953734E-08
   19.3500004       5.29059001E-08
   19.4099998       5.32966276E-08
   19.4699993       5.35365068E-08
   19.5300007       5.36872662E-08
   19.5900002       5.37910765E-08
   19.6499996       5.38634843E-08
   19.7099991       5.38930642E-08
   19.7700005       5.38475220E-08
   19.8299999       5.36842251E-08
   19.8899994       5.33621751E-08
   19.9500008       5.28521298E-08
   20.0100002       5.21425534E-08
   20.0699997       5.12404768E-08
   20.1299992       5.01677704E-08
   20.1900005       4.89547425E-08
   20.2500000       4.76331081E-08
   20.3099995       4.62303085E-08
   20.3700008       4.47662103E-08
   20.4300003       4.32522889E-08
   20.4899998       4.16926937E-08
   20.5499992       4.00861424E-08
   20.6100006       3.84277428E-08
   20.6700001       3.67102118E-08
   20.7299995       3.49244189E-08
   20.7900009       3.30597416E-08
   20.8500004       3.11048645E-08
   20.9099998       2.90496658E-08
   20.9699993       2.68884062E-08
   21.0300007       2.46238834E-08
   21.0900002       2.22715553E-08
   21.1499996       1.98622736E-08
   21.2099991       1.74421988E-08
   21.2700005       1.50690624E-08
   21.3299999       1.28048230E-08
   21.3899994       1.07060245E-08
   21.4500008       8.81412632E-09
   21.5100002       7.14858173E-09
   21.5699997       5.70500136E-09
   21.6299992       4.45943771E-09
   21.6900005       3.37789796E-09
   21.7500000       2.42833464E-09
   21.8099995       1.59121039E-09
   21.8700008       8.64914695E-10
   21.9300003       2.63891603E-10
   21.9899998      -1.90131869E-10
   22.0499992      -4.80847862E-10
   22.1100006      -6.09422568E-10
   22.1700001      -6.01384831E-10
   22.2299995      -5.05594011E-10
   22.2900009      -3.85367321E-10
   22.3500004      -3.04651887E-10
   22.4099998      -3.13814974E-10
   22.4699993      -4.39573933E-10
   22.5300007      -6.81889045E-10
   22.5900002      -1.01804798E-09
   22.6499996      -1.41173784E-09
   22.7099991      -1.82354254E-09
   22.7700005      -2.21941843E-09
   22.8299999      -2.57503618E-09
   22.8899994      -2.87575275E-09
   22.9500008      -3.11355430E-09
   23.0100002      -3.28306582E-09
   23.0699997      -3.37852057E-09
   23.1299992      -3.39276074E-09
   23.1900005      -3.31836647E-09
   23.2500000      -3.15031556E-09
   23.3099995      -2.88929725E-09
   23.3700008      -2.54483634E-09
   23.4300003      -2.13747975E-09
   23.4899998      -1.69938696E-09
   23.5499992      -1.27273747E-09
   23.6100006      -9.05652831E-10
   23.6700001      -6.45937193E-10
   23.7299995      -5.33817213E-10
   23.7900009      -5.95649974E-10
   23.8500004      -8.40823910E-10
   23.9099998      -1.26343713E-09
   23.9699993      -1.84881688E-09
   24.0300007      -2.58302046E-09
   24.0900002      -3.46190610E-09
   24.1499996      -4.49597470E-09
   24.2099991      -5.70835512E-09
   24.2700005      -7.12577597E-09
   24.3299999      -8.76527650E-09
   24.3899994      -1.06215730E-08
   24.4500008      -1.26603625E-08
   24.5100002      -1.48210750E-08
   24.5699997      -1.70291887E-08
   24.6299992      -1.92144451E-08
   24.6900005      -2.13287468E-08
   24.7500000      -2.33572699E-08
   24.8099995      -2.53186823E-08
   24.8700008      -2.72544796E-08
   24.9300003      -2.92115896E-08
   24.9899998      -3.12250030E-08
   25.0499992      -3.33069607E-08
   25.1100006      -3.54463623E-08
   25.1700001      -3.76176885E-08
   25.2299995      -3.97948519E-08
   25.2900009      -4.19633004E-08
   25.3500004      -4.41248602E-08
   25.4099998      -4.62930991E-08
   25.4699993      -4.84813043E-08
   25.5300007      -5.06886053E-08
   25.5900002      -5.28907513E-08
   25.6499996      -5.50401467E-08
   25.7099991      -5.70759546E-08
   25.7700005      -5.89407421E-08
   25.8299999      -6.05973725E-08
   25.8899994      -6.20394758E-08
   25.9500008      -6.32914379E-08
   26.0100002      -6.43978240E-08
   26.0699997      -6.54063967E-08
   26.1299992      -6.63514470E-08
   26.1900005      -6.72436187E-08
   26.2500000      -6.80699230E-08
   26.3099995      -6.88033381E-08
   26.3700008      -6.94175597E-08
   26.4300003      -6.99004872E-08
   26.4899998      -7.02610237E-08
   26.5499992      -7.05263261E-08
   26.6100006      -7.07312751E-08
   26.6700001      -7.09045551E-08
   26.7299995      -7.10577197E-08
   26.7900009      -7.11816668E-08
   26.8500004      -7.12521171E-08
   26.9099998      -7.12417219E-08
   26.9699993      -7.11335346E-08
   27.0300007      -7.09300707E-08
   27.0900002      -7.06539325E-08
   27.1499996      -7.03394676E-08
   27.2099991      -7.00186078E-08
   27.2700005      -6.97065943E-08
   27.3299999      -6.93932591E-08
   27.3899994      -6.90435584E-08
   27.4500008      -6.86072781E-08
   27.5100002      -6.80343888E-08
   27.5699997      -6.72902516E-08
   27.6299992      -6.63651818E-08
   27.6900005      -6.52751382E-08
   27.7500000      -6.40540492E-08
   27.8099995      -6.27412575E-08
   27.8700008      -6.13695761E-08
   27.9300003      -5.99584666E-08
   27.9899998      -5.85146473E-08
   28.0499992      -5.70388572E-08
   28.1100006      -5.55349651E-08
   28.1700001      -5.40165708E-08
   28.2299995      -5.25076587E-08
   28.2900009      -5.10365474E-08
   28.3500004      -4.96256867E-08
   28.4099998      -4.82820575E-08
   28.4699993      -4.69927599E-08
   28.5300007      -4.57285694E-08
   28.5900002      -4.44545698E-08
   28.6499996      -4.31438458E-08
   28.7099991      -4.17886774E-08
   28.7700005      -4.04044904E-08
   28.8299999      -3.90248367E-08
   28.8899994      -3.76895706E-08
   28.9500008      -3.64312314E-08
   29.0100002      -3.52654048E-08
   29.0699997      -3.41887763E-08
   29.1299992      -3.31850316E-08
   29.1900005      -3.22350715E-08
   29.2500000      -3.13261843E-08
   29.3099995      -3.04554746E-08
   29.3700008      -2.96260101E-08
   29.4300003      -2.88376718E-08
   29.4899998      -2.80776167E-08
   29.5499992      -2.73154548E-08
   29.6100006      -2.65061075E-08
   29.6700001      -2.55997872E-08
   29.7299995      -2.45549892E-08
   29.7900009      -2.33489619E-08
   29.8500004      -2.19809948E-08
   29.9099998      -2.04669472E-08
   29.9699993      -1.88273201E-08
   30.0300007      -1.70739849E-08
   30.0900002      -1.52015343E-08
   30.1499996      -1.31873508E-08
   30.2099991      -1.10009717E-08
   30.2700005      -8.61937011E-09
   30.3299999      -6.04217743E-09
   30.3899994      -3.30062755E-09
   30.4500008      -4.56288618E-10
   30.5100002       2.41041809E-09
   30.5699997       5.21798516E-09
   30.6299992       7.90160115E-09
   30.6900005       1.04248601E-08
   30.7500000       1.27818742E-08
   30.8099995       1.49900767E-08
   30.8700008       1.70773937E-08
   30.9300003       1.90691019E-08
   30.9899998       2.09790478E-08
   31.0499992       2.28075141E-08
   31.1100006       2.45450220E-08
   31.1700001       2.61792987E-08
   31.2299995       2.77018462E-08
   31.2900009       2.91115025E-08
   31.3500004       3.04141246E-08
   31.4099998       3.16190416E-08
   31.4699993       3.27340999E-08
   31.5300007       3.37610935E-08
   31.5900002       3.46930129E-08
   31.6499996       3.55137608E-08
   31.7099991       3.62004329E-08
   31.7700005       3.67276378E-08
   31.8299999       3.70729296E-08
   31.8899994       3.72220690E-08
   31.9500008       3.71725619E-08
   32.0099983       3.69343134E-08
   32.0699997       3.65268384E-08
   32.1300011       3.59736383E-08
   32.1899986       3.52955105E-08
   32.2500000       3.45049784E-08
   32.3100014       3.36039676E-08
   32.3699989       3.25857670E-08
   32.4300003       3.14407984E-08
   32.4900017       3.01644185E-08
   32.5499992       2.87642052E-08
   32.6100006       2.72640985E-08
   32.6699982       2.57038320E-08
   32.7299995       2.41332749E-08
   32.7900009       2.26028902E-08
   32.8499985       2.11526299E-08
   32.9099998       1.98022896E-08
   32.9700012       1.85461477E-08
   33.0299988       1.73538783E-08
   33.0900002       1.61780278E-08
   33.1500015       1.49664636E-08
   33.2099991       1.36763232E-08
   33.2700005       1.22851498E-08
   33.3300018       1.07953415E-08
   33.3899994       9.23001942E-09
   33.4500008       7.62140751E-09
   33.5099983       5.99575545E-09
   33.5699997       4.36048087E-09
   33.6300011       2.69872102E-09
   33.6899986       9.73842451E-10
   33.7500000      -8.57467930E-10
   33.8100014      -2.82847079E-09
   33.8699989      -4.94863173E-09
   33.9300003      -7.19847915E-09
   33.9900017      -9.53528190E-09
   34.0499992      -1.19073853E-08
   34.1100006      -1.42715546E-08
   34.1699982      -1.66064300E-08
   34.2299995      -1.89168485E-08
   34.2900009      -2.12274198E-08
   34.3499985      -2.35680009E-08
   34.4099998      -2.59567994E-08
   34.4700012      -2.83875874E-08
   34.5299988      -3.08258876E-08
   34.5900002      -3.32154322E-08
   34.6500015      -3.54924943E-08
   34.7099991      -3.76027494E-08
   34.7700005      -3.95146529E-08
   34.8300018      -4.12247303E-08
   34.8899994      -4.27533280E-08
   34.9500008      -4.41330030E-08
   35.0099983      -4.53944793E-08
   35.0699997      -4.65556873E-08
   35.1300011      -4.76181050E-08
   35.1899986      -4.85712910E-08
   35.2500000      -4.94029813E-08
   35.3100014      -5.01099393E-08
   35.3699989      -5.07044042E-08
   35.4300003      -5.12132239E-08
   35.4900017      -5.16700247E-08
   35.5499992      -5.21040420E-08
   35.6100006      -5.25304564E-08
   35.6699982      -5.29463691E-08
   35.7299995      -5.33338032E-08
   35.7900009      -5.36679927E-08
   35.8499985      -5.39271099E-08
   35.9099998      -5.40994378E-08
   35.9700012      -5.41856018E-08
   36.0299988      -5.41959935E-08
   36.0900002      -5.41455805E-08
   36.1500015      -5.40488614E-08
   36.2099991      -5.39168106E-08
   36.2700005      -5.37560183E-08
   36.3300018      -5.35688258E-08
   36.3899994      -5.33530518E-08
   36.4500008      -5.31006528E-08
   36.5099983      -5.27964090E-08
   36.5699997      -5.24181303E-08
   36.6300011      -5.19400878E-08
   36.6899986      -5.13394163E-08
   36.7500000      -5.06037559E-08
   36.8100014      -4.97371389E-08
   36.8699989      -4.87613967E-08
   36.9300003      -4.77122555E-08
   36.9900017      -4.66314170E-08
   37.0499992      -4.55577798E-08
   37.1100006      -4.45211015E-08
   37.1699982      -4.35401155E-08
   37.2299995      -4.26247801E-08
   37.2900009      -4.17805488E-08
   37.3499985      -4.10117273E-08
   37.4099998      -4.03218507E-08
   37.4700012      -3.97109154E-08
   37.5299988      -3.91712760E-08
   37.5900002      -3.86849344E-08
   37.6500015      -3.82245773E-08
   37.7099991      -3.77590261E-08
   37.7700005      -3.72617279E-08
   37.8300018      -3.67192499E-08
   37.8899994      -3.61365409E-08
   37.9500008      -3.55366581E-08
   38.0099983      -3.49544962E-08
   38.0699997      -3.44265274E-08
   38.1300011      -3.39798483E-08
   38.1899986      -3.36242252E-08
   38.2500000      -3.33498562E-08
   38.3100014      -3.31315384E-08
   38.3699989      -3.29376810E-08
   38.4300003      -3.27409744E-08
   38.4900017      -3.25269802E-08
   38.5499992      -3.22978231E-08
   38.6100006      -3.20699840E-08
   38.6699982      -3.18673905E-08
   38.7299995      -3.17125171E-08
   38.7900009      -3.16186473E-08
   38.8499985      -3.15857349E-08
   38.9099998      -3.16006350E-08
   38.9700012      -3.16408446E-08
   39.0299988      -3.16799635E-08
   39.0900002      -3.16928315E-08
   39.1500015      -3.16590949E-08
   39.2099991      -3.15649373E-08
   39.2700005      -3.14035802E-08
   39.3300018      -3.11753610E-08
   39.3899994      -3.08879571E-08
   39.4500008      -3.05565280E-08
   39.5099983      -3.02030756E-08
   39.5699997      -2.98542737E-08
   39.6300011      -2.95372793E-08
   39.6899986      -2.92740161E-08
   39.7500000      -2.90752418E-08
   39.8100014      -2.89361850E-08
   39.8699989      -2.88355384E-08
   39.9300003      -2.87387110E-08
   39.9900017      -2.86049264E-08
   40.0499992      -2.83964248E-08
   40.1100006      -2.80869834E-08
   40.1699982      -2.76670509E-08
   40.2299995      -2.71437219E-08
   40.2900009      -2.65355986E-08
   40.3499985      -2.58645212E-08
   40.4099998      -2.51472176E-08
   40.4700012      -2.43899603E-08
   40.5299988      -2.35879511E-08
   40.5900002      -2.27291395E-08
   40.6500015      -2.18003908E-08
   40.7099991      -2.07932498E-08
   40.7700005      -1.97070857E-08
   40.8300018      -1.85490432E-08
   40.8899994      -1.73317538E-08
   40.9500008      -1.60706897E-08
   41.0099983      -1.47826000E-08
   41.0699997      -1.34853906E-08
   41.1300011      -1.21983383E-08
   41.1899986      -1.09410960E-08
   41.2500000      -9.73040226E-09
   41.3100014      -8.57486349E-09
   41.3699989      -7.46972795E-09
   41.4300003      -6.39439834E-09
   41.4900017      -5.31493294E-09
   41.5499992      -4.19211776E-09
   41.6100006      -2.99333514E-09
   41.6699982      -1.70448411E-09
   41.7299995      -3.37440020E-10
   41.7900009       1.07048859E-09
   41.8499985       2.46607668E-09
   41.9099998       3.79625043E-09
   41.9700012       5.02534947E-09
   42.0299988       6.14699935E-09
   42.0900002       7.18533455E-09
   42.1500015       8.18400991E-09
   42.2099991       9.18632104E-09
   42.2700005       1.02138697E-08
   42.3300018       1.12526326E-08
   42.3899994       1.22530652E-08
   42.4500008       1.31456126E-08
   42.5099983       1.38665834E-08
   42.5699997       1.43845904E-08
   42.6300011       1.47168331E-08
   42.6899986       1.49279114E-08
   42.7500000       1.51105990E-08
   42.8100014       1.53551571E-08
   42.8699989       1.57185696E-08
   42.9300003       1.62053482E-08
   42.9900017       1.67673271E-08
   43.0499992       1.73225292E-08
   43.1100006       1.77859274E-08
   43.1699982       1.81002022E-08
   43.2299995       1.82547595E-08
   43.2900009       1.82856361E-08
   43.3499985       1.82565163E-08
   43.4099998       1.82283895E-08
   43.4700012       1.82299544E-08
   43.5299988       1.82406446E-08
   43.5900002       1.81932016E-08
   43.6500015       1.79949726E-08
   43.7099991       1.75595591E-08
   43.7700005       1.68363457E-08
   43.8300018       1.58263322E-08
   43.8899994       1.45785517E-08
   43.9500008       1.31693003E-08
   44.0099983       1.16735315E-08
   44.0699997       1.01406288E-08
   44.1300011       8.58440252E-09
   44.1899986       6.99060543E-09
   44.2500000       5.33746558E-09
   44.3100014       3.61914010E-09
   44.3699989       1.86103610E-09
   44.4300003       1.19894816E-10
   44.4900017      -1.53136159E-09
   44.5499992      -3.02702263E-09
   44.6100006      -4.32939995E-09
   44.6699982      -5.43723377E-09
   44.7299995      -6.37729114E-09
   44.7900009      -7.18219528E-09
   44.8499985      -7.86374432E-09
   44.9099998      -8.39322478E-09
   44.9700012      -8.69742411E-09
   45.0299988      -8.67232863E-09
   45.0900002      -8.20869506E-09
   45.1500015      -7.21829974E-09
   45.2099991      -5.64898395E-09
   45.2700005      -3.48116269E-09
   45.3300018      -7.06207870E-10
   45.3899994       2.70531220E-09
   45.4500008       6.83352175E-09
   45.5099983       1.18264643E-08
   45.5699997       1.78998008E-08
   45.6300011       2.53219099E-08
   45.6899986       3.43935689E-08
   45.7500000       4.54333176E-08
   45.8100014       5.87767879E-08
   45.8699989       7.47919415E-08
   45.9300003       9.39058609E-08
   45.9900017       1.16635022E-07
   46.0499992       1.43611118E-07
   46.1100006       1.75598814E-07
   46.1699982       2.13506794E-07
   46.2299995       2.58398046E-07
   46.2900009       3.11506227E-07
   46.3499985       3.74262896E-07
   46.4099998       4.48335300E-07
   46.4700012       5.35670779E-07
   46.5299988       6.38541508E-07
   46.5900002       7.59584509E-07
   46.6500015       9.01834994E-07
   46.7099991       1.06875552E-06
   46.7700005       1.26426767E-06
   46.8300018       1.49279379E-06
   46.8899994       1.75931177E-06
   46.9500008       2.06942536E-06
   47.0099983       2.42944748E-06
   47.0699997       2.84648968E-06
   47.1300011       3.32855598E-06
   47.1899986       3.88463241E-06
   47.2500000       4.52478116E-06
   47.3100014       5.26022768E-06
   47.3699989       6.10345842E-06
   47.4300003       7.06832179E-06
   47.4900017       8.17013733E-06
   47.5499992       9.42580846E-06
   47.6100006       1.08539398E-05
   47.6699982       1.24749531E-05
   47.7299995       1.43111965E-05
   47.7900009       1.63870591E-05
   47.8499985       1.87290752E-05
   47.9099998       2.13660114E-05
   47.9700012       2.43289724E-05
   48.0299988       2.76514820E-05
   48.0900002       3.13695709E-05
   48.1500015       3.55218363E-05
   48.2099991       4.01494908E-05
   48.2700005       4.52963941E-05
   48.3300018       5.10090358E-05
   48.3899994       5.73365032E-05
   48.4500008       6.43304520E-05
   48.5099983       7.20449534E-05
   48.5699997       8.05364325E-05
   48.6300011       8.98635044E-05
   48.6899986       1.00086785E-04
   48.7500000       1.11268702E-04
   48.8100014       1.23473204E-04
   48.8699989       1.36765462E-04
   48.9300003       1.51211556E-04
   48.9900017       1.66877988E-04
   49.0499992       1.83831289E-04
   49.1100006       2.02137468E-04
   49.1699982       2.21861512E-04
   49.2299995       2.43066766E-04
   49.2900009       2.65814364E-04
   49.3499985       2.90162541E-04
   49.4099998       3.16166086E-04
   49.4700012       3.43875407E-04
   49.5299988       3.73335934E-04
   49.5900002       4.04587481E-04
   49.6500015       4.37663228E-04
   49.7099991       4.72589221E-04
   49.7700005       5.09383623E-04
   49.8300018       5.48055803E-04
   49.8899994       5.88606170E-04
   49.9500008       6.31025003E-04
   50.0099983       6.75292395E-04
   50.0699997       7.21377088E-04
   50.1300011       7.69236707E-04
   50.1899986       8.18816770E-04
   50.2500000       8.70051153E-04
   50.3100014       9.22861393E-04
   50.3699989       9.77157266E-04
   50.4300003       1.03283604E-03
   50.4900017       1.08978385E-03
   50.5499992       1.14787498E-03
   50.6100006       1.20697299E-03