 -0.750000000       0.00000000    
 -0.689999998       0.00000000    
 -0.629999995       0.00000000    
 -0.569999993       0.00000000    
 -0.509999990       0.00000000    
 -0.449999988       0.00000000    
 -0.389999986       0.00000000    
 -0.330000013       0.00000000    
 -0.270000011      -1.79305880E-26
 -0.209999993      -1.88413412E-25
 -0.150000006      -9.52773875E-25
  -9.00000036E-02  -2.97197252E-24
  -2.99999993E-02  -5.91738962E-24
   2.99999993E-02  -6.03335572E-24
   9.00000036E-02   4.33337506E-24
  0.150000006       2.85095625E-23
  0.209999993       4.69256465E-23
  0.270000011       9.36810033E-24
  0.330000013      -1.09997768E-22
  0.389999986      -1.50855474E-22
  0.449999988       4.32734105E-22
  0.509999990       2.51514989E-21
  0.569999993       6.51278515E-21
  0.629999995       1.06097190E-20
  0.689999998       8.66473711E-21
  0.750000000      -1.00353503E-20
  0.810000002      -5.59679773E-20
  0.870000005      -1.27464952E-19
  0.930000007      -1.94406999E-19
  0.990000010      -1.87808528E-19
   1.04999995      -1.17142071E-20
   1.11000001       4.08461709E-19
   1.16999996       1.04355876E-18
   1.23000002       1.67618339E-18
   1.28999996       1.87580761E-18
   1.35000002       1.10255379E-18
   1.40999997      -1.02842673E-18
   1.47000003      -4.37725699E-18
   1.52999997      -7.97082819E-18
   1.59000003      -9.99815853E-18
   1.64999998      -8.32029545E-18
   1.71000004      -1.51699889E-18
   1.76999998       9.83106557E-18
   1.83000004       2.22651676E-17
   1.88999999       2.97704155E-17
   1.95000005       2.58474155E-17
   2.00999999       7.14773964E-18
   2.06999993      -2.25961772E-17
   2.13000011      -5.05928710E-17
   2.19000006      -5.74124490E-17
   2.25000000      -2.50713249E-17
   2.30999994       5.06406125E-17
   2.36999989       1.48470238E-16
   2.43000007       2.18106325E-16
   2.49000001       1.91750061E-16
   2.54999995       1.30971990E-17
   2.60999990      -3.22899283E-16
   2.67000008      -7.36024409E-16
   2.73000002      -1.05478546E-15
   2.78999996      -1.05661727E-15
   2.84999990      -5.56238013E-16
   2.91000009       4.81329913E-16
   2.97000003       1.85116891E-15
   3.02999997       3.10008913E-15
   3.08999991       3.63978274E-15
   3.15000010       2.97464651E-15
   3.21000004       9.73394593E-16
   3.26999998      -1.93925462E-15
   3.32999992      -4.80215546E-15
   3.39000010      -6.41877798E-15
   3.45000005      -5.88492022E-15
   3.50999999      -3.14255873E-15
   3.56999993       7.33942931E-16
   3.63000011       3.77915904E-15
   3.69000006       3.97104081E-15
   3.75000000       4.13889177E-16
   3.80999994      -5.67087415E-15
   3.86999989      -1.07940958E-14
   3.93000007      -1.03175381E-14
   3.99000001      -7.21303559E-16
   4.05000019       1.77978766E-14
   4.11000013       3.97233312E-14
   4.17000008       5.48975402E-14
   4.23000002       5.20062543E-14
   4.28999996       2.40605773E-14
   4.34999990      -2.62937899E-14
   4.40999985      -8.44796645E-14
   4.46999979      -1.26928904E-13
   4.53000021      -1.29505212E-13
   4.59000015      -7.89309210E-14
   4.65000010       1.75277121E-14
   4.71000004       1.29373644E-13
   4.76999998       2.10461450E-13
   4.82999992       2.15983305E-13
   4.88999987       1.23238998E-13
   4.94999981      -5.25931498E-14
   5.01000023      -2.56113923E-13
   5.07000017      -4.06757500E-13
   5.13000011      -4.27944437E-13
   5.19000006      -2.79918368E-13
   5.25000000       1.76736067E-14
   5.30999994       3.84994608E-13
   5.36999989       7.06361619E-13
   5.42999983       8.72022506E-13
   5.48999977       8.20638804E-13
   5.55000019       5.63377036E-13
   5.61000013       1.76972735E-13
   5.67000008      -2.33359718E-13
   5.73000002      -5.85253634E-13
   5.78999996      -8.59403531E-13
   5.84999990      -1.10509301E-12
   5.90999985      -1.40147431E-12
   5.96999979      -1.78656720E-12
   6.03000021      -2.18580536E-12
   6.09000015      -2.38021755E-12
   6.15000010      -2.04485018E-12
   6.21000004      -8.61937420E-13
   6.26999998       1.32045395E-12
   6.32999992       4.34123787E-12
   6.38999987       7.65592277E-12
   6.44999981       1.03910136E-11
   6.51000023       1.15316602E-11
   6.57000017       1.02026556E-11
   6.63000011       5.96388694E-12
   6.69000006      -9.72387860E-13
   6.75000000      -9.67678368E-12
   6.80999994      -1.86202252E-11
   6.86999989      -2.59483771E-11
   6.92999983      -2.98433743E-11
   6.98999977      -2.88849240E-11
   7.05000019      -2.23359248E-11
   7.11000013      -1.03132468E-11
   7.17000008       6.15609386E-12
   7.23000002       2.51692504E-11
   7.28999996       4.40515298E-11
   7.34999990       5.95359734E-11
   7.40999985       6.80568310E-11
   7.46999979       6.62080737E-11
   7.53000021       5.13909054E-11
   7.59000015       2.26036065E-11
   7.65000010      -1.87681780E-11
   7.71000004      -6.83870113E-11
   7.76999998      -1.18881308E-10
   7.82999992      -1.60448210E-10
   7.88999987      -1.82204696E-10
   7.94999981      -1.74151818E-10
   8.01000023      -1.29417907E-10
   8.06999969      -4.63100287E-11
   8.13000011       7.03164194E-11
   8.18999958       2.08745438E-10
   8.25000000       3.51290996E-10
   8.31000042       4.76255702E-10
   8.36999989       5.60570368E-10
   8.43000031       5.82577320E-10
   8.48999977       5.24422727E-10
   8.55000019       3.73666320E-10
   8.60999966       1.23958829E-10
   8.67000008      -2.25110902E-10
   8.72999954      -6.68707367E-10
   8.78999996      -1.19762655E-09
   8.85000038      -1.79907267E-09
   8.90999985      -2.45719400E-09
   8.97000027      -3.15341242E-09
   9.02999973      -3.86669941E-09
   9.09000015      -4.57397009E-09
   9.14999962      -5.25071675E-09
   9.21000004      -5.87189097E-09
   9.27000046      -6.41296038E-09
   9.32999992      -6.85102330E-09
   9.39000034      -7.16591453E-09
   9.44999981      -7.34129513E-09
   9.51000023      -7.36578354E-09
   9.56999969      -7.23417592E-09
   9.63000011      -6.94868163E-09
   9.68999958      -6.51996013E-09
   9.75000000      -5.96756466E-09
   9.81000042      -5.31935385E-09
   9.86999989      -4.60950922E-09
   9.93000031      -3.87510113E-09
   9.98999977      -3.15150683E-09
   10.0500002      -2.46741072E-09
   10.1099997      -1.84036586E-09
   10.1700001      -1.27394084E-09
   10.2299995      -7.57227225E-10
   10.2900000      -2.67016576E-10
   10.3500004       2.27614191E-10
   10.4099998       7.59099061E-10
   10.4700003       1.35470435E-09
   10.5299997       2.03062300E-09
   10.5900002       2.78794765E-09
   10.6499996       3.61128571E-09
   10.7100000       4.47033255E-09
   10.7700005       5.32423350E-09
   10.8299999       6.12811091E-09
   10.8900003       6.84074442E-09
   10.9499998       7.43215622E-09
   11.0100002       7.88973065E-09
   11.0699997       8.22164381E-09
   11.1300001       8.45672599E-09
   11.1899996       8.64048211E-09
   11.2500000       8.82774565E-09
   11.3100004       9.07317066E-09
   11.3699999       9.42140499E-09
   11.4300003       9.89896076E-09
   11.4899998       1.05096447E-08
   11.5500002       1.12346887E-08
   11.6099997       1.20376766E-08
   11.6700001       1.28732189E-08
   11.7299995       1.36972984E-08
   11.7900000       1.44766981E-08
   11.8500004       1.51950648E-08
   11.9099998       1.58539954E-08
   11.9700003       1.64689240E-08
   12.0299997       1.70610885E-08
   12.0900002       1.76481816E-08
   12.1499996       1.82366762E-08
   12.2100000       1.88184828E-08
   12.2700005       1.93731751E-08
   12.3299999       1.98751593E-08
   12.3900003       2.03034176E-08
   12.4499998       2.06503721E-08
   12.5100002       2.09265405E-08
   12.5699997       2.11588702E-08
   12.6300001       2.13827906E-08
   12.6899996       2.16301732E-08
   12.7500000       2.19169465E-08
   12.8100004       2.22345129E-08
   12.8699999       2.25480203E-08
   12.9300003       2.28025687E-08
   12.9899998       2.29358683E-08
   13.0500002       2.28939108E-08
   13.1099997       2.26451284E-08
   13.1700001       2.21889493E-08
   13.2299995       2.15562466E-08
   13.2900000       2.08014956E-08
   13.3500004       1.99889492E-08
   13.4099998       1.91768041E-08
   13.4700003       1.84039788E-08
   13.5299997       1.76833606E-08
   13.5900002       1.70034991E-08
   13.6499996       1.63381575E-08
   13.7100000       1.56606692E-08
   13.7700005       1.49584363E-08
   13.8299999       1.42425884E-08
   13.8900003       1.35491103E-08
   13.9499998       1.29303110E-08
   14.0100002       1.24385764E-08
   14.0699997       1.21070753E-08
   14.1300001       1.19334782E-08
   14.1899996       1.18723245E-08
   14.2500000       1.18394228E-08
   14.3100004       1.17282486E-08
   14.3699999       1.14346479E-08
   14.4300003       1.08834710E-08
   14.4899998       1.00498188E-08
   14.5500002       8.96868979E-09
   14.6099997       7.72982478E-09
   14.6700001       6.45844400E-09
   14.7299995       5.28644328E-09
   14.7900000       4.32129221E-09
   14.8500004       3.62066999E-09
   14.9099998       3.17948068E-09
   14.9700003       2.93274027E-09
   15.0299997       2.77367462E-09
   15.0900002       2.58237431E-09
   15.1499996       2.25755059E-09
   15.2100000       1.74309100E-09
   15.2700005       1.04244613E-09
   15.3299999       2.17068238E-10
   15.3900003      -6.30685781E-10
   15.4499998      -1.38561607E-09
   15.5100002      -1.95114547E-09
   15.5699997      -2.27558572E-09
   15.6300001      -2.36585374E-09
   15.6899996      -2.28459984E-09
   15.7500000      -2.13123963E-09
   15.8100004      -2.01194617E-09
   15.8699999      -2.00693528E-09
   15.9300003      -2.14435891E-09
   15.9899998      -2.38843989E-09
   16.0499992      -2.64554068E-09
   16.1100006      -2.78680390E-09
   16.1700001      -2.68131473E-09
   16.2299995      -2.23082997E-09
   16.2900009      -1.39677914E-09
   16.3500004      -2.12520210E-10
   16.4099998       1.22204369E-09
   16.4699993       2.76164891E-09
   16.5300007       4.24677715E-09
   16.5900002       5.53651924E-09
   16.6499996       6.53497478E-09
   16.7099991       7.20505122E-09
   16.7700005       7.56712826E-09
   16.8299999       7.68414576E-09
   16.8899994       7.63822339E-09
   16.9500008       7.50583418E-09
   17.0100002       7.33848982E-09
   17.0699997       7.15375847E-09
   17.1299992       6.93798574E-09
   17.1900005       6.65844224E-09
   17.2500000       6.27991614E-09
   17.3099995       5.77983350E-09
   17.3700008       5.15707210E-09
   17.4300003       4.43222969E-09
   17.4899998       3.64021902E-09
   17.5499992       2.81865198E-09
   17.6100006       1.99666617E-09
   17.6700001       1.18836208E-09
   17.7299995       3.93138105E-10
   17.7900009      -3.97340771E-10
   17.8500004      -1.18815435E-09
   17.9099998      -1.97013139E-09
   17.9699993      -2.71289902E-09
   18.0300007      -3.36475048E-09
   18.0900002      -3.85994037E-09
   18.1499996      -4.13165191E-09
   18.2099991      -4.12704804E-09
   18.2700005      -3.82008514E-09
   18.3299999      -3.21833871E-09
   18.3899994      -2.36179076E-09
   18.4500008      -1.31384648E-09
   18.5100002      -1.47055479E-10
   18.5699997       1.07254761E-09
   18.6299992       2.29829378E-09
   18.6900005       3.50967122E-09
   18.7500000       4.71165107E-09
   18.8099995       5.92728489E-09
   18.8700008       7.18614190E-09
   18.9300003       8.51217674E-09
   18.9899998       9.91452076E-09
   19.0499992       1.13836096E-08
   19.1100006       1.28932935E-08
   19.1700001       1.44076546E-08
   19.2299995       1.58898494E-08
   19.2900009       1.73096844E-08
   19.3500004       1.86472864E-08
   19.4099998       1.98916084E-08
   19.4699993       2.10346283E-08
   19.5300007       2.20636540E-08
   19.5900002       2.29551187E-08
   19.6499996       2.36727189E-08
   19.7099991       2.41712250E-08
   19.7700005       2.44051659E-08
   19.8299999       2.43396219E-08
   19.8899994       2.39595348E-08
   19.9500008       2.32743442E-08
   20.0100002       2.23163639E-08
   20.0699997       2.11335234E-08
   20.1299992       1.97788879E-08
   20.1900005       1.83002626E-08
   20.2500000       1.67328960E-08
   20.3099995       1.50969495E-08
   20.3700008       1.33997160E-08
   20.4300003       1.16411183E-08
   20.4899998       9.82024773E-09
   20.5499992       7.94081423E-09
   20.6100006       6.01415273E-09
   20.6700001       4.05948830E-09
   20.7299995       2.10217332E-09
   20.7900009       1.71102091E-10
   20.8500004      -1.70347225E-09
   20.9099998      -3.49100482E-09
   20.9699993      -5.16063814E-09
   21.0300007      -6.68076749E-09
   21.0900002      -8.01918087E-09
   21.1499996      -9.14455178E-09
   21.2099991      -1.00294564E-08
   21.2700005      -1.06542926E-08
   21.3299999      -1.10108802E-08
   21.3899994      -1.11043432E-08
   21.4500008      -1.09523022E-08
   21.5100002      -1.05812026E-08
   21.5699997      -1.00205844E-08
   21.6299992      -9.29685573E-09
   21.6900005      -8.42841530E-09
   21.7500000      -7.42369899E-09
   21.8099995      -6.28288443E-09
   21.8700008      -5.00296204E-09
   21.9300003      -3.58476338E-09
   21.9899998      -2.03986561E-09
   22.0499992      -3.95154159E-10
   22.1100006       1.30660904E-09
   22.1700001       3.01073433E-09
   22.2299995       4.65823646E-09
   22.2900009       6.19515728E-09
   22.3500004       7.58103180E-09
   22.4099998       8.79419026E-09
   22.4699993       9.83255166E-09
   22.5300007       1.07098908E-08
   22.5900002       1.14488037E-08
   22.6499996       1.20723360E-08
   22.7099991       1.25964110E-08
   22.7700005       1.30247706E-08
   22.8299999       1.33473845E-08
   22.8899994       1.35425280E-08
   22.9500008       1.35819702E-08
   23.0100002       1.34381741E-08
   23.0699997       1.30919737E-08
   23.1299992       1.25389485E-08
   23.1900005       1.17928280E-08
   23.2500000       1.08847011E-08
   23.3099995       9.85774751E-09
   23.3700008       8.75836825E-09
   23.4300003       7.62569474E-09
   23.4899998       6.48211573E-09
   23.5499992       5.32735012E-09
   23.6100006       4.13778523E-09
   23.6700001       2.87144108E-09
   23.7299995       1.47748558E-09
   23.7900009      -9.18673054E-11
   23.8500004      -1.86975924E-09
   23.9099998      -3.86591292E-09
   23.9699993      -6.06250428E-09
   24.0300007      -8.41547720E-09
   24.0900002      -1.08609948E-08
   24.1499996      -1.33257041E-08
   24.2099991      -1.57387383E-08
   24.2700005      -1.80430675E-08
   24.3299999      -2.02039576E-08
   24.3899994      -2.22129106E-08
   24.4500008      -2.40865266E-08
   24.5100002      -2.58607340E-08
   24.5699997      -2.75819101E-08
   24.6299992      -2.92969116E-08
   24.6900005      -3.10440527E-08
   24.7500000      -3.28468062E-08
   24.8099995      -3.47111317E-08
   24.8700008      -3.66266519E-08
   24.9300003      -3.85709633E-08
   24.9899998      -4.05158929E-08
   25.0499992      -4.24340456E-08
   25.1100006      -4.43040840E-08
   25.1700001      -4.61135059E-08
   25.2299995      -4.78584141E-08
   25.2900009      -4.95405317E-08
   25.3500004      -5.11625196E-08
   25.4099998      -5.27229638E-08
   25.4699993      -5.42125527E-08
   25.5300007      -5.56124746E-08
   25.5900002      -5.68955585E-08
   25.6499996      -5.80299648E-08
   25.7099991      -5.89846962E-08
   25.7700005      -5.97357399E-08
   25.8299999      -6.02715602E-08
   25.8899994      -6.05965127E-08
   25.9500008      -6.07314448E-08
   26.0100002      -6.07107964E-08
   26.0699997      -6.05769088E-08
   26.1299992      -6.03723862E-08
   26.1900005      -6.01324359E-08
   26.2500000      -5.98787011E-08
   26.3099995      -5.96161556E-08
   26.3700008      -5.93334732E-08
   26.4300003      -5.90068012E-08
   26.4899998      -5.86059770E-08
   26.5499992      -5.81019499E-08
   26.6100006      -5.74740255E-08
   26.6700001      -5.67157059E-08
   26.7299995      -5.58380293E-08
   26.7900009      -5.48695986E-08
   26.8500004      -5.38529505E-08
   26.9099998      -5.28375423E-08
   26.9699993      -5.18704866E-08
   27.0300007      -5.09870226E-08
   27.0900002      -5.02030666E-08
   27.1499996      -4.95120283E-08
   27.2099991      -4.88868821E-08
   27.2700005      -4.82871840E-08
   27.3299999      -4.76689195E-08
   27.3899994      -4.69942449E-08
   27.4500008      -4.62381955E-08
   27.5100002      -4.53904754E-08
   27.5699997      -4.44523458E-08
   27.6299992      -4.34302336E-08
   27.6900005      -4.23290594E-08
   27.7500000      -4.11481729E-08
   27.8099995      -3.98817441E-08
   27.8700008      -3.85237868E-08
   27.9300003      -3.70760453E-08
   27.9899998      -3.55558072E-08
   28.0499992      -3.40005109E-08
   28.1100006      -3.24669962E-08
   28.1700001      -3.10248041E-08
   28.2299995      -2.97448750E-08
   28.2900009      -2.86864861E-08
   28.3500004      -2.78858572E-08
   28.4099998      -2.73494631E-08
   28.4699993      -2.70538774E-08
   28.5300007      -2.69521436E-08
   28.5900002      -2.69849547E-08
   28.6499996      -2.70935931E-08
   28.7099991      -2.72312040E-08
   28.7700005      -2.73694827E-08
   28.8299999      -2.74992775E-08
   28.8899994      -2.76254397E-08
   28.9500008      -2.77580003E-08
   29.0100002      -2.79028924E-08
   29.0699997      -2.80554691E-08
   29.1299992      -2.81990182E-08
   29.1900005      -2.83087154E-08
   29.2500000      -2.83593753E-08
   29.3099995      -2.83340569E-08
   29.3700008      -2.82301844E-08
   29.4300003      -2.80607679E-08
   29.4899998      -2.78501187E-08
   29.5499992      -2.76254895E-08
   29.6100006      -2.74074790E-08
   29.6700001      -2.72025176E-08
   29.7299995      -2.69999791E-08
   29.7900009      -2.67748970E-08
   29.8500004      -2.64953801E-08
   29.9099998      -2.61324899E-08
   29.9699993      -2.56695767E-08
   30.0300007      -2.51083812E-08
   30.0900002      -2.44701592E-08
   30.1499996      -2.37914772E-08
   30.2099991      -2.31156410E-08
   30.2700005      -2.24818688E-08
   30.3299999      -2.19148504E-08
   30.3899994      -2.14173106E-08
   30.4500008      -2.09675175E-08
   30.5100002      -2.05225188E-08
   30.5699997      -2.00263628E-08
   30.6299992      -1.94211971E-08
   30.6900005      -1.86582785E-08
   30.7500000      -1.77057586E-08
   30.8099995      -1.65511338E-08
   30.8700008      -1.51977968E-08
   30.9300003      -1.36571670E-08
   30.9899998      -1.19393881E-08
   31.0499992      -1.00461532E-08
   31.1100006      -7.96855915E-09
   31.1700001      -5.69103564E-09
   31.2299995      -3.20012505E-09
   31.2900009      -4.94907504E-10
   31.3500004       2.40495757E-09
   31.4099998       5.45694556E-09
   31.4699993       8.60053007E-09
   31.5300007       1.17680035E-08
   31.5900002       1.48977799E-08
   31.6499996       1.79456645E-08
   31.7099991       2.08900897E-08
   31.7700005       2.37293598E-08
   31.8299999       2.64716284E-08
   31.8899994       2.91210007E-08
   31.9500008       3.16645128E-08
   32.0099983       3.40646729E-08
   32.0699997       3.62605270E-08
   32.1300011       3.81774399E-08
   32.1899986       3.97430142E-08
   32.2500000       4.09044034E-08
   32.3100014       4.16418011E-08
   32.3699989       4.19738626E-08
   32.4300003       4.19533706E-08
   32.4900017       4.16542498E-08
   32.5499992       4.11538466E-08
   32.6100006       4.05156690E-08
   32.6699982       3.97775857E-08
   32.7299995       3.89485741E-08
   32.7900009       3.80144449E-08
   32.8499985       3.69499276E-08
   32.9099998       3.57328034E-08
   32.9700012       3.43552173E-08
   33.0299988       3.28287193E-08
   33.0900002       3.11820116E-08
   33.1500015       2.94530231E-08
   33.2099991       2.76789436E-08
   33.2700005       2.58881041E-08
   33.3300018       2.40966767E-08
   33.3899994       2.23108554E-08
   33.4500008       2.05329744E-08
   33.5099983       1.87685316E-08
   33.5699997       1.70309846E-08
   33.6300011       1.53422359E-08
   33.6899986       1.37286387E-08
   33.7500000       1.22139685E-08
   33.8100014       1.08118545E-08
   33.8699989       9.52006296E-09
   33.9300003       8.31824121E-09
   33.9900017       7.16956450E-09
   34.0499992       6.02571459E-09
   34.1100006       4.83402651E-09
   34.1699982       3.54542751E-09
   34.2299995       2.12188289E-09
   34.2900009       5.42217493E-10
   34.3499985      -1.19462296E-09
   34.4099998      -3.06953352E-09
   34.4700012      -5.04667641E-09
   34.5299988      -7.07998415E-09
   34.5900002      -9.12165365E-09
   34.6500015      -1.11309735E-08
   34.7099991      -1.30815536E-08
   34.7700005      -1.49653197E-08
   34.8300018      -1.67923329E-08
   34.8899994      -1.85865634E-08
   34.9500008      -2.03787849E-08
   35.0099983      -2.21985417E-08
   35.0699997      -2.40673508E-08
   35.1300011      -2.59948667E-08
   35.1899986      -2.79788228E-08
   35.2500000      -3.00083407E-08
   35.3100014      -3.20692521E-08
   35.3699989      -3.41494761E-08
   35.4300003      -3.62425752E-08
   35.4900017      -3.83484533E-08
   35.5499992      -4.04710825E-08
   35.6100006      -4.26142179E-08
   35.6699982      -4.47767903E-08
   35.7299995      -4.69496229E-08
   35.7900009      -4.91147176E-08
   35.8499985      -5.12474188E-08
   35.9099998      -5.33207221E-08
   35.9700012      -5.53103021E-08
   36.0299988      -5.71985410E-08
   36.0900002      -5.89762905E-08
   36.1500015      -6.06417032E-08
   36.2099991      -6.21967615E-08
   36.2700005      -6.36427018E-08
   36.3300018      -6.49759855E-08
   36.3899994      -6.61861392E-08
   36.4500008      -6.72561313E-08
   36.5099983      -6.81649368E-08
   36.5699997      -6.88915378E-08
   36.6300011      -6.94190234E-08
   36.6899986      -6.97378724E-08
   36.7500000      -6.98479425E-08
   36.8100014      -6.97589471E-08
   36.8699989      -6.94897793E-08
   36.9300003      -6.90669495E-08
   36.9900017      -6.85224677E-08
   37.0499992      -6.78914418E-08
   37.1100006      -6.72096263E-08
   37.1699982      -6.65112694E-08
   37.2299995      -6.58273649E-08
   37.2900009      -6.51844587E-08
   37.3499985      -6.46039169E-08
   37.4099998      -6.41014708E-08
   37.4700012      -6.36865138E-08
   37.5299988      -6.33612132E-08
   37.5900002      -6.31193728E-08
   37.6500015      -6.29454391E-08
   37.7099991      -6.28143155E-08
   37.7700005      -6.26926351E-08
   37.8300018      -6.25419148E-08
   37.8899994      -6.23234087E-08
   37.9500008      -6.20043110E-08
   38.0099983      -6.15638740E-08
   38.0699997      -6.09982109E-08
   38.1300011      -6.03222574E-08
   38.1899986      -5.95680412E-08
   38.2500000      -5.87794773E-08
   38.3100014      -5.80045096E-08
   38.3699989      -5.72867371E-08
   38.4300003      -5.66585641E-08
   38.4900017      -5.61377860E-08
   38.5499992      -5.57283641E-08
   38.6100006      -5.54247812E-08
   38.6699982      -5.52183010E-08
   38.7299995      -5.51027775E-08
   38.7900009      -5.50778978E-08
   38.8499985      -5.51488846E-08
   38.9099998      -5.53228610E-08
   38.9700012      -5.56035253E-08
   39.0299988      -5.59861917E-08
   39.0900002      -5.64551073E-08
   39.1500015      -5.69840743E-08
   39.2099991      -5.75400954E-08
   39.2700005      -5.80888297E-08
   39.3300018      -5.86001647E-08
   39.3899994      -5.90523435E-08
   39.4500008      -5.94337344E-08
   39.5099983      -5.97421348E-08
   39.5699997      -5.99820922E-08
   39.6300011      -6.01611987E-08
   39.6899986      -6.02863253E-08
   39.7500000      -6.03607475E-08
   39.8100014      -6.03826678E-08
   39.8699989      -6.03454993E-08
   39.9300003      -6.02397918E-08
   39.9900017      -6.00563155E-08
   40.0499992      -5.97894356E-08
   40.1100006      -5.94397598E-08
   40.1699982      -5.90153348E-08
   40.2299995      -5.85307021E-08
   40.2900009      -5.80041615E-08
   40.3499985      -5.74538426E-08
   40.4099998      -5.68937502E-08
   40.4700012      -5.63309683E-08
   40.5299988      -5.57647901E-08
   40.5900002      -5.51880106E-08
   40.6500015      -5.45897656E-08
   40.7099991      -5.39588214E-08
   40.7700005      -5.32860049E-08
   40.8300018      -5.25649249E-08
   40.8899994      -5.17907139E-08
   40.9500008      -5.09574960E-08
   41.0099983      -5.00558954E-08
   41.0699997      -4.90719714E-08
   41.1300011      -4.79887419E-08
   41.1899986      -4.67902872E-08
   41.2500000      -4.54676261E-08
   41.3100014      -4.40245174E-08
   41.3699989      -4.24812150E-08
   41.4300003      -4.08745215E-08
   41.4900017      -3.92533330E-08
   41.5499992      -3.76704108E-08
   41.6100006      -3.61720716E-08
   41.6699982      -3.47884708E-08
   41.7299995      -3.35270087E-08
   41.7900009      -3.23707638E-08
   41.8499985      -3.12824646E-08
   41.9099998      -3.02130836E-08
   41.9700012      -2.91128135E-08
   42.0299988      -2.79417609E-08
   42.0900002      -2.66779274E-08
   42.1500015      -2.53208690E-08
   42.2099991      -2.38906992E-08
   42.2700005      -2.24231584E-08
   42.3300018      -2.09622257E-08
   42.3899994      -1.95519458E-08
   42.4500008      -1.82291711E-08
   42.5099983      -1.70184524E-08
   42.5699997      -1.59299258E-08
   42.6300011      -1.49604826E-08
   42.6899986      -1.40978980E-08
   42.7500000      -1.33268188E-08
   42.8100014      -1.26350432E-08
   42.8699989      -1.20181216E-08
   42.9300003      -1.14806449E-08
   42.9900017      -1.10334293E-08
   43.0499992      -1.06871800E-08
   43.1100006      -1.04446096E-08
   43.1699982      -1.02939044E-08
   43.2299995      -1.02063966E-08
   43.2900009      -1.01401030E-08
   43.3499985      -1.00488249E-08
   43.4099998      -9.89433513E-09
   43.4700012      -9.65774927E-09
   43.5299988      -9.34611855E-09
   43.5900002      -8.99168917E-09
   43.6500015      -8.64376659E-09
   43.7099991      -8.35566194E-09
   43.7700005      -8.17092083E-09
   43.8300018      -8.11318657E-09
   43.8899994      -8.18266344E-09
   43.9500008      -8.35985237E-09
   44.0099983      -8.61476046E-09
   44.0699997      -8.91820928E-09
   44.1300011      -9.25143517E-09
   44.1899986      -9.61110658E-09
   44.2500000      -1.00084856E-08
   44.3100014      -1.04634514E-08
   44.3699989      -1.09955982E-08
   44.4300003      -1.16154606E-08
   44.4900017      -1.23186918E-08
   44.5499992      -1.30850832E-08
   44.6100006      -1.38827509E-08
   44.6699982      -1.46762185E-08
   44.7299995      -1.54359636E-08
   44.7900009      -1.61465685E-08
   44.8499985      -1.68111285E-08
   44.9099998      -1.74507289E-08
   44.9700012      -1.80993531E-08
   45.0299988      -1.87958520E-08
   45.0900002      -1.95754239E-08
   45.1500015      -2.04630410E-08
   45.2099991      -2.14705516E-08
   45.2700005      -2.25980727E-08
   45.3300018      -2.38389521E-08
   45.3899994      -2.51866954E-08
   45.4500008      -2.66418709E-08
   45.5099983      -2.82172969E-08
   45.5699997      -2.99408001E-08
   45.6300011      -3.18557660E-08
   45.6899986      -3.40205233E-08
   45.7500000      -3.65076467E-08
   45.8100014      -3.94039397E-08
   45.8699989      -4.28109779E-08
   45.9300003      -4.68457415E-08
   45.9900017      -5.16407788E-08
   46.0499992      -5.73438861E-08
   46.1100006      -6.41179767E-08
   46.1699982      -7.21422495E-08
   46.2299995      -8.16156387E-08
   46.2900009      -9.27627468E-08
   46.3499985      -1.05841643E-07
   46.4099998      -1.21152524E-07
   46.4700012      -1.39046023E-07
   46.5299988      -1.59930792E-07
   46.5900002      -1.84280410E-07
   46.6500015      -2.12640771E-07
   46.7099991      -2.45638375E-07
   46.7700005      -2.83990687E-07
   46.8300018      -3.28518212E-07
   46.8899994      -3.80157360E-07
   46.9500008      -4.39974031E-07
   47.0099983      -5.09175834E-07
   47.0699997      -5.89124340E-07
   47.1300011      -6.81346080E-07
   47.1899986      -7.87545446E-07
   47.2500000      -9.09618905E-07
   47.3100014      -1.04967273E-06
   47.3699989      -1.21004280E-06
   47.4300003      -1.39331610E-06
   47.4900017      -1.60235447E-06
   47.5499992      -1.84031671E-06
   47.6100006      -2.11068095E-06
   47.6699982      -2.41726548E-06
   47.7299995      -2.76425112E-06
   47.7900009      -3.15620241E-06
   47.8499985      -3.59808632E-06
   47.9099998      -4.09529002E-06
   47.9700012      -4.65363337E-06
   48.0299988      -5.27938073E-06
   48.0900002      -5.97925145E-06
   48.1500015      -6.76043055E-06
   48.2099991      -7.63057596E-06
   48.2700005      -8.59783177E-06
   48.3300018      -9.67083088E-06
   48.3899994      -1.08586928E-05
   48.4500008      -1.21710236E-05
   48.5099983      -1.36178887E-05
   48.5699997      -1.52097882E-05
   48.6300011      -1.69576215E-05
   48.6899986      -1.88726444E-05
   48.7500000      -2.09664177E-05
   48.8100014      -2.32507591E-05
   48.8699989      -2.57376760E-05
   48.9300003      -2.84393118E-05
   48.9900017      -3.13678720E-05
   49.0499992      -3.45355438E-05
   49.1100006      -3.79544181E-05
   49.1699982      -4.16363655E-05
   49.2299995      -4.55929658E-05
   49.2900009      -4.98353547E-05
   49.3499985      -5.43741298E-05
   49.4099998      -5.92192046E-05
   49.4700012      -6.43796957E-05
   49.5299988      -6.98637523E-05
   49.5900002      -7.56784793E-05
   49.6500015      -8.18296976E-05
   49.7099991      -8.83219109E-05
   49.7700005      -9.51581314E-05
   49.8300018      -1.02339756E-04
   49.8899994      -1.09866422E-04
   49.9500008      -1.17735959E-04
   50.0099983      -1.25944251E-04
   50.0699997      -1.34485119E-04
   50.1300011      -1.43350291E-04
   50.1899986      -1.52529348E-04
   50.2500000      -1.62009615E-04
   50.3100014      -1.71776250E-04
   50.3699989      -1.81812182E-04
   50.4300003      -1.92098130E-04
   50.4900017      -2.02612689E-04
   50.5499992      -2.13332358E-04
   50.6100006      -2.24231728E-04