  -2.400000      0.0000000E+00
  -2.340000      0.0000000E+00
  -2.280000      0.0000000E+00
  -2.220000      0.0000000E+00
  -2.160000      0.0000000E+00
  -2.100000      0.0000000E+00
  -2.040000      0.0000000E+00
  -1.980000      0.0000000E+00
  -1.920000      0.0000000E+00
  -1.860000      1.2442057E-27
  -1.800000      1.5534759E-26
  -1.740000      9.1840364E-26
  -1.680000      3.2048308E-25
  -1.620000      5.9943040E-25
  -1.560000     -2.6964104E-25
  -1.500000     -6.2469043E-24
  -1.440000     -2.4580511E-23
  -1.380000     -5.9445181E-23
  -1.320000     -9.0850132E-23
  -1.260000     -3.9711144E-23
  -1.200000      2.5141568E-22
  -1.140000      9.5139432E-22
  -1.080000      2.0057795E-21
  -1.020000      2.7436436E-21
 -0.9600000      1.5712982E-21
 -0.9000000     -3.7102322E-21
 -0.8400000     -1.4370864E-20
 -0.7800000     -2.7977439E-20
 -0.7200000     -3.5697748E-20
 -0.6600000     -2.2549399E-20
 -0.6000000      2.6203555E-20
 -0.5400000      1.1182410E-19
 -0.4800000      2.0710634E-19
 -0.4200000      2.5113069E-19
 -0.3600000      1.6699345E-19
 -0.3000000     -9.3006424E-20
 -0.2400000     -4.9007778E-19
 -0.1800000     -8.6681719E-19
 -0.1200000     -9.8373240E-19
 -5.9999999E-02 -6.4140546E-19
  0.0000000E+00  1.5416652E-19
  5.9999999E-02  1.0896053E-18
  0.1200000      1.6290283E-18
  0.1800000      1.3327660E-18
  0.2400000      2.8981860E-19
  0.3000000     -6.3276882E-19
  0.3600000     -6.5226927E-20
  0.4200000      2.9334304E-18
  0.4800000      7.6142323E-18
  0.5400000      1.0769375E-17
  0.6000000      7.4413052E-18
  0.6600000     -6.4067343E-18
  0.7200000     -2.9966454E-17
  0.7800000     -5.4515259E-17
  0.8400000     -6.4013231E-17
  0.9000000     -4.1273768E-17
  0.9600000      2.1157490E-17
   1.020000      1.1002106E-16
   1.080000      1.8753680E-16
   1.140000      2.0130220E-16
   1.200000      1.0900567E-16
   1.260000     -8.9840847E-17
   1.320000     -3.3134971E-16
   1.380000     -4.9246400E-16
   1.440000     -4.3459151E-16
   1.500000     -7.8297820E-17
   1.560000      5.2011830E-16
   1.620000      1.1336553E-15
   1.680000      1.4100892E-15
   1.740000      1.0081196E-15
   1.800000     -2.1151149E-16
   1.860000     -2.0198636E-15
   1.920000     -3.7762935E-15
   1.980000     -4.5775422E-15
   2.040000     -3.5952902E-15
   2.100000     -5.0120300E-16
   2.160000      4.1982430E-15
   2.220000      9.1062488E-15
   2.280000      1.2269904E-14
   2.340000      1.1859961E-14
   2.400000      6.9776186E-15
   2.460000     -1.7441140E-15
   2.520000     -1.2060499E-14
   2.580000     -2.0703120E-14
   2.640000     -2.4507042E-14
   2.700000     -2.1675456E-14
   2.760000     -1.2641216E-14
   2.820000     -7.3161961E-17
   2.880000      1.2104705E-14
   2.940000      2.0368071E-14
   3.000000      2.3226787E-14
   3.060000      2.2023717E-14
   3.120000      2.0334401E-14
   3.180000      2.1986178E-14
   3.240000      2.8418843E-14
   3.300000      3.6624431E-14
   3.360000      3.8942865E-14
   3.420000      2.5426508E-14
   3.480000     -1.1560809E-14
   3.540000     -7.2010018E-14
   3.600000     -1.4448977E-13
   3.660000     -2.0619993E-13
   3.720000     -2.2811798E-13
   3.780000     -1.8468456E-13
   3.840000     -6.5406603E-14
   3.900000      1.1579095E-13
   3.960000      3.1791843E-13
   4.020000      4.8002525E-13
   4.080000      5.3810808E-13
   4.140000      4.4803278E-13
   4.200000      2.0723619E-13
   4.260000     -1.3361399E-13
   4.320000     -4.7639730E-13
   4.380000     -7.0137310E-13
   4.440000     -7.0845288E-13
   4.500000     -4.6178247E-13
   4.560000     -2.0661021E-14
   4.620000      4.5956630E-13
   4.680000      7.6559375E-13
   4.740000      6.9901848E-13
   4.800000      1.6464858E-13
   4.860000     -7.5660718E-13
   4.920000     -1.7834650E-12
   4.980000     -2.4817407E-12
   5.040000     -2.3852222E-12
   5.100000     -1.1644467E-12
   5.160000      1.2057791E-12
   5.220000      4.3399694E-12
   5.280000      7.4479173E-12
   5.340000      9.4762436E-12
   5.400000      9.3682171E-12
   5.460000      6.3835734E-12
   5.520000      3.9255391E-13
   5.580000     -7.9455401E-12
   5.640000     -1.7185722E-11
   5.700000     -2.5304354E-11
   5.760000     -3.0077680E-11
   5.820000     -2.9552600E-11
   5.880000     -2.2504085E-11
   5.940000     -8.7755428E-12
   6.000000      1.0572129E-11
   6.060000      3.3329117E-11
   6.120000      5.6397016E-11
   6.180000      7.6173561E-11
   6.240000      8.8975459E-11
   6.300000      9.1421939E-11
   6.360000      8.0735731E-11
   6.420000      5.4966975E-11
   6.480000      1.3193524E-11
   6.540000     -4.4220964E-11
   6.600000     -1.1523457E-10
   6.660000     -1.9556966E-10
   6.720000     -2.7803723E-10
   6.780000     -3.5188041E-10
   6.840000     -4.0234355E-10
   6.900000     -4.1069362E-10
   6.960000     -3.5487271E-10
   7.020000     -2.1084305E-10
   7.080000      4.5465732E-11
   7.140000      4.3584350E-10
   7.200000      9.7744945E-10
   7.260000      1.6807603E-09
   7.320000      2.5480733E-09
   7.380000      3.5726901E-09
   7.440000      4.7387658E-09
   7.500000      6.0217200E-09
   7.560000      7.3890716E-09
   7.620000      8.8016217E-09
   7.680000      1.0214956E-08
   7.740000      1.1581340E-08
   7.800000      1.2852047E-08
   7.860000      1.3980125E-08
   7.920000      1.4923483E-08
   7.980000      1.5648013E-08
   8.040000      1.6130329E-08
   8.100000      1.6359675E-08
   8.160000      1.6338513E-08
   8.220000      1.6081541E-08
   8.280000      1.5613036E-08
   8.340000      1.4962806E-08
   8.400000      1.4161340E-08
   8.460000      1.3234998E-08
   8.520000      1.2202199E-08
   8.580000      1.1071443E-08
   8.640000      9.8416963E-09
   8.700000      8.5051211E-09
   8.760000      7.0515900E-09
   8.820000      5.4739404E-09
   8.880000      3.7726928E-09
   8.940000      1.9590602E-09
   9.000000      5.5480960E-11
   9.060000     -1.9064521E-09
   9.120000     -3.8901486E-09
   9.180000     -5.8592065E-09
   9.240000     -7.7823525E-09
   9.300000     -9.6369916E-09
   9.360000     -1.1410624E-08
   9.420000     -1.3100017E-08
   9.480000     -1.4708605E-08
   9.540000     -1.6243005E-08
   9.600000     -1.7709748E-08
   9.660000     -1.9113067E-08
   9.720000     -2.0454269E-08
   9.780000     -2.1732642E-08
   9.840000     -2.2947308E-08
   9.900000     -2.4099222E-08
   9.960000     -2.5192435E-08
   10.02000     -2.6234037E-08
   10.08000     -2.7232661E-08
   10.14000     -2.8195959E-08
   10.20000     -2.9127820E-08
   10.26000     -3.0026250E-08
   10.32000     -3.0882632E-08
   10.38000     -3.1682671E-08
   10.44000     -3.2408707E-08
   10.50000     -3.3042671E-08
   10.56000     -3.3568710E-08
   10.62000     -3.3974523E-08
   10.68000     -3.4251020E-08
   10.74000     -3.4390503E-08
   10.80000     -3.4384108E-08
   10.86000     -3.4219795E-08
   10.92000     -3.3882042E-08
   10.98000     -3.3353977E-08
   11.04000     -3.2621806E-08
   11.10000     -3.1680575E-08
   11.16000     -3.0539468E-08
   11.22000     -2.9224751E-08
   11.28000     -2.7778796E-08
   11.34000     -2.6254732E-08
   11.40000     -2.4707470E-08
   11.46000     -2.3183201E-08
   11.52000     -2.1710074E-08
   11.58000     -2.0292802E-08
   11.64000     -1.8912999E-08
   11.70000     -1.7535573E-08
   11.76000     -1.6119763E-08
   11.82000     -1.4632057E-08
   11.88000     -1.3057489E-08
   11.94000     -1.1406177E-08
   12.00000     -9.7131325E-09
   12.06000     -8.0311864E-09
   12.12000     -6.4187820E-09
   12.18000     -4.9258770E-09
   12.24000     -3.5817984E-09
   12.30000     -2.3884588E-09
   12.36000     -1.3209294E-09
   12.42000     -3.3532724E-10
   12.48000      6.1811212E-10
   12.54000      1.5804461E-09
   12.60000      2.5721372E-09
   12.66000      3.5874042E-09
   12.72000      4.5966191E-09
   12.78000      5.5562297E-09
   12.84000      6.4234400E-09
   12.90000      7.1714195E-09
   12.96000      7.8005424E-09
   13.02000      8.3422753E-09
   13.08000      8.8544008E-09
   13.14000      9.4088186E-09
   13.20000      1.0075238E-08
   13.26000      1.0905254E-08
   13.32000      1.1921070E-08
   13.38000      1.3111675E-08
   13.44000      1.4437076E-08
   13.50000      1.5838889E-08
   13.56000      1.7253926E-08
   13.62000      1.8626825E-08
   13.68000      1.9918408E-08
   13.74000      2.1108056E-08
   13.80000      2.2190290E-08
   13.86000      2.3167555E-08
   13.92000      2.4042148E-08
   13.98000      2.4810189E-08
   14.04000      2.5459659E-08
   14.10000      2.5972920E-08
   14.16000      2.6332696E-08
   14.22000      2.6529236E-08
   14.28000      2.6566052E-08
   14.34000      2.6462040E-08
   14.40000      2.6248832E-08
   14.46000      2.5963788E-08
   14.52000      2.5640308E-08
   14.58000      2.5298297E-08
   14.64000      2.4937709E-08
   14.70000      2.4537551E-08
   14.76000      2.4061254E-08
   14.82000      2.3467514E-08
   14.88000      2.2723826E-08
   14.94000      2.1818929E-08
   15.00000      2.0770269E-08
   15.06000      1.9623872E-08
   15.12000      1.8446164E-08
   15.18000      1.7309659E-08
   15.24000      1.6276383E-08
   15.30000      1.5383499E-08
   15.36000      1.4635043E-08
   15.42000      1.4001665E-08
   15.48000      1.3428066E-08
   15.54000      1.2845728E-08
   15.60000      1.2187459E-08
   15.66000      1.1400272E-08
   15.72000      1.0454095E-08
   15.78000      9.3452366E-09
   15.84000      8.0948475E-09
   15.90000      6.7436892E-09
   15.96000      5.3448845E-09
   16.02000      3.9563921E-09
   16.08000      2.6346407E-09
   16.14000      1.4302846E-09
   16.20000      3.8648856E-10
   16.26000     -4.6051990E-10
   16.32000     -1.0794786E-09
   16.38000     -1.4419513E-09
   16.44000     -1.5213001E-09
   16.50000     -1.2935697E-09
   16.56000     -7.4027912E-10
   16.62000      1.4782164E-10
   16.68000      1.3675744E-09
   16.74000      2.9023830E-09
   16.80000      4.7242374E-09
   16.86000      6.7985839E-09
   16.92000      9.0907113E-09
   16.98000      1.1571621E-08
   17.04000      1.4221430E-08
   17.10000      1.7029123E-08
   17.16000      1.9988732E-08
   17.22000      2.3093275E-08
   17.28000      2.6328539E-08
   17.34000      2.9668888E-08
   17.40000      3.3076628E-08
   17.46000      3.6505313E-08
   17.52000      3.9906073E-08
   17.58000      4.3235119E-08
   17.64000      4.6460087E-08
   17.70000      4.9563237E-08
   17.76000      5.2540418E-08
   17.82000      5.5396061E-08
   17.88000      5.8135736E-08
   17.94000      6.0758602E-08
   18.00000      6.3252259E-08
   18.06000      6.5591642E-08
   18.12000      6.7742484E-08
   18.18000      6.9668197E-08
   18.24000      7.1338100E-08
   18.30000      7.2734281E-08
   18.36000      7.3855134E-08
   18.42000      7.4714286E-08
   18.48000      7.5335350E-08
   18.54000      7.5743777E-08
   18.60000      7.5958106E-08
   18.66000      7.5982811E-08
   18.72000      7.5804820E-08
   18.78000      7.5394652E-08
   18.84000      7.4712489E-08
   18.90000      7.3717835E-08
   18.96000      7.2380985E-08
   19.02000      7.0693325E-08
   19.08000      6.8673700E-08
   19.14000      6.6368699E-08
   19.20000      6.3846265E-08
   19.26000      6.1183748E-08
   19.32000      5.8453477E-08
   19.38000      5.5709958E-08
   19.44000      5.2982408E-08
   19.50000      5.0274998E-08
   19.56000      4.7574638E-08
   19.62000      4.4863672E-08
   19.68000      4.2133070E-08
   19.74000      3.9391544E-08
   19.80000      3.6667331E-08
   19.86000      3.4002042E-08
   19.92000      3.1438756E-08
   19.98000      2.9008522E-08
   20.04000      2.6719981E-08
   20.10000      2.4555490E-08
   20.16000      2.2474804E-08
   20.22000      2.0424622E-08
   20.28000      1.8350585E-08
   20.34000      1.6207803E-08
   20.40000      1.3967146E-08
   20.46000      1.1616399E-08
   20.52000      9.1572678E-09
   20.58000      6.6003607E-09
   20.64000      3.9602210E-09
   20.70000      1.2516784E-09
   20.76000     -1.5122973E-09
   20.82000     -4.3217319E-09
   20.88000     -7.1702986E-09
   20.94000     -1.0055535E-08
   21.00000     -1.2978179E-08
   21.06000     -1.5940094E-08
   21.12000     -1.8940771E-08
   21.18000     -2.1973285E-08
   21.24000     -2.5021222E-08
   21.30000     -2.8058228E-08
   21.36000     -3.1050991E-08
   21.42000     -3.3965240E-08
   21.48000     -3.6772999E-08
   21.54000     -3.9458669E-08
   21.60000     -4.2021824E-08
   21.66000     -4.4475613E-08
   21.72000     -4.6841315E-08
   21.78000     -4.9140777E-08
   21.84000     -5.1389137E-08
   21.90000     -5.3590036E-08
   21.96000     -5.5734642E-08
   22.02000     -5.7804488E-08
   22.08000     -5.9777079E-08
   22.14000     -6.1632505E-08
   22.20000     -6.3359124E-08
   22.26000     -6.4956879E-08
   22.32000     -6.6437345E-08
   22.38000     -6.7820729E-08
   22.44000     -6.9130735E-08
   22.50000     -7.0388651E-08
   22.56000     -7.1608305E-08
   22.62000     -7.2793171E-08
   22.68000     -7.3936270E-08
   22.74000     -7.5022676E-08
   22.80000     -7.6033544E-08
   22.86000     -7.6950151E-08
   22.92000     -7.7756333E-08
   22.98000     -7.8438426E-08
   23.04000     -7.8982659E-08
   23.10000     -7.9371262E-08
   23.16000     -7.9579436E-08
   23.22000     -7.9575130E-08
   23.28000     -7.9323087E-08
   23.34000     -7.8792645E-08
   23.40000     -7.7967421E-08
   23.46000     -7.6853453E-08
   23.52000     -7.5482788E-08
   23.58000     -7.3910705E-08
   23.64000     -7.2206944E-08
   23.70000     -7.0443726E-08
   23.76000     -6.8684372E-08
   23.82000     -6.6975979E-08
   23.88000     -6.5348040E-08
   23.94000     -6.3816195E-08
   24.00000     -6.2388587E-08
   24.06000     -6.1071518E-08
   24.12000     -5.9871894E-08
   24.18000     -5.8795784E-08
   24.24000     -5.7844371E-08
   24.30000     -5.7009711E-08
   24.36000     -5.6272608E-08
   24.42000     -5.5603881E-08
   24.48000     -5.4968719E-08
   24.54000     -5.4332709E-08
   24.60000     -5.3667584E-08
   24.66000     -5.2955286E-08
   24.72000     -5.2189602E-08
   24.78000     -5.1375743E-08
   24.84000     -5.0528527E-08
   24.90000     -4.9670000E-08
   24.96000     -4.8827015E-08
   25.02000     -4.8028905E-08
   25.08000     -4.7305225E-08
   25.14000     -4.6683500E-08
   25.20000     -4.6187154E-08
   25.26000     -4.5833929E-08
   25.32000     -4.5635090E-08
   25.38000     -4.5595630E-08
   25.44000     -4.5715229E-08
   25.50000     -4.5989523E-08
   25.56000     -4.6411035E-08
   25.62000     -4.6969191E-08
   25.68000     -4.7649401E-08
   25.74000     -4.8431641E-08
   25.80000     -4.9289433E-08
   25.86000     -5.0190227E-08
   25.92000     -5.1097867E-08
   25.98000     -5.1976944E-08
   26.04000     -5.2798200E-08
   26.10000     -5.3543310E-08
   26.16000     -5.4207433E-08
   26.22000     -5.4798562E-08
   26.28000     -5.5333686E-08
   26.34000     -5.5832924E-08
   26.40000     -5.6313493E-08
   26.46000     -5.6785431E-08
   26.52000     -5.7250155E-08
   26.58000     -5.7701929E-08
   26.64000     -5.8131313E-08
   26.70000     -5.8528968E-08
   26.76000     -5.8888407E-08
   26.82000     -5.9206801E-08
   26.88000     -5.9483767E-08
   26.94000     -5.9718715E-08
   27.00000     -5.9907642E-08
   27.06000     -6.0040328E-08
   27.12000     -6.0098671E-08
   27.18000     -6.0056770E-08
   27.24000     -5.9883043E-08
   27.30000     -5.9544291E-08
   27.36000     -5.9011178E-08
   27.42000     -5.8263769E-08
   27.48000     -5.7295392E-08
   27.54000     -5.6113134E-08
   27.60000     -5.4734109E-08
   27.66000     -5.3178002E-08
   27.72000     -5.1458095E-08
   27.78000     -4.9574069E-08
   27.84000     -4.7509683E-08
   27.90000     -4.5237059E-08
   27.96000     -4.2727002E-08
   28.02000     -3.9962355E-08
   28.08000     -3.6949867E-08
   28.14000     -3.3726341E-08
   28.20000     -3.0356510E-08
   28.26000     -2.6922960E-08
   28.32000     -2.3511179E-08
   28.38000     -2.0194461E-08
   28.44000     -1.7023309E-08
   28.50000     -1.4022277E-08
   28.56000     -1.1194488E-08
   28.62000     -8.5314511E-09
   28.68000     -6.0242074E-09
   28.74000     -3.6717500E-09
   28.80000     -1.4840278E-09
   28.86000      5.2103066E-10
   28.92000      2.3248854E-09
   28.98000      3.9172039E-09
   29.04000      5.3029372E-09
   29.10000      6.5052714E-09
   29.16000      7.5635063E-09
   29.22000      8.5264862E-09
   29.28000      9.4434052E-09
   29.34000      1.0354374E-08
   29.40000      1.1283094E-08
   29.46000      1.2233315E-08
   29.52000      1.3189805E-08
   29.58000      1.4123440E-08
   29.64000      1.4999035E-08
   29.70000      1.5783876E-08
   29.76000      1.6454820E-08
   29.82000      1.7002241E-08
   29.88000      1.7430105E-08
   29.94000      1.7752591E-08
   30.00000      1.7988624E-08
   30.06000      1.8156316E-08
   30.12000      1.8269015E-08
   30.18000      1.8334097E-08
   30.24000      1.8354564E-08
   30.30000      1.8332624E-08
   30.36000      1.8273790E-08
   30.42000      1.8190001E-08
   30.48000      1.8100552E-08
   30.54000      1.8030279E-08
   30.60000      1.8005272E-08
   30.66000      1.8047118E-08
   30.72000      1.8167194E-08
   30.78000      1.8362709E-08
   30.84000      1.8615751E-08
   30.90000      1.8895841E-08
   30.96000      1.9165341E-08
   31.02000      1.9386098E-08
   31.08000      1.9525254E-08
   31.14000      1.9558524E-08
   31.20000      1.9470209E-08
   31.26000      1.9250660E-08
   31.32000      1.8892862E-08
   31.38000      1.8390159E-08
   31.44000      1.7736387E-08
   31.50000      1.6928507E-08
   31.56000      1.5970377E-08
   31.62000      1.4875716E-08
   31.68000      1.3668433E-08
   31.74000      1.2379615E-08
   31.80000      1.1041815E-08
   31.86000      9.6824770E-09
   31.92000      8.3186524E-09
   31.98000      6.9548487E-09
   32.04000      5.5846909E-09
   32.10000      4.1958703E-09
   32.16000      2.7767837E-09
   32.22000      1.3227771E-09
   32.28000     -1.6001336E-10
   32.34000     -1.6545165E-09
   32.40000     -3.1365230E-09
   32.46000     -4.5814619E-09
   32.52000     -5.9721907E-09
   32.58000     -7.3053505E-09
   32.64000     -8.5940588E-09
   32.70000     -9.8657207E-09
   32.76000     -1.1155194E-08
   32.82000     -1.2495026E-08
   32.88000     -1.3905455E-08
   32.94000     -1.5386950E-08
   33.00000     -1.6917289E-08
   33.06000     -1.8453864E-08
   33.12000     -1.9940524E-08
   33.18000     -2.1317287E-08
   33.24000     -2.2530886E-08
   33.30000     -2.3544098E-08
   33.36000     -2.4342206E-08
   33.42000     -2.4935215E-08
   33.48000     -2.5355094E-08
   33.54000     -2.5648115E-08
   33.60000     -2.5863544E-08
   33.66000     -2.6041345E-08
   33.72000     -2.6202470E-08
   33.78000     -2.6345143E-08
   33.84000     -2.6449092E-08
   33.90000     -2.6486864E-08
   33.96000     -2.6438659E-08
   34.02000     -2.6305232E-08
   34.08000     -2.6113716E-08
   34.14000     -2.5913712E-08
   34.20000     -2.5764770E-08
   34.26000     -2.5719970E-08
   34.32000     -2.5811978E-08
   34.38000     -2.6047086E-08
   34.44000     -2.6409296E-08
   34.50000     -2.6872423E-08
   34.56000     -2.7414758E-08
   34.62000     -2.8029904E-08
   34.68000     -2.8729110E-08
   34.74000     -2.9534258E-08
   34.80000     -3.0464506E-08
   34.86000     -3.1522426E-08
   34.92000     -3.2685456E-08
   34.98000     -3.3906403E-08
   35.04000     -3.5123026E-08
   35.10000     -3.6273175E-08
   35.16000     -3.7310084E-08
   35.22000     -3.8212491E-08
   35.28000     -3.8986517E-08
   35.34000     -3.9659380E-08
   35.40000     -4.0267853E-08
   35.46000     -4.0846025E-08
   35.52000     -4.1416495E-08
   35.58000     -4.1987438E-08
   35.64000     -4.2555516E-08
   35.70000     -4.3112362E-08
   35.76000     -4.3651447E-08
   35.82000     -4.4172552E-08
   35.88000     -4.4682398E-08
   35.94000     -4.5191996E-08
   36.00000     -4.5712493E-08
   36.06000     -4.6251728E-08
   36.12000     -4.6813007E-08
   36.18000     -4.7396245E-08
   36.24000     -4.8000409E-08
   36.30000     -4.8625523E-08
   36.36000     -4.9272860E-08
   36.42000     -4.9942901E-08
   36.48000     -5.0632007E-08
   36.54000     -5.1329327E-08
   36.60000     -5.2015704E-08
   36.66000     -5.2665342E-08
   36.72000     -5.3249785E-08
   36.78000     -5.3742980E-08
   36.84000     -5.4125572E-08
   36.90000     -5.4387360E-08
   36.96000     -5.4527504E-08
   37.02000     -5.4553169E-08
   37.08000     -5.4477692E-08
   37.14000     -5.4319081E-08
   37.20000     -5.4099072E-08
   37.26000     -5.3842282E-08
   37.32000     -5.3574791E-08
   37.38000     -5.3321553E-08
   37.44000     -5.3103030E-08
   37.50000     -5.2931778E-08
   37.56000     -5.2810247E-08
   37.62000     -5.2730567E-08
   37.68000     -5.2676686E-08
   37.74000     -5.2628135E-08
   37.80000     -5.2564481E-08
   37.86000     -5.2469179E-08
   37.92000     -5.2331899E-08
   37.98000     -5.2148813E-08
   38.04000     -5.1920800E-08
   38.10000     -5.1649959E-08
   38.16000     -5.1335196E-08
   38.22000     -5.0968030E-08
   38.28000     -5.0529973E-08
   38.34000     -4.9992654E-08
   38.40000     -4.9321404E-08
   38.46000     -4.8481851E-08
   38.52000     -4.7448026E-08
   38.58000     -4.6209557E-08
   38.64000     -4.4775472E-08
   38.70000     -4.3173102E-08
   38.76000     -4.1442089E-08
   38.82000     -3.9625331E-08
   38.88000     -3.7759722E-08
   38.94000     -3.5869594E-08
   39.00000     -3.3964653E-08
   39.06000     -3.2042546E-08
   39.12000     -3.0094476E-08
   39.18000     -2.8111439E-08
   39.24000     -2.6088928E-08
   39.30000     -2.4028820E-08
   39.36000     -2.1938577E-08
   39.42000     -1.9828938E-08
   39.48000     -1.7711535E-08
   39.54000     -1.5597557E-08
   39.60000     -1.3497722E-08
   39.66000     -1.1423086E-08
   39.72000     -9.3857730E-09
   39.78000     -7.3989046E-09
   39.84000     -5.4755791E-09
   39.90000     -3.6273733E-09
   39.96000     -1.8632940E-09
   40.02000     -1.9000508E-10
   40.08000      1.3863852E-09
   40.14000      2.8575307E-09
   40.20000      4.2103108E-09
   40.26000      5.4260831E-09
   40.32000      6.4828094E-09
   40.38000      7.3601245E-09
   40.44000      8.0461469E-09
   40.50000      8.5438794E-09
   40.56000      8.8748413E-09
   40.62000      9.0783328E-09
   40.68000      9.2061789E-09
   40.74000      9.3143786E-09
   40.80000      9.4541699E-09
   40.86000      9.6650750E-09
   40.92000      9.9715738E-09
   40.98000      1.0383562E-08
   41.04000      1.0899319E-08
   41.10000      1.1508988E-08
   41.16000      1.2196877E-08
   41.22000      1.2941848E-08
   41.28000      1.3716395E-08
   41.34000      1.4485850E-08
   41.40000      1.5209245E-08
   41.46000      1.5842669E-08
   41.52000      1.6344767E-08
   41.58000      1.6683009E-08
   41.64000      1.6838843E-08
   41.70000      1.6810173E-08
   41.76000      1.6610459E-08
   41.82000      1.6264872E-08
   41.88000      1.5804829E-08
   41.94000      1.5262522E-08
   42.00000      1.4666845E-08
   42.06000      1.4041349E-08
   42.12000      1.3404107E-08
   42.18000      1.2768679E-08
   42.24000      1.2145258E-08
   42.30000      1.1541275E-08
   42.36000      1.0961444E-08
   42.42000      1.0407752E-08
   42.48000      9.8802841E-09
   42.54000      9.3795238E-09
   42.60000      8.9100656E-09
   42.66000      8.4847791E-09
   42.72000      8.1278317E-09
   42.78000      7.8750713E-09
   42.84000      7.7712103E-09
   42.90000      7.8647471E-09
   42.96000      8.2028668E-09
   43.02000      8.8290628E-09
   43.08000      9.7854738E-09
   43.14000      1.1120059E-08
   43.20000      1.2896558E-08
   43.26000      1.5203655E-08
   43.32000      1.8159628E-08
   43.38000      2.1910335E-08
   43.44000      2.6621127E-08
   43.50000      3.2466176E-08
   43.56000      3.9620616E-08
   43.62000      4.8260933E-08
   43.68000      5.8577019E-08
   43.74000      7.0795757E-08
   43.80000      8.5212115E-08
   43.86000      1.0222104E-07
   43.92000      1.2234288E-07
   43.98000      1.4623743E-07
   44.04000      1.7470589E-07
   44.10000      2.0868502E-07
   44.16000      2.4924142E-07
   44.22000      2.9757464E-07
   44.28000      3.5503584E-07
   44.34000      4.2316302E-07
   44.40000      5.0372961E-07
   44.46000      5.9879778E-07
   44.52000      7.1076806E-07
   44.58000      8.4241987E-07
   44.64000      9.9694239E-07
   44.70000      1.1779614E-06
   44.76000      1.3895724E-06
   44.82000      1.6363888E-06
   44.88000      1.9236102E-06
   44.94000      2.2571116E-06
   45.00000      2.6435441E-06
   45.06000      3.0904391E-06
   45.12000      3.6063036E-06
   45.18000      4.2007064E-06
   45.24000      4.8843513E-06
   45.30000      5.6691520E-06
   45.36000      6.5683143E-06
   45.42000      7.5964313E-06
   45.48000      8.7695989E-06
   45.54000      1.0105544E-05
   45.60000      1.1623761E-05
   45.66000      1.3345635E-05
   45.72000      1.5294576E-05
   45.78000      1.7496115E-05
   45.84000      1.9978013E-05
   45.90000      2.2770333E-05
   45.96000      2.5905545E-05
   46.02000      2.9418592E-05
   46.08000      3.3346980E-05
   46.14000      3.7730832E-05
   46.20000      4.2612934E-05
   46.26000      4.8038764E-05
   46.32000      5.4056480E-05
   46.38000      6.0716873E-05
   46.44000      6.8073321E-05
   46.50000      7.6181663E-05
   46.56000      8.5100117E-05
   46.62000      9.4889052E-05
   46.68000      1.0561087E-04
   46.74000      1.1732969E-04
   46.80000      1.3011110E-04
   46.86000      1.4402183E-04
   46.92000      1.5912935E-04
   46.98000      1.7550144E-04
   47.04000      1.9320576E-04
   47.10000      2.1230931E-04
   47.16000      2.3287792E-04
   47.22000      2.5497554E-04
   47.28000      2.7866376E-04
   47.34000      3.0400098E-04
   47.40000      3.3104181E-04
   47.46000      3.5983621E-04
   47.52000      3.9042896E-04
   47.58000      4.2285857E-04
   47.64000      4.5715686E-04
   47.70000      4.9334799E-04
   47.76000      5.3144788E-04
   47.82000      5.7146343E-04
   47.88000      6.1339198E-04
   47.94000      6.5722049E-04
   48.00000      7.0292503E-04
   48.06000      7.5047044E-04
   48.12000      7.9980976E-04
   48.18000      8.5088384E-04
   48.24000      9.0362132E-04
   48.30000      9.5793838E-04
   48.36000      1.0137389E-03
   48.42000      1.0709143E-03
   48.48000      1.1293447E-03
   48.54000      1.1888981E-03
   48.60000      1.2494319E-03
   48.66000      1.3107929E-03
   48.72000      1.3728187E-03
   48.78000      1.4353382E-03
   48.84000      1.4981731E-03
   48.90000      1.5611388E-03
   48.96000      1.6240464E-03
   49.02000      1.6867034E-03
   49.08000      1.7489159E-03
   49.14000      1.8104898E-03
   49.20000      1.8712326E-03
   49.26000      1.9309551E-03
   49.32000      1.9894736E-03
   49.38000      2.0466109E-03
   49.44000      2.1021992E-03
   49.50000      2.1560809E-03
   49.56000      2.2081097E-03
   49.62000      2.2581536E-03
   49.68000      2.3060951E-03
   49.74000      2.3518330E-03
   49.80000      2.3952844E-03
   49.86000      2.4363832E-03
   49.92000      2.4750838E-03
   49.98000      2.5113591E-03
   50.04000      2.5452028E-03
   50.10000      2.5766292E-03
   50.16000      2.6056711E-03
   50.22000      2.6323819E-03
   50.28000      2.6568335E-03
   50.34000      2.6791159E-03
   50.40000      2.6993356E-03
   50.46000      2.7176158E-03
   50.52000      2.7340935E-03
   50.58000      2.7489176E-03
   50.64000      2.7622487E-03
   50.70000      2.7742554E-03
   50.76000      2.7851118E-03
   50.82000      2.7949971E-03
   50.88000      2.8040921E-03
   50.94000      2.8125779E-03
   51.00000      2.8206327E-03
   51.06000      2.8284292E-03
   51.12000      2.8361338E-03
   51.18000      2.8439029E-03
   51.24000      2.8518813E-03
   51.30000      2.8602020E-03
   51.36000      2.8689820E-03
   51.42000      2.8783230E-03
   51.48000      2.8883088E-03
   51.54000      2.8990062E-03
   51.60000      2.9104617E-03
   51.66000      2.9227030E-03
   51.72000      2.9357388E-03
   51.78000      2.9495575E-03
   51.84000      2.9641301E-03
   51.90000      2.9794080E-03
   51.96000      2.9953269E-03
   52.02000      3.0118062E-03
   52.08000      3.0287502E-03
   52.14000      3.0460509E-03
   52.20000      3.0635891E-03
   52.26000      3.0812372E-03
   52.32000      3.0988599E-03
   52.38000      3.1163180E-03
   52.44000      3.1334697E-03
   52.50000      3.1501730E-03
   52.56000      3.1662884E-03
   52.62000      3.1816803E-03
   52.68000      3.1962194E-03
   52.74000      3.2097856E-03
   52.80000      3.2222681E-03
   52.86000      3.2335690E-03
   52.92000      3.2436040E-03
   52.98000      3.2523032E-03
   53.04000      3.2596127E-03
   53.10000      3.2654956E-03
   53.16000      3.2699311E-03
   53.22000      3.2729162E-03
   53.28000      3.2744643E-03
   53.34000      3.2746056E-03
   53.40000      3.2733870E-03
   53.46000      3.2708705E-03
   53.52000      3.2671324E-03
   53.58000      3.2622628E-03
   53.64000      3.2563617E-03
   53.70000      3.2495391E-03
   53.76000      3.2419122E-03
   53.82000      3.2336046E-03
   53.88000      3.2247426E-03
   53.94000      3.2154552E-03
   54.00000      3.2058707E-03
   54.06000      3.1961147E-03
   54.12000      3.1863083E-03
   54.18000      3.1765650E-03
   54.24000      3.1669904E-03
   54.30000      3.1576785E-03
   54.36000      3.1487127E-03
   54.42000      3.1401620E-03
   54.48000      3.1320821E-03
   54.54000      3.1245120E-03
   54.60000      3.1174757E-03
   54.66000      3.1109804E-03
   54.72000      3.1050157E-03
   54.78000      3.0995551E-03
   54.84000      3.0945558E-03
   54.90000      3.0899593E-03
   54.96000      3.0856922E-03
   55.02000      3.0816668E-03
   55.08000      3.0777839E-03
   55.14000      3.0739319E-03
   55.20000      3.0699898E-03
   55.26000      3.0658294E-03
   55.32000      3.0613155E-03
   55.38000      3.0563094E-03
   55.44000      3.0506703E-03
   55.50000      3.0442567E-03
   55.56000      3.0369302E-03