  -2.400000      0.0000000E+00
  -2.340000      0.0000000E+00
  -2.280000      0.0000000E+00
  -2.220000      0.0000000E+00
  -2.160000      0.0000000E+00
  -2.100000      0.0000000E+00
  -2.040000      0.0000000E+00
  -1.980000      0.0000000E+00
  -1.920000      0.0000000E+00
  -1.860000      2.1255401E-28
  -1.800000      2.4681611E-27
  -1.740000      1.2260543E-26
  -1.680000      2.3952501E-26
  -1.620000     -7.6756622E-26
  -1.560000     -7.9954686E-25
  -1.500000     -3.4703411E-24
  -1.440000     -1.0051984E-23
  -1.380000     -2.0467337E-23
  -1.320000     -2.5183490E-23
  -1.260000      5.7357729E-24
  -1.200000      1.2605773E-22
  -1.140000      3.8525871E-22
  -1.080000      7.4354394E-22
  -1.020000      9.3861977E-22
 -0.9600000      3.9369652E-22
 -0.9000000     -1.6497851E-21
 -0.8400000     -5.5826335E-21
 -0.7800000     -1.0471420E-20
 -0.7200000     -1.3152880E-20
 -0.6600000     -8.3363448E-21
 -0.6000000      9.2363375E-21
 -0.5400000      4.0342878E-20
 -0.4800000      7.6131584E-20
 -0.4200000      9.5897659E-20
 -0.3600000      7.2054391E-20
 -0.3000000     -1.5813000E-20
 -0.2400000     -1.6154903E-19
 -0.1800000     -3.1797283E-19
 -0.1200000     -4.0062950E-19
 -5.9999999E-02 -3.1811836E-19
  0.0000000E+00 -2.3988732E-20
  5.9999999E-02  4.3136608E-19
  0.1200000      8.8027930E-19
  0.1800000      1.0745248E-18
  0.2400000      7.8186507E-19
  0.3000000     -8.5936388E-20
  0.3600000     -1.3651278E-18
  0.4200000     -2.6054183E-18
  0.4800000     -3.1416495E-18
  0.5400000     -2.2732342E-18
  0.6000000      4.7337597E-19
  0.6600000      5.0397187E-18
  0.7200000      1.0545625E-17
  0.7800000      1.5110241E-17
  0.8400000      1.5939105E-17
  0.9000000      9.8770171E-18
  0.9600000     -5.4217975E-18
   1.020000     -2.9772427E-17
   1.080000     -5.8652770E-17
   1.140000     -8.2241195E-17
   1.200000     -8.6492817E-17
   1.260000     -5.7176094E-17
   1.320000      1.3261426E-17
   1.380000      1.1788160E-16
   1.440000      2.3023009E-16
   1.500000      3.0666780E-16
   1.560000      2.9920936E-16
   1.620000      1.7769712E-16
   1.680000     -4.6238486E-17
   1.740000     -3.0661129E-16
   1.800000     -4.9579025E-16
   1.860000     -5.0859432E-16
   1.920000     -3.0749612E-16
   1.980000      2.0746944E-17
   2.040000      2.5824843E-16
   2.100000      1.3180235E-16
   2.160000     -5.2975616E-16
   2.220000     -1.6097476E-15
   2.280000     -2.5895576E-15
   2.340000     -2.6170332E-15
   2.400000     -8.1791937E-16
   2.460000      3.1995300E-15
   2.520000      8.8307928E-15
   2.580000      1.4228453E-14
   2.640000      1.6580497E-14
   2.700000      1.3007645E-14
   2.760000      1.8964526E-15
   2.820000     -1.5802509E-14
   2.880000     -3.5936572E-14
   2.940000     -5.1698283E-14
   3.000000     -5.5500218E-14
   3.060000     -4.1756298E-14
   3.120000     -9.6263965E-15
   3.180000      3.5442688E-14
   3.240000      8.2293418E-14
   3.300000      1.1694224E-13
   3.360000      1.2700571E-13
   3.420000      1.0610217E-13
   3.480000      5.6426553E-14
   3.540000     -1.1758883E-14
   3.600000     -8.3754299E-14
   3.660000     -1.4576498E-13
   3.720000     -1.8952927E-13
   3.780000     -2.1379087E-13
   3.840000     -2.2139384E-13
   3.900000     -2.1291648E-13
   3.960000     -1.7999590E-13
   4.020000     -1.0275334E-13
   4.080000      4.4882168E-14
   4.140000      2.8091196E-13
   4.200000      5.9532555E-13
   4.260000      9.3210335E-13
   4.320000      1.1833042E-12
   4.380000      1.2043005E-12
   4.440000      8.5377977E-13
   4.500000      5.3039269E-14
   4.560000     -1.1511885E-12
   4.620000     -2.5439867E-12
   4.680000     -3.7446404E-12
   4.740000     -4.2715588E-12
   4.800000     -3.6701939E-12
   4.860000     -1.6814416E-12
   4.920000      1.5944497E-12
   4.980000      5.5971308E-12
   5.040000      9.3245429E-12
   5.100000      1.1503550E-11
   5.160000      1.0905103E-11
   5.220000      6.7465460E-12
   5.280000     -9.2049946E-13
   5.340000     -1.0961172E-11
   5.400000     -2.1161331E-11
   5.460000     -2.8550712E-11
   5.520000     -3.0033687E-11
   5.580000     -2.3225758E-11
   5.640000     -7.3147556E-12
   5.700000      1.6278060E-11
   5.760000      4.3653720E-11
   5.820000      6.8759859E-11
   5.880000      8.4323312E-11
   5.940000      8.3293199E-11
   6.000000      6.0563152E-11
   6.060000      1.4642766E-11
   6.120000     -5.1092200E-11
   6.180000     -1.2790871E-10
   6.240000     -2.0221912E-10
   6.300000     -2.5715108E-10
   6.360000     -2.7506847E-10
   6.420000     -2.4073871E-10
   6.480000     -1.4469304E-10
   6.540000      1.3755572E-11
   6.600000      2.2436965E-10
   6.660000      4.6515880E-10
   6.720000      7.0313555E-10
   6.780000      8.9670354E-10
   6.840000      9.9948982E-10
   6.900000      9.6521591E-10
   6.960000      7.5304318E-10
   7.020000      3.3274886E-10
   7.080000     -3.1090314E-10
   7.140000     -1.1751372E-09
   7.200000     -2.2378746E-09
   7.260000     -3.4583658E-09
   7.320000     -4.7797442E-09
   7.380000     -6.1333050E-09
   7.440000     -7.4441542E-09
   7.500000     -8.6377323E-09
   7.560000     -9.6466071E-09
   7.620000     -1.0416838E-08
   7.680000     -1.0913190E-08
   7.740000     -1.1122511E-08
   7.800000     -1.1054725E-08
   7.860000     -1.0741187E-08
   7.920000     -1.0230480E-08
   7.980000     -9.5821573E-09
   8.040000     -8.8593088E-09
   8.100000     -8.1210310E-09
   8.160000     -7.4159203E-09
   8.220000     -6.7775083E-09
   8.280000     -6.2221446E-09
   8.340000     -5.7493805E-09
   8.400000     -5.3444205E-09
   8.460000     -4.9819118E-09
   8.520000     -4.6302269E-09
   8.580000     -4.2554804E-09
   8.640000     -3.8248120E-09
   8.700000     -3.3087832E-09
   8.760000     -2.6830600E-09
   8.820000     -1.9297197E-09
   8.880000     -1.0385311E-09
   8.940000     -8.3780604E-12
   9.000000      1.1512910E-09
   9.060000      2.4194142E-09
   9.120000      3.7633119E-09
   9.180000      5.1403810E-09
   9.240000      6.5019159E-09
   9.300000      7.7990086E-09
   9.360000      8.9898897E-09
   9.420000      1.0047505E-08
   9.480000      1.0965731E-08
   9.540000      1.1762658E-08
   9.600000      1.2479743E-08
   9.660000      1.3176442E-08
   9.720000      1.3920919E-08
   9.780000      1.4778370E-08
   9.840000      1.5799200E-08
   9.900000      1.7009421E-08
   9.960000      1.8405304E-08
   10.02000      1.9953355E-08
   10.08000      2.1595598E-08
   10.14000      2.3258949E-08
   10.20000      2.4866646E-08
   10.26000      2.6349422E-08
   10.32000      2.7654362E-08
   10.38000      2.8750096E-08
   10.44000      2.9627969E-08
   10.50000      3.0299717E-08
   10.56000      3.0792734E-08
   10.62000      3.1144285E-08
   10.68000      3.1395743E-08
   10.74000      3.1587561E-08
   10.80000      3.1755235E-08
   10.86000      3.1926174E-08
   10.92000      3.2117342E-08
   10.98000      3.2333656E-08
   11.04000      3.2567360E-08
   11.10000      3.2798660E-08
   11.16000      3.2997971E-08
   11.22000      3.3129872E-08
   11.28000      3.3158472E-08
   11.34000      3.3053361E-08
   11.40000      3.2795132E-08
   11.46000      3.2379276E-08
   11.52000      3.1817532E-08
   11.58000      3.1136231E-08
   11.64000      3.0371911E-08
   11.70000      2.9565044E-08
   11.76000      2.8753295E-08
   11.82000      2.7965754E-08
   11.88000      2.7219359E-08
   11.94000      2.6518123E-08
   12.00000      2.5855071E-08
   12.06000      2.5215982E-08
   12.12000      2.4583752E-08
   12.18000      2.3942061E-08
   12.24000      2.3277490E-08
   12.30000      2.2579894E-08
   12.36000      2.1841533E-08
   12.42000      2.1056001E-08
   12.48000      2.0218028E-08
   12.54000      1.9324823E-08
   12.60000      1.8378939E-08
   12.66000      1.7391745E-08
   12.72000      1.6385981E-08
   12.78000      1.5395806E-08
   12.84000      1.4463213E-08
   12.90000      1.3630642E-08
   12.96000      1.2931043E-08
   13.02000      1.2377631E-08
   13.08000      1.1956263E-08
   13.14000      1.1623084E-08
   13.20000      1.1309051E-08
   13.26000      1.0931135E-08
   13.32000      1.0408105E-08
   13.38000      9.6772723E-09
   13.44000      8.7079668E-09
   13.50000      7.5081763E-09
   13.56000      6.1225029E-09
   13.62000      4.6220161E-09
   13.68000      3.0888638E-09
   13.74000      1.5999504E-09
   13.80000      2.1412873E-10
   13.86000     -1.0339041E-09
   13.92000     -2.1320090E-09
   13.98000     -3.0827247E-09
   14.04000     -3.8923673E-09
   14.10000     -4.5610746E-09
   14.16000     -5.0771942E-09
   14.22000     -5.4177756E-09
   14.28000     -5.5548894E-09
   14.34000     -5.4655849E-09
   14.40000     -5.1421645E-09
   14.46000     -4.5993382E-09
   14.52000     -3.8757038E-09
   14.58000     -3.0286778E-09
   14.64000     -2.1239286E-09
   14.70000     -1.2221232E-09
   14.76000     -3.6677941E-10
   14.82000      4.2301809E-10
   14.88000      1.1524817E-09
   14.94000      1.8430857E-09
   15.00000      2.5185545E-09
   15.06000      3.1888119E-09
   15.12000      3.8367514E-09
   15.18000      4.4121355E-09
   15.24000      4.8350084E-09
   15.30000      5.0081961E-09
   15.36000      4.8357420E-09
   15.42000      4.2422821E-09
   15.48000      3.1880869E-09
   15.54000      1.6758361E-09
   15.60000     -2.5226918E-10
   15.66000     -2.5255646E-09
   15.72000     -5.0603508E-09
   15.78000     -7.7748465E-09
   15.84000     -1.0599351E-08
   15.90000     -1.3479152E-08
   15.96000     -1.6370226E-08
   16.02000     -1.9230177E-08
   16.08000     -2.2008399E-08
   16.14000     -2.4639590E-08
   16.20000     -2.7043706E-08
   16.26000     -2.9133288E-08
   16.32000     -3.0826754E-08
   16.38000     -3.2064278E-08
   16.44000     -3.2821919E-08
   16.50000     -3.3119825E-08
   16.56000     -3.3021816E-08
   16.62000     -3.2625703E-08
   16.68000     -3.2045993E-08
   16.74000     -3.1392528E-08
   16.80000     -3.0749611E-08
   16.86000     -3.0160244E-08
   16.92000     -2.9618960E-08
   16.98000     -2.9074835E-08
   17.04000     -2.8444083E-08
   17.10000     -2.7629255E-08
   17.16000     -2.6540572E-08
   17.22000     -2.5114341E-08
   17.28000     -2.3324242E-08
   17.34000     -2.1183119E-08
   17.40000     -1.8735538E-08
   17.46000     -1.6043940E-08
   17.52000     -1.3172825E-08
   17.58000     -1.0175790E-08
   17.64000     -7.0889961E-09
   17.70000     -3.9324211E-09
   17.76000     -7.1759781E-10
   17.82000      2.5414773E-09
   17.88000      5.8185190E-09
   17.94000      9.0699173E-09
   18.00000      1.2236484E-08
   18.06000      1.5251697E-08
   18.12000      1.8054008E-08
   18.18000      2.0599430E-08
   18.24000      2.2870456E-08
   18.30000      2.4878426E-08
   18.36000      2.6658341E-08
   18.42000      2.8257325E-08
   18.48000      2.9719899E-08
   18.54000      3.1074077E-08
   18.60000      3.2322166E-08
   18.66000      3.3438802E-08
   18.72000      3.4376662E-08
   18.78000      3.5078259E-08
   18.84000      3.5490707E-08
   18.90000      3.5579735E-08
   18.96000      3.5339681E-08
   19.02000      3.4797559E-08
   19.08000      3.4010608E-08
   19.14000      3.3058466E-08
   19.20000      3.2031849E-08
   19.26000      3.1020193E-08
   19.32000      3.0100676E-08
   19.38000      2.9330289E-08
   19.44000      2.8742129E-08
   19.50000      2.8345768E-08
   19.56000      2.8131026E-08
   19.62000      2.8073606E-08
   19.68000      2.8140985E-08
   19.74000      2.8297240E-08
   19.80000      2.8505992E-08
   19.86000      2.8731460E-08
   19.92000      2.8938153E-08
   19.98000      2.9090090E-08
   20.04000      2.9150380E-08
   20.10000      2.9081843E-08
   20.16000      2.8848985E-08
   20.22000      2.8421182E-08
   20.28000      2.7776515E-08
   20.34000      2.6905283E-08
   20.40000      2.5811941E-08
   20.46000      2.4514403E-08
   20.52000      2.3040187E-08
   20.58000      2.1419886E-08
   20.64000      1.9679517E-08
   20.70000      1.7834054E-08
   20.76000      1.5884396E-08
   20.82000      1.3819162E-08
   20.88000      1.1621161E-08
   20.94000      9.2767882E-09
   21.00000      6.7854700E-09
   21.06000      4.1660484E-09
   21.12000      1.4577834E-09
   21.18000     -1.2848747E-09
   21.24000     -4.0028483E-09
   21.30000     -6.6459105E-09
   21.36000     -9.1857366E-09
   21.42000     -1.1625050E-08
   21.48000     -1.4000169E-08
   21.54000     -1.6375731E-08
   21.60000     -1.8832404E-08
   21.66000     -2.1450342E-08
   21.72000     -2.4292572E-08
   21.78000     -2.7392668E-08
   21.84000     -3.0750037E-08
   21.90000     -3.4333745E-08
   21.96000     -3.8093265E-08
   22.02000     -4.1972285E-08
   22.08000     -4.5920952E-08
   22.14000     -4.9902788E-08
   22.20000     -5.3894460E-08
   22.26000     -5.7879436E-08
   22.32000     -6.1838236E-08
   22.38000     -6.5739243E-08
   22.44000     -6.9533371E-08
   22.50000     -7.3154389E-08
   22.56000     -7.6525019E-08
   22.62000     -7.9567094E-08
   22.68000     -8.2213113E-08
   22.74000     -8.4416186E-08
   22.80000     -8.6155964E-08
   22.86000     -8.7438984E-08
   22.92000     -8.8293497E-08
   22.98000     -8.8760295E-08
   23.04000     -8.8882310E-08
   23.10000     -8.8696112E-08
   23.16000     -8.8227971E-08
   23.22000     -8.7495444E-08
   23.28000     -8.6513751E-08
   23.34000     -8.5304059E-08
   23.40000     -8.3900382E-08
   23.46000     -8.2352152E-08
   23.52000     -8.0721108E-08
   23.58000     -7.9073139E-08
   23.64000     -7.7467568E-08
   23.70000     -7.5946893E-08
   23.76000     -7.4529886E-08
   23.82000     -7.3209698E-08
   23.88000     -7.1957253E-08
   23.94000     -7.0729016E-08
   24.00000     -6.9477061E-08
   24.06000     -6.8159451E-08
   24.12000     -6.6748690E-08
   24.18000     -6.5236740E-08
   24.24000     -6.3635923E-08
   24.30000     -6.1976010E-08
   24.36000     -6.0298760E-08
   24.42000     -5.8651672E-08
   24.48000     -5.7082627E-08
   24.54000     -5.5636420E-08
   24.60000     -5.4353041E-08
   24.66000     -5.3266728E-08
   24.72000     -5.2404459E-08
   24.78000     -5.1782983E-08
   24.84000     -5.1404680E-08
   24.90000     -5.1253636E-08
   24.96000     -5.1294084E-08
   25.02000     -5.1473311E-08
   25.08000     -5.1729849E-08
   25.14000     -5.2006168E-08
   25.20000     -5.2263207E-08
   25.26000     -5.2492876E-08
   25.32000     -5.2724420E-08
   25.38000     -5.3021779E-08
   25.44000     -5.3471105E-08
   25.50000     -5.4160502E-08
   25.56000     -5.5156619E-08
   25.62000     -5.6484129E-08
   25.68000     -5.8114150E-08
   25.74000     -5.9965501E-08
   25.80000     -6.1919309E-08
   25.86000     -6.3843778E-08
   25.92000     -6.5622501E-08
   25.98000     -6.7178860E-08
   26.04000     -6.8489953E-08
   26.10000     -6.9586385E-08
   26.16000     -7.0538647E-08
   26.22000     -7.1434194E-08
   26.28000     -7.2351902E-08
   26.34000     -7.3340594E-08
   26.40000     -7.4406778E-08
   26.46000     -7.5513988E-08
   26.52000     -7.6592563E-08
   26.58000     -7.7556606E-08
   26.64000     -7.8322984E-08
   26.70000     -7.8827625E-08
   26.76000     -7.9035054E-08
   26.82000     -7.8939507E-08
   26.88000     -7.8558045E-08
   26.94000     -7.7918365E-08
   27.00000     -7.7045215E-08
   27.06000     -7.5949693E-08
   27.12000     -7.4624531E-08
   27.18000     -7.3046614E-08
   27.24000     -7.1185603E-08
   27.30000     -6.9015385E-08
   27.36000     -6.6524620E-08
   27.42000     -6.3722574E-08
   27.48000     -6.0638797E-08
   27.54000     -5.7316651E-08
   27.60000     -5.3803387E-08
   27.66000     -5.0140102E-08
   27.72000     -4.6354941E-08
   27.78000     -4.2461672E-08
   27.84000     -3.8463853E-08
   27.90000     -3.4363079E-08
   27.96000     -3.0168376E-08
   28.02000     -2.5903617E-08
   28.08000     -2.1610207E-08
   28.14000     -1.7343901E-08
   28.20000     -1.3166119E-08
   28.26000     -9.1319912E-09
   28.32000     -5.2783742E-09
   28.38000     -1.6153803E-09
   28.44000      1.8758344E-09
   28.50000      5.2378915E-09
   28.56000      8.5255385E-09
   28.62000      1.1790330E-08
   28.68000      1.5065634E-08
   28.74000      1.8356037E-08
   28.80000      2.1634127E-08
   28.86000      2.4845729E-08
   28.92000      2.7922210E-08
   28.98000      3.0796500E-08
   29.04000      3.3418235E-08
   29.10000      3.5763524E-08
   29.16000      3.7836312E-08
   29.22000      3.9660929E-08
   29.28000      4.1268112E-08
   29.34000      4.2679201E-08
   29.40000      4.3893962E-08
   29.46000      4.4886487E-08
   29.52000      4.5610928E-08
   29.58000      4.6015394E-08
   29.64000      4.6059359E-08
   29.70000      4.5728658E-08
   29.76000      4.5042924E-08
   29.82000      4.4053163E-08
   29.88000      4.2830518E-08
   29.94000      4.1450392E-08
   30.00000      3.9977209E-08
   30.06000      3.8454516E-08
   30.12000      3.6902716E-08
   30.18000      3.5324017E-08
   30.24000      3.3711718E-08
   30.30000      3.2060065E-08
   30.36000      3.0371073E-08
   30.42000      2.8656242E-08
   30.48000      2.6932872E-08
   30.54000      2.5216462E-08
   30.60000      2.3511982E-08
   30.66000      2.1807265E-08
   30.72000      2.0071328E-08
   30.78000      1.8259232E-08
   30.84000      1.6323087E-08
   30.90000      1.4226716E-08
   30.96000      1.1959867E-08
   31.02000      9.5473442E-09
   31.08000      7.0494912E-09
   31.14000      4.5528754E-09
   31.20000      2.1530568E-09
   31.26000     -6.6038716E-11
   31.32000     -2.0503896E-09
   31.38000     -3.7866346E-09
   31.44000     -5.3024234E-09
   31.50000     -6.6565606E-09
   31.56000     -7.9219955E-09
   31.62000     -9.1665164E-09
   31.68000     -1.0436246E-08
   31.74000     -1.1745895E-08
   31.80000     -1.3077733E-08
   31.86000     -1.4388896E-08
   31.92000     -1.5624758E-08
   31.98000     -1.6734756E-08
   32.04000     -1.7686714E-08
   32.10000     -1.8476170E-08
   32.16000     -1.9128418E-08
   32.22000     -1.9692877E-08
   32.28000     -2.0231269E-08
   32.34000     -2.0802826E-08
   32.40000     -2.1450585E-08
   32.46000     -2.2192555E-08
   32.52000     -2.3020165E-08
   32.58000     -2.3904159E-08
   32.64000     -2.4805825E-08
   32.70000     -2.5689813E-08
   32.76000     -2.6534352E-08
   32.82000     -2.7335746E-08
   32.88000     -2.8106086E-08
   32.94000     -2.8865454E-08
   33.00000     -2.9631813E-08
   33.06000     -3.0412398E-08
   33.12000     -3.1199590E-08
   33.18000     -3.1972576E-08
   33.24000     -3.2703785E-08
   33.30000     -3.3367453E-08
   33.36000     -3.3947153E-08
   33.42000     -3.4439640E-08
   33.48000     -3.4854043E-08
   33.54000     -3.5207300E-08
   33.60000     -3.5517939E-08
   33.66000     -3.5800852E-08
   33.72000     -3.6065057E-08
   33.78000     -3.6314976E-08
   33.84000     -3.6554400E-08
   33.90000     -3.6791207E-08
   33.96000     -3.7040611E-08
   34.02000     -3.7325382E-08
   34.08000     -3.7672535E-08
   34.14000     -3.8107252E-08
   34.20000     -3.8645766E-08
   34.26000     -3.9289347E-08
   34.32000     -4.0021341E-08
   34.38000     -4.0808374E-08
   34.44000     -4.1605912E-08
   34.50000     -4.2367169E-08
   34.56000     -4.3053429E-08
   34.62000     -4.3643297E-08
   34.68000     -4.4138513E-08
   34.74000     -4.4564626E-08
   34.80000     -4.4966011E-08
   34.86000     -4.5396252E-08
   34.92000     -4.5906077E-08
   34.98000     -4.6531763E-08
   35.04000     -4.7286893E-08
   35.10000     -4.8159453E-08
   35.16000     -4.9114995E-08
   35.22000     -5.0104990E-08
   35.28000     -5.1078366E-08
   35.34000     -5.1993382E-08
   35.40000     -5.2826906E-08
   35.46000     -5.3578844E-08
   35.52000     -5.4270636E-08
   35.58000     -5.4938393E-08
   35.64000     -5.5622785E-08
   35.70000     -5.6358772E-08
   35.76000     -5.7168446E-08
   35.82000     -5.8058895E-08
   35.88000     -5.9025325E-08
   35.94000     -6.0057339E-08
   36.00000     -6.1145165E-08
   36.06000     -6.2282560E-08
   36.12000     -6.3464931E-08
   36.18000     -6.4683476E-08
   36.24000     -6.5918499E-08
   36.30000     -6.7135701E-08
   36.36000     -6.8288543E-08
   36.42000     -6.9327086E-08
   36.48000     -7.0211065E-08
   36.54000     -7.0922567E-08
   36.60000     -7.1473742E-08
   36.66000     -7.1905980E-08
   36.72000     -7.2280081E-08
   36.78000     -7.2659724E-08
   36.84000     -7.3092941E-08
   36.90000     -7.3596816E-08
   36.96000     -7.4150122E-08
   37.02000     -7.4696295E-08
   37.08000     -7.5156485E-08
   37.14000     -7.5449563E-08
   37.20000     -7.5513881E-08
   37.26000     -7.5324770E-08
   37.32000     -7.4902594E-08
   37.38000     -7.4308524E-08
   37.44000     -7.3628790E-08
   37.50000     -7.2951586E-08
   37.56000     -7.2343241E-08
   37.62000     -7.1830698E-08
   37.68000     -7.1395320E-08
   37.74000     -7.0979787E-08
   37.80000     -7.0505493E-08
   37.86000     -6.9895016E-08
   37.92000     -6.9092977E-08
   37.98000     -6.8079210E-08
   38.04000     -6.6871273E-08
   38.10000     -6.5516190E-08
   38.16000     -6.4074719E-08
   38.22000     -6.2603021E-08
   38.28000     -6.1137108E-08
   38.34000     -5.9684140E-08
   38.40000     -5.8222685E-08
   38.46000     -5.6711222E-08
   38.52000     -5.5102138E-08
   38.58000     -5.3356910E-08
   38.64000     -5.1458152E-08
   38.70000     -4.9415330E-08
   38.76000     -4.7262791E-08
   38.82000     -4.5051173E-08
   38.88000     -4.2834859E-08
   38.94000     -4.0659152E-08
   39.00000     -3.8550496E-08
   39.06000     -3.6512116E-08
   39.12000     -3.4525740E-08
   39.18000     -3.2558624E-08
   39.24000     -3.0573727E-08
   39.30000     -2.8540281E-08
   39.36000     -2.6441933E-08
   39.42000     -2.4280261E-08
   39.48000     -2.2072758E-08
   39.54000     -1.9845849E-08
   39.60000     -1.7625066E-08
   39.66000     -1.5425437E-08
   39.72000     -1.3245237E-08
   39.78000     -1.1065251E-08
   39.84000     -8.8540251E-09
   39.90000     -6.5776344E-09
   39.96000     -4.2111097E-09
   40.02000     -1.7481643E-09
   40.08000      7.9354090E-10
   40.14000      3.3729743E-09
   40.20000      5.9319070E-09
   40.26000      8.4050491E-09
   40.32000      1.0731732E-08
   40.38000      1.2866574E-08
   40.44000      1.4786984E-08
   40.50000      1.6496021E-08
   40.56000      1.8020080E-08
   40.62000      1.9401732E-08
   40.68000      2.0689054E-08
   40.74000      2.1923539E-08
   40.80000      2.3129171E-08
   40.86000      2.4305256E-08
   40.92000      2.5424885E-08
   40.98000      2.6439665E-08
   41.04000      2.7289802E-08
   41.10000      2.7917029E-08
   41.16000      2.8276995E-08
   41.22000      2.8347692E-08
   41.28000      2.8131442E-08
   41.34000      2.7649996E-08
   41.40000      2.6934309E-08
   41.46000      2.6012557E-08
   41.52000      2.4900599E-08
   41.58000      2.3598441E-08
   41.64000      2.2094261E-08
   41.70000      2.0374694E-08
   41.76000      1.8437714E-08
   41.82000      1.6303106E-08
   41.88000      1.4016102E-08
   41.94000      1.1642017E-08
   42.00000      9.2528385E-09
   42.06000      6.9097710E-09
   42.12000      4.6472892E-09
   42.18000      2.4641045E-09
   42.24000      3.2426856E-10
   42.30000     -1.8314795E-09
   42.36000     -4.0672763E-09
   42.42000     -6.4319710E-09
   42.48000     -8.9431529E-09
   42.54000     -1.1580048E-08
   42.60000     -1.4287337E-08
   42.66000     -1.6988725E-08
   42.72000     -1.9606235E-08
   42.78000     -2.2079524E-08
   42.84000     -2.4379629E-08
   42.90000     -2.6513247E-08
   42.96000     -2.8516849E-08
   43.02000     -3.0443051E-08
   43.08000     -3.2344396E-08
   43.14000     -3.4260367E-08
   43.20000     -3.6212295E-08
   43.26000     -3.8207897E-08
   43.32000     -4.0253521E-08
   43.38000     -4.2369248E-08
   43.44000     -4.4600803E-08
   43.50000     -4.7023370E-08
   43.56000     -4.9735522E-08
   43.62000     -5.2845383E-08
   43.68000     -5.6454333E-08
   43.74000     -6.0644773E-08
   43.80000     -6.5477344E-08
   43.86000     -7.0999711E-08
   43.92000     -7.7265113E-08
   43.98000     -8.4355669E-08
   44.04000     -9.2404093E-08
   44.10000     -1.0160849E-07
   44.16000     -1.1223737E-07
   44.22000     -1.2462567E-07
   44.28000     -1.3916508E-07
   44.34000     -1.5629332E-07
   44.40000     -1.7648726E-07
   44.46000     -2.0026286E-07
   44.52000     -2.2818297E-07
   44.58000     -2.6087270E-07
   44.64000     -2.9904001E-07
   44.70000     -3.4349901E-07
   44.76000     -3.9519313E-07
   44.82000     -4.5521580E-07
   44.88000     -5.2482790E-07
   44.94000     -6.0547086E-07
   45.00000     -6.9877746E-07
   45.06000     -8.0658242E-07
   45.12000     -9.3093632E-07
   45.18000     -1.0741257E-06
   45.24000     -1.2387000E-06
   45.30000     -1.4275039E-06
   45.36000     -1.6437133E-06
   45.42000     -1.8908686E-06
   45.48000     -2.1729031E-06
   45.54000     -2.4941635E-06
   45.60000     -2.8594259E-06
   45.66000     -3.2739099E-06
   45.72000     -3.7432962E-06
   45.78000     -4.2737515E-06
   45.84000     -4.8719635E-06
   45.90000     -5.5451833E-06
   45.96000     -6.3012694E-06
   46.02000     -7.1487302E-06
   46.08000     -8.0967548E-06
   46.14000     -9.1552347E-06
   46.20000     -1.0334764E-05
   46.26000     -1.1646631E-05
   46.32000     -1.3102800E-05
   46.38000     -1.4715881E-05
   46.44000     -1.6499112E-05
   46.50000     -1.8466342E-05
   46.56000     -2.0632020E-05
   46.62000     -2.3011171E-05
   46.68000     -2.5619382E-05
   46.74000     -2.8472763E-05
   46.80000     -3.1587897E-05
   46.86000     -3.4981756E-05
   46.92000     -3.8671609E-05
   46.98000     -4.2674896E-05
   47.04000     -4.7009118E-05
   47.10000     -5.1691703E-05
   47.16000     -5.6739864E-05
   47.22000     -6.2170453E-05
   47.28000     -6.7999856E-05
   47.34000     -7.4243813E-05
   47.40000     -8.0917278E-05
   47.46000     -8.8034285E-05
   47.52000     -9.5607764E-05
   47.58000     -1.0364934E-04
   47.64000     -1.1216920E-04
   47.70000     -1.2117586E-04
   47.76000     -1.3067601E-04
   47.82000     -1.4067427E-04
   47.88000     -1.5117302E-04
   47.94000     -1.6217235E-04
   48.00000     -1.7366976E-04
   48.06000     -1.8566012E-04
   48.12000     -1.9813555E-04
   48.18000     -2.1108534E-04
   48.24000     -2.2449595E-04
   48.30000     -2.3835083E-04
   48.36000     -2.5263050E-04
   48.42000     -2.6731263E-04
   48.48000     -2.8237182E-04
   48.54000     -2.9778006E-04
   48.60000     -3.1350646E-04
   48.66000     -3.2951770E-04
   48.72000     -3.4577792E-04
   48.78000     -3.6224909E-04
   48.84000     -3.7889121E-04
   48.90000     -3.9566253E-04
   48.96000     -4.1251982E-04
   49.02000     -4.2941881E-04
   49.08000     -4.4631452E-04
   49.14000     -4.6316153E-04
   49.20000     -4.7991454E-04
   49.26000     -4.9652858E-04
   49.32000     -5.1295938E-04
   49.38000     -5.2916398E-04
   49.44000     -5.4510107E-04
   49.50000     -5.6073134E-04
   49.56000     -5.7601795E-04
   49.62000     -5.9092685E-04
   49.68000     -6.0542719E-04
   49.74000     -6.1949162E-04
   49.80000     -6.3309661E-04
   49.86000     -6.4622232E-04
   49.92000     -6.5885315E-04
   49.98000     -6.7097798E-04
   50.04000     -6.8259012E-04
   50.10000     -6.9368730E-04
   50.16000     -7.0427213E-04
   50.22000     -7.1435160E-04
   50.28000     -7.2393700E-04
   50.34000     -7.3304394E-04
   50.40000     -7.4169197E-04
   50.46000     -7.4990425E-04
   50.52000     -7.5770740E-04
   50.58000     -7.6513138E-04
   50.64000     -7.7220850E-04
   50.70000     -7.7897363E-04
   50.76000     -7.8546302E-04
   50.82000     -7.9171429E-04
   50.88000     -7.9776585E-04
   50.94000     -8.0365589E-04
   51.00000     -8.0942223E-04
   51.06000     -8.1510172E-04
   51.12000     -8.2072982E-04
   51.18000     -8.2633964E-04
   51.24000     -8.3196204E-04
   51.30000     -8.3762483E-04
   51.36000     -8.4335258E-04
   51.42000     -8.4916578E-04
   51.48000     -8.5508102E-04
   51.54000     -8.6111040E-04
   51.60000     -8.6726155E-04
   51.66000     -8.7353721E-04
   51.72000     -8.7993545E-04
   51.78000     -8.8644953E-04
   51.84000     -8.9306809E-04
   51.90000     -8.9977513E-04
   51.96000     -9.0655009E-04
   52.02000     -9.1336842E-04
   52.08000     -9.2020136E-04
   52.14000     -9.2701713E-04
   52.20000     -9.3378057E-04
   52.26000     -9.4045431E-04
   52.32000     -9.4699865E-04
   52.38000     -9.5337234E-04
   52.44000     -9.5953327E-04
   52.50000     -9.6543878E-04
   52.56000     -9.7104668E-04
   52.62000     -9.7631558E-04
   52.68000     -9.8120573E-04
   52.74000     -9.8567933E-04
   52.80000     -9.8970055E-04
   52.86000     -9.9323713E-04
   52.92000     -9.9625939E-04
   52.98000     -9.9874183E-04
   53.04000     -1.0006633E-03
   53.10000     -1.0020063E-03
   53.16000     -1.0027593E-03
   53.22000     -1.0029144E-03
   53.28000     -1.0024688E-03
   53.34000     -1.0014247E-03
   53.40000     -9.9978910E-04
   53.46000     -9.9757360E-04
   53.52000     -9.9479442E-04
   53.58000     -9.9147228E-04
   53.64000     -9.8763127E-04
   53.70000     -9.8329969E-04
   53.76000     -9.7850861E-04
   53.82000     -9.7329210E-04
   53.88000     -9.6768630E-04
   53.94000     -9.6172903E-04
   54.00000     -9.5545960E-04
   54.06000     -9.4891805E-04
   54.12000     -9.4214448E-04
   54.18000     -9.3517883E-04
   54.24000     -9.2806015E-04
   54.30000     -9.2082610E-04
   54.36000     -9.1351260E-04
   54.42000     -9.0615329E-04
   54.48000     -8.9877949E-04
   54.54000     -8.9141942E-04
   54.60000     -8.8409818E-04
   54.66000     -8.7683758E-04
   54.72000     -8.6965610E-04
   54.78000     -8.6256844E-04
   54.84000     -8.5558556E-04
   54.90000     -8.4871484E-04
   54.96000     -8.4195979E-04
   55.02000     -8.3532045E-04
   55.08000     -8.2879351E-04
   55.14000     -8.2237268E-04
   55.20000     -8.1604882E-04
   55.26000     -8.0981047E-04
   55.32000     -8.0364366E-04
   55.38000     -7.9753262E-04
   55.44000     -7.9145981E-04
   55.50000     -7.8540691E-04
   55.56000     -7.7935477E-04