  -2.400000      0.0000000E+00
  -2.340000      0.0000000E+00
  -2.280000      0.0000000E+00
  -2.220000      0.0000000E+00
  -2.160000      0.0000000E+00
  -2.100000      0.0000000E+00
  -2.040000      0.0000000E+00
  -1.980000      0.0000000E+00
  -1.920000      0.0000000E+00
  -1.860000     -5.9025423E-30
  -1.800000     -1.0779583E-27
  -1.740000     -1.4547267E-26
  -1.680000     -9.8461631E-26
  -1.620000     -4.2631927E-25
  -1.560000     -1.2615666E-24
  -1.500000     -2.4036414E-24
  -1.440000     -1.4956786E-24
  -1.380000      8.4370993E-24
  -1.320000      3.8501477E-23
  -1.260000      9.2050166E-23
  -1.200000      1.3339760E-22
  -1.140000      4.6664754E-23
  -1.080000     -3.6487101E-22
  -1.020000     -1.2459769E-21
 -0.9600000     -2.3517856E-21
 -0.9000000     -2.6040987E-21
 -0.8400000      3.1064102E-23
 -0.7800000      7.6275689E-21
 -0.7200000      1.9817897E-20
 -0.6600000      3.0348171E-20
 -0.6000000      2.5268444E-20
 -0.5400000     -1.2963169E-20
 -0.4800000     -9.2108157E-20
 -0.4200000     -1.8979410E-19
 -0.3600000     -2.3829029E-19
 -0.3000000     -1.3509611E-19
 -0.2400000      2.0245381E-19
 -0.1800000      7.4263965E-19
 -0.1200000      1.2492865E-18
 -5.9999999E-02  1.2789740E-18
  0.0000000E+00  3.4876160E-19
  5.9999999E-02 -1.7128472E-18
  0.1200000     -4.3592302E-18
  0.1800000     -6.1396964E-18
  0.2400000     -5.0536405E-18
  0.3000000      4.1151672E-19
  0.3600000      9.8278296E-18
  0.4200000      1.9725422E-17
  0.4800000      2.3869423E-17
  0.5400000      1.5626061E-17
  0.6000000     -7.8914486E-18
  0.6600000     -4.1619447E-17
  0.7200000     -7.1043492E-17
  0.7800000     -7.5903787E-17
  0.8400000     -3.9544961E-17
  0.9000000      3.9059866E-17
  0.9600000      1.3674864E-16
   1.020000      2.0797433E-16
   1.080000      2.0066387E-16
   1.140000      8.2941910E-17
   1.200000     -1.3027671E-16
   1.260000     -3.6616228E-16
   1.320000     -5.1060803E-16
   1.380000     -4.5364771E-16
   1.440000     -1.4892071E-16
   1.500000      3.4018723E-16
   1.560000      8.3650565E-16
   1.620000      1.1020677E-15
   1.680000      9.3733153E-16
   1.740000      2.8909269E-16
   1.800000     -6.8432178E-16
   1.860000     -1.6328615E-15
   1.920000     -2.1296494E-15
   1.980000     -1.8474729E-15
   2.040000     -7.2774233E-16
   2.100000      9.3661949E-16
   2.160000      2.5579421E-15
   2.220000      3.4511748E-15
   2.280000      3.1120586E-15
   2.340000      1.4718910E-15
   2.400000     -9.8379256E-16
   2.460000     -3.3105076E-15
   2.520000     -4.4210245E-15
   2.580000     -3.5418501E-15
   2.640000     -6.5235190E-16
   2.700000      3.2876802E-15
   2.760000      6.4866219E-15
   2.820000      6.9025333E-15
   2.880000      3.1424368E-15
   2.940000     -4.6225218E-15
   3.000000     -1.4148655E-14
   3.060000     -2.1408226E-14
   3.120000     -2.1830336E-14
   3.180000     -1.2247654E-14
   3.240000      7.1285785E-15
   3.300000      3.1633296E-14
   3.360000      5.2777363E-14
   3.420000      6.0826005E-14
   3.480000      4.8711167E-14
   3.540000      1.5847312E-14
   3.600000     -2.9936191E-14
   3.660000     -7.3730383E-14
   3.720000     -9.8372001E-14
   3.780000     -9.1428628E-14
   3.840000     -5.1707746E-14
   3.900000      7.7534338E-15
   3.960000      6.2400240E-14
   4.020000      8.4757105E-14
   4.080000      5.6585494E-14
   4.140000     -1.9784282E-14
   4.200000     -1.1604766E-13
   4.260000     -1.8237975E-13
   4.320000     -1.6271965E-13
   4.380000     -1.7834680E-14
   4.440000      2.5073655E-13
   4.500000      5.8503159E-13
   4.560000      8.7197187E-13
   4.620000      9.6650303E-13
   4.680000      7.3482648E-13
   4.740000      1.0817497E-13
   4.800000     -8.6888943E-13
   4.860000     -2.0141081E-12
   4.920000     -3.0220169E-12
   4.980000     -3.5226516E-12
   5.040000     -3.1764008E-12
   5.100000     -1.7837493E-12
   5.160000      6.1968768E-13
   5.220000      3.7125099E-12
   5.280000      6.9021282E-12
   5.340000      9.4102573E-12
   5.400000      1.0418019E-11
   5.460000      9.2456017E-12
   5.520000      5.5338234E-12
   5.580000     -6.0614290E-13
   5.640000     -8.5053986E-12
   5.700000     -1.6937587E-11
   5.760000     -2.4225760E-11
   5.820000     -2.8465492E-11
   5.880000     -2.7858100E-11
   5.940000     -2.1123374E-11
   6.000000     -7.9295633E-12
   6.060000      1.0752523E-11
   6.120000      3.2482281E-11
   6.180000      5.3471536E-11
   6.240000      6.9056150E-11
   6.300000      7.4501939E-11
   6.360000      6.6037523E-11
   6.420000      4.1920366E-11
   6.480000      3.2901201E-12
   6.540000     -4.5433168E-11
   6.600000     -9.6781541E-11
   6.660000     -1.4115660E-10
   6.720000     -1.6833665E-10
   6.780000     -1.6933695E-10
   6.840000     -1.3828756E-10
   6.900000     -7.3965965E-11
   6.960000      1.9328115E-11
   7.020000      1.3174768E-10
   7.080000      2.4875307E-10
   7.140000      3.5270839E-10
   7.200000      4.2494544E-10
   7.260000      4.4794535E-10
   7.320000      4.0728629E-10
   7.380000      2.9307673E-10
   7.440000      1.0071174E-10
   7.500000     -1.6906759E-10
   7.560000     -5.1070731E-10
   7.620000     -9.1477403E-10
   7.680000     -1.3690700E-09
   7.740000     -1.8597301E-09
   7.800000     -2.3721698E-09
   7.860000     -2.8918163E-09
   7.920000     -3.4046279E-09
   7.980000     -3.8974171E-09
   8.040000     -4.3580100E-09
   8.100000     -4.7752384E-09
   8.160000     -5.1387525E-09
   8.220000     -5.4386589E-09
   8.280000     -5.6650404E-09
   8.340000     -5.8074940E-09
   8.400000     -5.8549059E-09
   8.460000     -5.7957257E-09
   8.520000     -5.6189320E-09
   8.580000     -5.3157265E-09
   8.640000     -4.8817670E-09
   8.700000     -4.3194501E-09
   8.760000     -3.6396051E-09
   8.820000     -2.8619045E-09
   8.880000     -2.0135169E-09
   8.940000     -1.1259211E-09
   9.000000     -2.3032036E-10
   9.060000      6.4742423E-10
   9.120000      1.4911570E-09
   9.180000      2.2969535E-09
   9.240000      3.0730638E-09
   9.300000      3.8371715E-09
   9.360000      4.6115542E-09
   9.420000      5.4172999E-09
   9.480000      6.2689725E-09
   9.540000      7.1710051E-09
   9.600000      8.1166478E-09
   9.660000      9.0896668E-09
   9.720000      1.0068342E-08
   9.780000      1.1030782E-08
   9.840000      1.1960284E-08
   9.900000      1.2849488E-08
   9.960000      1.3702288E-08
   10.02000      1.4533009E-08
   10.08000      1.5362911E-08
   10.14000      1.6214797E-08
   10.20000      1.7106952E-08
   10.26000      1.8047951E-08
   10.32000      1.9033696E-08
   10.38000      2.0047557E-08
   10.44000      2.1063675E-08
   10.50000      2.2052575E-08
   10.56000      2.2987594E-08
   10.62000      2.3850342E-08
   10.68000      2.4633691E-08
   10.74000      2.5341473E-08
   10.80000      2.5985129E-08
   10.86000      2.6578387E-08
   10.92000      2.7131636E-08
   10.98000      2.7647728E-08
   11.04000      2.8120475E-08
   11.10000      2.8536160E-08
   11.16000      2.8877528E-08
   11.22000      2.9128836E-08
   11.28000      2.9280271E-08
   11.34000      2.9330200E-08
   11.40000      2.9284495E-08
   11.46000      2.9153101E-08
   11.52000      2.8945127E-08
   11.58000      2.8664195E-08
   11.64000      2.8305967E-08
   11.70000      2.7859011E-08
   11.76000      2.7309083E-08
   11.82000      2.6645692E-08
   11.88000      2.5868832E-08
   11.94000      2.4993527E-08
   12.00000      2.4050310E-08
   12.06000      2.3080963E-08
   12.12000      2.2130306E-08
   12.18000      2.1236092E-08
   12.24000      2.0419817E-08
   12.30000      1.9681142E-08
   12.36000      1.8997730E-08
   12.42000      1.8330867E-08
   12.48000      1.7635699E-08
   12.54000      1.6873607E-08
   12.60000      1.6023513E-08
   12.66000      1.5089100E-08
   12.72000      1.4099712E-08
   12.78000      1.3104334E-08
   12.84000      1.2159762E-08
   12.90000      1.1315779E-08
   12.96000      1.0601136E-08
   13.02000      1.0014285E-08
   13.08000      9.5217336E-09
   13.14000      9.0650545E-09
   13.20000      8.5751433E-09
   13.26000      7.9902094E-09
   13.32000      7.2726980E-09
   13.38000      6.4203820E-09
   13.44000      5.4683147E-09
   13.50000      4.4807882E-09
   13.56000      3.5352303E-09
   13.62000      2.7022671E-09
   13.68000      2.0273190E-09
   13.74000      1.5187379E-09
   13.80000      1.1457685E-09
   13.86000      8.4697432E-10
   13.92000      5.4696836E-10
   13.98000      1.7704441E-10
   14.04000     -3.0577074E-10
   14.10000     -9.0636415E-10
   14.16000     -1.5892780E-09
   14.22000     -2.2872890E-09
   14.28000     -2.9186804E-09
   14.34000     -3.4087069E-09
   14.40000     -3.7096015E-09
   14.46000     -3.8138630E-09
   14.52000     -3.7574055E-09
   14.58000     -3.6119223E-09
   14.64000     -3.4686880E-09
   14.70000     -3.4182002E-09
   14.76000     -3.5309007E-09
   14.82000     -3.8436054E-09
   14.88000     -4.3544466E-09
   14.94000     -5.0267333E-09
   15.00000     -5.7998495E-09
   15.06000     -6.6037567E-09
   15.12000     -7.3731430E-09
   15.18000     -8.0578086E-09
   15.24000     -8.6272465E-09
   15.30000     -9.0691348E-09
   15.36000     -9.3831662E-09
   15.42000     -9.5728394E-09
   15.48000     -9.6382307E-09
   15.54000     -9.5722426E-09
   15.60000     -9.3615924E-09
   15.66000     -8.9921484E-09
   15.72000     -8.4567588E-09
   15.78000     -7.7628544E-09
   15.84000     -6.9371393E-09
   15.90000     -6.0255934E-09
   15.96000     -5.0884474E-09
   16.02000     -4.1913335E-09
   16.08000     -3.3949015E-09
   16.14000     -2.7456006E-09
   16.20000     -2.2699411E-09
   16.26000     -1.9735895E-09
   16.32000     -1.8453434E-09
   16.38000     -1.8647679E-09
   16.44000     -2.0113280E-09
   16.50000     -2.2724067E-09
   16.56000     -2.6478542E-09
   16.62000     -3.1495779E-09
   16.68000     -3.7960599E-09
   16.74000     -4.6032129E-09
   16.80000     -5.5742171E-09
   16.86000     -6.6914563E-09
   16.92000     -7.9132079E-09
   16.98000     -9.1763246E-09
   17.04000     -1.0404287E-08
   17.10000     -1.1518299E-08
   17.16000     -1.2448185E-08
   17.22000     -1.3140079E-08
   17.28000     -1.3559166E-08
   17.34000     -1.3687483E-08
   17.40000     -1.3518506E-08
   17.46000     -1.3051047E-08
   17.52000     -1.2284915E-08
   17.58000     -1.1219777E-08
   17.64000     -9.8572741E-09
   17.70000     -8.2052347E-09
   17.76000     -6.2821810E-09
   17.82000     -4.1203392E-09
   17.88000     -1.7659884E-09
   17.94000      7.2319989E-10
   18.00000      3.2833483E-09
   18.06000      5.8510068E-09
   18.12000      8.3698337E-09
   18.18000      1.0795911E-08
   18.24000      1.3100522E-08
   18.30000      1.5269761E-08
   18.36000      1.7301085E-08
   18.42000      1.9197760E-08
   18.48000      2.0962831E-08
   18.54000      2.2594566E-08
   18.60000      2.4084937E-08
   18.66000      2.5421800E-08
   18.72000      2.6594149E-08
   18.78000      2.7598620E-08
   18.84000      2.8444784E-08
   18.90000      2.9156991E-08
   18.96000      2.9771639E-08
   19.02000      3.0330256E-08
   19.08000      3.0870346E-08
   19.14000      3.1416786E-08
   19.20000      3.1976494E-08
   19.26000      3.2538011E-08
   19.32000      3.3076081E-08
   19.38000      3.3559694E-08
   19.44000      3.3961072E-08
   19.50000      3.4262957E-08
   19.56000      3.4462257E-08
   19.62000      3.4569414E-08
   19.68000      3.4604096E-08
   19.74000      3.4588783E-08
   19.80000      3.4542229E-08
   19.86000      3.4474354E-08
   19.92000      3.4383778E-08
   19.98000      3.4258207E-08
   20.04000      3.4077424E-08
   20.10000      3.3817869E-08
   20.16000      3.3457830E-08
   20.22000      3.2981987E-08
   20.28000      3.2384449E-08
   20.34000      3.1669657E-08
   20.40000      3.0851126E-08
   20.46000      2.9948463E-08
   20.52000      2.8983502E-08
   20.58000      2.7976444E-08
   20.64000      2.6942907E-08
   20.70000      2.5892263E-08
   20.76000      2.4827358E-08
   20.82000      2.3745253E-08
   20.88000      2.2638456E-08
   20.94000      2.1496117E-08
   21.00000      2.0304773E-08
   21.06000      1.9048615E-08
   21.12000      1.7709414E-08
   21.18000      1.6266549E-08
   21.24000      1.4697584E-08
   21.30000      1.2979771E-08
   21.36000      1.1092425E-08
   21.42000      9.0198133E-09
   21.48000      6.7537584E-09
   21.54000      4.2951029E-09
   21.60000      1.6534383E-09
   21.66000     -1.1549074E-09
   21.72000     -4.1099564E-09
   21.78000     -7.1911095E-09
   21.84000     -1.0378979E-08
   21.90000     -1.3655428E-08
   21.96000     -1.7002055E-08
   22.02000     -2.0398154E-08
   22.08000     -2.3819497E-08
   22.14000     -2.7238988E-08
   22.20000     -3.0629419E-08
   22.26000     -3.3967623E-08
   22.32000     -3.7238664E-08
   22.38000     -4.0438593E-08
   22.44000     -4.3574932E-08
   22.50000     -4.6664638E-08
   22.56000     -4.9730183E-08
   22.62000     -5.2794558E-08
   22.68000     -5.5876139E-08
   22.74000     -5.8983947E-08
   22.80000     -6.2113806E-08
   22.86000     -6.5245757E-08
   22.92000     -6.8343361E-08
   22.98000     -7.1355380E-08
   23.04000     -7.4220011E-08
   23.10000     -7.6871437E-08
   23.16000     -7.9247400E-08
   23.22000     -8.1296271E-08
   23.28000     -8.2981998E-08
   23.34000     -8.4285901E-08
   23.40000     -8.5205329E-08
   23.46000     -8.5750059E-08
   23.52000     -8.5937828E-08
   23.58000     -8.5790290E-08
   23.64000     -8.5330164E-08
   23.70000     -8.4579682E-08
   23.76000     -8.3560082E-08
   23.82000     -8.2291606E-08
   23.88000     -8.0793910E-08
   23.94000     -7.9086789E-08
   24.00000     -7.7191466E-08
   24.06000     -7.5132228E-08
   24.12000     -7.2938057E-08
   24.18000     -7.0643615E-08
   24.24000     -6.8288955E-08
   24.30000     -6.5917575E-08
   24.36000     -6.3573189E-08
   24.42000     -6.1295921E-08
   24.48000     -5.9118950E-08
   24.54000     -5.7066497E-08
   24.60000     -5.5153517E-08
   24.66000     -5.3386970E-08
   24.72000     -5.1768115E-08
   24.78000     -5.0295032E-08
   24.84000     -4.8964736E-08
   24.90000     -4.7774549E-08
   24.96000     -4.6722597E-08
   25.02000     -4.5807663E-08
   25.08000     -4.5028433E-08
   25.14000     -4.4382432E-08
   25.20000     -4.3864777E-08
   25.26000     -4.3467125E-08
   25.32000     -4.3177231E-08
   25.38000     -4.2979671E-08
   25.44000     -4.2857881E-08
   25.50000     -4.2797396E-08
   25.56000     -4.2789313E-08
   25.62000     -4.2832788E-08
   25.68000     -4.2935319E-08
   25.74000     -4.3110145E-08
   25.80000     -4.3371312E-08
   25.86000     -4.3727830E-08
   25.92000     -4.4179103E-08
   25.98000     -4.4713548E-08
   26.04000     -4.5311292E-08
   26.10000     -4.5950348E-08
   26.16000     -4.6614208E-08
   26.22000     -4.7298240E-08
   26.28000     -4.8012300E-08
   26.34000     -4.8778439E-08
   26.40000     -4.9623985E-08
   26.46000     -5.0571920E-08
   26.52000     -5.1631378E-08
   26.58000     -5.2790863E-08
   26.64000     -5.4016251E-08
   26.70000     -5.5253963E-08
   26.76000     -5.6438505E-08
   26.82000     -5.7502351E-08
   26.88000     -5.8385773E-08
   26.94000     -5.9044329E-08
   27.00000     -5.9452496E-08
   27.06000     -5.9603156E-08
   27.12000     -5.9503577E-08
   27.18000     -5.9169547E-08
   27.24000     -5.8619470E-08
   27.30000     -5.7870171E-08
   27.36000     -5.6935214E-08
   27.42000     -5.5825669E-08
   27.48000     -5.4552327E-08
   27.54000     -5.3127838E-08
   27.60000     -5.1567323E-08
   27.66000     -4.9886658E-08
   27.72000     -4.8098549E-08
   27.78000     -4.6207571E-08
   27.84000     -4.4205951E-08
   27.90000     -4.2071893E-08
   27.96000     -3.9771717E-08
   28.02000     -3.7265881E-08
   28.08000     -3.4517779E-08
   28.14000     -3.1503294E-08
   28.20000     -2.8218560E-08
   28.26000     -2.4683906E-08
   28.32000     -2.0942782E-08
   28.38000     -1.7055848E-08
   28.44000     -1.3091666E-08
   28.50000     -9.1162677E-09
   28.56000     -5.1842060E-09
   28.62000     -1.3331151E-09
   28.68000      2.4170805E-09
   28.74000      6.0605743E-09
   28.80000      9.5991455E-09
   28.86000      1.3034948E-08
   28.92000      1.6364950E-08
   28.98000      1.9578733E-08
   29.04000      2.2660132E-08
   29.10000      2.5591831E-08
   29.16000      2.8361010E-08
   29.22000      3.0963644E-08
   29.28000      3.3405652E-08
   29.34000      3.5700126E-08
   29.40000      3.7861319E-08
   29.46000      3.9897326E-08
   29.52000      4.1803872E-08
   29.58000      4.3561418E-08
   29.64000      4.5136808E-08
   29.70000      4.6489234E-08
   29.76000      4.7579018E-08
   29.82000      4.8376791E-08
   29.88000      4.8870444E-08
   29.94000      4.9067928E-08
   30.00000      4.8995048E-08
   30.06000      4.8688914E-08
   30.12000      4.8189051E-08
   30.18000      4.7528705E-08
   30.24000      4.6729053E-08
   30.30000      4.5797815E-08
   30.36000      4.4732566E-08
   30.42000      4.3527397E-08
   30.48000      4.2180641E-08
   30.54000      4.0701039E-08
   30.60000      3.9110450E-08
   30.66000      3.7442483E-08
   30.72000      3.5737621E-08
   30.78000      3.4036564E-08
   30.84000      3.2373777E-08
   30.90000      3.0772814E-08
   30.96000      2.9244429E-08
   31.02000      2.7787490E-08
   31.08000      2.6392275E-08
   31.14000      2.5045207E-08
   31.20000      2.3734060E-08
   31.26000      2.2452522E-08
   31.32000      2.1203055E-08
   31.38000      1.9997206E-08
   31.44000      1.8852992E-08
   31.50000      1.7789752E-08
   31.56000      1.6821723E-08
   31.62000      1.5952189E-08
   31.68000      1.5170084E-08
   31.74000      1.4450276E-08
   31.80000      1.3757588E-08
   31.86000      1.3053402E-08
   31.92000      1.2302815E-08
   31.98000      1.1480258E-08
   32.04000      1.0572078E-08
   32.10000      9.5756310E-09
   32.16000      8.4954772E-09
   32.22000      7.3380408E-09
   32.28000      6.1062804E-09
   32.34000      4.7958029E-09
   32.40000      3.3933740E-09
   32.46000      1.8782187E-09
   32.52000      2.2589611E-10
   32.58000     -1.5860550E-09
   32.64000     -3.5720054E-09
   32.70000     -5.7331992E-09
   32.76000     -8.0552169E-09
   32.82000     -1.0508730E-08
   32.88000     -1.3053458E-08
   32.94000     -1.5644206E-08
   33.00000     -1.8237261E-08
   33.06000     -2.0795357E-08
   33.12000     -2.3289978E-08
   33.18000     -2.5700814E-08
   33.24000     -2.8013144E-08
   33.30000     -3.0214554E-08
   33.36000     -3.2292416E-08
   33.42000     -3.4232993E-08
   33.48000     -3.6022307E-08
   33.54000     -3.7648039E-08
   33.60000     -3.9101579E-08
   33.66000     -4.0379284E-08
   33.72000     -4.1482664E-08
   33.78000     -4.2417540E-08
   33.84000     -4.3192799E-08
   33.90000     -4.3819277E-08
   33.96000     -4.4309115E-08
   34.02000     -4.4675595E-08
   34.08000     -4.4933170E-08
   34.14000     -4.5097465E-08
   34.20000     -4.5184990E-08
   34.26000     -4.5212715E-08
   34.32000     -4.5197684E-08
   34.38000     -4.5156757E-08
   34.44000     -4.5106532E-08
   34.50000     -4.5063228E-08
   34.56000     -4.5042391E-08
   34.62000     -4.5058382E-08
   34.68000     -4.5123912E-08
   34.74000     -4.5249909E-08
   34.80000     -4.5445898E-08
   34.86000     -4.5720693E-08
   34.92000     -4.6082636E-08
   34.98000     -4.6538680E-08
   35.04000     -4.7091831E-08
   35.10000     -4.7737245E-08
   35.16000     -4.8458251E-08
   35.22000     -4.9224184E-08
   35.28000     -4.9991755E-08
   35.34000     -5.0710653E-08
   35.40000     -5.1332652E-08
   35.46000     -5.1821804E-08
   35.52000     -5.2162758E-08
   35.58000     -5.2364388E-08
   35.64000     -5.2457477E-08
   35.70000     -5.2487213E-08
   35.76000     -5.2502948E-08
   35.82000     -5.2548579E-08
   35.88000     -5.2656340E-08
   35.94000     -5.2845397E-08
   36.00000     -5.3124545E-08
   36.06000     -5.3497089E-08
   36.12000     -5.3965344E-08
   36.18000     -5.4532968E-08
   36.24000     -5.5204680E-08
   36.30000     -5.5984177E-08
   36.36000     -5.6871784E-08
   36.42000     -5.7863119E-08
   36.48000     -5.8949112E-08
   36.54000     -6.0116861E-08
   36.60000     -6.1350285E-08
   36.66000     -6.2629809E-08
   36.72000     -6.3931203E-08
   36.78000     -6.5224526E-08
   36.84000     -6.6474428E-08
   36.90000     -6.7642674E-08
   36.96000     -6.8692678E-08
   37.02000     -6.9594748E-08
   37.08000     -7.0330344E-08
   37.14000     -7.0893904E-08
   37.20000     -7.1291808E-08
   37.26000     -7.1539368E-08
   37.32000     -7.1657340E-08
   37.38000     -7.1669454E-08
   37.44000     -7.1601512E-08
   37.50000     -7.1481622E-08
   37.56000     -7.1340253E-08
   37.62000     -7.1208810E-08
   37.68000     -7.1116169E-08
   37.74000     -7.1083733E-08
   37.80000     -7.1120439E-08
   37.86000     -7.1219638E-08
   37.92000     -7.1359025E-08
   37.98000     -7.1504061E-08
   38.04000     -7.1614025E-08
   38.10000     -7.1649076E-08
   38.16000     -7.1576544E-08
   38.22000     -7.1375005E-08
   38.28000     -7.1035274E-08
   38.34000     -7.0558613E-08
   38.40000     -6.9952819E-08
   38.46000     -6.9227617E-08
   38.52000     -6.8390662E-08
   38.58000     -6.7445399E-08
   38.64000     -6.6391344E-08
   38.70000     -6.5226679E-08
   38.76000     -6.3952129E-08
   38.82000     -6.2574856E-08
   38.88000     -6.1110619E-08
   38.94000     -5.9583403E-08
   39.00000     -5.8022263E-08
   39.06000     -5.6456415E-08
   39.12000     -5.4910302E-08
   39.18000     -5.3400317E-08
   39.24000     -5.1934357E-08
   39.30000     -5.0514213E-08
   39.36000     -4.9139565E-08
   39.42000     -4.7811721E-08
   39.48000     -4.6535192E-08
   39.54000     -4.5316309E-08
   39.60000     -4.4159133E-08
   39.66000     -4.3060457E-08
   39.72000     -4.2006054E-08
   39.78000     -4.0970090E-08
   39.84000     -3.9918369E-08
   39.90000     -3.8814626E-08
   39.96000     -3.7627760E-08
   40.02000     -3.6337624E-08
   40.08000     -3.4937656E-08
   40.14000     -3.3433832E-08
   40.20000     -3.1840962E-08
   40.26000     -3.0178143E-08
   40.32000     -2.8465125E-08
   40.38000     -2.6720508E-08
   40.44000     -2.4961626E-08
   40.50000     -2.3205175E-08
   40.56000     -2.1467653E-08
   40.62000     -1.9765096E-08
   40.68000     -1.8112370E-08
   40.74000     -1.6522550E-08
   40.80000     -1.5006709E-08
   40.86000     -1.3573762E-08
   40.92000     -1.2229602E-08
   40.98000     -1.0974852E-08
   41.04000     -9.8014619E-09
   41.10000     -8.6895104E-09
   41.16000     -7.6063129E-09
   41.22000     -6.5095964E-09
   41.28000     -5.3551141E-09
   41.34000     -4.1070969E-09
   41.40000     -2.7483900E-09
   41.46000     -1.2867732E-09
   41.52000      2.4489341E-10
   41.58000      1.7949167E-09
   41.64000      3.3033984E-09
   41.70000      4.7138773E-09
   41.76000      5.9826011E-09
   41.82000      7.0832118E-09
   41.88000      8.0063547E-09
   41.94000      8.7552579E-09
   42.00000      9.3391899E-09
   42.06000      9.7668442E-09
   42.12000      1.0041266E-08
   42.18000      1.0157367E-08
   42.24000      1.0102410E-08
   42.30000      9.8592654E-09
   42.36000      9.4116039E-09
   42.42000      8.7496748E-09
   42.48000      7.8750331E-09
   42.54000      6.8027561E-09
   42.60000      5.5603713E-09
   42.66000      4.1837684E-09
   42.72000      2.7113030E-09
   42.78000      1.1777921E-09
   42.84000     -3.9010903E-10
   42.90000     -1.9763959E-09
   42.96000     -3.5762124E-09
   43.02000     -5.1950910E-09
   43.08000     -6.8477091E-09
   43.14000     -8.5565457E-09
   43.20000     -1.0350288E-08
   43.26000     -1.2261660E-08
   43.32000     -1.4324608E-08
   43.38000     -1.6571358E-08
   43.44000     -1.9030448E-08
   43.50000     -2.1726809E-08
   43.56000     -2.4684404E-08
   43.62000     -2.7930881E-08
   43.68000     -3.1502779E-08
   43.74000     -3.5449499E-08
   43.80000     -3.9834873E-08
   43.86000     -4.4736499E-08
   43.92000     -5.0244221E-08
   43.98000     -5.6459932E-08
   44.04000     -6.3500465E-08
   44.10000     -7.1504012E-08
   44.16000     -8.0638749E-08
   44.22000     -9.1111289E-08
   44.28000     -1.0317248E-07
   44.34000     -1.1711914E-07
   44.40000     -1.3329246E-07
   44.46000     -1.5207553E-07
   44.52000     -1.7389307E-07
   44.58000     -1.9921670E-07
   44.64000     -2.2857620E-07
   44.70000     -2.6257641E-07
   44.76000     -3.0191663E-07
   44.82000     -3.4740984E-07
   44.88000     -3.9999856E-07
   44.94000     -4.6076718E-07
   45.00000     -5.3095090E-07
   45.06000     -6.1194271E-07
   45.12000     -7.0530143E-07
   45.18000     -8.1276090E-07
   45.24000     -9.3624288E-07
   45.30000     -1.0778732E-06
   45.36000     -1.2400010E-06
   45.42000     -1.4252208E-06
   45.48000     -1.6363965E-06
   45.54000     -1.8766855E-06
   45.60000     -2.1495632E-06
   45.66000     -2.4588464E-06
   45.72000     -2.8087104E-06
   45.78000     -3.2037094E-06
   45.84000     -3.6487925E-06
   45.90000     -4.1493186E-06
   45.96000     -4.7110721E-06
   46.02000     -5.3402814E-06
   46.08000     -6.0436314E-06
   46.14000     -6.8282743E-06
   46.20000     -7.7018394E-06
   46.26000     -8.6724367E-06
   46.32000     -9.7486545E-06
   46.38000     -1.0939560E-05
   46.44000     -1.2254683E-05
   46.50000     -1.3704003E-05
   46.56000     -1.5297925E-05
   46.62000     -1.7047241E-05
   46.68000     -1.8963088E-05
   46.74000     -2.1056905E-05
   46.80000     -2.3340375E-05
   46.86000     -2.5825373E-05
   46.92000     -2.8523893E-05
   46.98000     -3.1447995E-05
   47.04000     -3.4609722E-05
   47.10000     -3.8021008E-05
   47.16000     -4.1693580E-05
   47.22000     -4.5638870E-05
   47.28000     -4.9867882E-05
   47.34000     -5.4391065E-05
   47.40000     -5.9218193E-05
   47.46000     -6.4358232E-05
   47.52000     -6.9819223E-05
   47.58000     -7.5608150E-05
   47.64000     -8.1730817E-05
   47.70000     -8.8191722E-05
   47.76000     -9.4993928E-05
   47.82000     -1.0213896E-04
   47.88000     -1.0962666E-04
   47.94000     -1.1745508E-04
   48.00000     -1.2562038E-04
   48.06000     -1.3411680E-04
   48.12000     -1.4293649E-04
   48.18000     -1.5206960E-04
   48.24000     -1.6150407E-04
   48.30000     -1.7122571E-04
   48.36000     -1.8121822E-04
   48.42000     -1.9146314E-04
   48.48000     -2.0193998E-04
   48.54000     -2.1262628E-04
   48.60000     -2.2349771E-04
   48.66000     -2.3452820E-04
   48.72000     -2.4569003E-04
   48.78000     -2.5695408E-04
   48.84000     -2.6828996E-04
   48.90000     -2.7966624E-04
   48.96000     -2.9105067E-04
   49.02000     -3.0241031E-04
   49.08000     -3.1371199E-04
   49.14000     -3.2492247E-04
   49.20000     -3.3600876E-04
   49.26000     -3.4693847E-04
   49.32000     -3.5768008E-04
   49.38000     -3.6820327E-04
   49.44000     -3.7847934E-04
   49.50000     -3.8848119E-04
   49.56000     -3.9818391E-04
   49.62000     -4.0756472E-04
   49.68000     -4.1660358E-04
   49.74000     -4.2528316E-04
   49.80000     -4.3358913E-04
   49.86000     -4.4151032E-04
   49.92000     -4.4903872E-04
   49.98000     -4.5616980E-04
   50.04000     -4.6290248E-04
   50.10000     -4.6923893E-04
   50.16000     -4.7518490E-04
   50.22000     -4.8074938E-04
   50.28000     -4.8594474E-04
   50.34000     -4.9078639E-04
   50.40000     -4.9529260E-04
   50.46000     -4.9948442E-04
   50.52000     -5.0338532E-04
   50.58000     -5.0702080E-04
   50.64000     -5.1041826E-04
   50.70000     -5.1360636E-04
   50.76000     -5.1661511E-04
   50.82000     -5.1947508E-04
   50.88000     -5.2221725E-04
   50.94000     -5.2487239E-04
   51.00000     -5.2747072E-04
   51.06000     -5.3004140E-04
   51.12000     -5.3261203E-04
   51.18000     -5.3520879E-04
   51.24000     -5.3785567E-04
   51.30000     -5.4057443E-04
   51.36000     -5.4338388E-04
   51.42000     -5.4630020E-04
   51.48000     -5.4933591E-04
   51.54000     -5.5250025E-04
   51.60000     -5.5579864E-04
   51.66000     -5.5923319E-04
   51.72000     -5.6280213E-04
   51.78000     -5.6650053E-04
   51.84000     -5.7031977E-04
   51.90000     -5.7424774E-04
   51.96000     -5.7826884E-04
   52.02000     -5.8236439E-04
   52.08000     -5.8651267E-04
   52.14000     -5.9068960E-04
   52.20000     -5.9486885E-04
   52.26000     -5.9902249E-04
   52.32000     -6.0312101E-04
   52.38000     -6.0713437E-04
   52.44000     -6.1103143E-04
   52.50000     -6.1478117E-04
   52.56000     -6.1835255E-04
   52.62000     -6.2171533E-04
   52.68000     -6.2484050E-04
   52.74000     -6.2770053E-04
   52.80000     -6.3027011E-04
   52.86000     -6.3252612E-04
   52.92000     -6.3444808E-04
   52.98000     -6.3601841E-04
   53.04000     -6.3722266E-04
   53.10000     -6.3804968E-04
   53.16000     -6.3849159E-04
   53.22000     -6.3854427E-04
   53.28000     -6.3820730E-04
   53.34000     -6.3748402E-04
   53.40000     -6.3638127E-04
   53.46000     -6.3490920E-04
   53.52000     -6.3308107E-04
   53.58000     -6.3091301E-04
   53.64000     -6.2842388E-04
   53.70000     -6.2563503E-04
   53.76000     -6.2256999E-04
   53.82000     -6.1925419E-04
   53.88000     -6.1571476E-04
   53.94000     -6.1197963E-04
   54.00000     -6.0807716E-04
   54.06000     -6.0403586E-04
   54.12000     -5.9988379E-04
   54.18000     -5.9564813E-04
   54.24000     -5.9135532E-04
   54.30000     -5.8703043E-04
   54.36000     -5.8269675E-04
   54.42000     -5.7837559E-04
   54.48000     -5.7408580E-04
   54.54000     -5.6984340E-04
   54.60000     -5.6566135E-04
   54.66000     -5.6154985E-04
   54.72000     -5.5751583E-04
   54.78000     -5.5356330E-04
   54.84000     -5.4969307E-04
   54.90000     -5.4590305E-04
   54.96000     -5.4218801E-04
   55.02000     -5.3853955E-04
   55.08000     -5.3494674E-04
   55.14000     -5.3139601E-04
   55.20000     -5.2787171E-04
   55.26000     -5.2435626E-04
   55.32000     -5.2083045E-04
   55.38000     -5.1727379E-04
   55.44000     -5.1366474E-04
   55.50000     -5.0998095E-04
   55.56000     -5.0620001E-04