 -0.750000000       0.00000000    
 -0.689999998       0.00000000    
 -0.629999995       0.00000000    
 -0.569999993       0.00000000    
 -0.509999990       0.00000000    
 -0.449999988       0.00000000    
 -0.389999986       0.00000000    
 -0.330000013       0.00000000    
 -0.270000011       0.00000000    
 -0.209999993       1.03095463E-27
 -0.150000006       1.30397013E-26
  -9.00000036E-02   7.83567525E-26
  -2.99999993E-02   2.80327762E-25
   2.99999993E-02   5.57740339E-25
   9.00000036E-02  -5.26778879E-26
  0.150000006      -4.87168073E-24
  0.209999993      -2.01927850E-23
  0.270000011      -5.01664165E-23
  0.330000013      -7.89875759E-23
  0.389999986      -4.04811199E-23
  0.449999988       2.00390322E-22
  0.509999990       7.93379854E-22
  0.569999993       1.70375396E-21
  0.629999995       2.37164152E-21
  0.689999998       1.43728963E-21
  0.750000000      -3.00378583E-21
  0.810000002      -1.20947845E-20
  0.870000005      -2.38271250E-20
  0.930000007      -3.06949826E-20
  0.990000010      -1.98757946E-20
   1.04999995       2.12869664E-20
   1.11000001       9.39231468E-20
   1.16999996       1.74823511E-19
   1.23000002       2.12178483E-19
   1.28999996       1.41205715E-19
   1.35000002      -7.68314369E-20
   1.40999997      -4.06103495E-19
   1.47000003      -7.10869092E-19
   1.52999997      -7.90442678E-19
   1.59000003      -4.87220238E-19
   1.64999998       1.72114236E-19
   1.71000004       8.96975838E-19
   1.76999998       1.22101867E-18
   1.83000004       7.92864301E-19
   1.88999999      -2.44308182E-19
   1.95000005      -1.04961579E-18
   2.00999999      -3.53276406E-19
   2.06999993       2.70120689E-18
   2.13000011       7.44330285E-18
   2.19000006       1.10127146E-17
   2.25000000       8.98841337E-18
   2.30999994      -2.30781654E-18
   2.36999989      -2.24781368E-17
   2.43000007      -4.44914015E-17
   2.49000001      -5.52280867E-17
   2.54999995      -4.06061672E-17
   2.60999990       5.59026939E-18
   2.67000008       7.30870319E-17
   2.73000002       1.32592076E-16
   2.78999996       1.44335724E-16
   2.84999990       7.79948666E-17
   2.91000009      -6.28721124E-17
   2.97000003      -2.25094876E-16
   3.02999997      -3.13202105E-16
   3.08999991      -2.26922800E-16
   3.15000010       7.88481398E-17
   3.21000004       5.36424748E-16
   3.26999998       9.45065894E-16
   3.32999992       1.01763205E-15
   3.39000010       4.99194473E-16
   3.45000005      -6.75006220E-16
   3.50999999      -2.25007357E-15
   3.56999993      -3.63106253E-15
   3.63000011      -4.02744219E-15
   3.69000006      -2.75503649E-15
   3.75000000       3.94031468E-16
   3.80999994       4.86828078E-15
   3.86999989       9.32554815E-15
   3.93000007       1.19502483E-14
   3.99000001       1.10801337E-14
   4.05000019       5.94692769E-15
   4.11000013      -2.77099862E-15
   4.17000008      -1.28763992E-14
   4.23000002      -2.12038554E-14
   4.28999996      -2.46834227E-14
   4.34999990      -2.15498226E-14
   4.40999985      -1.21901373E-14
   4.46999979       8.06412688E-16
   4.53000021       1.35423933E-14
   4.59000015       2.23794914E-14
   4.65000010       2.55423666E-14
   4.71000004       2.39900517E-14
   4.76999998       2.09974182E-14
   4.82999992       2.04108987E-14
   4.88999987       2.41897837E-14
   4.94999981       3.03394598E-14
   5.01000023       3.24263592E-14
   5.07000017       2.14129997E-14
   5.13000011      -1.03479787E-14
   5.19000006      -6.41730660E-14
   5.25000000      -1.31161100E-13
   5.30999994      -1.91495420E-13
   5.36999989      -2.18339290E-13
   5.42999983      -1.86212590E-13
   5.48999977      -8.18396390E-14
   5.55000019       8.61781146E-14
   5.61000013       2.83160946E-13
   5.67000008       4.53040546E-13
   5.73000002       5.32836904E-13
   5.78999996       4.74156413E-13
   5.84999990       2.65268005E-13
   5.90999985      -5.48836116E-14
   5.96999979      -3.98691253E-13
   6.03000021      -6.51722166E-13
   6.09000015      -7.11156177E-13
   6.15000010      -5.29816262E-13
   6.21000004      -1.49272847E-13
   6.26999998       2.94732066E-13
   6.32999992       6.04636404E-13
   6.38999987       5.88585766E-13
   6.44999981       1.45437102E-13
   6.51000023      -6.62397058E-13
   6.57000017      -1.58103695E-12
   6.63000011      -2.20588348E-12
   6.69000006      -2.09431192E-12
   6.75000000      -9.27153103E-13
   6.80999994       1.32780158E-12
   6.86999989       4.30848759E-12
   6.92999983       7.25857352E-12
   6.98999977       9.15966868E-12
   7.05000019       8.98144493E-12
   7.11000013       5.99484568E-12
   7.17000008       6.49136710E-14
   7.23000002      -8.16613964E-12
   7.28999996      -1.72742463E-11
   7.34999990      -2.52525483E-11
   7.40999985      -2.98857224E-11
   7.46999979      -2.92221559E-11
   7.53000021      -2.20374968E-11
   7.59000015      -8.18253538E-12
   7.65000010       1.12629177E-11
   7.71000004       3.40595260E-11
   7.76999998       5.70756532E-11
   7.82999992       7.66822300E-11
   7.88999987       8.91850344E-11
   7.94999981       9.12134257E-11
   8.01000023       8.00211564E-11
   8.06999969       5.37065635E-11
   8.13000011       1.14080733E-11
   8.18999958      -4.64408963E-11
   8.25000000      -1.17721902E-10
   8.31000042      -1.98077402E-10
   8.36999989      -2.80242801E-10
   8.43000031      -3.53401336E-10
   8.48999977      -4.02765155E-10
   8.55000019      -4.09603518E-10
   8.60999966      -3.51890017E-10
   8.67000008      -2.05630776E-10
   8.72999954       5.32111057E-11
   8.78999996       4.46420151E-10
   8.85000038       9.91178473E-10
   8.90999985       1.69799019E-09
   8.97000027       2.56914201E-09
   9.02999973       3.59783714E-09
   9.09000015       4.76800777E-09
   9.14999962       6.05471095E-09
   9.21000004       7.42498729E-09
   9.27000046       8.83908324E-09
   9.32999992       1.02520188E-08
   9.39000034       1.16155352E-08
   9.44999981       1.28804842E-08
   9.51000023       1.39996406E-08
   9.56999969       1.49308352E-08
   9.63000011       1.56401150E-08
   9.68999958       1.61045328E-08
   9.75000000       1.63140701E-08
   9.81000042       1.62722298E-08
   9.86999989       1.59950151E-08
   9.93000031       1.55081921E-08
   9.98999977       1.48431365E-08
   10.0500002       1.40318637E-08
   10.1099997       1.31020759E-08
   10.1700001       1.20732073E-08
   10.2299995       1.09543112E-08
   10.2900000       9.74431913E-09
   10.3500004       8.43468939E-09
   10.4099998       7.01392588E-09
   10.4700003       5.47293411E-09
   10.5299997       3.80995058E-09
   10.5900002       2.03383332E-09
   10.6499996       1.64887631E-10
   10.7100000      -1.76697923E-09
   10.7700005      -3.72629394E-09
   10.8299999      -5.67720582E-09
   10.8900003      -7.58851915E-09
   10.9499998      -9.43736023E-09
   11.0100002      -1.12106946E-08
   11.0699997      -1.29045441E-08
   11.1300001      -1.45214063E-08
   11.1899996      -1.60668190E-08
   11.2500000      -1.75461814E-08
   11.3100004      -1.89626963E-08
   11.3699999      -2.03169126E-08
   11.4300003      -2.16077218E-08
   11.4899998      -2.28341950E-08
   11.5500002      -2.39974138E-08
   11.6099997      -2.51014978E-08
   11.6700001      -2.61533284E-08
   11.7299995      -2.71609739E-08
   11.7900000      -2.81312538E-08
   11.8500004      -2.90672357E-08
   11.9099998      -2.99664151E-08
   11.9700003      -3.08202424E-08
   12.0299997      -3.16151088E-08
   12.0900002      -3.23345404E-08
   12.1499996      -3.29618572E-08
   12.2100000      -3.34824790E-08
   12.2700005      -3.38850406E-08
   12.3299999      -3.41609692E-08
   12.3900003      -3.43027153E-08
   12.4499998      -3.43013760E-08
   12.5100002      -3.41448185E-08
   12.5699997      -3.38174786E-08
   12.6300001      -3.33024417E-08
   12.6899996      -3.25858274E-08
   12.7500000      -3.16624345E-08
   12.8100004      -3.05409849E-08
   12.8699999      -2.92470315E-08
   12.9300003      -2.78220380E-08
   12.9899998      -2.63180748E-08
   13.0500002      -2.47889567E-08
   13.1099997      -2.32798669E-08
   13.1700001      -2.18182166E-08
   13.2299995      -2.04084341E-08
   13.2900000      -1.90324396E-08
   13.3500004      -1.76560366E-08
   13.4099998      -1.62397793E-08
   13.4700003      -1.47515067E-08
   13.5299997      -1.31772095E-08
   13.5900002      -1.15271970E-08
   13.6499996      -9.83577664E-09
   13.7100000      -8.15439005E-09
   13.7700005      -6.53990018E-09
   13.8299999      -5.04111153E-09
   13.8900003      -3.68711439E-09
   13.9499998      -2.48066412E-09
   14.0100002      -1.39849388E-09
   14.0699997      -3.98623634E-10
   14.1300001       5.67237368E-10
   14.1899996       1.53959534E-09
   14.2500000       2.53940180E-09
   14.3100004       3.56211793E-09
   14.3699999       4.57954830E-09
   14.4300003       5.54916157E-09
   14.4899998       6.42836406E-09
   14.5500002       7.18962134E-09
   14.6099997       7.83193066E-09
   14.6700001       8.38512726E-09
   14.7299995       8.90556695E-09
   14.7900000       9.46426226E-09
   14.8500004       1.01307691E-08
   14.9099998       1.09572937E-08
   14.9700003       1.19673249E-08
   15.0299997       1.31516185E-08
   15.0900002       1.44721355E-08
   15.1499996       1.58722386E-08
   15.2100000       1.72898496E-08
   15.2700005       1.86697307E-08
   15.3299999       1.99717149E-08
   15.3900003       2.11732889E-08
   15.4499998       2.22666809E-08
   15.5100002       2.32523476E-08
   15.5699997       2.41314968E-08
   15.6300001       2.49003502E-08
   15.6899996       2.55479975E-08
   15.7500000       2.60583715E-08
   15.8100004       2.64155151E-08
   15.8699999       2.66101807E-08
   15.9300003       2.66454112E-08
   15.9899998       2.65389062E-08
   16.0499992       2.63209667E-08
   16.1100006       2.60280650E-08
   16.1700001       2.56935717E-08
   16.2299995       2.53382648E-08
   16.2900009       2.49635725E-08
   16.3500004       2.45501095E-08
   16.4099998       2.40625955E-08
   16.4699993       2.34603785E-08
   16.5300007       2.27108661E-08
   16.5900002       2.18020357E-08
   16.6499996       2.07500719E-08
   16.7099991       1.95994971E-08
   16.7700005       1.84152658E-08
   16.8299999       1.72687606E-08
   16.8899994       1.62214615E-08
   16.9500008       1.53107518E-08
   17.0100002       1.45416035E-08
   17.0699997       1.38861038E-08
   17.1299992       1.32905020E-08
   17.1900005       1.26875541E-08
   17.2500000       1.20108083E-08
   17.3099995       1.12074732E-08
   17.3700008       1.02473559E-08
   17.4300003       9.12665055E-09
   17.4899998       7.86669396E-09
   17.5499992       6.50882281E-09
   17.6100006       5.10698195E-09
   17.6700001       3.71990083E-09
   17.7299995       2.40441334E-09
   17.7900009       1.21104948E-09
   17.8500004       1.82370397E-10
   17.9099998      -6.46228515E-10
   17.9699993      -1.24421229E-09
   18.0300007      -1.58349989E-09
   18.0900002      -1.63734815E-09
   18.1499996      -1.38137779E-09
   18.2099991      -7.96675392E-10
   18.2700005       1.26080243E-10
   18.3299999       1.38315359E-09
   18.3899994       2.95662361E-09
   18.4500008       4.81654228E-09
   18.5100002       6.92612367E-09
   18.5699997       9.24854415E-09
   18.6299992       1.17531789E-08
   18.6900005       1.44192196E-08
   18.7500000       1.72354504E-08
   18.8099995       2.01962926E-08
   18.8700008       2.32955166E-08
   18.9300003       2.65198405E-08
   18.9899998       2.98446459E-08
   19.0499992       3.32332810E-08
   19.1100006       3.66404045E-08
   19.1700001       4.00182500E-08
   19.2299995       4.33240466E-08
   19.2900009       4.65262069E-08
   19.3500004       4.96074257E-08
   19.4099998       5.25636779E-08
   19.4699993       5.53993722E-08
   19.5300007       5.81201327E-08
   19.5900002       6.07253909E-08
   19.6499996       6.32031885E-08
   19.7099991       6.55289014E-08
   19.7700005       6.76682461E-08
   19.8299999       6.95840185E-08
   19.8899994       7.12442656E-08
   19.9500008       7.26296321E-08
   20.0100002       7.37374677E-08
   20.0699997       7.45814788E-08
   20.1299992       7.51866764E-08
   20.1900005       7.55811058E-08
   20.2500000       7.57863035E-08
   20.3099995       7.58092256E-08
   20.3700008       7.56378000E-08
   20.4300003       7.52417648E-08
   20.4899998       7.45788711E-08
   20.5499992       7.36054631E-08
   20.6100006       7.22889411E-08
   20.6700001       7.06190022E-08
   20.7299995       6.86144475E-08
   20.7900009       6.63232527E-08
   20.8500004       6.38154205E-08
   20.9099998       6.11700628E-08
   20.9699993       5.84602020E-08
   21.0300007       5.57396191E-08
   21.0900002       5.30356878E-08
   21.1499996       5.03503230E-08
   21.2099991       4.76686175E-08
   21.2700005       4.49721611E-08
   21.3299999       4.22523989E-08
   21.3899994       3.95193851E-08
   21.4500008       3.68029518E-08
   21.5100002       3.41459412E-08
   21.5699997       3.15919593E-08
   21.6299992       2.91719644E-08
   21.6900005       2.68942255E-08
   21.7500000       2.47408742E-08
   21.8099995       2.26717880E-08
   21.8700008       2.06340918E-08
   21.9300003       1.85738323E-08
   21.9899998       1.64462097E-08
   22.0499992       1.42217154E-08
   22.1100006       1.18873533E-08
   22.1700001       9.44391054E-09
   22.2299995       6.90116364E-09
   22.2900009       4.27299485E-09
   22.3500004       1.57364755E-09
   22.4099998      -1.18457488E-09
   22.4699993      -3.99249833E-09
   22.5300007      -6.84456758E-09
   22.5900002      -9.73873604E-09
   22.6499996      -1.26754935E-08
   22.7099991      -1.56557221E-08
   22.7700005      -1.86775111E-08
   22.8299999      -2.17326814E-08
   22.8899994      -2.48043470E-08
   22.9500008      -2.78667596E-08
   23.0100002      -3.08881312E-08
   23.0699997      -3.38359314E-08
   23.1299992      -3.66832253E-08
   23.1900005      -3.94140613E-08
   23.2500000      -4.20260022E-08
   23.3099995      -4.45289920E-08
   23.3700008      -4.69407944E-08
   23.4300003      -4.92805050E-08
   23.4899998      -5.15620080E-08
   23.5499992      -5.37894422E-08
   23.6100006      -5.59557236E-08
   23.6700001      -5.80445843E-08
   23.7299995      -6.00352621E-08
   23.7900009      -6.19085370E-08
   23.8500004      -6.36523509E-08
   23.9099998      -6.52654393E-08
   23.9699993      -6.67581048E-08
   24.0300007      -6.81497951E-08
   24.0900002      -6.94642210E-08
   24.1499996      -7.07234236E-08
   24.2099991      -7.19422601E-08
   24.2700005      -7.31251717E-08
   24.3299999      -7.42657065E-08
   24.3899994      -7.53490284E-08
   24.4500008      -7.63561161E-08
   24.5100002      -7.72680977E-08
   24.5699997      -7.80689007E-08
   24.6299992      -7.87451171E-08
   24.6900005      -7.92832964E-08
   24.7500000      -7.96658881E-08
   24.8099995      -7.98680801E-08
   24.8700008      -7.98577631E-08
   24.9300003      -7.95996584E-08
   24.9899998      -7.90633337E-08
   25.0499992      -7.82328371E-08
   25.1100006      -7.71147342E-08
   25.1700001      -7.57415251E-08
   25.2299995      -7.41687174E-08
   25.2900009      -7.24660794E-08
   25.3500004      -7.07057239E-08
   25.4099998      -6.89508255E-08
   25.4699993      -6.72483580E-08
   25.5300007      -6.56275603E-08
   25.5900002      -6.41035385E-08
   25.6499996      -6.26835970E-08
   25.7099991      -6.13729512E-08
   25.7700005      -6.01774062E-08
   25.8299999      -5.91021951E-08
   25.8899994      -5.81480677E-08
   25.9500008      -5.73070835E-08
   26.0100002      -5.65604061E-08
   26.0699997      -5.58794611E-08
   26.1299992      -5.52302630E-08
   26.1900005      -5.45794165E-08
   26.2500000      -5.38998357E-08
   26.3099995      -5.31746167E-08
   26.3700008      -5.23984092E-08
   26.4300003      -5.15767482E-08
   26.4899998      -5.07241573E-08
   26.5499992      -4.98620309E-08
   26.6100006      -4.90166343E-08
   26.6700001      -4.82172062E-08
   26.7299995      -4.74937742E-08
   26.7900009      -4.68746322E-08
   26.8500004      -4.63836400E-08
   26.9099998      -4.60380889E-08
   26.9699993      -4.58477096E-08
   27.0300007      -4.58151703E-08
   27.0900002      -4.59377851E-08
   27.1499996      -4.62095215E-08
   27.2099991      -4.66223540E-08
   27.2700005      -4.71662460E-08
   27.3299999      -4.78277720E-08
   27.3899994      -4.85880847E-08
   27.4500008      -4.94215016E-08
   27.5100002      -5.02958386E-08
   27.5699997      -5.11750500E-08
   27.6299992      -5.20239105E-08
   27.6900005      -5.28135509E-08
   27.7500000      -5.35262217E-08
   27.8099995      -5.41576917E-08
   27.8700008      -5.47164802E-08
   27.9300003      -5.52200454E-08
   27.9899998      -5.56890178E-08
   28.0499992      -5.61413316E-08
   28.1100006      -5.65878615E-08
   28.1700001      -5.70307819E-08
   28.2299995      -5.74647387E-08
   28.2900009      -5.78800297E-08
   28.3500004      -5.82664050E-08
   28.4099998      -5.86160596E-08
   28.4699993      -5.89248366E-08
   28.5300007      -5.91914358E-08
   28.5900002      -5.94149689E-08
   28.6499996      -5.95917697E-08
   28.7099991      -5.97123986E-08
   28.7700005      -5.97596284E-08
   28.8299999      -5.97082277E-08
   28.8899994      -5.95268048E-08
   28.9500008      -5.91818470E-08
   29.0100002      -5.86431987E-08
   29.0699997      -5.78898209E-08
   29.1299992      -5.69139331E-08
   29.1900005      -5.57218556E-08
   29.2500000      -5.43304708E-08
   29.3099995      -5.27599013E-08
   29.3700008      -5.10243723E-08
   29.4300003      -4.91246759E-08
   29.4899998      -4.70454076E-08
   29.5499992      -4.47589308E-08
   29.6100006      -4.22356514E-08
   29.6700001      -3.94575821E-08
   29.7299995      -3.64307127E-08
   29.7900009      -3.31916148E-08
   29.8500004      -2.98055980E-08
   29.9099998      -2.63565383E-08
   29.9699993      -2.29315074E-08
   30.0300007      -1.96050891E-08
   30.0900002      -1.64282437E-08
   30.1499996      -1.34249234E-08
   30.2099991      -1.05967404E-08
   30.2700005      -7.93328336E-09
   30.3299999      -5.42392620E-09
   30.3899994      -3.06684278E-09
   30.4500008      -8.72304673E-10
   30.5100002       1.14040088E-09
   30.5699997       2.95083757E-09
   30.6299992       4.54695170E-09
   30.6900005       5.93280491E-09
   30.7500000       7.13185955E-09
   30.8099995       8.18471335E-09
   30.8700008       9.14194587E-09
   30.9300003       1.00541273E-08
   30.9899998       1.09617382E-08
   31.0499992       1.18876313E-08
   31.1100006       1.28338282E-08
   31.1700001       1.37832457E-08
   31.2299995       1.47056074E-08
   31.2900009       1.55658082E-08
   31.3500004       1.63324536E-08
   31.4099998       1.69844636E-08
   31.4699993       1.75142709E-08
   31.5300007       1.79272082E-08
   31.5900002       1.82377953E-08
   31.6499996       1.84643536E-08
   31.7099991       1.86237887E-08
   31.7700005       1.87280911E-08
   31.8299999       1.87834424E-08
   31.8899994       1.87919618E-08
   31.9500008       1.87552800E-08
   32.0099983       1.86786036E-08
   32.0699997       1.85738109E-08
   32.1300011       1.84603373E-08
   32.1899986       1.83632718E-08
   32.2500000       1.83089064E-08
   32.3100014       1.83187794E-08
   32.3699989       1.84038669E-08
   32.4300003       1.85607103E-08
   32.4900017       1.87707805E-08
   32.5499992       1.90034513E-08
   32.6100006       1.92216945E-08
   32.6699982       1.93887146E-08
   32.7299995       1.94733794E-08
   32.7900009       1.94528713E-08
   32.8499985       1.93121306E-08
   32.9099998       1.90410674E-08
   32.9700012       1.86313844E-08
   33.0299988       1.80749176E-08
   33.0900002       1.73645596E-08
   33.1500015       1.64974097E-08
   33.2099991       1.54786512E-08
   33.2700005       1.43241090E-08
   33.3300018       1.30598812E-08
   33.3899994       1.17186261E-08
   33.4500008       1.03334399E-08
   33.5099983       8.93126284E-09
   33.5699997       7.52797469E-09
   33.6300011       6.12678264E-09
   33.6899986       4.72038719E-09
   33.7500000       3.29622085E-09
   33.8100014       1.84309779E-09
   33.8699989       3.57231494E-10
   33.9300003      -1.15426246E-09
   33.9900017      -2.67354738E-09
   34.0499992      -4.17605772E-09
   34.1100006      -5.63729596E-09
   34.1699982      -7.04047975E-09
   34.2299995      -8.38265990E-09
   34.2900009      -9.67718350E-09
   34.3499985      -1.09513776E-08
   34.4099998      -1.22397195E-08
   34.4700012      -1.35742191E-08
   34.5299988      -1.49746153E-08
   34.5900002      -1.64410796E-08
   34.6500015      -1.79513915E-08
   34.7099991      -1.94632097E-08
   34.7700005      -2.09208704E-08
   34.8300018      -2.22650307E-08
   34.8899994      -2.34431976E-08
   34.9500008      -2.44190925E-08
   35.0099983      -2.51790748E-08
   35.0699997      -2.57343142E-08
   35.1300011      -2.61178617E-08
   35.1899986      -2.63767763E-08
   35.2500000      -2.65606381E-08
   35.3100014      -2.67091771E-08
   35.3699989      -2.68426223E-08
   35.4300003      -2.69581584E-08
   35.4900017      -2.70343428E-08
   35.5499992      -2.70425957E-08
   35.6100006      -2.69620930E-08
   35.6699982      -2.67926747E-08
   35.7299995      -2.65606861E-08
   35.7900009      -2.63151652E-08
   35.8499985      -2.61155133E-08
   35.9099998      -2.60153143E-08
   35.9700012      -2.60485358E-08
   36.0299988      -2.62234892E-08
   36.0900002      -2.65265570E-08
   36.1500015      -2.69336997E-08
   36.2099991      -2.74244965E-08
   36.2700005      -2.79925487E-08
   36.3300018      -2.86478077E-08
   36.3899994      -2.94099802E-08
   36.4500008      -3.02959116E-08
   36.5099983      -3.13064632E-08
   36.5699997      -3.24185088E-08
   36.6300011      -3.35854615E-08
   36.6899986      -3.47465381E-08
   36.7500000      -3.58413637E-08
   36.8100014      -3.68247477E-08
   36.8699989      -3.76765286E-08
   36.9300003      -3.84034387E-08
   36.9900017      -3.90329298E-08
   37.0499992      -3.96017867E-08
   37.1100006      -4.01438456E-08
   37.1699982      -4.06811083E-08
   37.2299995      -4.12207797E-08
   37.2900009      -4.17582697E-08
   37.3499985      -4.22839790E-08
   37.4099998      -4.27906173E-08
   37.4700012      -4.32779181E-08
   37.5299988      -4.37533529E-08
   37.5900002      -4.42291785E-08
   37.6500015      -4.47178863E-08
   37.7099991      -4.52283579E-08
   37.7700005      -4.57644660E-08
   37.8300018      -4.63262815E-08
   37.8899994      -4.69127386E-08
   37.9500008      -4.75237911E-08
   38.0099983      -4.81606222E-08
   38.0699997      -4.88234946E-08
   38.1300011      -4.95082801E-08
   38.1899986      -5.02034574E-08
   38.2500000      -5.08892590E-08
   38.3100014      -5.15396685E-08
   38.3699989      -5.21266514E-08
   38.4300003      -5.26251469E-08
   38.4900017      -5.30170183E-08
   38.5499992      -5.32930358E-08
   38.6100006      -5.34526841E-08
   38.6699982      -5.35027489E-08
   38.7299995      -5.34556648E-08
   38.7900009      -5.33283604E-08
   38.8499985      -5.31416227E-08
   38.9099998      -5.29193542E-08
   38.9700012      -5.26870885E-08
   39.0299988      -5.24693888E-08
   39.0900002      -5.22865058E-08
   39.1500015      -5.21511012E-08
   39.2099991      -5.20661310E-08
   39.2700005      -5.20245607E-08
   39.3300018      -5.20111172E-08
   39.3899994      -5.20056886E-08
   39.4500008      -5.19875023E-08
   39.5099983      -5.19391250E-08
   39.5699997      -5.18492378E-08
   39.6300011      -5.17134993E-08
   39.6899986      -5.15329965E-08
   39.7500000      -5.13105789E-08
   39.8100014      -5.10458378E-08
   39.8699989      -5.07302573E-08
   39.9300003      -5.03443012E-08
   39.9900017      -4.98578814E-08
   40.0499992      -4.92347105E-08
   40.1100006      -4.84397162E-08
   40.1699982      -4.74475108E-08
   40.2299995      -4.62492480E-08
   40.2900009      -4.48555788E-08
   40.3499985      -4.32946834E-08
   40.4099998      -4.16058619E-08
   40.4700012      -3.98307449E-08
   40.5299988      -3.80048029E-08
   40.5900002      -3.61515475E-08
   40.6500015      -3.42808306E-08
   40.7099991      -3.23911635E-08
   40.7700005      -3.04747161E-08
   40.8300018      -2.85230666E-08
   40.8899994      -2.65317759E-08
   40.9500008      -2.45025831E-08
   41.0099983      -2.24430394E-08
   41.0699997      -2.03643520E-08
   41.1300011      -1.82787119E-08
   41.1899986      -1.61973777E-08
   41.2500000      -1.41301957E-08
   41.3100014      -1.20864430E-08
   41.3699989      -1.00762092E-08
   41.4300003      -8.11125744E-09
   41.4900017      -6.20467588E-09
   41.5499992      -4.36941194E-09
   41.6100006      -2.61652611E-09
   41.6699982      -9.54393009E-10
   41.7299995       6.10304807E-10
   41.7900009       2.06991357E-09
   41.8499985       3.41271233E-09
   41.9099998       4.62128380E-09
   41.9700012       5.67398262E-09
   42.0299988       6.54993748E-09
   42.0900002       7.23638394E-09
   42.1500015       7.73579334E-09
   42.2099991       8.06996869E-09
   42.2700005       8.27920132E-09
   42.3300018       8.41641334E-09
   42.3899994       8.53810889E-09
   42.4500008       8.69507755E-09
   42.5099983       8.92563090E-09
   42.5699997       9.25291399E-09
   42.6300011       9.68599689E-09
   42.6899986       1.02230935E-08
   42.7500000       1.08547562E-08
   42.8100014       1.15655432E-08
   42.8699989       1.23338868E-08
   42.9300003       1.31311406E-08
   42.9900017       1.39213308E-08
   43.0499992       1.46628798E-08
   43.1100006       1.53126223E-08
   43.1699982       1.58313505E-08
   43.2299995       1.61894018E-08
   43.2900009       1.63706755E-08
   43.3499985       1.63740506E-08
   43.4099998       1.62119775E-08
   43.4700012       1.59069398E-08
   43.5299988       1.54869557E-08
   43.5900002       1.49813690E-08
   43.6500015       1.44177870E-08
   43.7099991       1.38204390E-08
   43.7700005       1.32096680E-08
   43.8300018       1.26019328E-08
   43.8899994       1.20097630E-08
   43.9500008       1.14414647E-08
   44.0099983       1.09008704E-08
   44.0699997       1.03877689E-08
   44.1300011       9.89966420E-09
   44.1899986       9.43506429E-09
   44.2500000       8.99779096E-09
   44.3100014       8.60111538E-09
   44.3699989       8.27024049E-09
   44.4300003       8.04195466E-09
   44.4900017       7.96130184E-09
   44.5499992       8.07637246E-09
   44.6100006       8.43345394E-09
   44.6699982       9.07506337E-09
   44.7299995       1.00426600E-08
   44.7900009       1.13840803E-08
   44.8499985       1.31636551E-08
   44.9099998       1.54713913E-08
   44.9700012       1.84274569E-08
   45.0299988       2.21797283E-08
   45.0900002       2.68950213E-08
   45.1500015       3.27477530E-08
   45.2099991       3.99118036E-08
   45.2700005       4.85612581E-08
   45.3300018       5.88834403E-08
   45.3899994       7.11036634E-08
   45.4500008       8.55171223E-08
   45.5099983       1.02520836E-07
   45.5699997       1.22638298E-07
   45.6300011       1.46532315E-07
   45.6899986       1.75005738E-07
   45.7500000       2.08995019E-07
   45.8100014       2.49564579E-07
   45.8699989       2.97910731E-07
   45.9300003       3.55381246E-07
   45.9900017       4.23511892E-07
   46.0499992       5.04075558E-07
   46.1100006       5.99135603E-07
   46.1699982       7.11095140E-07
   46.2299995       8.42736199E-07
   46.2900009       9.97249458E-07
   46.3499985       1.17826073E-06
   46.4099998       1.38986445E-06
   46.4700012       1.63667175E-06
   46.5299988       1.92388143E-06
   46.5900002       2.25736835E-06
   46.6500015       2.64378514E-06
   46.7099991       3.09066422E-06
   46.7700005       3.60651484E-06
   46.8300018       4.20090510E-06
   46.8899994       4.88453998E-06
   46.9500008       5.66933386E-06
   47.0099983       6.56849124E-06
   47.0699997       7.59660361E-06
   47.1300011       8.76976719E-06
   47.1899986       1.01057067E-05
   47.2500000       1.16239144E-05
   47.3100014       1.33457788E-05
   47.3699989       1.52947105E-05
   47.4300003       1.74962461E-05
   47.4900017       1.99781389E-05
   47.5499992       2.27704604E-05
   47.6100006       2.59056760E-05
   47.6699982       2.94187303E-05
   47.7299995       3.33471253E-05
   47.7900009       3.77309771E-05
   47.8499985       4.26130791E-05
   47.9099998       4.80389135E-05
   47.9700012       5.40566325E-05
   48.0299988       6.07170296E-05
   48.0900002       6.80734738E-05
   48.1500015       7.61818155E-05
   48.2099991       8.51002478E-05
   48.2700005       9.48891757E-05
   48.3300018       1.05610961E-04
   48.3899994       1.17329757E-04
   48.4500008       1.30111148E-04
   48.5099983       1.44021862E-04
   48.5699997       1.59129369E-04
   48.6300011       1.75501453E-04
   48.6899986       1.93205749E-04
   48.7500000       2.12309285E-04
   48.8100014       2.32877836E-04
   48.8699989       2.54975428E-04
   48.9300003       2.78663589E-04
   48.9900017       3.04000801E-04
   49.0499992       3.31041607E-04
   49.1100006       3.59836005E-04
   49.1699982       3.90428671E-04
   49.2299995       4.22858197E-04
   49.2900009       4.57156391E-04
   49.3499985       4.93347412E-04
   49.4099998       5.31447236E-04
   49.4700012       5.71462733E-04
   49.5299988       6.13391225E-04
   49.5900002       6.57219673E-04
   49.6500015       7.02924212E-04
   49.7099991       7.50469626E-04
   49.7700005       7.99808884E-04
   49.8300018       8.50882905E-04
   49.8899994       9.03620268E-04
   49.9500008       9.57937213E-04
   50.0099983       1.01373764E-03
   50.0699997       1.07091316E-03
   50.1300011       1.12934352E-03
   50.1899986       1.18889683E-03
   50.2500000       1.24943047E-03
   50.3100014       1.31079147E-03
   50.3699989       1.37281732E-03
   50.4300003       1.43533689E-03
   50.4900017       1.49817171E-03
   50.5499992       1.56113761E-03
   50.6100006       1.62404520E-03