  -2.400000      0.0000000E+00
  -2.340000      0.0000000E+00
  -2.280000      0.0000000E+00
  -2.220000      0.0000000E+00
  -2.160000      0.0000000E+00
  -2.100000      0.0000000E+00
  -2.040000      0.0000000E+00
  -1.980000      0.0000000E+00
  -1.920000     -1.7846379E-26
  -1.860000     -1.8867968E-25
  -1.800000     -9.6267950E-25
  -1.740000     -3.0431836E-24
  -1.680000     -6.1901063E-24
  -1.620000     -6.6049415E-24
  -1.560000      4.2361574E-24
  -1.500000      3.2494780E-23
  -1.440000      6.3103855E-23
  -1.380000      4.5666716E-23
  -1.320000     -6.7125733E-23
  -1.260000     -1.7748709E-22
  -1.200000      1.6643787E-22
  -1.140000      1.8067834E-21
  -1.080000      5.3941700E-21
  -1.020000      9.8299785E-21
 -0.9600000      1.0097147E-20
 -0.9000000     -3.7728774E-21
 -0.8400000     -4.3523811E-20
 -0.7800000     -1.1249594E-19
 -0.7200000     -1.8922152E-19
 -0.6600000     -2.1269503E-19
 -0.6000000     -8.5043583E-20
 -0.5400000      2.9056425E-19
 -0.4800000      9.3011859E-19
 -0.4200000      1.6682039E-18
 -0.3600000      2.0946163E-18
 -0.3000000      1.6105539E-18
 -0.2400000     -3.3076001E-19
 -0.1800000     -3.8148081E-18
 -0.1200000     -8.0372731E-18
 -5.9999999E-02 -1.1134807E-17
  0.0000000E+00 -1.0581237E-17
  5.9999999E-02 -4.2883338E-18
  0.1200000      7.8307865E-18
  0.1800000      2.2552916E-17
  0.2400000      3.3311771E-17
  0.3000000      3.2273398E-17
  0.3600000      1.4485499E-17
  0.4200000     -1.7319589E-17
  0.4800000     -4.9986369E-17
  0.5400000     -6.2282564E-17
  0.6000000     -3.3878853E-17
  0.6600000      4.0801253E-17
  0.7200000      1.3970187E-16
  0.7800000      2.0977699E-16
  0.8400000      1.8065910E-16
  0.9000000     -3.2546523E-18
  0.9600000     -3.4100353E-16
   1.020000     -7.4237456E-16
   1.080000     -1.0274772E-15
   1.140000     -9.7509819E-16
   1.200000     -4.1744523E-16
   1.260000      6.4739289E-16
   1.320000      1.9764982E-15
   1.380000      3.0929061E-15
   1.440000      3.4194318E-15
   1.500000      2.5182938E-15
   1.560000      3.5624914E-16
   1.620000     -2.5320252E-15
   1.680000     -5.1082041E-15
   1.740000     -6.1782397E-15
   1.800000     -4.9500305E-15
   1.860000     -1.5825970E-15
   1.920000      2.5762996E-15
   1.980000      5.3192907E-15
   2.040000      4.5197064E-15
   2.100000     -5.9670485E-16
   2.160000     -8.4302165E-15
   2.220000     -1.4915925E-14
   2.280000     -1.4798784E-14
   2.340000     -4.1228177E-15
   2.400000      1.6953635E-14
   2.460000      4.2432990E-14
   2.520000      6.1206777E-14
   2.580000      6.0780862E-14
   2.640000      3.3132449E-14
   2.700000     -1.9599229E-14
   2.760000     -8.2578462E-14
   2.820000     -1.3122527E-13
   2.880000     -1.3990449E-13
   2.940000     -9.3768519E-14
   3.000000      1.1572707E-15
   3.060000      1.1504403E-13
   3.120000      2.0179141E-13
   3.180000      2.1607370E-13
   3.240000      1.3414095E-13
   3.300000     -3.0487033E-14
   3.360000     -2.2478723E-13
   3.420000     -3.7119537E-13
   3.480000     -3.9620203E-13
   3.540000     -2.6207918E-13
   3.600000      1.1943784E-14
   3.660000      3.4997856E-13
   3.720000      6.4383460E-13
   3.780000      7.9322898E-13
   3.840000      7.4524116E-13
   3.900000      5.1481356E-13
   3.960000      1.7512239E-13
   4.020000     -1.7985979E-13
   4.080000     -4.8396969E-13
   4.140000     -7.3380391E-13
   4.200000     -9.8823109E-13
   4.260000     -1.3253759E-12
   4.320000     -1.7711579E-12
   4.380000     -2.2319319E-12
   4.440000     -2.4700699E-12
   4.500000     -2.1501416E-12
   4.560000     -9.5666715E-13
   4.620000      1.2483740E-12
   4.680000      4.2854015E-12
   4.740000      7.5971677E-12
   4.800000      1.0312078E-11
   4.860000      1.1434497E-11
   4.920000      1.0119464E-11
   4.980000      5.9539964E-12
   5.040000     -8.4242227E-13
   5.100000     -9.3649671E-12
   5.160000     -1.8140918E-11
   5.220000     -2.5389297E-11
   5.280000     -2.9356156E-11
   5.340000     -2.8646585E-11
   5.400000     -2.2490522E-11
   5.460000     -1.0913066E-11
   5.520000      5.1868718E-12
   5.580000      2.4031012E-11
   5.640000      4.3021770E-11
   5.700000      5.8890566E-11
   5.760000      6.7986033E-11
   5.820000      6.6756989E-11
   5.880000      5.2446419E-11
   5.940000      2.3932724E-11
   6.000000     -1.7443672E-11
   6.060000     -6.7308541E-11
   6.120000     -1.1819504E-10
   6.180000     -1.6019064E-10
   6.240000     -1.8233214E-10
   6.300000     -1.7459494E-10
   6.360000     -1.3013082E-10
   6.420000     -4.7287556E-11
   6.480000      6.9064011E-11
   6.540000      2.0724786E-10
   6.600000      3.4967393E-10
   6.660000      4.7476190E-10
   6.720000      5.5952121E-10
   6.780000      5.8227428E-10
   6.840000      5.2501442E-10
   6.900000      3.7502548E-10
   6.960000      1.2561795E-10
   7.020000     -2.2393204E-10
   7.080000     -6.6897893E-10
   7.140000     -1.2003180E-09
   7.200000     -1.8049476E-09
   7.260000     -2.4666522E-09
   7.320000     -3.1664285E-09
   7.380000     -3.8828740E-09
   7.440000     -4.5926791E-09
   7.500000     -5.2713061E-09
   7.560000     -5.8938516E-09
   7.620000     -6.4360273E-09
   7.680000     -6.8751667E-09
   7.740000     -7.1912396E-09
   7.800000     -7.3678947E-09
   7.860000     -7.3936097E-09
   7.920000     -7.2629778E-09
   7.980000     -6.9780333E-09
   8.040000     -6.5493571E-09
   8.100000     -5.9965419E-09
   8.160000     -5.3475602E-09
   8.220000     -4.6367110E-09
   8.280000     -3.9011097E-09
   8.340000     -3.1760716E-09
   8.400000     -2.4901292E-09
   8.460000     -1.8606571E-09
   8.520000     -1.2910965E-09
   8.580000     -7.7051360E-10
   8.640000     -2.7577871E-10
   8.700000      2.2389650E-10
   8.760000      7.6082868E-10
   8.820000      1.3622434E-09
   8.880000      2.0443824E-09
   8.940000      2.8084313E-09
   9.000000      3.6390502E-09
   9.060000      4.5058530E-09
   9.120000      5.3677041E-09
   9.180000      6.1792371E-09
   9.240000      6.8985804E-09
   9.300000      7.4950242E-09
   9.360000      7.9552436E-09
   9.420000      8.2868219E-09
   9.480000      8.5182021E-09
   9.540000      8.6947916E-09
   9.600000      8.8716714E-09
   9.660000      9.1041441E-09
   9.720000      9.4378878E-09
   9.780000      9.9007567E-09
   9.840000      1.0498050E-08
   9.900000      1.1212414E-08
   9.960000      1.2008543E-08
   10.02000      1.2841646E-08
   10.08000      1.3667705E-08
   10.14000      1.4452906E-08
   10.20000      1.5179813E-08
   10.26000      1.5848633E-08
   10.32000      1.6473297E-08
   10.38000      1.7073653E-08
   10.44000      1.7666295E-08
   10.50000      1.8257102E-08
   10.56000      1.8837996E-08
   10.62000      1.9389200E-08
   10.68000      1.9886279E-08
   10.74000      2.0309594E-08
   10.80000      2.0652775E-08
   10.86000      2.0927001E-08
   10.92000      2.1159122E-08
   10.98000      2.1383771E-08
   11.04000      2.1631676E-08
   11.10000      2.1917792E-08
   11.16000      2.2233241E-08
   11.22000      2.2543881E-08
   11.28000      2.2796437E-08
   11.34000      2.2930720E-08
   11.40000      2.2894611E-08
   11.46000      2.2657527E-08
   11.52000      2.2218504E-08
   11.58000      2.1606553E-08
   11.64000      2.0873207E-08
   11.70000      2.0079364E-08
   11.76000      1.9280293E-08
   11.82000      1.8513116E-08
   11.88000      1.7790443E-08
   11.94000      1.7102019E-08
   12.00000      1.6423838E-08
   12.06000      1.5731809E-08
   12.12000      1.5015560E-08
   12.18000      1.4287611E-08
   12.24000      1.3584374E-08
   12.30000      1.2957855E-08
   12.36000      1.2459891E-08
   12.42000      1.2123352E-08
   12.48000      1.1946168E-08
   12.54000      1.1883672E-08
   12.60000      1.1852674E-08
   12.66000      1.1747344E-08
   12.72000      1.1463456E-08
   12.78000      1.0924791E-08
   12.84000      1.0104505E-08
   12.90000      9.0352064E-09
   12.96000      7.8044069E-09
   13.02000      6.5358363E-09
   13.08000      5.3610183E-09
   13.14000      4.3882409E-09
   13.20000      3.6769530E-09
   13.26000      3.2243104E-09
   13.32000      2.9675031E-09
   13.38000      2.8013418E-09
   13.44000      2.6065770E-09
   13.50000      2.2815612E-09
   13.56000      1.7689659E-09
   13.62000      1.0705407E-09
   13.68000      2.4603589E-10
   13.74000     -6.0341293E-10
   13.80000     -1.3630034E-09
   13.86000     -1.9356190E-09
   13.92000     -2.2682516E-09
   13.98000     -2.3661064E-09
   14.04000     -2.2902344E-09
   14.10000     -2.1390354E-09
   14.16000     -2.0185251E-09
   14.22000     -2.0096103E-09
   14.28000     -2.1416824E-09
   14.34000     -2.3802642E-09
   14.40000     -2.6325764E-09
   14.46000     -2.7698464E-09
   14.52000     -2.6604510E-09
   14.58000     -2.2049618E-09
   14.64000     -1.3637003E-09
   14.70000     -1.6959081E-10
   14.76000      1.2768112E-09
   14.82000      2.8284530E-09
   14.88000      4.3232595E-09
   14.94000      5.6176837E-09
   15.00000      6.6138872E-09
   15.06000      7.2741400E-09
   15.12000      7.6196622E-09
   15.18000      7.7154088E-09
   15.24000      7.6459621E-09
   15.30000      7.4898514E-09
   15.36000      7.2995507E-09
   15.42000      7.0922499E-09
   15.48000      6.8528796E-09
   15.54000      6.5469981E-09
   15.60000      6.1382690E-09
   15.66000      5.6042730E-09
   15.72000      4.9455458E-09
   15.78000      4.1854946E-09
   15.84000      3.3622165E-09
   15.90000      2.5159672E-09
   15.96000      1.6772875E-09
   16.02000      8.6021368E-10
   16.08000      6.2926137E-11
   16.14000     -7.2457207E-10
   16.20000     -1.5086676E-09
   16.26000     -2.2805824E-09
   16.32000     -3.0093359E-09
   16.38000     -3.6420318E-09
   16.44000     -4.1118833E-09
   16.50000     -4.3519068E-09
   16.56000     -4.3103583E-09
   16.62000     -3.9634065E-09
   16.68000     -3.3213374E-09
   16.74000     -2.4265099E-09
   16.80000     -1.3436963E-09
   16.86000     -1.4559433E-10
   16.92000      1.1024857E-09
   16.98000      2.3547384E-09
   17.04000      3.5909014E-09
   17.10000      4.8151758E-09
   17.16000      6.0489822E-09
   17.22000      7.3200574E-09
   17.28000      8.6511660E-09
   17.34000      1.0051529E-08
   17.40000      1.1513074E-08
   17.46000      1.3012095E-08
   17.52000      1.4515270E-08
   17.58000      1.5987677E-08
   17.64000      1.7399913E-08
   17.70000      1.8731782E-08
   17.76000      1.9971335E-08
   17.82000      2.1109734E-08
   17.88000      2.2134143E-08
   17.94000      2.3021704E-08
   18.00000      2.3737414E-08
   18.06000      2.4237353E-08
   18.12000      2.4476696E-08
   18.18000      2.4420082E-08
   18.24000      2.4050882E-08
   18.30000      2.3376254E-08
   18.36000      2.2426194E-08
   18.42000      2.1246974E-08
   18.48000      1.9891068E-08
   18.54000      1.8406793E-08
   18.60000      1.6830594E-08
   18.66000      1.5183939E-08
   18.72000      1.3474990E-08
   18.78000      1.1703785E-08
   18.84000      9.8688071E-09
   18.90000      7.9726972E-09
   18.96000      6.0256258E-09
   19.02000      4.0458832E-09
   19.08000      2.0583037E-09
   19.14000      9.1758004E-11
   19.20000     -1.8230185E-09
   19.26000     -3.6544903E-09
   19.32000     -5.3702989E-09
   19.38000     -6.9368791E-09
   19.44000     -8.3197316E-09
   19.50000     -9.4851744E-09
   19.56000     -1.0403693E-08
   19.62000     -1.1054200E-08
   19.68000     -1.1427884E-08
   19.74000     -1.1530160E-08
   19.80000     -1.1379726E-08
   19.86000     -1.1004569E-08
   19.92000     -1.0435829E-08
   19.98000     -9.7011892E-09
   20.04000     -8.8197769E-09
   20.10000     -7.8001783E-09
   20.16000     -6.6423231E-09
   20.22000     -5.3428026E-09
   20.28000     -3.9021244E-09
   20.34000     -2.3317039E-09
   20.40000     -6.5838202E-10
   20.46000      1.0751184E-09
   20.52000      2.8142029E-09
   20.58000      4.4999715E-09
   20.64000      6.0783480E-09
   20.70000      7.5083131E-09
   20.76000      8.7670573E-09
   20.82000      9.8508126E-09
   20.88000      1.0771354E-08
   20.94000      1.1549329E-08
   21.00000      1.2206288E-08
   21.06000      1.2757438E-08
   21.12000      1.3206733E-08
   21.18000      1.3545261E-08
   21.24000      1.3753095E-08
   21.30000      1.3804092E-08
   21.36000      1.3672617E-08
   21.42000      1.3340746E-08
   21.48000      1.2804345E-08
   21.54000      1.2076399E-08
   21.60000      1.1186465E-08
   21.66000      1.0175841E-08
   21.72000      9.0892067E-09
   21.78000      7.9645535E-09
   21.84000      6.8239099E-09
   21.90000      5.6674230E-09
   21.96000      4.4725610E-09
   22.02000      3.1988916E-09
   22.08000      1.7974103E-09
   22.14000      2.2223395E-10
   22.20000     -1.5580623E-09
   22.26000     -3.5519803E-09
   22.32000     -5.7412612E-09
   22.38000     -8.0823597E-09
   22.44000     -1.0512824E-08
   22.50000     -1.2961247E-08
   22.56000     -1.5358847E-08
   22.62000     -1.7650427E-08
   22.68000     -1.9802618E-08
   22.74000     -2.1807800E-08
   22.80000     -2.3683064E-08
   22.86000     -2.5464560E-08
   22.92000     -2.7198585E-08
   22.98000     -2.8931504E-08
   23.04000     -3.0700651E-08
   23.10000     -3.2528021E-08
   23.16000     -3.4417852E-08
   23.22000     -3.6358138E-08
   23.28000     -3.8325389E-08
   23.34000     -4.0291081E-08
   23.40000     -4.2228290E-08
   23.46000     -4.4116696E-08
   23.52000     -4.5945033E-08
   23.58000     -4.7710447E-08
   23.64000     -4.9415227E-08
   23.70000     -5.1061960E-08
   23.76000     -5.2648577E-08
   23.82000     -5.4164666E-08
   23.88000     -5.5590089E-08
   23.94000     -5.6896315E-08
   24.00000     -5.8050269E-08
   24.06000     -5.9019932E-08
   24.12000     -5.9780582E-08
   24.18000     -6.0320417E-08
   24.24000     -6.0644169E-08
   24.30000     -6.0773765E-08
   24.36000     -6.0745592E-08
   24.42000     -6.0604442E-08
   24.48000     -6.0395543E-08
   24.54000     -6.0156161E-08
   24.60000     -5.9909041E-08
   24.66000     -5.9658952E-08
   24.72000     -5.9393269E-08
   24.78000     -5.9086315E-08
   24.84000     -5.8706178E-08
   24.90000     -5.8222675E-08
   24.96000     -5.7614798E-08
   25.02000     -5.6876360E-08
   25.08000     -5.6018958E-08
   25.14000     -5.5071588E-08
   25.20000     -5.4076700E-08
   25.26000     -5.3083038E-08
   25.32000     -5.2136450E-08
   25.38000     -5.1270483E-08
   25.44000     -5.0499231E-08
   25.50000     -4.9814481E-08
   25.56000     -4.9188245E-08
   25.62000     -4.8580123E-08
   25.68000     -4.7947303E-08
   25.74000     -4.7254129E-08
   25.80000     -4.6478259E-08
   25.86000     -4.5611795E-08
   25.92000     -4.4657579E-08
   25.98000     -4.3622673E-08
   26.04000     -4.2511910E-08
   26.10000     -4.1324373E-08
   26.16000     -4.0054278E-08
   26.22000     -3.8696143E-08
   26.28000     -3.7252438E-08
   26.34000     -3.5740914E-08
   26.40000     -3.4198848E-08
   26.46000     -3.2682195E-08
   26.52000     -3.1259205E-08
   26.58000     -2.9999622E-08
   26.64000     -2.8961995E-08
   26.70000     -2.8182338E-08
   26.76000     -2.7667122E-08
   26.82000     -2.7392646E-08
   26.88000     -2.7311119E-08
   26.94000     -2.7361898E-08
   27.00000     -2.7484884E-08
   27.06000     -2.7632389E-08
   27.12000     -2.7776222E-08
   27.18000     -2.7908257E-08
   27.24000     -2.8034776E-08
   27.30000     -2.8166914E-08
   27.36000     -2.8310769E-08
   27.42000     -2.8460716E-08
   27.48000     -2.8598288E-08
   27.54000     -2.8696867E-08
   27.60000     -2.8730296E-08
   27.66000     -2.8682052E-08
   27.72000     -2.8551463E-08
   27.78000     -2.8354519E-08
   27.84000     -2.8118849E-08
   27.90000     -2.7874536E-08
   27.96000     -2.7643887E-08
   28.02000     -2.7433638E-08
   28.08000     -2.7232128E-08
   28.14000     -2.7012378E-08
   28.20000     -2.6740043E-08
   28.26000     -2.6383834E-08
   28.32000     -2.5925310E-08
   28.38000     -2.5365269E-08
   28.44000     -2.4724940E-08
   28.50000     -2.4041567E-08
   28.56000     -2.3359490E-08
   28.62000     -2.2718881E-08
   28.68000     -2.2144961E-08
   28.74000     -2.1640441E-08
   28.80000     -2.1183157E-08
   28.86000     -2.0729573E-08
   28.92000     -2.0223313E-08
   28.98000     -1.9606443E-08
   29.04000     -1.8830425E-08
   29.10000     -1.7863755E-08
   29.16000     -1.6694157E-08
   29.22000     -1.5325050E-08
   29.28000     -1.3767718E-08
   29.34000     -1.2032182E-08
   29.40000     -1.0120220E-08
   29.46000     -8.0233109E-09
   29.52000     -5.7265117E-09
   29.58000     -3.2170704E-09
   29.64000     -4.9467097E-10
   29.70000      2.4206392E-09
   29.76000      5.4861591E-09
   29.82000      8.6412939E-09
   29.88000      1.1818221E-08
   29.94000      1.4955065E-08
   30.00000      1.8007119E-08
   30.06000      2.0952168E-08
   30.12000      2.3787949E-08
   30.18000      2.6522526E-08
   30.24000      2.9160759E-08
   30.30000      3.1691517E-08
   30.36000      3.4080120E-08
   30.42000      3.6268837E-08
   30.48000      3.8185746E-08
   30.54000      3.9759612E-08
   30.60000      4.0936545E-08
   30.66000      4.1693458E-08
   30.72000      4.2044313E-08
   30.78000      4.2037108E-08
   30.84000      4.1742371E-08
   30.90000      4.1236490E-08
   30.96000      4.0584670E-08
   31.02000      3.9828581E-08
   31.08000      3.8981984E-08
   31.14000      3.8035118E-08
   31.20000      3.6965769E-08
   31.26000      3.5752734E-08
   31.32000      3.4387053E-08
   31.38000      3.2877406E-08
   31.44000      3.1248589E-08
   31.50000      2.9534549E-08
   31.56000      2.7769364E-08
   31.62000      2.5979947E-08
   31.68000      2.4183068E-08
   31.74000      2.2387296E-08
   31.80000      2.0598335E-08
   31.86000      1.8825013E-08
   31.92000      1.7083114E-08
   31.98000      1.5395386E-08
   32.04000      1.3787628E-08
   32.10000      1.2282189E-08
   32.16000      1.0891036E-08
   32.22000      9.6105097E-09
   32.28000      8.4192138E-09
   32.34000      7.2795512E-09
   32.40000      6.1425491E-09
   32.46000      4.9549818E-09
   32.52000      3.6674683E-09
   32.58000      2.2421500E-09
   32.64000      6.5862571E-10
   32.70000     -1.0829202E-09
   32.76000     -2.9620524E-09
   32.82000     -4.9419655E-09
   32.88000     -6.9763195E-09
   32.94000     -9.0177954E-09
   33.00000     -1.1026678E-08
   33.06000     -1.2977669E-08
   33.12000     -1.4863450E-08
   33.18000     -1.6694239E-08
   33.24000     -1.8493539E-08
   33.30000     -2.0291255E-08
   33.36000     -2.2116019E-08
   33.42000     -2.3988772E-08
   33.48000     -2.5919171E-08
   33.54000     -2.7905541E-08
   33.60000     -2.9937976E-08
   33.66000     -3.2003218E-08
   33.72000     -3.4089592E-08
   33.78000     -3.6190247E-08
   33.84000     -3.8303874E-08
   33.90000     -4.0432788E-08
   33.96000     -4.2579288E-08
   34.02000     -4.4741732E-08
   34.08000     -4.6911627E-08
   34.14000     -4.9072842E-08
   34.20000     -5.1203170E-08
   34.26000     -5.3277681E-08
   34.32000     -5.5272871E-08
   34.38000     -5.7170258E-08
   34.44000     -5.8958271E-08
   34.50000     -6.0631940E-08
   34.56000     -6.2190530E-08
   34.62000     -6.3633948E-08
   34.68000     -6.4959167E-08
   34.74000     -6.6157853E-08
   34.80000     -6.7215908E-08
   34.86000     -6.8115050E-08
   34.92000     -6.8835924E-08
   34.98000     -6.9361903E-08
   35.04000     -6.9682599E-08
   35.10000     -6.9796428E-08
   35.16000     -6.9711867E-08
   35.22000     -6.9447346E-08
   35.28000     -6.9029888E-08
   35.34000     -6.8492916E-08
   35.40000     -6.7873316E-08
   35.46000     -6.7208411E-08
   35.52000     -6.6533183E-08
   35.58000     -6.5878098E-08
   35.64000     -6.5267926E-08
   35.70000     -6.4721434E-08
   35.76000     -6.4251608E-08
   35.82000     -6.3865905E-08
   35.88000     -6.3565956E-08
   35.94000     -6.3346647E-08
   36.00000     -6.3194705E-08
   36.06000     -6.3087676E-08
   36.12000     -6.2994253E-08
   36.18000     -6.2876715E-08
   36.24000     -6.2695712E-08
   36.30000     -6.2416767E-08
   36.36000     -6.2017200E-08
   36.42000     -6.1491505E-08
   36.48000     -6.0853687E-08
   36.54000     -6.0135470E-08
   36.60000     -5.9380657E-08
   36.66000     -5.8636825E-08
   36.72000     -5.7946629E-08
   36.78000     -5.7341012E-08
   36.84000     -5.6836164E-08
   36.90000     -5.6434839E-08
   36.96000     -5.6131292E-08
   37.02000     -5.5917827E-08
   37.08000     -5.5790494E-08
   37.14000     -5.5751858E-08
   37.20000     -5.5809856E-08
   37.26000     -5.5973349E-08
   37.32000     -5.6246130E-08
   37.38000     -5.6621822E-08
   37.44000     -5.7081568E-08
   37.50000     -5.7595479E-08
   37.56000     -5.8127320E-08
   37.62000     -5.8640826E-08
   37.68000     -5.9105773E-08
   37.74000     -5.9502053E-08
   37.80000     -5.9820970E-08
   37.86000     -6.0063734E-08
   37.92000     -6.0238051E-08
   37.98000     -6.0353813E-08
   38.04000     -6.0419083E-08
   38.10000     -6.0437280E-08
   38.16000     -6.0405974E-08
   38.22000     -6.0317589E-08
   38.28000     -6.0161717E-08
   38.34000     -5.9928361E-08
   38.40000     -5.9611395E-08
   38.46000     -5.9211178E-08
   38.52000     -5.8735552E-08
   38.58000     -5.8198893E-08
   38.64000     -5.7619378E-08
   38.70000     -5.7015090E-08
   38.76000     -5.6400189E-08
   38.82000     -5.5782102E-08
   38.88000     -5.5160640E-08
   38.94000     -5.4529174E-08
   39.00000     -5.3877361E-08
   39.06000     -5.3194352E-08
   39.12000     -5.2471307E-08
   39.18000     -5.1702184E-08
   39.24000     -5.0882552E-08
   39.30000     -5.0007149E-08
   39.36000     -4.9067324E-08
   39.42000     -4.8049948E-08
   39.48000     -4.6938805E-08
   39.54000     -4.5718647E-08
   39.60000     -4.4380975E-08
   39.66000     -4.2929784E-08
   39.72000     -4.1385228E-08
   39.78000     -3.9783515E-08
   39.84000     -3.8172473E-08
   39.90000     -3.6603414E-08
   39.96000     -3.5121108E-08
   40.02000     -3.3754436E-08
   40.08000     -3.2510115E-08
   40.14000     -3.1371226E-08
   40.20000     -3.0301052E-08
   40.26000     -2.9251277E-08
   40.32000     -2.8172581E-08
   40.38000     -2.7025099E-08
   40.44000     -2.5786431E-08
   40.50000     -2.4455574E-08
   40.56000     -2.3052282E-08
   40.62000     -2.1612356E-08
   40.68000     -2.0180238E-08
   40.74000     -1.8800643E-08
   40.80000     -1.7510946E-08
   40.86000     -1.6335797E-08
   40.92000     -1.5284847E-08
   40.98000     -1.4353979E-08
   41.04000     -1.3529575E-08
   41.10000     -1.2794843E-08
   41.16000     -1.2136455E-08
   41.22000     -1.1549536E-08
   41.28000     -1.1039200E-08
   41.34000     -1.0617737E-08
   41.40000     -1.0297953E-08
   41.46000     -1.0084661E-08
   41.52000     -9.9674438E-09
   41.58000     -9.9177706E-09
   41.64000     -9.8923962E-09
   41.70000     -9.8427746E-09
   41.76000     -9.7278852E-09
   41.82000     -9.5263477E-09
   41.88000     -9.2435739E-09
   41.94000     -8.9112975E-09
   42.00000     -8.5793932E-09
   42.06000     -8.3025675E-09
   42.12000     -8.1262295E-09
   42.18000     -8.0759790E-09
   42.24000     -8.1537515E-09
   42.30000     -8.3413010E-09
   42.36000     -8.6092884E-09
   42.42000     -8.9286019E-09
   42.48000     -9.2801242E-09
   42.54000     -9.6599475E-09
   42.60000     -1.0078744E-08
   42.66000     -1.0555882E-08
   42.72000     -1.1110516E-08
   42.78000     -1.1752694E-08
   42.84000     -1.2477416E-08
   42.90000     -1.3263610E-08
   42.96000     -1.4078384E-08
   43.02000     -1.4885350E-08
   43.08000     -1.5654495E-08
   43.14000     -1.6370667E-08
   43.20000     -1.7038159E-08
   43.26000     -1.7680089E-08
   43.32000     -1.8332901E-08
   43.38000     -1.9037723E-08
   43.44000     -1.9831219E-08
   43.50000     -2.0738641E-08
   43.56000     -2.1770928E-08
   43.62000     -2.2926429E-08
   43.68000     -2.4196394E-08
   43.74000     -2.5572431E-08
   43.80000     -2.7053748E-08
   43.86000     -2.8652508E-08
   43.92000     -3.0396556E-08
   43.98000     -3.2329844E-08
   44.04000     -3.4511562E-08
   44.10000     -3.7015244E-08
   44.16000     -3.9928558E-08
   44.22000     -4.3353776E-08
   44.28000     -4.7408495E-08
   44.34000     -5.2225882E-08
   44.40000     -5.7954267E-08
   44.46000     -6.4756684E-08
   44.52000     -7.2811595E-08
   44.58000     -8.2315957E-08
   44.64000     -9.3491316E-08
   44.70000     -1.0659241E-07
   44.76000     -1.2191700E-07
   44.82000     -1.3981504E-07
   44.88000     -1.6069667E-07
   44.94000     -1.8503843E-07
   45.00000     -2.1338938E-07
   45.06000     -2.4637845E-07
   45.12000     -2.8472417E-07
   45.18000     -3.2924683E-07
   45.24000     -3.8088200E-07
   45.30000     -4.4069452E-07
   45.36000     -5.0989092E-07
   45.42000     -5.8983164E-07
   45.48000     -6.8204236E-07
   45.54000     -7.8822671E-07
   45.60000     -9.1028153E-07
   45.66000     -1.0503142E-06
   45.72000     -1.2106620E-06
   45.78000     -1.3939140E-06
   45.84000     -1.6029326E-06
   45.90000     -1.8408765E-06
   45.96000     -2.1112223E-06
   46.02000     -2.4177880E-06
   46.08000     -2.7647532E-06
   46.14000     -3.1566819E-06
   46.20000     -3.5985418E-06
   46.26000     -4.0957193E-06
   46.32000     -4.6540358E-06
   46.38000     -5.2797564E-06
   46.44000     -5.9796021E-06
   46.50000     -6.7607580E-06
   46.56000     -7.6308825E-06
   46.62000     -8.5981164E-06
   46.68000     -9.6710928E-06
   46.74000     -1.0858932E-05
   46.80000     -1.2171238E-05
   46.86000     -1.3618081E-05
   46.92000     -1.5209964E-05
   46.98000     -1.6957792E-05
   47.04000     -1.8872821E-05
   47.10000     -2.0966607E-05
   47.16000     -2.3250957E-05
   47.22000     -2.5737882E-05
   47.28000     -2.8439525E-05
   47.34000     -3.1368090E-05
   47.40000     -3.4535762E-05
   47.46000     -3.7954633E-05
   47.52000     -4.1636576E-05
   47.58000     -4.5593173E-05
   47.64000     -4.9835569E-05
   47.70000     -5.4374359E-05
   47.76000     -5.9219452E-05
   47.82000     -6.4379950E-05
   47.88000     -6.9864021E-05
   47.94000     -7.5678727E-05
   48.00000     -8.1829923E-05
   48.06000     -8.8322107E-05
   48.12000     -9.5158292E-05
   48.18000     -1.0233988E-04
   48.24000     -1.0986655E-04
   48.30000     -1.1773610E-04
   48.36000     -1.2594443E-04
   48.42000     -1.3448534E-04
   48.48000     -1.4335054E-04
   48.54000     -1.5252960E-04
   48.60000     -1.6200986E-04
   48.66000     -1.7177644E-04
   48.72000     -1.8181228E-04
   48.78000     -1.9209813E-04
   48.84000     -2.0261262E-04
   48.90000     -2.1333224E-04
   48.96000     -2.2423151E-04
   49.02000     -2.3528311E-04
   49.08000     -2.4645796E-04
   49.14000     -2.5772551E-04
   49.20000     -2.6905374E-04
   49.26000     -2.8040959E-04
   49.32000     -2.9175903E-04
   49.38000     -3.0306730E-04
   49.44000     -3.1429934E-04
   49.50000     -3.2542000E-04
   49.56000     -3.3639438E-04
   49.62000     -3.4718821E-04
   49.68000     -3.5776809E-04
   49.74000     -3.6810187E-04
   49.80000     -3.7815887E-04
   49.86000     -3.8791023E-04
   49.92000     -3.9732919E-04
   49.98000     -4.0639137E-04
   50.04000     -4.1507519E-04
   50.10000     -4.2336190E-04
   50.16000     -4.3123600E-04
   50.22000     -4.3868521E-04
   50.28000     -4.4570066E-04
   50.34000     -4.5227702E-04
   50.40000     -4.5841257E-04
   50.46000     -4.6410935E-04
   50.52000     -4.6937293E-04
   50.58000     -4.7421257E-04
   50.64000     -4.7864101E-04
   50.70000     -4.8267446E-04
   50.76000     -4.8633228E-04
   50.82000     -4.8963673E-04
   50.88000     -4.9261289E-04
   50.94000     -4.9528817E-04
   51.00000     -4.9769192E-04
   51.06000     -4.9985532E-04
   51.12000     -5.0181092E-04
   51.18000     -5.0359184E-04
   51.24000     -5.0523214E-04
   51.30000     -5.0676562E-04
   51.36000     -5.0822558E-04
   51.42000     -5.0964468E-04
   51.48000     -5.1105424E-04
   51.54000     -5.1248400E-04
   51.60000     -5.1396171E-04
   51.66000     -5.1551271E-04
   51.72000     -5.1715958E-04
   51.78000     -5.1892182E-04
   51.84000     -5.2081561E-04
   51.90000     -5.2285340E-04
   51.96000     -5.2504404E-04
   52.02000     -5.2739261E-04
   52.08000     -5.2990025E-04
   52.14000     -5.3256447E-04
   52.20000     -5.3537887E-04
   52.26000     -5.3833338E-04
   52.32000     -5.4141431E-04
   52.38000     -5.4460467E-04
   52.44000     -5.4788421E-04
   52.50000     -5.5122992E-04
   52.56000     -5.5461621E-04
   52.62000     -5.5801513E-04
   52.68000     -5.6139717E-04
   52.74000     -5.6473131E-04
   52.80000     -5.6798605E-04
   52.86000     -5.7112915E-04
   52.92000     -5.7412882E-04
   52.98000     -5.7695369E-04
   53.04000     -5.7957304E-04
   53.10000     -5.8195763E-04
   53.16000     -5.8407988E-04
   53.22000     -5.8591430E-04
   53.28000     -5.8743788E-04
   53.34000     -5.8863062E-04
   53.40000     -5.8947550E-04
   53.46000     -5.8995880E-04
   53.52000     -5.9007050E-04
   53.58000     -5.8980403E-04
   53.64000     -5.8915658E-04
   53.70000     -5.8812910E-04
   53.76000     -5.8672612E-04
   53.82000     -5.8495562E-04
   53.88000     -5.8282894E-04
   53.94000     -5.8036059E-04
   54.00000     -5.7756802E-04
   54.06000     -5.7447143E-04
   54.12000     -5.7109346E-04
   54.18000     -5.6745874E-04
   54.24000     -5.6359364E-04
   54.30000     -5.5952580E-04
   54.36000     -5.5528351E-04
   54.42000     -5.5089564E-04
   54.48000     -5.4639095E-04
   54.54000     -5.4179796E-04
   54.60000     -5.3714425E-04
   54.66000     -5.3245609E-04
   54.72000     -5.2775827E-04
   54.78000     -5.2307348E-04
   54.84000     -5.1842217E-04
   54.90000     -5.1382266E-04
   54.96000     -5.0929032E-04
   55.02000     -5.0483795E-04
   55.08000     -5.0047529E-04
   55.14000     -4.9620878E-04
   55.20000     -4.9204199E-04
   55.26000     -4.8797519E-04
   55.32000     -4.8400564E-04
   55.38000     -4.8012781E-04
   55.44000     -4.7633357E-04
   55.50000     -4.7261224E-04
   55.56000     -4.6895098E-04