 -0.750000000       0.00000000    
 -0.689999998       0.00000000    
 -0.629999995       0.00000000    
 -0.569999993       0.00000000    
 -0.509999990       0.00000000    
 -0.449999988       0.00000000    
 -0.389999986       0.00000000    
 -0.330000013       0.00000000    
 -0.270000011       0.00000000    
 -0.209999993       1.41432907E-29
 -0.150000006      -7.73557273E-28
  -9.00000036E-02  -1.22323306E-26
  -2.99999993E-02  -8.68140748E-26
   2.99999993E-02  -3.83147276E-25
   9.00000036E-02  -1.13731753E-24
  0.150000006      -2.11842620E-24
  0.209999993      -9.67060245E-25
  0.270000011       9.23089690E-24
  0.330000013       3.94604538E-23
  0.389999986       9.28897032E-23
  0.449999988       1.33193812E-22
  0.509999990       4.17226261E-23
  0.569999993      -3.86831236E-22
  0.629999995      -1.31542417E-21
  0.689999998      -2.52256341E-21
  0.750000000      -2.92986222E-21
  0.810000002      -4.11391416E-22
  0.870000005       7.38618488E-21
  0.930000007       2.06089545E-20
  0.990000010       3.35878336E-20
   1.04999995       3.24678730E-20
   1.11000001      -1.68491874E-21
   1.16999996      -8.05595981E-20
   1.23000002      -1.88338388E-19
   1.28999996      -2.64159043E-19
   1.35000002      -2.06944395E-19
   1.40999997       7.83613721E-20
   1.47000003       5.93103440E-19
   1.52999997       1.15278661E-18
   1.59000003       1.36539023E-18
   1.64999998       7.60863527E-19
   1.71000004      -9.05523509E-19
   1.76999998      -3.27754064E-18
   1.83000004      -5.19008271E-18
   1.88999999      -4.91917527E-18
   1.95000005      -1.03760647E-18
   2.00999999       6.33400319E-18
   2.06999993       1.45327064E-17
   2.13000011       1.85112549E-17
   2.19000006       1.27821358E-17
   2.25000000      -5.10415188E-18
   2.30999994      -3.10319520E-17
   2.36999989      -5.31283847E-17
   2.43000007      -5.50354430E-17
   2.49000001      -2.39279164E-17
   2.54999995       3.94392867E-17
   2.60999990       1.14072190E-16
   2.67000008       1.61355621E-16
   2.73000002       1.39739909E-16
   2.78999996       2.80354108E-17
   2.84999990      -1.52932619E-16
   2.91000009      -3.33857030E-16
   2.97000003      -4.15635361E-16
   3.02999997      -3.12306050E-16
   3.08999991      -3.05912939E-18
   3.15000010       4.32306717E-16
   3.21000004       8.19465148E-16
   3.26999998       9.47407410E-16
   3.32999992       6.63572652E-16
   3.39000010      -3.19970501E-17
   3.45000005      -9.41546683E-16
   3.50999999      -1.70894000E-15
   3.56999993      -1.94528951E-15
   3.63000011      -1.40107370E-15
   3.69000006      -1.14253733E-16
   3.75000000       1.53911318E-15
   3.80999994       2.93488954E-15
   3.86999989       3.41992411E-15
   3.93000007       2.59041416E-15
   3.99000001       5.22241128E-16
   4.05000019      -2.15348555E-15
   4.11000013      -4.39364926E-15
   4.17000008      -5.09461603E-15
   4.23000002      -3.55707336E-15
   4.28999996       9.77889479E-17
   4.34999990       4.74576890E-15
   4.40999985       8.45480759E-15
   4.46999979       9.09141215E-15
   4.53000021       5.21040120E-15
   4.59000015      -3.06523415E-15
   4.65000010      -1.35654749E-14
   4.71000004      -2.23445140E-14
   4.76999998      -2.48325140E-14
   4.82999992      -1.76389495E-14
   4.88999987      -4.00953104E-16
   4.94999981       2.31465509E-14
   5.01000023       4.55953634E-14
   5.07000017       5.80167560E-14
   5.13000011       5.33385321E-14
   5.19000006       2.97373854E-14
   5.25000000      -7.48288811E-15
   5.30999994      -4.67373976E-14
   5.36999989      -7.39744230E-14
   5.42999983      -7.83923233E-14
   5.48999977      -5.78724013E-14
   5.55000019      -2.15637682E-14
   5.61000013       1.22511000E-14
   5.67000008       2.32018469E-14
   5.73000002      -1.16397404E-15
   5.78999996      -5.61658061E-14
   5.84999990      -1.15967403E-13
   5.90999985      -1.38146981E-13
   5.96999979      -7.76357806E-14
   6.03000021       9.28159188E-14
   6.09000015       3.61972767E-13
   6.15000010       6.67597325E-13
   6.21000004       8.99846224E-13
   6.26999998       9.24662690E-13
   6.32999992       6.24984114E-13
   6.38999987      -4.96224867E-14
   6.44999981      -1.04000890E-12
   6.51000023      -2.15802289E-12
   6.57000017      -3.10365340E-12
   6.63000011      -3.52265569E-12
   6.69000006      -3.09640247E-12
   6.75000000      -1.64422360E-12
   6.80999994       7.88377284E-13
   6.86999989       3.88203185E-12
   6.92999983       7.05525742E-12
   6.98999977       9.54208240E-12
   7.05000019       1.05279457E-11
   7.11000013       9.32409705E-12
   7.17000008       5.55204103E-12
   7.23000002      -6.95230765E-13
   7.28999996      -8.75018894E-12
   7.34999990      -1.73592009E-11
   7.40999985      -2.47894118E-11
   7.46999979      -2.90672278E-11
   7.53000021      -2.83385138E-11
   7.59000015      -2.13092946E-11
   7.65000010      -7.69167369E-12
   7.71000004       1.14475703E-11
   7.76999998       3.35471408E-11
   7.82999992       5.47130431E-11
   7.88999987       7.02258598E-11
   7.94999981       7.53633475E-11
   8.01000023       6.64238387E-11
   8.06999969       4.17618891E-11
   8.13000011       2.60490696E-12
   8.18999958      -4.65740814E-11
   8.25000000      -9.82916804E-11
   8.31000042      -1.42951678E-10
   8.36999989      -1.70321507E-10
   8.43000031      -1.71368517E-10
   8.48999977      -1.40135667E-10
   8.55000019      -7.52980803E-11
   8.60999966       1.89201311E-11
   8.67000008       1.32677369E-10
   8.72999954       2.51343002E-10
   8.78999996       3.57095520E-10
   8.85000038       4.31016667E-10
   8.90999985       4.55320226E-10
   8.97000027       4.15348478E-10
   9.02999973       3.01039749E-10
   9.09000015       1.07698149E-10
   9.14999962      -1.63953517E-10
   9.21000004      -5.08322606E-10
   9.27000046      -9.15894416E-10
   9.32999992      -1.37434708E-09
   9.39000034      -1.86963489E-09
   9.44999981      -2.38690823E-09
   9.51000023      -2.91122282E-09
   9.56999969      -3.42804896E-09
   9.63000011      -3.92362587E-09
   9.68999958      -4.38519088E-09
   9.75000000      -4.80108397E-09
   9.81000042      -5.16069187E-09
   9.86999989      -5.45421441E-09
   9.93000031      -5.67224756E-09
   9.98999977      -5.80531667E-09
   10.0500002      -5.84354343E-09
   10.1099997      -5.77672754E-09
   10.1700001      -5.59507685E-09
   10.2299995      -5.29069055E-09
   10.2900000      -4.85963492E-09
   10.3500004      -4.30417790E-09
   10.4099998      -3.63452735E-09
   10.4700003      -2.86935409E-09
   10.5299997      -2.03458050E-09
   10.5900002      -1.16032473E-09
   10.6499996      -2.76428241E-10
   10.7100000       5.92497829E-10
   10.7700005       1.43130485E-09
   10.8299999       2.23667351E-09
   10.8900003       3.01689895E-09
   10.9499998       3.78903753E-09
   11.0100002       4.57407134E-09
   11.0699997       5.39128564E-09
   11.1300001       6.25323215E-09
   11.1899996       7.16251147E-09
   11.2500000       8.11108603E-09
   11.3100004       9.08222653E-09
   11.3699999       1.00545652E-08
   11.4300003       1.10072609E-08
   11.4899998       1.19250796E-08
   11.5500002       1.28022082E-08
   11.6099997       1.36438754E-08
   11.6700001       1.44653516E-08
   11.7299995       1.52884123E-08
   11.7900000       1.61360099E-08
   11.8500004       1.70263430E-08
   11.9099998       1.79677926E-08
   11.9700003       1.89560456E-08
   12.0299997       1.99742658E-08
   12.0900002       2.09963353E-08
   12.1499996       2.19924292E-08
   12.2100000       2.29353780E-08
   12.2700005       2.38061446E-08
   12.3299999       2.45968863E-08
   12.3900003       2.53108148E-08
   12.4499998       2.59590180E-08
   12.5100002       2.65552380E-08
   12.5699997       2.71102820E-08
   12.6300001       2.76277081E-08
   12.6899996       2.81020949E-08
   12.7500000       2.85203257E-08
   12.8100004       2.88653865E-08
   12.8699999       2.91213755E-08
   12.9300003       2.92780022E-08
   12.9899998       2.93330498E-08
   13.0500002       2.92918880E-08
   13.1099997       2.91642213E-08
   13.1700001       2.89591888E-08
   13.2299995       2.86806543E-08
   13.2900000       2.83245907E-08
   13.3500004       2.78797962E-08
   13.4099998       2.73320566E-08
   13.4700003       2.66706408E-08
   13.5299997       2.58950035E-08
   13.5900002       2.50193253E-08
   13.6499996       2.40730653E-08
   13.7100000       2.30968791E-08
   13.7700005       2.21346870E-08
   13.8299999       2.12239524E-08
   13.8900003       2.03868566E-08
   13.9499998       1.96249061E-08
   14.0100002       1.89186480E-08
   14.0699997       1.82327877E-08
   14.1300001       1.75256094E-08
   14.1899996       1.67604366E-08
   14.2500000       1.59162443E-08
   14.3100004       1.49946402E-08
   14.3699999       1.40211514E-08
   14.4300003       1.30401085E-08
   14.4899998       1.21039916E-08
   14.5500002       1.12596519E-08
   14.6099997       1.05349205E-08
   14.6700001       9.92933646E-09
   14.7299995       9.41198319E-09
   14.7900000       8.92764440E-09
   14.8500004       8.41024672E-09
   14.9099998       7.80031684E-09
   14.9700003       7.06176984E-09
   15.0299997       6.19318108E-09
   15.0900002       5.23005950E-09
   15.1499996       4.23703561E-09
   15.2100000       3.29178107E-09
   15.2700005       2.46489940E-09
   15.3299999       1.80128334E-09
   15.3900003       1.30811550E-09
   15.4499998       9.52910084E-10
   15.5100002       6.72236322E-10
   15.5699997       3.88859278E-10
   15.6300001       3.27306550E-11
   15.6899996      -4.39784653E-10
   15.7500000      -1.03360853E-09
   15.8100004      -1.71290848E-09
   15.8699999      -2.40993181E-09
   15.9300003      -3.04243852E-09
   15.9899998      -3.53517504E-09
   16.0499992      -3.83976229E-09
   16.1100006      -3.94784516E-09
   16.1700001      -3.89419519E-09
   16.2299995      -3.74917830E-09
   16.2900009      -3.60280206E-09
   16.3500004      -3.54464080E-09
   16.4099998      -3.64477226E-09
   16.4699993      -3.94026900E-09
   16.5300007      -4.43003323E-09
   16.5900002      -5.07844256E-09
   16.6499996      -5.82601967E-09
   16.7099991      -6.60376953E-09
   16.7700005      -7.34724281E-09
   16.8299999      -8.00689115E-09
   16.8899994      -8.55261550E-09
   16.9500008      -8.97219454E-09
   17.0100002      -9.26506605E-09
   17.0699997      -9.43414236E-09
   17.1299992      -9.47875201E-09
   17.1900005      -9.39120159E-09
   17.2500000      -9.15812581E-09
   17.3099995      -8.76605544E-09
   17.3700008      -8.20920310E-09
   17.4300003      -7.49667528E-09
   17.4899998      -6.65656019E-09
   17.5499992      -5.73534864E-09
   17.6100006      -4.79264584E-09
   17.6700001      -3.89254673E-09
   17.7299995      -3.09391202E-09
   17.7900009      -2.44196885E-09
   17.8500004      -1.96316852E-09
   17.9099998      -1.66431602E-09
   17.9699993      -1.53594393E-09
   18.0300007      -1.55894553E-09
   18.0900002      -1.71274206E-09
   18.1499996      -1.98285810E-09
   18.2099991      -2.36581421E-09
   18.2700005      -2.86976265E-09
   18.3299999      -3.51036089E-09
   18.3899994      -4.30272751E-09
   18.4500008      -5.25166355E-09
   18.5100002      -6.34310826E-09
   18.5699997      -7.53968710E-09
   18.6299992      -8.78205242E-09
   18.6900005      -9.99594008E-09
   18.7500000      -1.11029328E-08
   18.8099995      -1.20317498E-08
   18.8700008      -1.27267867E-08
   18.9300003      -1.31517393E-08
   18.9899998      -1.32879858E-08
   19.0499992      -1.31292399E-08
   19.1100006      -1.26750805E-08
   19.1700001      -1.19260450E-08
   19.2299995      -1.08820215E-08
   19.2900009      -9.54417612E-09
   19.3500004      -7.91932209E-09
   19.4099998      -6.02479178E-09
   19.4699993      -3.89183485E-09
   19.5300007      -1.56619184E-09
   19.5900002       8.94567476E-10
   19.6499996       3.42642115E-09
   19.7099991       5.96577809E-09
   19.7700005       8.45633163E-09
   19.8299999       1.08543805E-08
   19.8899994       1.31314852E-08
   19.9500008       1.52739172E-08
   20.0100002       1.72791133E-08
   20.0699997       1.91501943E-08
   20.1299992       2.08901021E-08
   20.1900005       2.24972183E-08
   20.2500000       2.39639029E-08
   20.3099995       2.52785295E-08
   20.3700008       2.64304791E-08
   20.4300003       2.74163412E-08
   20.4899998       2.82450792E-08
   20.5499992       2.89399988E-08
   20.6100006       2.95363645E-08
   20.6700001       3.00749150E-08
   20.7299995       3.05930179E-08
   20.7900009       3.11161550E-08
   20.8500004       3.16523590E-08
   20.9099998       3.21914477E-08
   20.9699993       3.27092380E-08
   21.0300007       3.31753860E-08
   21.0900002       3.35623653E-08
   21.1499996       3.38529098E-08
   21.2099991       3.40438078E-08
   21.2700005       3.41453514E-08
   21.3299999       3.41770026E-08
   21.3899994       3.41608732E-08
   21.4500008       3.41151249E-08
   21.5100002       3.40489343E-08
   21.5699997       3.39601947E-08
   21.6299992       3.38361410E-08
   21.6900005       3.36565016E-08
   21.7500000       3.33981482E-08
   21.8099995       3.30401839E-08
   21.8700008       3.25682521E-08
   21.9300003       3.19772617E-08
   21.9899998       3.12720054E-08
   22.0499992       3.04657419E-08
   22.1100006       2.95772260E-08
   22.1700001       2.86270616E-08
   22.2299995       2.76343215E-08
   22.2900009       2.66140958E-08
   22.3500004       2.55762806E-08
   22.4099998       2.45254395E-08
   22.4699993       2.34612241E-08
   22.5300007       2.23789236E-08
   22.5900002       2.12697220E-08
   22.6499996       2.01207033E-08
   22.7099991       1.89147809E-08
   22.7700005       1.76309101E-08
   22.8299999       1.62448952E-08
   22.8899994       1.47309365E-08
   22.9500008       1.30638966E-08
   23.0100002       1.12220100E-08
   23.0699997       9.18959309E-09
   23.1299992       6.95917812E-09
   23.1900005       4.53250060E-09
   23.2500000       1.91997152E-09
   23.3099995      -8.61344718E-10
   23.3700008      -3.79069620E-09
   23.4300003      -6.84662771E-09
   23.4899998      -1.00089821E-08
   23.5499992      -1.32592808E-08
   23.6100006      -1.65795537E-08
   23.6700001      -1.99504235E-08
   23.7299995      -2.33496689E-08
   23.7900009      -2.67523586E-08
   23.8500004      -3.01329521E-08
   23.9099998      -3.34689432E-08
   23.9699993      -3.67448258E-08
   24.0300007      -3.99550260E-08
   24.0900002      -4.31048051E-08
   24.1499996      -4.62087719E-08
   24.2099991      -4.92874754E-08
   24.2700005      -5.23627364E-08
   24.3299999      -5.54526096E-08
   24.3899994      -5.85665845E-08
   24.4500008      -6.17015203E-08
   24.5100002      -6.48388010E-08
   24.5699997      -6.79433256E-08
   24.6299992      -7.09649726E-08
   24.6900005      -7.38427417E-08
   24.7500000      -7.65112560E-08
   24.8099995      -7.89084211E-08
   24.8700008      -8.09825380E-08
   24.9300003      -8.26972197E-08
   24.9899998      -8.40331182E-08
   25.0499992      -8.49865600E-08
   25.1100006      -8.55658726E-08
   25.1700001      -8.57870575E-08
   25.2299995      -8.56700026E-08
   25.2900009      -8.52360102E-08
   25.3500004      -8.45065671E-08
   25.4099998      -8.35030676E-08
   25.4699993      -8.22466504E-08
   25.5300007      -8.07583405E-08
   25.5900002      -7.90593049E-08
   25.6499996      -7.71716628E-08
   25.7099991      -7.51199636E-08
   25.7700005      -7.29328704E-08
   25.8299999      -7.06443970E-08
   25.8899994      -6.82939714E-08
   25.9500008      -6.59248016E-08
   26.0100002      -6.35806146E-08
   26.0699997      -6.13017122E-08
   26.1299992      -5.91214118E-08
   26.1900005      -5.70638647E-08
   26.2500000      -5.51438220E-08
   26.3099995      -5.33682467E-08
   26.3700008      -5.17389580E-08
   26.4300003      -5.02553554E-08
   26.4899998      -4.89164123E-08
   26.5499992      -4.77215458E-08
   26.6100006      -4.66704400E-08
   26.6700001      -4.57622491E-08
   26.7299995      -4.49946214E-08
   26.7900009      -4.43628849E-08
   26.8500004      -4.38595293E-08
   26.9099998      -4.34740492E-08
   26.9699993      -4.31931930E-08
   27.0300007      -4.30018652E-08
   27.0900002      -4.28848743E-08
   27.1499996      -4.28293667E-08
   27.2099991      -4.28275726E-08
   27.2700005      -4.28787921E-08
   27.3299999      -4.29896900E-08
   27.3899994      -4.31721183E-08
   27.4500008      -4.34387495E-08
   27.5100002      -4.37976979E-08
   27.5699997      -4.42480896E-08
   27.6299992      -4.47785418E-08
   27.6900005      -4.53696103E-08
   27.7500000      -4.59997977E-08
   27.8099995      -4.66532200E-08
   27.8700008      -4.73261110E-08
   27.9300003      -4.80295341E-08
   27.9899998      -4.87868483E-08
   28.0499992      -4.96263972E-08
   28.1100006      -5.05713977E-08
   28.1700001      -5.16301988E-08
   28.2299995      -5.27897939E-08
   28.2900009      -5.40144462E-08
   28.3500004      -5.52496076E-08
   28.4099998      -5.64299469E-08
   28.4699993      -5.74891033E-08
   28.5300007      -5.83688973E-08
   28.5900002      -5.90259859E-08
   28.6499996      -5.94349707E-08
   28.7099991      -5.95878760E-08
   28.7700005      -5.94907057E-08
   28.8299999      -5.91582996E-08
   28.8899994      -5.86089683E-08
   28.9500008      -5.78602304E-08
   29.0100002      -5.69265879E-08
   29.0699997      -5.58196014E-08
   29.1299992      -5.45496022E-08
   29.1900005      -5.31279234E-08
   29.2500000      -5.15680689E-08
   29.3099995      -4.98846937E-08
   29.3700008      -4.80902393E-08
   29.4300003      -4.61900349E-08
   29.4899998      -4.41777708E-08
   29.5499992      -4.20333031E-08
   29.6100006      -3.97243483E-08
   29.6700001      -3.72122493E-08
   29.7299995      -3.44608040E-08
   29.7900009      -3.14458255E-08
   29.8500004      -2.81629937E-08
   29.9099998      -2.46318415E-08
   29.9699993      -2.08948325E-08
   30.0300007      -1.70117396E-08
   30.0900002      -1.30506983E-08
   30.1499996      -9.07805742E-09
   30.2099991      -5.14937959E-09
   30.2700005      -1.30361100E-09
   30.3299999       2.43836440E-09
   30.3899994       6.07071948E-09
   30.4500008       9.59637614E-09
   30.5100002       1.30194975E-08
   30.5699997       1.63392464E-08
   30.6299992       1.95468104E-08
   30.6900005       2.26265460E-08
   30.7500000       2.55605492E-08
   30.8099995       2.83346715E-08
   30.8700008       3.09434149E-08
   30.9300003       3.33915580E-08
   30.9899998       3.56916239E-08
   31.0499992       3.78578342E-08
   31.1100006       3.98986053E-08
   31.1700001       4.18101607E-08
   31.2299995       4.35734968E-08
   31.2900009       4.51558932E-08
   31.3500004       4.65167354E-08
   31.4099998       4.76161262E-08
   31.4699993       4.84239600E-08
   31.5300007       4.89270455E-08
   31.5900002       4.91322680E-08
   31.6499996       4.90649086E-08
   31.7099991       4.87625371E-08
   31.7700005       4.82660880E-08
   31.8299999       4.76107793E-08
   31.8899994       4.68195012E-08
   31.9500008       4.59007374E-08
   32.0099983       4.48515713E-08
   32.0699997       4.36645990E-08
   32.1300011       4.23363566E-08
   32.1899986       4.08742267E-08
   32.2500000       3.92995645E-08
   32.3100014       3.76461564E-08
   32.3699989       3.59548622E-08
   32.4300003       3.42664457E-08
   32.4900017       3.26149205E-08
   32.5499992       3.10232338E-08
   32.6100006       2.95019316E-08
   32.6699982       2.80504899E-08
   32.7299995       2.66605298E-08
   32.7900009       2.53198724E-08
   32.8499985       2.40168490E-08
   32.9099998       2.27442172E-08
   32.9700012       2.15020783E-08
   33.0299988       2.02989749E-08
   33.0900002       1.91504537E-08
   33.1500015       1.80749264E-08
   33.2099991       1.70875971E-08
   33.2700005       1.61941465E-08
   33.3300018       1.53863731E-08
   33.3899994       1.46414925E-08
   33.4500008       1.39255940E-08
   33.5099983       1.32002684E-08
   33.5699997       1.24302177E-08
   33.6300011       1.15893881E-08
   33.6899986       1.06638343E-08
   33.7500000       9.65074420E-09
   33.8100014       8.55438120E-09
   33.8699989       7.38050510E-09
   33.9300003       6.13104856E-09
   33.9900017       4.80048623E-09
   34.0499992       3.37472983E-09
   34.1100006       1.83276827E-09
   34.1699982       1.50712207E-10
   34.2299995      -1.69258629E-09
   34.2900009      -3.70959974E-09
   34.3499985      -5.89936588E-09
   34.4099998      -8.24529600E-09
   34.4700012      -1.07163372E-08
   34.5299988      -1.32713289E-08
   34.5900002      -1.58653286E-08
   34.6500015      -1.84560456E-08
   34.7099991      -2.10084732E-08
   34.7700005      -2.34965700E-08
   34.8300018      -2.59020059E-08
   34.8899994      -2.82109909E-08
   34.9500008      -3.04108383E-08
   35.0099983      -3.24877298E-08
   35.0699997      -3.44263498E-08
   35.1300011      -3.62112971E-08
   35.1899986      -3.78292775E-08
   35.2500000      -3.92711499E-08
   35.3100014      -4.05330276E-08
   35.3699989      -4.16162678E-08
   35.4300003      -4.25266613E-08
   35.4900017      -4.32733493E-08
   35.5499992      -4.38678533E-08
   35.6100006      -4.43233859E-08
   35.6699982      -4.46543851E-08
   35.7299995      -4.48760815E-08
   35.7900009      -4.50040964E-08
   35.8499985      -4.50542217E-08
   35.9099998      -4.50424373E-08
   35.9700012      -4.49852173E-08
   36.0299988      -4.48998954E-08
   36.0900002      -4.48046684E-08
   36.1500015      -4.47179822E-08
   36.2099991      -4.46573303E-08
   36.2700005      -4.46379325E-08
   36.3300018      -4.46719532E-08
   36.3899994      -4.47687931E-08
   36.4500008      -4.49364208E-08
   36.5099983      -4.51829436E-08
   36.5699997      -4.55172966E-08
   36.6300011      -4.59479779E-08
   36.6899986      -4.64795704E-08
   36.7500000      -4.71078963E-08
   36.8100014      -4.78155933E-08
   36.8699989      -4.85703140E-08
   36.9300003      -4.93270420E-08
   36.9900017      -5.00347177E-08
   37.0499992      -5.06458377E-08
   37.1100006      -5.11263742E-08
   37.1699982      -5.14630969E-08
   37.2299995      -5.16661309E-08
   37.2900009      -5.17660190E-08
   37.3499985      -5.18063779E-08
   37.4099998      -5.18345225E-08
   37.4700012      -5.18928154E-08
   37.5299988      -5.20131387E-08
   37.5900002      -5.22153840E-08
   37.6500015      -5.25095700E-08
   37.7099991      -5.28998640E-08
   37.7700005      -5.33886286E-08
   37.8300018      -5.39787983E-08
   37.8899994      -5.46741354E-08
   37.9500008      -5.54778268E-08
   38.0099983      -5.63905118E-08
   38.0699997      -5.74088688E-08
   38.1300011      -5.85252025E-08
   38.1899986      -5.97277605E-08
   38.2500000      -6.10010247E-08
   38.3100014      -6.23253840E-08
   38.3699989      -6.36761470E-08
   38.4300003      -6.50226823E-08
   38.4900017      -6.63287807E-08
   38.5499992      -6.75550851E-08
   38.6100006      -6.86635246E-08
   38.6699982      -6.96226437E-08
   38.7299995      -7.04121206E-08
   38.7900009      -7.10250703E-08
   38.8499985      -7.14673831E-08
   38.9099998      -7.17549113E-08
   38.9700012      -7.19097528E-08
   39.0299988      -7.19574302E-08
   39.0900002      -7.19254274E-08
   39.1500015      -7.18430542E-08
   39.2099991      -7.17412334E-08
   39.2700005      -7.16510229E-08
   39.3300018      -7.16002404E-08
   39.3899994      -7.16087953E-08
   39.4500008      -7.16840489E-08
   39.5099983      -7.18181070E-08
   39.5699997      -7.19881115E-08
   39.6300011      -7.21598283E-08
   39.6899986      -7.22934885E-08
   39.7500000      -7.23503746E-08
   39.8100014      -7.22985192E-08
   39.8699989      -7.21163573E-08
   39.9300003      -7.17938136E-08
   39.9900017      -7.13310371E-08
   40.0499992      -7.07352541E-08
   40.1100006      -7.00167888E-08
   40.1699982      -6.91851127E-08
   40.2299995      -6.82461234E-08
   40.2900009      -6.72014124E-08
   40.3499985      -6.60499779E-08
   40.4099998      -6.47918057E-08
   40.4700012      -6.34320401E-08
   40.5299988      -6.19841174E-08
   40.5900002      -6.04702137E-08
   40.6500015      -5.89186548E-08
   40.7099991      -5.73588821E-08
   40.7700005      -5.58159456E-08
   40.8300018      -5.43066214E-08
   40.8899994      -5.28386899E-08
   40.9500008      -5.14134975E-08
   41.0099983      -5.00304367E-08
   41.0699997      -4.86910459E-08
   41.1300011      -4.74007038E-08
   41.1899986      -4.61668428E-08
   41.2500000      -4.49944082E-08
   41.3100014      -4.38805152E-08
   41.3699989      -4.28107327E-08
   41.4300003      -4.17588453E-08
   41.4900017      -4.06904981E-08
   41.5499992      -3.95696489E-08
   41.6100006      -3.83656271E-08
   41.6699982      -3.70584985E-08
   41.7299995      -3.56413210E-08
   41.7900009      -3.41190933E-08
   41.8499985      -3.25053762E-08
   41.9099998      -3.08182351E-08
   41.9700012      -2.90769879E-08
   42.0299988      -2.73004392E-08
   42.0900002      -2.55064627E-08
   42.1500015      -2.37122837E-08
   42.2099991      -2.19347100E-08
   42.2700005      -2.01899937E-08
   42.3300018      -1.84934290E-08
   42.3899994      -1.68589462E-08
   42.4500008      -1.52987791E-08
   42.5099983      -1.38228442E-08
   42.5699997      -1.24373383E-08
   42.6300011      -1.11422072E-08
   42.6899986      -9.92799443E-09
   42.7500000      -8.77335449E-09
   42.8100014      -7.64496555E-09
   42.8699989      -6.50117116E-09
   42.9300003      -5.29944266E-09
   42.9900017      -4.00613098E-09
   43.0499992      -2.60574406E-09
   43.1100006      -1.10671461E-09
   43.1699982       4.58447114E-10
   43.2299995       2.03890904E-09
   43.2900009       3.57553409E-09
   43.3499985       5.01217734E-09
   43.4099998       6.30504982E-09
   43.4700012       7.42778372E-09
   43.5299988       8.37136493E-09
   43.5900002       9.13968989E-09
   43.6500015       9.74262626E-09
   43.7099991       1.01888862E-08
   43.7700005       1.04807230E-08
   43.8300018       1.06116893E-08
   43.8899994       1.05677724E-08
   43.9500008       1.03313011E-08
   44.0099983       9.88639925E-09
   44.0699997       9.22444787E-09
   44.1300011       8.34809910E-09
   44.1899986       7.27283700E-09
   44.2500000       6.02573680E-09
   44.3100014       4.64181582E-09
   44.3699989       3.15893356E-09
   44.4300003       1.61242886E-09
   44.4900017       3.05615741E-11
   44.5499992      -1.56858637E-09
   44.6100006      -3.17857207E-09
   44.6699982      -4.80461226E-09
   44.7299995      -6.46250120E-09
   44.7900009      -8.17671530E-09
   44.8499985      -9.97789229E-09
   44.9099998      -1.18998615E-08
   44.9700012      -1.39765506E-08
   45.0299988      -1.62393761E-08
   45.0900002      -1.87158768E-08
   45.1500015      -2.14302815E-08
   45.2099991      -2.44062033E-08
   45.2700005      -2.76709713E-08
   45.3300018      -3.12604485E-08
   45.3899994      -3.52229144E-08
   45.4500008      -3.96210105E-08
   45.5099983      -4.45316211E-08
   45.5699997      -5.00448252E-08
   45.6300011      -5.62636195E-08
   45.6899986      -6.33063024E-08
   45.7500000      -7.13121295E-08
   45.8100014      -8.04496025E-08
   45.8699989      -9.09250133E-08
   45.9300003      -1.02988842E-07
   45.9900017      -1.16938061E-07
   46.0499992      -1.33114725E-07
   46.1100006      -1.51903009E-07
   46.1699982      -1.73728282E-07
   46.2299995      -1.99061418E-07
   46.2900009      -2.28430110E-07
   46.3499985      -2.62436060E-07
   46.4099998      -3.01775600E-07
   46.4700012      -3.47259601E-07
   46.5299988      -3.99830213E-07
   46.5900002      -4.60573119E-07
   46.6500015      -5.30725856E-07
   46.7099991      -6.11684641E-07
   46.7700005      -7.05011075E-07
   46.8300018      -8.12441556E-07
   46.8899994      -9.35899550E-07
   46.9500008      -1.07751111E-06
   47.0099983      -1.23962434E-06
   47.0699997      -1.42483134E-06
   47.1300011      -1.63599316E-06
   47.1899986      -1.87626472E-06
   47.2500000      -2.14912006E-06
   47.3100014      -2.45837487E-06
   47.3699989      -2.80820495E-06
   47.4300003      -3.20316599E-06
   47.4900017      -3.64820698E-06
   47.5499992      -4.14868873E-06
   47.6100006      -4.71039721E-06
   47.6699982      -5.33956154E-06
   47.7299995      -6.04286697E-06
   47.7900009      -6.82746759E-06
   47.8499985      -7.70099359E-06
   47.9099998      -8.67155541E-06
   47.9700012      -9.74774503E-06
   48.0299988      -1.09386274E-05
   48.0900002      -1.22537349E-05
   48.1500015      -1.37030465E-05
   48.2099991      -1.52969660E-05
   48.2700005      -1.70462827E-05
   48.3300018      -1.89621333E-05
   48.3899994      -2.10559592E-05
   48.4500008      -2.33394403E-05
   48.5099983      -2.58244490E-05
   48.5699997      -2.85229835E-05
   48.6300011      -3.14471072E-05
   48.6899986      -3.46088600E-05
   48.7500000      -3.80201891E-05
   48.8100014      -4.16928233E-05
   48.8699989      -4.56381895E-05
   48.9300003      -4.98672816E-05
   48.9900017      -5.43905408E-05
   49.0499992      -5.92177348E-05
   49.1100006      -6.43578314E-05
   49.1699982      -6.98188742E-05
   49.2299995      -7.56078589E-05
   49.2900009      -8.17305990E-05
   49.3499985      -8.81915985E-05
   49.4099998      -9.49939058E-05
   49.4700012      -1.02139034E-04
   49.5299988      -1.09626802E-04
   49.5900002      -1.17455282E-04
   49.6500015      -1.25620645E-04
   49.7099991      -1.34117116E-04
   49.7700005      -1.42936886E-04
   49.8300018      -1.52070075E-04
   49.8899994      -1.61504606E-04
   49.9500008      -1.71226333E-04
   50.0099983      -1.81218915E-04
   50.0699997      -1.91463900E-04
   50.1300011      -2.01940798E-04
   50.1899986      -2.12627143E-04
   50.2500000      -2.23498631E-04
   50.3100014      -2.34529187E-04
   50.3699989      -2.45691102E-04
   50.4300003      -2.56955274E-04
   50.4900017      -2.68291304E-04
   50.5499992      -2.79667729E-04
   50.6100006      -2.91052245E-04