 -0.750000000       0.00000000    
 -0.689999998       0.00000000    
 -0.629999995       0.00000000    
 -0.569999993       0.00000000    
 -0.509999990       0.00000000    
 -0.449999988      -9.44594862E-21
 -0.389999986       6.33729434E-20
 -0.330000013       8.31936798E-19
 -0.270000011       3.59892388E-18
 -0.209999993       8.34851141E-18
 -0.150000006       8.25133506E-18
  -9.00000036E-02  -1.50893344E-17
  -2.99999993E-02  -8.33141276E-17
   2.99999993E-02  -1.88007565E-16
   9.00000036E-02  -2.42128709E-16
  0.150000006      -6.48735652E-17
  0.209999993       5.28439239E-16
  0.270000011       1.50259145E-15
  0.330000013       2.34293845E-15
  0.389999986       2.00682053E-15
  0.449999988      -6.40264952E-16
  0.509999990      -5.85788970E-15
  0.569999993      -1.19511927E-14
  0.629999995      -1.49358997E-14
  0.689999998      -9.80690426E-15
  0.750000000       6.45315566E-15
  0.810000002       3.12762105E-14
  0.870000005       5.46161186E-14
  0.930000007       6.10978417E-14
  0.990000010       3.69131165E-14
   1.04999995      -2.07368929E-14
   1.11000001      -9.65541598E-14
   1.16999996      -1.57911864E-13
   1.23000002      -1.66283572E-13
   1.28999996      -9.66867916E-14
   1.35000002       4.32799277E-14
   1.40999997       2.05951020E-13
   1.47000003       3.15918651E-13
   1.52999997       3.01877663E-13
   1.59000003       1.36611629E-13
   1.64999998      -1.34471156E-13
   1.71000004      -3.95757591E-13
   1.76999998      -5.03398267E-13
   1.83000004      -3.56226740E-13
   1.88999999       3.45436807E-14
   1.95000005       5.16249749E-13
   2.00999999       8.35971483E-13
   2.06999993       7.51882118E-13
   2.13000011       1.74982262E-13
   2.19000006      -7.28892099E-13
   2.25000000      -1.54742885E-12
   2.30999994      -1.77186185E-12
   2.36999989      -1.05051514E-12
   2.43000007       5.61561811E-13
   2.49000001       2.49431552E-12
   2.54999995       3.79628447E-12
   2.60999990       3.50964873E-12
   2.67000008       1.16074782E-12
   2.73000002      -2.84839708E-12
   2.78999996      -7.15959236E-12
   2.84999990      -9.79320011E-12
   2.91000009      -8.82803899E-12
   2.97000003      -3.19438443E-12
   3.02999997       6.72188086E-12
   3.08999991       1.89054206E-11
   3.15000010       3.00455043E-11
   3.21000004       3.62689254E-11
   3.26999998       3.40447323E-11
   3.32999992       2.10350886E-11
   3.39000010      -3.23261860E-12
   3.45000005      -3.68769182E-11
   3.50999999      -7.53152957E-11
   3.56999993      -1.11094023E-10
   3.63000011      -1.34094319E-10
   3.69000006      -1.32461514E-10
   3.75000000      -9.46056497E-11
   3.80999994      -1.24027698E-11
   3.86999989       1.14690729E-10
   3.93000007       2.75383827E-10
   3.99000001       4.43296538E-10
   4.05000019       5.75923920E-10
   4.11000013       6.16744322E-10
   4.17000008       5.00779029E-10
   4.23000002       1.63106806E-10
   4.28999996      -4.50927184E-10
   4.34999990      -1.37560507E-09
   4.40999985      -2.61677813E-09
   4.46999979      -4.14752188E-09
   4.53000021      -5.90851368E-09
   4.59000015      -7.81323628E-09
   4.65000010      -9.75717995E-09
   4.71000004      -1.16294725E-08
   4.76999998      -1.33249562E-08
   4.82999992      -1.47548613E-08
   4.88999987      -1.58546740E-08
   4.94999981      -1.65886185E-08
   5.01000023      -1.69508887E-08
   5.07000017      -1.69643446E-08
   5.13000011      -1.66774559E-08
   5.19000006      -1.61601541E-08
   5.25000000      -1.54987863E-08
   5.30999994      -1.47900634E-08
   5.36999989      -1.41338186E-08
   5.42999983      -1.36246641E-08
   5.48999977      -1.33430689E-08
   5.55000019      -1.33468303E-08
   5.61000013      -1.36641676E-08
   5.67000008      -1.42895455E-08
   5.73000002      -1.51830353E-08
   5.78999996      -1.62735319E-08
   5.84999990      -1.74657853E-08
   5.90999985      -1.86508053E-08
   5.96999979      -1.97189056E-08
   6.03000021      -2.05741610E-08
   6.09000015      -2.11484998E-08
   6.15000010      -2.14130669E-08
   6.21000004      -2.13842775E-08
   6.26999998      -2.11224158E-08
   6.32999992      -2.07218402E-08
   6.38999987      -2.02938537E-08
   6.44999981      -1.99452650E-08
   6.51000023      -1.97572554E-08
   6.57000017      -1.97694554E-08
   6.63000011      -1.99731289E-08
   6.69000006      -2.03150368E-08
   6.75000000      -2.07108322E-08
   6.80999994      -2.10643751E-08
   6.86999989      -2.12880682E-08
   6.92999983      -2.13194209E-08
   6.98999977      -2.11304840E-08
   7.05000019      -2.07289048E-08
   7.11000013      -2.01515551E-08
   7.17000008      -1.94532461E-08
   7.23000002      -1.86937203E-08
   7.28999996      -1.79259327E-08
   7.34999990      -1.71877748E-08
   7.40999985      -1.64982623E-08
   7.46999979      -1.58581273E-08
   7.53000021      -1.52538622E-08
   7.59000015      -1.46637715E-08
   7.65000010      -1.40644127E-08
   7.71000004      -1.34360336E-08
   7.76999998      -1.27660451E-08
   7.82999992      -1.20501769E-08
   7.88999987      -1.12914638E-08
   7.94999981      -1.04976898E-08
   8.01000023      -9.67812142E-09
   8.06999969      -8.84045814E-09
   8.13000011      -7.98886379E-09
   8.18999958      -7.12372650E-09
   8.25000000      -6.24343865E-09
   8.31000042      -5.34786615E-09
   8.36999989      -4.44252457E-09
   8.43000031      -3.54184393E-09
   8.48999977      -2.66979527E-09
   8.55000019      -1.85664539E-09
   8.60999966      -1.13183773E-09
   8.67000008      -5.14530474E-10
   8.72999954      -4.60347689E-12
   8.78999996       4.22657576E-10
   8.85000038       8.15797263E-10
   8.90999985       1.23974719E-09
   8.97000027       1.76332537E-09
   9.02999973       2.44505105E-09
   9.09000015       3.32126970E-09
   9.14999962       4.39990000E-09
   9.21000004       5.66134162E-09
   9.27000046       7.06593939E-09
   9.32999992       8.56557314E-09
   9.39000034       1.01160182E-08
   9.44999981       1.16867840E-08
   9.51000023       1.32661189E-08
   9.56999969       1.48603316E-08
   9.63000011       1.64881087E-08
   9.68999958       1.81717201E-08
   9.75000000       1.99276595E-08
   9.81000042       2.17592575E-08
   9.86999989       2.36530884E-08
   9.93000031       2.55799897E-08
   9.98999977       2.75001533E-08
   10.0500002       2.93707583E-08
   10.1099997       3.11540020E-08
   10.1700001       3.28233796E-08
   10.2299995       3.43667530E-08
   10.2900000       3.57855825E-08
   10.3500004       3.70908175E-08
   10.4099998       3.82968040E-08
   10.4700003       3.94150170E-08
   10.5299997       4.04493399E-08
   10.5900002       4.13942978E-08
   10.6499996       4.22366959E-08
   10.7100000       4.29602807E-08
   10.7700005       4.35521770E-08
   10.8299999       4.40091590E-08
   10.8900003       4.43419097E-08
   10.9499998       4.45756889E-08
   11.0100002       4.47468089E-08
   11.0699997       4.48955433E-08
   11.1300001       4.50571775E-08
   11.1899996       4.52534934E-08
   11.2500000       4.54873295E-08
   11.3100004       4.57417855E-08
   11.3699999       4.59846170E-08
   11.4300003       4.61766732E-08
   11.4899998       4.62819969E-08
   11.5500002       4.62766359E-08
   11.6099997       4.61536587E-08
   11.6700001       4.59230378E-08
   11.7299995       4.56068925E-08
   11.7900000       4.52319249E-08
   11.8500004       4.48218529E-08
   11.9099998       4.43921735E-08
   11.9700003       4.39485071E-08
   12.0299997       4.34882175E-08
   12.0900002       4.30038476E-08
   12.1499996       4.24864020E-08
   12.2100000       4.19272013E-08
   12.2700005       4.13180175E-08
   12.3299999       4.06503098E-08
   12.3900003       3.99147737E-08
   12.4499998       3.91021331E-08
   12.5100002       3.82052328E-08
   12.5699997       3.72217208E-08
   12.6300001       3.61560524E-08
   12.6899996       3.50200473E-08
   12.7500000       3.38316823E-08
   12.8100004       3.26125367E-08
   12.8699999       3.13846442E-08
   12.9300003       3.01673033E-08
   12.9899998       2.89743216E-08
   13.0500002       2.78117920E-08
   13.1099997       2.66768350E-08
   13.1700001       2.55578225E-08
   13.2299995       2.44365843E-08
   13.2900000       2.32926745E-08
   13.3500004       2.21088250E-08
   13.4099998       2.08759072E-08
   13.4700003       1.95955430E-08
   13.5299997       1.82791098E-08
   13.5900002       1.69433889E-08
   13.6499996       1.56045417E-08
   13.7100000       1.42729544E-08
   13.7700005       1.29510660E-08
   13.8299999       1.16349650E-08
   13.8900003       1.03187263E-08
   13.9499998       8.99928043E-09
   14.0100002       7.67944641E-09
   14.0699997       6.36782271E-09
   14.1300001       5.07574871E-09
   14.1899996       3.81288867E-09
   14.2500000       2.58342125E-09
   14.3100004       1.38431067E-09
   14.3699999       2.06063985E-10
   14.4300003      -9.64668012E-10
   14.4899998      -2.14185136E-09
   14.5500002      -3.33735239E-09
   14.6099997      -4.55948257E-09
   14.6700001      -5.81303850E-09
   14.7299995      -7.10068626E-09
   14.7900000      -8.42524805E-09
   14.8500004      -9.79219017E-09
   14.9099998      -1.12113252E-08
   14.9700003      -1.26966935E-08
   15.0299997      -1.42638745E-08
   15.0900002      -1.59249467E-08
   15.1499996      -1.76824830E-08
   15.2100000      -1.95249754E-08
   15.2700005      -2.14261373E-08
   15.3299999      -2.33494220E-08
   15.3900003      -2.52570374E-08
   15.4499998      -2.71205582E-08
   15.5100002      -2.89291879E-08
   15.5699997      -3.06921315E-08
   15.6300001      -3.24338529E-08
   15.6899996      -3.41837243E-08
   15.7500000      -3.59639820E-08
   15.8100004      -3.77804845E-08
   15.8699999      -3.96195254E-08
   15.9300003      -4.14513615E-08
   15.9899998      -4.32385043E-08
   16.0499992      -4.49453523E-08
   16.1100006      -4.65457184E-08
   16.1700001      -4.80262763E-08
   16.2299995      -4.93858181E-08
   16.2900009      -5.06314919E-08
   16.3500004      -5.17737782E-08
   16.4099998      -5.28215907E-08
   16.4699993      -5.37784537E-08
   16.5300007      -5.46401786E-08
   16.5900002      -5.53945618E-08
   16.6499996      -5.60234454E-08
   16.7099991      -5.65070550E-08
   16.7700005      -5.68297445E-08
   16.8299999      -5.69853604E-08
   16.8899994      -5.69801841E-08
   16.9500008      -5.68319294E-08
   17.0100002      -5.65648044E-08
   17.0699997      -5.62023494E-08
   17.1299992      -5.57607649E-08
   17.1900005      -5.52452484E-08
   17.2500000      -5.46506520E-08
   17.3099995      -5.39657314E-08
   17.3700008      -5.31789190E-08
   17.4300003      -5.22831769E-08
   17.4899998      -5.12782847E-08
   17.5499992      -5.01703568E-08
   17.6100006      -4.89696284E-08
   17.6700001      -4.76881432E-08
   17.7299995      -4.63384211E-08
   17.7900009      -4.49334507E-08
   17.8500004      -4.34872121E-08
   17.9099998      -4.20148929E-08
   17.9699993      -4.05319689E-08
   18.0300007      -3.90523169E-08
   18.0900002      -3.75859344E-08
   18.1499996      -3.61373864E-08
   18.2099991      -3.47057068E-08
   18.2700005      -3.32861951E-08
   18.3299999      -3.18736078E-08
   18.3899994      -3.04660404E-08
   18.4500008      -2.90682873E-08
   18.5100002      -2.76935186E-08
   18.5699997      -2.63624695E-08
   18.6299992      -2.50998333E-08
   18.6900005      -2.39283402E-08
   18.7500000      -2.28619630E-08
   18.8099995      -2.19002576E-08
   18.8700008      -2.10259756E-08
   18.9300003      -2.02073771E-08
   18.9899998      -1.94052898E-08
   19.0499992      -1.85832434E-08
   19.1100006      -1.77176727E-08
   19.1700001      -1.68047958E-08
   19.2299995      -1.58615965E-08
   19.2900009      -1.49202002E-08
   19.3500004      -1.40171164E-08
   19.4099998      -1.31806379E-08
   19.4699993      -1.24203519E-08
   19.5300007      -1.17221113E-08
   19.5900002      -1.10501475E-08
   19.6499996      -1.03557989E-08
   19.7099991      -9.59039692E-09
   19.7700005      -8.71862671E-09
   19.8299999      -7.72859909E-09
   19.8899994      -6.63573818E-09
   19.9500008      -5.47942758E-09
   20.0100002      -4.31325953E-09
   20.0699997      -3.19159965E-09
   20.1299992      -2.15613305E-09
   20.1900005      -1.22601396E-09
   20.2500000      -3.94110411E-10
   20.3099995       3.69975522E-10
   20.3700008       1.11137155E-09
   20.4300003       1.87855442E-09
   20.4899998       2.71228684E-09
   20.5499992       3.63752339E-09
   20.6100006       4.65970507E-09
   20.6700001       5.76538950E-09
   20.7299995       6.92599444E-09
   20.7900009       8.10281708E-09
   20.8500004       9.25163146E-09
   20.9099998       1.03258460E-08
   20.9699993       1.12780993E-08
   21.0300007       1.20610286E-08
   21.0900002       1.26283339E-08
   21.1499996       1.29372006E-08
   21.2099991       1.29525111E-08
   21.2700005       1.26524506E-08
   21.3299999       1.20343335E-08
   21.3899994       1.11190372E-08
   21.4500008       9.95251703E-09
   21.5100002       8.60341665E-09
   21.5699997       7.15659310E-09
   21.6299992       5.70331871E-09
   21.6900005       4.32964864E-09
   21.7500000       3.10500647E-09
   21.8099995       2.07317008E-09
   21.8700008       1.24759070E-09
   21.9300003       6.12163653E-10
   21.9899998       1.27389599E-10
   22.0499992      -2.59472277E-10
   22.1100006      -6.02691119E-10
   22.1700001      -9.47544043E-10
   22.2299995      -1.32318567E-09
   22.2900009      -1.73987902E-09
   22.3500004      -2.19019469E-09
   22.4099998      -2.65284972E-09
   22.4699993      -3.09767634E-09
   22.5300007      -3.49065732E-09
   22.5900002      -3.79864407E-09
   22.6499996      -3.99376665E-09
   22.7099991      -4.05748457E-09
   22.7700005      -3.98383815E-09
   22.8299999      -3.78118603E-09
   22.8899994      -3.47181683E-09
   22.9500008      -3.08936010E-09
   23.0100002      -2.67455080E-09
   23.0699997      -2.27024843E-09
   23.1299992      -1.91650229E-09
   23.1900005      -1.64603209E-09
   23.2500000      -1.48016954E-09
   23.3099995      -1.42536849E-09
   23.3700008      -1.47081980E-09
   23.4300003      -1.58813052E-09
   23.4899998      -1.73399228E-09
   23.5499992      -1.85605142E-09
   23.6100006      -1.90105265E-09
   23.6700001      -1.82333837E-09
   23.7299995      -1.59152891E-09
   23.7900009      -1.19186483E-09
   23.8500004      -6.27958019E-10
   23.9099998       8.20784829E-11
   23.9699993       9.09557207E-10
   24.0300007       1.81886051E-09
   24.0900002       2.77022361E-09
   24.1499996       3.72184372E-09
   24.2099991       4.63184779E-09
   24.2700005       5.46049073E-09
   24.3299999       6.17256246E-09
   24.3899994       6.73971323E-09
   24.4500008       7.14243775E-09
   24.5100002       7.37170680E-09
   24.5699997       7.43034079E-09
   24.6299992       7.33401873E-09
   24.6900005       7.11133641E-09
   24.7500000       6.80195322E-09
   24.8099995       6.45203713E-09
   24.8700008       6.10704776E-09
   24.9300003       5.80317927E-09
   24.9899998       5.55986901E-09
   25.0499992       5.37596989E-09
   25.1100006       5.23130250E-09
   25.1700001       5.09352338E-09
   25.2299995       4.92837282E-09
   25.2900009       4.71019712E-09
   25.3500004       4.42963799E-09
   25.4099998       4.09649559E-09
   25.4699993       3.73744635E-09
   25.5300007       3.38974737E-09
   25.5900002       3.09290416E-09
   25.6499996       2.88037216E-09
   25.7099991       2.77299561E-09
   25.7700005       2.77538681E-09
   25.8299999       2.87594593E-09
   25.8899994       3.05058911E-09
   25.9500008       3.26940053E-09
   26.0100002       3.50438256E-09
   26.0699997       3.73570685E-09
   26.1299992       3.95393362E-09
   26.1900005       4.15688994E-09
   26.2500000       4.34203606E-09
   26.3099995       4.49729454E-09
   26.3700008       4.59438221E-09
   26.4300003       4.58795624E-09
   26.4899998       4.42150538E-09
   26.5499992       4.03802902E-09
   26.6100006       3.39149064E-09
   26.6700001       2.45490983E-09
   26.7299995       1.22270871E-09
   26.7900009      -2.92393082E-10
   26.8500004      -2.06550288E-09
   26.9099998      -4.06569001E-09
   26.9699993      -6.26015240E-09
   27.0300007      -8.61625793E-09
   27.0900002      -1.11026282E-08
   27.1499996      -1.36906300E-08
   27.2099991      -1.63566654E-08
   27.2700005      -1.90844673E-08
   27.3299999      -2.18661071E-08
   27.3899994      -2.47009417E-08
   27.4500008      -2.75929359E-08
   27.5100002      -3.05477776E-08
   27.5699997      -3.35710908E-08
   27.6299992      -3.66681050E-08
   27.6900005      -3.98436590E-08
   27.7500000      -4.31008189E-08
   27.8099995      -4.64369876E-08
   27.8700008      -4.98380892E-08
   27.9300003      -5.32731477E-08
   27.9899998      -5.66923219E-08
   28.0499992      -6.00306080E-08
   28.1100006      -6.32172430E-08
   28.1700001      -6.61883277E-08
   28.2299995      -6.88988564E-08
   28.2900009      -7.13303621E-08
   28.3500004      -7.34921528E-08
   28.4099998      -7.54161746E-08
   28.4699993      -7.71474689E-08
   28.5300007      -7.87329739E-08
   28.5900002      -8.02111515E-08
   28.6499996      -8.16041563E-08
   28.7099991      -8.29135516E-08
   28.7700005      -8.41200247E-08
   28.8299999      -8.51874375E-08
   28.8899994      -8.60705711E-08
   28.9500008      -8.67256773E-08
   29.0100002      -8.71211014E-08
   29.0699997      -8.72452119E-08
   29.1299992      -8.71088162E-08
   29.1900005      -8.67411174E-08
   29.2500000      -8.61804068E-08
   29.3099995      -8.54628368E-08
   29.3700008      -8.46134469E-08
   29.4300003      -8.36426253E-08
   29.4899998      -8.25488584E-08
   29.5499992      -8.13260783E-08
   29.6100006      -7.99719686E-08
   29.6700001      -7.84938621E-08
   29.7299995      -7.69100765E-08
   29.7900009      -7.52469020E-08
   29.8500004      -7.35330659E-08
   29.9099998      -7.17941333E-08
   29.9699993      -7.00487846E-08
   30.0300007      -6.83075569E-08
   30.0900002      -6.65737474E-08
   30.1499996      -6.48457572E-08
   30.2099991      -6.31201544E-08
   30.2700005      -6.13949993E-08
   30.3299999      -5.96729635E-08
   30.3899994      -5.79635007E-08
   30.4500008      -5.62834366E-08
   30.5100002      -5.46554837E-08
   30.5699997      -5.31052038E-08
   30.6299992      -5.16576222E-08
   30.6900005      -5.03350037E-08
   30.7500000      -4.91566929E-08
   30.8099995      -4.81405031E-08
   30.8700008      -4.73042299E-08
   30.9300003      -4.66652317E-08
   30.9899998      -4.62371403E-08
   31.0499992      -4.60243150E-08
   31.1100006      -4.60162966E-08
   31.1700001      -4.61850540E-08
   31.2299995      -4.64870880E-08
   31.2900009      -4.68706141E-08
   31.3500004      -4.72860435E-08
   31.4099998      -4.76967088E-08
   31.4699993      -4.80866795E-08
   31.5300007      -4.84633524E-08
   31.5900002      -4.88541332E-08
   31.6499996      -4.92978849E-08
   31.7099991      -4.98332540E-08
   31.7700005      -5.04865802E-08
   31.8299999      -5.12625888E-08
   31.8899994      -5.21405781E-08
   31.9500008      -5.30778372E-08
   32.0099983      -5.40200347E-08
   32.0699997      -5.49162209E-08
   32.1300011      -5.57340627E-08
   32.1899986      -5.64704195E-08
   32.2500000      -5.71534891E-08
   32.3100014      -5.78353081E-08
   32.3699989      -5.85767204E-08
   32.4300003      -5.94294889E-08
   32.4900017      -6.04209944E-08
   32.5499992      -6.15460607E-08
   32.6100006      -6.27678531E-08
   32.6699982      -6.40269349E-08
   32.7299995      -6.52551932E-08
   32.7900009      -6.63907542E-08
   32.8499985      -6.73898342E-08
   32.9099998      -6.82332271E-08
   32.9700012      -6.89261768E-08
   33.0299988      -6.94921738E-08
   33.0900002      -6.99623328E-08
   33.1500015      -7.03630505E-08
   33.2099991      -7.07053829E-08
   33.2700005      -7.09792616E-08
   33.3300018      -7.11546306E-08
   33.3899994      -7.11894401E-08
   33.4500008      -7.10419954E-08
   33.5099983      -7.06833205E-08
   33.5699997      -7.01048322E-08
   33.6300011      -6.93182756E-08
   33.6899986      -6.83482071E-08
   33.7500000      -6.72201494E-08
   33.8100014      -6.59499264E-08
   33.8699989      -6.45389804E-08
   33.9300003      -6.29782093E-08
   33.9900017      -6.12586604E-08
   34.0499992      -5.93847034E-08
   34.1100006      -5.73837440E-08
   34.1699982      -5.53079502E-08
   34.2299995      -5.32264544E-08
   34.2900009      -5.12101224E-08
   34.3499985      -4.93136483E-08
   34.4099998      -4.75605297E-08
   34.4700012      -4.59356606E-08
   34.5299988      -4.43878143E-08
   34.5900002      -4.28418403E-08
   34.6500015      -4.12177457E-08
   34.7099991      -3.94521642E-08
   34.7700005      -3.75168874E-08
   34.8300018      -3.54293874E-08
   34.8899994      -3.32518191E-08
   34.9500008      -3.10778709E-08
   35.0099983      -2.90103017E-08
   35.0699997      -2.71353002E-08
   35.1300011      -2.55014285E-08
   35.1899986      -2.41101912E-08
   35.2500000      -2.29217392E-08
   35.3100014      -2.18739711E-08
   35.3699989      -2.09084838E-08
   35.4300003      -1.99938857E-08
   35.4900017      -1.91378327E-08
   35.5499992      -1.83831546E-08
   35.6100006      -1.77895227E-08
   35.6699982      -1.74075065E-08
   35.7299995      -1.72547310E-08
   35.7900009      -1.73029093E-08
   35.8499985      -1.74802128E-08
   35.9099998      -1.76878263E-08
   35.9700012      -1.78245845E-08
   36.0299988      -1.78111641E-08
   36.0900002      -1.76062311E-08
   36.1500015      -1.72101799E-08
   36.2099991      -1.66564611E-08
   36.2700005      -1.59943543E-08
   36.3300018      -1.52691655E-08
   36.3899994      -1.45061483E-08
   36.4500008      -1.37028975E-08
   36.5099983      -1.28324356E-08
   36.5699997      -1.18560184E-08
   36.6300011      -1.07417701E-08
   36.6899986      -9.48317869E-09
   36.7500000      -8.11096523E-09
   36.8100014      -6.69343825E-09
   36.8699989      -5.32389688E-09
   36.9300003      -4.09816803E-09
   36.9900017      -3.08923354E-09
   37.0499992      -2.32757102E-09
   37.1100006      -1.79433257E-09
   37.1699982      -1.43010981E-09
   37.2299995      -1.15639609E-09
   37.2900009      -9.02216579E-10
   37.3499985      -6.26638963E-10
   37.4099998      -3.29737210E-10
   37.4700012      -4.91677463E-11
   37.5299988       1.55097643E-10
   37.5900002       2.21388630E-10
   37.6500015       1.04678634E-10
   37.7099991      -2.13148194E-10
   37.7700005      -7.23266780E-10
   37.8300018      -1.39850131E-09
   37.8899994      -2.20641194E-09
   37.9500008      -3.12214321E-09
   38.0099983      -4.13730072E-09
   38.0699997      -5.26294208E-09
   38.1300011      -6.52658505E-09
   38.1899986      -7.96450728E-09
   38.2500000      -9.61151869E-09
   38.3100014      -1.14908589E-08
   38.3699989      -1.36070035E-08
   38.4300003      -1.59436730E-08
   38.4900017      -1.84681515E-08
   38.5499992      -2.11410285E-08
   38.6100006      -2.39284628E-08
   38.6699982      -2.68126605E-08
   38.7299995      -2.97964444E-08
   38.7900009      -3.28996173E-08
   38.8499985      -3.61479522E-08
   38.9099998      -3.95584721E-08
   38.9700012      -4.31263558E-08
   39.0299988      -4.68180765E-08
   39.0900002      -5.05730320E-08
   39.1500015      -5.43125047E-08
   39.2099991      -5.79523700E-08
   39.2700005      -6.14149585E-08
   39.3300018      -6.46366587E-08
   39.3899994      -6.75700846E-08
   39.4500008      -7.01818337E-08
   39.5099983      -7.24482163E-08
   39.5699997      -7.43511777E-08
   39.6300011      -7.58758674E-08
   39.6899986      -7.70100570E-08
   39.7500000      -7.77449856E-08
   39.8100014      -7.80770861E-08
   39.8699989      -7.80100180E-08
   39.9300003      -7.75567344E-08
   39.9900017      -7.67408608E-08
   40.0499992      -7.55963256E-08
   40.1100006      -7.41645323E-08
   40.1699982      -7.24888096E-08
   40.2299995      -7.06072569E-08
   40.2900009      -6.85459938E-08
   40.3499985      -6.63154012E-08
   40.4099998      -6.39108251E-08
   40.4700012      -6.13179836E-08
   40.5299988      -5.85213549E-08
   40.5900002      -5.55131443E-08
   40.6500015      -5.23002406E-08
   40.7099991      -4.89077294E-08
   40.7700005      -4.53788864E-08
   40.8300018      -4.17723243E-08
   40.8899994      -3.81574807E-08
   40.9500008      -3.46091475E-08
   41.0099983      -3.12014095E-08
   41.0699997      -2.80013932E-08
   41.1300011      -2.50633931E-08
   41.1899986      -2.24245209E-08
   41.2500000      -2.01030357E-08
   41.3100014      -1.80999926E-08
   41.3699989      -1.64036518E-08
   41.4300003      -1.49950754E-08
   41.4900017      -1.38526630E-08
   41.5499992      -1.29539401E-08
   41.6100006      -1.22741959E-08
   41.6699982      -1.17832588E-08
   41.7299995      -1.14428609E-08
   41.7900009      -1.12071046E-08
   41.8499985      -1.10272973E-08
   41.9099998      -1.08604921E-08
   41.9700012      -1.06791100E-08
   42.0299988      -1.04780877E-08
   42.0900002      -1.02764393E-08
   42.1500015      -1.01118642E-08
   42.2099991      -1.00294288E-08
   42.2700005      -1.00674393E-08
   42.3300018      -1.02446824E-08
   42.3899994      -1.05528652E-08
   42.4500008      -1.09565264E-08
   42.5099983      -1.14005356E-08
   42.5699997      -1.18231869E-08
   42.6300011      -1.21714443E-08
   42.6899986      -1.24143815E-08
   42.7500000      -1.25513315E-08
   42.8100014      -1.26125297E-08
   42.8699989      -1.26518449E-08
   42.9300003      -1.27331852E-08
   42.9900017      -1.29139321E-08
   43.0499992      -1.32297533E-08
   43.1100006      -1.36850815E-08
   43.1699982      -1.42521301E-08
   43.2299995      -1.48789532E-08
   43.2900009      -1.55042805E-08
   43.3499985      -1.60747220E-08
   43.4099998      -1.65591327E-08
   43.4700012      -1.69560153E-08
   43.5299988      -1.72921713E-08
   43.5900002      -1.76138144E-08
   43.6500015      -1.79737274E-08
   43.7099991      -1.84188718E-08
   43.7700005      -1.89820906E-08
   43.8300018      -1.96795735E-08
   43.8899994      -2.05133972E-08
   43.9500008      -2.14769891E-08
   44.0099983      -2.25608066E-08
   44.0699997      -2.37562752E-08
   44.1300011      -2.50571333E-08
   44.1899986      -2.64585136E-08
   44.2500000      -2.79547052E-08
   44.3100014      -2.95366611E-08
   44.3699989      -3.11901971E-08
   44.4300003      -3.28955103E-08
   44.4900017      -3.46283322E-08
   44.5499992      -3.63626214E-08
   44.6100006      -3.80740666E-08
   44.6699982      -3.97431776E-08
   44.7299995      -4.13564116E-08
   44.7900009      -4.29045173E-08
   44.8499985      -4.43784387E-08
   44.9099998      -4.57645939E-08
   44.9700012      -4.70423238E-08
   45.0299988      -4.81858358E-08
   45.0900002      -4.91712200E-08
   45.1500015      -4.99865536E-08
   45.2099991      -5.06410807E-08
   45.2700005      -5.11689393E-08
   45.3300018      -5.16246992E-08
   45.3899994      -5.20709165E-08
   45.4500008      -5.25615391E-08
   45.5099983      -5.31268078E-08
   45.5699997      -5.37652447E-08
   45.6300011      -5.44459127E-08
   45.6899986      -5.51203065E-08
   45.7500000      -5.57399460E-08
   45.8100014      -5.62734925E-08
   45.8699989      -5.67175107E-08
   45.9300003      -5.70969725E-08
   45.9900017      -5.74550505E-08
   46.0499992      -5.78351660E-08
   46.1100006      -5.82609943E-08
   46.1699982      -5.87209961E-08
   46.2299995      -5.91630069E-08
   46.2900009      -5.95015557E-08
   46.3499985      -5.96366334E-08
   46.4099998      -5.94788396E-08
   46.4700012      -5.89732494E-08
   46.5299988      -5.81143311E-08
   46.5900002      -5.69467602E-08
   46.6500015      -5.55513466E-08
   46.7099991      -5.40202869E-08
   46.7700005      -5.24295949E-08
   46.8300018      -5.08174693E-08
   46.8899994      -4.91754868E-08
   46.9500008      -4.74550355E-08
   47.0099983      -4.55865319E-08
   47.0699997      -4.35048477E-08
   47.1300011      -4.11727363E-08
   47.1899986      -3.85952035E-08
   47.2500000      -3.58207437E-08
   47.3100014      -3.29297478E-08
   47.3699989      -3.00139398E-08
   47.4300003      -2.71530585E-08
   47.4900017      -2.43954581E-08
   47.5499992      -2.17478551E-08
   47.6100006      -1.91767295E-08
   47.6699982      -1.66206640E-08
   47.7299995      -1.40097924E-08
   47.7900009      -1.12867422E-08
   47.8499985      -8.42312442E-09
   47.9099998      -5.42713785E-09
   47.9700012      -2.34070519E-09
   48.0299988       7.72166830E-10
   48.0900002       3.84153109E-09
   48.1500015       6.80684797E-09
   48.2099991       9.62705471E-09
   48.2700005       1.22830919E-08
   48.3300018       1.47733212E-08
   48.3899994       1.71044352E-08
   48.4500008       1.92814191E-08
   48.5099983       2.12998774E-08
   48.5699997       2.31428370E-08
   48.6300011       2.47825831E-08
   48.6899986       2.61866333E-08
   48.7500000       2.73258216E-08
   48.8100014       2.81819190E-08
   48.8699989       2.87521686E-08
   48.9300003       2.90490529E-08
   48.9900017       2.90950499E-08
   49.0499992       2.89139379E-08
   49.1100006       2.85216846E-08
   49.1699982       2.79204002E-08
   49.2299995       2.70978564E-08
   49.2900009       2.60330975E-08
   49.3499985       2.47064005E-08
   49.4099998       2.31101343E-08
   49.4700012       2.12567635E-08
   49.5299988       1.91811633E-08
   49.5900002       1.69362604E-08
   49.6500015       1.45830281E-08
   49.7099991       1.21774235E-08
   49.7700005       9.75766667E-09
   49.8300018       7.33518446E-09
   49.8899994       4.89174345E-09
   49.9500008       2.38371989E-09
   50.0099983      -2.47388249E-10
   50.0699997      -3.06093773E-09
   50.1300011      -6.10354611E-09
   50.1899986      -9.39992262E-09
   50.2500000      -1.29509274E-08
   50.3100014      -1.67394720E-08
   50.3699989      -2.07424300E-08
   50.4300003      -2.49448924E-08
   50.4900017      -2.93525044E-08
   50.5499992      -3.39985355E-08
   50.6100006      -3.89443997E-08