  -2.400000      0.0000000E+00
  -2.340000      0.0000000E+00
  -2.280000      0.0000000E+00
  -2.220000      0.0000000E+00
  -2.160000      0.0000000E+00
  -2.100000      0.0000000E+00
  -2.040000      0.0000000E+00
  -1.980000      0.0000000E+00
  -1.920000      3.6602040E-26
  -1.860000      3.9528797E-25
  -1.800000      2.0918477E-24
  -1.740000      7.0094654E-24
  -1.680000      1.5530614E-23
  -1.620000      1.8258498E-23
  -1.560000     -1.9504871E-23
  -1.500000     -1.7148845E-22
  -1.440000     -5.2949137E-22
  -1.380000     -1.0827083E-21
  -1.320000     -1.4324360E-21
  -1.260000     -4.0115311E-22
  -1.200000      4.0738799E-21
  -1.140000      1.3940254E-20
  -1.080000      2.8063139E-20
  -1.020000      3.7571086E-20
 -0.9600000      2.2485441E-20
 -0.9000000     -4.4286080E-20
 -0.8400000     -1.7910519E-19
 -0.7800000     -3.5547927E-19
 -0.7200000     -4.7080928E-19
 -0.6600000     -3.4123666E-19
 -0.6000000      2.3900676E-19
 -0.5400000      1.3523567E-18
 -0.4800000      2.7503710E-18
 -0.4200000      3.6778609E-18
 -0.3600000      2.8965160E-18
 -0.3000000     -8.9206828E-19
 -0.2400000     -8.1057711E-18
 -0.1800000     -1.6981891E-17
 -0.1200000     -2.2565222E-17
 -5.9999999E-02 -1.7162838E-17
  0.0000000E+00  6.4442697E-18
  5.9999999E-02  4.8696407E-17
  0.1200000      9.5901950E-17
  0.1800000      1.1702894E-16
  0.2400000      7.1583780E-17
  0.3000000     -6.7227377E-17
  0.3600000     -2.7900916E-16
  0.4200000     -4.7061691E-16
  0.4800000     -4.8615700E-16
  0.5400000     -1.7410680E-16
  0.6000000      4.9583308E-16
  0.6600000      1.3189739E-15
  0.7200000      1.8345802E-15
  0.7800000      1.4792664E-15
  0.8400000     -8.0527753E-17
  0.9000000     -2.5642019E-15
  0.9600000     -4.8876245E-15
   1.020000     -5.4243444E-15
   1.080000     -2.7986174E-15
   1.140000      3.0418526E-15
   1.200000      1.0062429E-14
   1.260000      1.4376199E-14
   1.320000      1.1835801E-14
   1.380000      5.9917671E-16
   1.440000     -1.6553429E-14
   1.500000     -3.1782956E-14
   1.560000     -3.4777370E-14
   1.620000     -1.8049388E-14
   1.680000      1.7228081E-14
   1.740000      5.8255870E-14
   1.800000      8.3485221E-14
   1.860000      7.1856712E-14
   1.920000      1.5246967E-14
   1.980000     -7.2085262E-14
   2.040000     -1.5362012E-13
   2.100000     -1.8339887E-13
   2.160000     -1.2831453E-13
   2.220000      9.7944088E-15
   2.280000      1.8466649E-13
   2.340000      3.1762218E-13
   2.400000      3.3037096E-13
   2.460000      1.8625306E-13
   2.520000     -8.0241579E-14
   2.580000     -3.6441117E-13
   2.640000     -5.2943088E-13
   2.700000     -4.6981906E-13
   2.760000     -1.7228409E-13
   2.820000      2.5869365E-13
   2.880000      6.3129731E-13
   2.940000      7.4813425E-13
   3.000000      5.0657108E-13
   3.060000     -3.1281222E-14
   3.120000     -6.4121213E-13
   3.180000     -1.0242018E-12
   3.240000     -9.4812374E-13
   3.300000     -3.7955728E-13
   3.360000      4.6503247E-13
   3.420000      1.1899324E-12
   3.480000      1.3974514E-12
   3.540000      8.9822778E-13
   3.600000     -1.4936495E-13
   3.660000     -1.2564548E-12
   3.720000     -1.7978378E-12
   3.780000     -1.3164222E-12
   3.840000      1.9636635E-13
   3.900000      2.1899156E-12
   3.960000      3.7001851E-12
   4.020000      3.7282144E-12
   4.080000      1.7127256E-12
   4.140000     -2.1067416E-12
   4.200000     -6.6178395E-12
   4.260000     -1.0128419E-11
   4.320000     -1.0946037E-11
   4.380000     -8.0343163E-12
   4.440000     -1.4872977E-12
   4.500000      7.3771909E-12
   4.560000      1.6356288E-11
   4.620000      2.3010158E-11
   4.680000      2.5372607E-11
   4.740000      2.2459704E-11
   4.800000      1.4409512E-11
   4.860000      2.2563004E-12
   4.920000     -1.2492655E-11
   4.980000     -2.8228680E-11
   5.040000     -4.3358660E-11
   5.100000     -5.6121954E-11
   5.160000     -6.4261228E-11
   5.220000     -6.4844546E-11
   5.280000     -5.4541094E-11
   5.340000     -3.0493066E-11
   5.400000      8.3506596E-12
   5.460000      5.9855426E-11
   5.520000      1.1784873E-10
   5.580000      1.7230262E-10
   5.640000      2.1076303E-10
   5.700000      2.2080759E-10
   5.760000      1.9291028E-10
   5.820000      1.2289021E-10
   5.880000      1.3223175E-11
   5.940000     -1.2712283E-10
   6.000000     -2.8415117E-10
   6.060000     -4.4098744E-10
   6.120000     -5.7994121E-10
   6.180000     -6.8388573E-10
   6.240000     -7.3680861E-10
   6.300000     -7.2389283E-10
   6.360000     -6.3180478E-10
   6.420000     -4.4982607E-10
   6.480000     -1.7205605E-10
   6.540000      1.9970513E-10
   6.600000      6.5333766E-10
   6.660000      1.1652119E-09
   6.720000      1.7013427E-09
   6.780000      2.2211344E-09
   6.840000      2.6831151E-09
   6.900000      3.0513585E-09
   6.960000      3.3010226E-09
   7.020000      3.4217151E-09
   7.080000      3.4181173E-09
   7.140000      3.3081577E-09
   7.200000      3.1196967E-09
   7.260000      2.8868834E-09
   7.320000      2.6470330E-09
   7.380000      2.4382294E-09
   7.440000      2.2972264E-09
   7.500000      2.2569169E-09
   7.560000      2.3428599E-09
   7.620000      2.5689986E-09
   7.680000      2.9334946E-09
   7.740000      3.4161285E-09
   7.800000      3.9786867E-09
   7.860000      4.5690620E-09
   7.920000      5.1286810E-09
   7.980000      5.6017142E-09
   8.040000      5.9437957E-09
   8.100000      6.1280243E-09
   8.160000      6.1467964E-09
   8.220000      6.0093681E-09
   8.280000      5.7363545E-09
   8.340000      5.3532503E-09
   8.400000      4.8850728E-09
   8.460000      4.3534887E-09
   8.520000      3.7765377E-09
   8.580000      3.1699319E-09
   8.640000      2.5482882E-09
   8.700000      1.9249582E-09
   8.760000      1.3100373E-09
   8.820000      7.0738781E-10
   8.880000      1.1236940E-10
   8.940000     -4.8794591E-10
   9.000000     -1.1111402E-09
   9.060000     -1.7728954E-09
   9.120000     -2.4794371E-09
   9.180000     -3.2216563E-09
   9.240000     -3.9732986E-09
   9.300000     -4.6943169E-09
   9.360000     -5.3386700E-09
   9.420000     -5.8642238E-09
   9.480000     -6.2416561E-09
   9.540000     -6.4596501E-09
   9.600000     -6.5250703E-09
   9.660000     -6.4586265E-09
   9.720000     -6.2880798E-09
   9.780000     -6.0416125E-09
   9.840000     -5.7435163E-09
   9.900000     -5.4130140E-09
   9.960000     -5.0655129E-09
   10.02000     -4.7145403E-09
   10.08000     -4.3725401E-09
   10.14000     -4.0495354E-09
   10.20000     -3.7500527E-09
   10.26000     -3.4699006E-09
   10.32000     -3.1948610E-09
   10.38000     -2.9027896E-09
   10.44000     -2.5692282E-09
   10.50000     -2.1750262E-09
   10.56000     -1.7133069E-09
   10.62000     -1.1929762E-09
   10.68000     -6.3697086E-10
   10.74000     -7.5296130E-11
   10.80000      4.6513390E-10
   10.86000      9.7046748E-10
   10.92000      1.4461469E-09
   10.98000      1.9169915E-09
   11.04000      2.4208195E-09
   11.10000      2.9975467E-09
   11.16000      3.6772891E-09
   11.22000      4.4712736E-09
   11.28000      5.3682307E-09
   11.34000      6.3368994E-09
   11.40000      7.3331310E-09
   11.46000      8.3087501E-09
   11.52000      9.2192725E-09
   11.58000      1.0028698E-08
   11.64000      1.0711295E-08
   11.70000      1.1251628E-08
   11.76000      1.1644488E-08
   11.82000      1.1895712E-08
   11.88000      1.2023555E-08
   11.94000      1.2059108E-08
   12.00000      1.2043969E-08
   12.06000      1.2024224E-08
   12.12000      1.2041393E-08
   12.18000      1.2122780E-08
   12.24000      1.2274525E-08
   12.30000      1.2480231E-08
   12.36000      1.2706368E-08
   12.42000      1.2913201E-08
   12.48000      1.3067851E-08
   12.54000      1.3155111E-08
   12.60000      1.3182195E-08
   12.66000      1.3175648E-08
   12.72000      1.3171399E-08
   12.78000      1.3201400E-08
   12.84000      1.3281512E-08
   12.90000      1.3404832E-08
   12.96000      1.3542644E-08
   13.02000      1.3652445E-08
   13.08000      1.3690007E-08
   13.14000      1.3621300E-08
   13.20000      1.3430379E-08
   13.26000      1.3121270E-08
   13.32000      1.2714144E-08
   13.38000      1.2238077E-08
   13.44000      1.1723519E-08
   13.50000      1.1196952E-08
   13.56000      1.0678841E-08
   13.62000      1.0184282E-08
   13.68000      9.7247117E-09
   13.74000      9.3090389E-09
   13.80000      8.9432666E-09
   13.86000      8.6288843E-09
   13.92000      8.3610781E-09
   13.98000      8.1280565E-09
   14.04000      7.9121998E-09
   14.10000      7.6929254E-09
   14.16000      7.4503315E-09
   14.22000      7.1683437E-09
   14.28000      6.8362982E-09
   14.34000      6.4485346E-09
   14.40000      6.0023733E-09
   14.46000      5.4954898E-09
   14.52000      4.9239697E-09
   14.58000      4.2821000E-09
   14.64000      3.5643557E-09
   14.70000      2.7691871E-09
   14.76000      1.9034450E-09
   14.82000      9.8585318E-10
   14.88000      4.8024300E-11
   14.94000     -8.6783314E-10
   15.00000     -1.7143892E-09
   15.06000     -2.4467317E-09
   15.12000     -3.0302316E-09
   15.18000     -3.4469463E-09
   15.24000     -3.6992434E-09
   15.30000     -3.8101149E-09
   15.36000     -3.8203640E-09
   15.42000     -3.7833159E-09
   15.48000     -3.7578478E-09
   15.54000     -3.8005350E-09
   15.60000     -3.9577652E-09
   15.66000     -4.2588515E-09
   15.72000     -4.7113184E-09
   15.78000     -5.2994182E-09
   15.84000     -5.9863394E-09
   15.90000     -6.7196071E-09
   15.96000     -7.4381830E-09
   16.02000     -8.0793310E-09
   16.08000     -8.5836369E-09
   16.14000     -8.8976533E-09
   16.20000     -8.9749079E-09
   16.26000     -8.7768006E-09
   16.32000     -8.2747418E-09
   16.38000     -7.4539104E-09
   16.44000     -6.3176158E-09
   16.50000     -4.8903526E-09
   16.56000     -3.2176040E-09
   16.62000     -1.3614139E-09
   16.68000      6.0782551E-10
   16.74000      2.6216256E-09
   16.80000      4.6232924E-09
   16.86000      6.5751973E-09
   16.92000      8.4619129E-09
   16.98000      1.0288745E-08
   17.04000      1.2076228E-08
   17.10000      1.3851951E-08
   17.16000      1.5641596E-08
   17.22000      1.7461089E-08
   17.28000      1.9311271E-08
   17.34000      2.1175785E-08
   17.40000      2.3021739E-08
   17.46000      2.4802251E-08
   17.52000      2.6459785E-08
   17.58000      2.7929730E-08
   17.64000      2.9144408E-08
   17.70000      3.0038095E-08
   17.76000      3.0553494E-08
   17.82000      3.0649261E-08
   17.88000      3.0307149E-08
   17.94000      2.9536807E-08
   18.00000      2.8376242E-08
   18.06000      2.6887287E-08
   18.12000      2.5146699E-08
   18.18000      2.3235087E-08
   18.24000      2.1226517E-08
   18.30000      1.9181494E-08
   18.36000      1.7144856E-08
   18.42000      1.5148611E-08
   18.48000      1.3218056E-08
   18.54000      1.1378699E-08
   18.60000      9.6612425E-09
   18.66000      8.1028917E-09
   18.72000      6.7446009E-09
   18.78000      5.6253979E-09
   18.84000      4.7758073E-09
   18.90000      4.2123554E-09
   18.96000      3.9343093E-09
   19.02000      3.9226480E-09
   19.08000      4.1404706E-09
   19.14000      4.5340198E-09
   19.20000      5.0341518E-09
   19.26000      5.5589342E-09
   19.32000      6.0184702E-09
   19.38000      6.3225980E-09
   19.44000      6.3910015E-09
   19.50000      6.1639565E-09
   19.56000      5.6111444E-09
   19.62000      4.7360782E-09
   19.68000      3.5746515E-09
   19.74000      2.1877500E-09
   19.80000      6.4930317E-10
   19.86000     -9.6784203E-10
   19.92000     -2.6053018E-09
   19.98000     -4.2288764E-09
   20.04000     -5.8322520E-09
   20.10000     -7.4335196E-09
   20.16000     -9.0650838E-09
   20.22000     -1.0759464E-08
   20.28000     -1.2534949E-08
   20.34000     -1.4385329E-08
   20.40000     -1.6276658E-08
   20.46000     -1.8151598E-08
   20.52000     -1.9939250E-08
   20.58000     -2.1566864E-08
   20.64000     -2.2969761E-08
   20.70000     -2.4097513E-08
   20.76000     -2.4916524E-08
   20.82000     -2.5410644E-08
   20.88000     -2.5581679E-08
   20.94000     -2.5450429E-08
   21.00000     -2.5057437E-08
   21.06000     -2.4461725E-08
   21.12000     -2.3736044E-08
   21.18000     -2.2958638E-08
   21.24000     -2.2203016E-08
   21.30000     -2.1528336E-08
   21.36000     -2.0972806E-08
   21.42000     -2.0551479E-08
   21.48000     -2.0258399E-08
   21.54000     -2.0071848E-08
   21.60000     -1.9960916E-08
   21.66000     -1.9891804E-08
   21.72000     -1.9832655E-08
   21.78000     -1.9756461E-08
   21.84000     -1.9642036E-08
   21.90000     -1.9473571E-08
   21.96000     -1.9239531E-08
   22.02000     -1.8931722E-08
   22.08000     -1.8545165E-08
   22.14000     -1.8078927E-08
   22.20000     -1.7537555E-08
   22.26000     -1.6932221E-08
   22.32000     -1.6280715E-08
   22.38000     -1.5605620E-08
   22.44000     -1.4930750E-08
   22.50000     -1.4276690E-08
   22.56000     -1.3656816E-08
   22.62000     -1.3075404E-08
   22.68000     -1.2528900E-08
   22.74000     -1.2010476E-08
   22.80000     -1.1516565E-08
   22.86000     -1.1052953E-08
   22.92000     -1.0637505E-08
   22.98000     -1.0297348E-08
   23.04000     -1.0060250E-08
   23.10000     -9.9424033E-09
   23.16000     -9.9368602E-09
   23.22000     -1.0007311E-08
   23.28000     -1.0090326E-08
   23.34000     -1.0105951E-08
   23.40000     -9.9731148E-09
   23.46000     -9.6242649E-09
   23.52000     -9.0141130E-09
   23.58000     -8.1202058E-09
   23.64000     -6.9368982E-09
   23.70000     -5.4671863E-09
   23.76000     -3.7172807E-09
   23.82000     -1.6966737E-09
   23.88000      5.7709609E-10
   23.94000      3.0726330E-09
   24.00000      5.7421841E-09
   24.06000      8.5249869E-09
   24.12000      1.1355804E-08
   24.18000      1.4175243E-08
   24.24000      1.6937591E-08
   24.30000      1.9613276E-08
   24.36000      2.2185771E-08
   24.42000      2.4645253E-08
   24.48000      2.6982379E-08
   24.54000      2.9184989E-08
   24.60000      3.1238621E-08
   24.66000      3.3130032E-08
   24.72000      3.4851571E-08
   24.78000      3.6404259E-08
   24.84000      3.7798088E-08
   24.90000      3.9049034E-08
   24.96000      4.0173603E-08
   25.02000      4.1182403E-08
   25.08000      4.2075051E-08
   25.14000      4.2838629E-08
   25.20000      4.3450950E-08
   25.26000      4.3888406E-08
   25.32000      4.4136261E-08
   25.38000      4.4197655E-08
   25.44000      4.4097675E-08
   25.50000      4.3880213E-08
   25.56000      4.3598021E-08
   25.62000      4.3299181E-08
   25.68000      4.3014953E-08
   25.74000      4.2753452E-08
   25.80000      4.2501462E-08
   25.86000      4.2233182E-08
   25.92000      4.1921883E-08
   25.98000      4.1549107E-08
   26.04000      4.1107420E-08
   26.10000      4.0595818E-08
   26.16000      4.0010793E-08
   26.22000      3.9338435E-08
   26.28000      3.8553154E-08
   26.34000      3.7625380E-08
   26.40000      3.6536196E-08
   26.46000      3.5292675E-08
   26.52000      3.3936178E-08
   26.58000      3.2538235E-08
   26.64000      3.1183834E-08
   26.70000      2.9947817E-08
   26.76000      2.8873636E-08
   26.82000      2.7963193E-08
   26.88000      2.7181953E-08
   26.94000      2.6477009E-08
   27.00000      2.5800528E-08
   27.06000      2.5129149E-08
   27.12000      2.4472209E-08
   27.18000      2.3866654E-08
   27.24000      2.3361707E-08
   27.30000      2.2999679E-08
   27.36000      2.2799858E-08
   27.42000      2.2750390E-08
   27.48000      2.2810227E-08
   27.54000      2.2920149E-08
   27.60000      2.3019650E-08
   27.66000      2.3065038E-08
   27.72000      2.3043579E-08
   27.78000      2.2979254E-08
   27.84000      2.2927749E-08
   27.90000      2.2961656E-08
   27.96000      2.3150442E-08
   28.02000      2.3541931E-08
   28.08000      2.4151742E-08
   28.14000      2.4963990E-08
   28.20000      2.5941800E-08
   28.26000      2.7042052E-08
   28.32000      2.8227232E-08
   28.38000      2.9469087E-08
   28.44000      3.0743159E-08
   28.50000      3.2018114E-08
   28.56000      3.3246479E-08
   28.62000      3.4363037E-08
   28.68000      3.5293532E-08
   28.74000      3.5971542E-08
   28.80000      3.6357342E-08
   28.86000      3.6451215E-08
   28.92000      3.6295646E-08
   28.98000      3.5965069E-08
   29.04000      3.5546709E-08
   29.10000      3.5119342E-08
   29.16000      3.4737262E-08
   29.22000      3.4424350E-08
   29.28000      3.4178651E-08
   29.34000      3.3984016E-08
   29.40000      3.3822865E-08
   29.46000      3.3684817E-08
   29.52000      3.3568526E-08
   29.58000      3.3477523E-08
   29.64000      3.3413389E-08
   29.70000      3.3370025E-08
   29.76000      3.3331567E-08
   29.82000      3.3274063E-08
   29.88000      3.3169432E-08
   29.94000      3.2989377E-08
   30.00000      3.2707799E-08
   30.06000      3.2301333E-08
   30.12000      3.1748762E-08
   30.18000      3.1030520E-08
   30.24000      3.0129119E-08
   30.30000      2.9030852E-08
   30.36000      2.7728555E-08
   30.42000      2.6224582E-08
   30.48000      2.4532950E-08
   30.54000      2.2679414E-08
   30.60000      2.0698410E-08
   30.66000      1.8626739E-08
   30.72000      1.6495196E-08
   30.78000      1.4320815E-08
   30.84000      1.2103001E-08
   30.90000      9.8260324E-09
   30.96000      7.4679516E-09
   31.02000      5.0129683E-09
   31.08000      2.4623623E-09
   31.14000     -1.6102548E-10
   31.20000     -2.8170128E-09
   31.26000     -5.4592455E-09
   31.32000     -8.0479907E-09
   31.38000     -1.0558104E-08
   31.44000     -1.2977847E-08
   31.50000     -1.5298744E-08
   31.56000     -1.7501380E-08
   31.62000     -1.9544647E-08
   31.68000     -2.1364793E-08
   31.74000     -2.2886475E-08
   31.80000     -2.4042420E-08
   31.86000     -2.4794167E-08
   31.92000     -2.5145582E-08
   31.98000     -2.5143576E-08
   32.04000     -2.4865773E-08
   32.10000     -2.4399906E-08
   32.16000     -2.3822798E-08
   32.22000     -2.3186326E-08
   32.28000     -2.2514545E-08
   32.34000     -2.1811514E-08
   32.40000     -2.1075346E-08
   32.46000     -2.0312132E-08
   32.52000     -1.9544169E-08
   32.58000     -1.8809626E-08
   32.64000     -1.8154351E-08
   32.70000     -1.7619435E-08
   32.76000     -1.7229267E-08
   32.82000     -1.6984337E-08
   32.88000     -1.6860923E-08
   32.94000     -1.6817323E-08
   33.00000     -1.6804188E-08
   33.06000     -1.6775489E-08
   33.12000     -1.6696871E-08
   33.18000     -1.6549306E-08
   33.24000     -1.6327693E-08
   33.30000     -1.6035701E-08
   33.36000     -1.5679214E-08
   33.42000     -1.5261083E-08
   33.48000     -1.4779142E-08
   33.54000     -1.4228015E-08
   33.60000     -1.3603584E-08
   33.66000     -1.2907735E-08
   33.72000     -1.2150860E-08
   33.78000     -1.1350613E-08
   33.84000     -1.0527291E-08
   33.90000     -9.6978692E-09
   33.96000     -8.8714280E-09
   34.02000     -8.0479392E-09
   34.08000     -7.2206712E-09
   34.14000     -6.3806911E-09
   34.20000     -5.5211884E-09
   34.26000     -4.6399373E-09
   34.32000     -3.7396233E-09
   34.38000     -2.8270903E-09
   34.44000     -1.9128361E-09
   34.50000     -1.0112294E-09
   34.56000     -1.4062312E-10
   34.62000      6.7820388E-10
   34.68000      1.4262865E-09
   34.74000      2.0927913E-09
   34.80000      2.6810649E-09
   34.86000      3.2113561E-09
   34.92000      3.7180792E-09
   34.98000      4.2417598E-09
   35.04000      4.8182422E-09
   35.10000      5.4691722E-09
   35.16000      6.1973973E-09
   35.22000      6.9889139E-09
   35.28000      7.8203337E-09
   35.34000      8.6687022E-09
   35.40000      9.5198409E-09
   35.46000      1.0372347E-08
   35.52000      1.1236454E-08
   35.58000      1.2129063E-08
   35.64000      1.3067472E-08
   35.70000      1.4064205E-08
   35.76000      1.5124105E-08
   35.82000      1.6243366E-08
   35.88000      1.7409361E-08
   35.94000      1.8600398E-08
   36.00000      1.9785631E-08
   36.06000      2.0926448E-08
   36.12000      2.1980668E-08
   36.18000      2.2909667E-08
   36.24000      2.3686624E-08
   36.30000      2.4302642E-08
   36.36000      2.4767768E-08
   36.42000      2.5105862E-08
   36.48000      2.5345074E-08
   36.54000      2.5507758E-08
   36.60000      2.5603672E-08
   36.66000      2.5628536E-08
   36.72000      2.5567282E-08
   36.78000      2.5399446E-08
   36.84000      2.5103981E-08
   36.90000      2.4662281E-08
   36.96000      2.4060038E-08
   37.02000      2.3289260E-08
   37.08000      2.2351276E-08
   37.14000      2.1259758E-08
   37.20000      2.0041847E-08
   37.26000      1.8735644E-08
   37.32000      1.7384284E-08
   37.38000      1.6028761E-08
   37.44000      1.4702776E-08
   37.50000      1.3431944E-08
   37.56000      1.2237333E-08
   37.62000      1.1140897E-08
   37.68000      1.0169285E-08
   37.74000      9.3534585E-09
   37.80000      8.7237924E-09
   37.86000      8.3026883E-09
   37.92000      8.0978682E-09
   37.98000      8.0990121E-09
   38.04000      8.2787706E-09
   38.10000      8.5974454E-09
   38.16000      9.0095371E-09
   38.22000      9.4702264E-09
   38.28000      9.9403357E-09
   38.34000      1.0388906E-08
   38.40000      1.0793048E-08
   38.46000      1.1135211E-08
   38.52000      1.1398673E-08
   38.58000      1.1562930E-08
   38.64000      1.1601238E-08
   38.70000      1.1482290E-08
   38.76000      1.1176711E-08
   38.82000      1.0666709E-08
   38.88000      9.9551665E-09
   38.94000      9.0696668E-09
   39.00000      8.0581772E-09
   39.06000      6.9763537E-09
   39.12000      5.8702621E-09
   39.18000      4.7610356E-09
   39.24000      3.6380692E-09
   39.30000      2.4643922E-09
   39.36000      1.1929084E-09
   39.42000     -2.1263352E-10
   39.48000     -1.7604426E-09
   39.54000     -3.4244390E-09
   39.60000     -5.1514721E-09
   39.66000     -6.8786075E-09
   39.72000     -8.5526617E-09
   39.78000     -1.0143386E-08
   39.84000     -1.1644941E-08
   39.90000     -1.3066035E-08
   39.96000     -1.4414456E-08
   40.02000     -1.5684130E-08
   40.08000     -1.6851173E-08
   40.14000     -1.7880746E-08
   40.20000     -1.8741144E-08
   40.26000     -1.9418568E-08
   40.32000     -1.9926141E-08
   40.38000     -2.0304084E-08
   40.44000     -2.0612145E-08
   40.50000     -2.0918295E-08
   40.56000     -2.1288095E-08
   40.62000     -2.1777392E-08
   40.68000     -2.2428491E-08
   40.74000     -2.3268464E-08
   40.80000     -2.4308296E-08
   40.86000     -2.5542729E-08
   40.92000     -2.6951868E-08
   40.98000     -2.8505415E-08
   41.04000     -3.0169279E-08
   41.10000     -3.1912613E-08
   41.16000     -3.3712666E-08
   41.22000     -3.5555480E-08
   41.28000     -3.7432603E-08
   41.34000     -3.9335802E-08
   41.40000     -4.1252861E-08
   41.46000     -4.3166580E-08
   41.52000     -4.5057277E-08
   41.58000     -4.6907136E-08
   41.64000     -4.8703939E-08
   41.70000     -5.0442466E-08
   41.76000     -5.2123561E-08
   41.82000     -5.3752114E-08
   41.88000     -5.5335914E-08
   41.94000     -5.6886019E-08
   42.00000     -5.8417850E-08
   42.06000     -5.9951077E-08
   42.12000     -6.1506306E-08
   42.18000     -6.3098355E-08
   42.24000     -6.4727779E-08
   42.30000     -6.6374248E-08
   42.36000     -6.7995131E-08
   42.42000     -6.9531062E-08
   42.48000     -7.0917437E-08
   42.54000     -7.2098118E-08
   42.60000     -7.3036695E-08
   42.66000     -7.3721580E-08
   42.72000     -7.4163914E-08
   42.78000     -7.4389938E-08
   42.84000     -7.4431725E-08
   42.90000     -7.4319878E-08
   42.96000     -7.4080312E-08
   43.02000     -7.3734540E-08
   43.08000     -7.3301337E-08
   43.14000     -7.2797086E-08
   43.20000     -7.2233675E-08
   43.26000     -7.1614743E-08
   43.32000     -7.0932934E-08
   43.38000     -7.0170799E-08
   43.44000     -6.9306523E-08
   43.50000     -6.8323196E-08
   43.56000     -6.7218267E-08
   43.62000     -6.6009186E-08
   43.68000     -6.4732504E-08
   43.74000     -6.3436580E-08
   43.80000     -6.2170578E-08
   43.86000     -6.0974095E-08
   43.92000     -5.9871248E-08
   43.98000     -5.8870885E-08
   44.04000     -5.7971871E-08
   44.10000     -5.7170126E-08
   44.16000     -5.6463691E-08
   44.22000     -5.5853398E-08
   44.28000     -5.5339214E-08
   44.34000     -5.4914477E-08
   44.40000     -5.4561589E-08
   44.46000     -5.4251927E-08
   44.52000     -5.3950952E-08
   44.58000     -5.3626859E-08
   44.64000     -5.3259296E-08
   44.70000     -5.2844410E-08
   44.76000     -5.2393723E-08
   44.82000     -5.1926946E-08
   44.88000     -5.1461633E-08
   44.94000     -5.1004186E-08
   45.00000     -5.0546465E-08
   45.06000     -5.0070074E-08
   45.12000     -4.9556757E-08
   45.18000     -4.9000406E-08
   45.24000     -4.8414694E-08
   45.30000     -4.7832120E-08
   45.36000     -4.7293838E-08
   45.42000     -4.6834430E-08
   45.48000     -4.6468369E-08
   45.54000     -4.6184631E-08
   45.60000     -4.5952245E-08
   45.66000     -4.5734115E-08
   45.72000     -4.5502567E-08
   45.78000     -4.5249156E-08
   45.84000     -4.4984450E-08
   45.90000     -4.4728893E-08
   45.96000     -4.4500219E-08
   46.02000     -4.4304272E-08
   46.08000     -4.4133461E-08
   46.14000     -4.3972381E-08
   46.20000     -4.3806232E-08
   46.26000     -4.3626677E-08
   46.32000     -4.3432074E-08
   46.38000     -4.3223068E-08
   46.44000     -4.2997367E-08
   46.50000     -4.2747580E-08
   46.56000     -4.2463491E-08
   46.62000     -4.2136879E-08
   46.68000     -4.1765276E-08
   46.74000     -4.1351967E-08
   46.80000     -4.0902343E-08
   46.86000     -4.0419252E-08
   46.92000     -3.9900691E-08
   46.98000     -3.9341323E-08
   47.04000     -3.8736353E-08
   47.10000     -3.8084348E-08
   47.16000     -3.7386002E-08
   47.22000     -3.6638554E-08
   47.28000     -3.5828954E-08
   47.34000     -3.4930387E-08
   47.40000     -3.3905430E-08
   47.46000     -3.2715374E-08
   47.52000     -3.1330785E-08
   47.58000     -2.9736597E-08
   47.64000     -2.7926712E-08
   47.70000     -2.5888122E-08
   47.76000     -2.3580291E-08
   47.82000     -2.0918817E-08
   47.88000     -1.7770914E-08
   47.94000     -1.3964676E-08
   48.00000     -9.3067909E-09
   48.06000     -3.5986261E-09
   48.12000      3.3590390E-09
   48.18000      1.1776839E-08
   48.24000      2.1899728E-08
   48.30000      3.4032936E-08
   48.36000      4.8561635E-08
   48.42000      6.5959966E-08
   48.48000      8.6792525E-08
   48.54000      1.1171640E-07
   48.60000      1.4149241E-07
   48.66000      1.7700890E-07
   48.72000      2.1931508E-07
   48.78000      2.6965594E-07
   48.84000      3.2950146E-07
   48.90000      4.0056713E-07
   48.96000      4.8483014E-07
   49.02000      5.8454924E-07
   49.08000      7.0229709E-07
   49.14000      8.4100975E-07
   49.20000      1.0040511E-06
   49.26000      1.1952866E-06
   49.32000      1.4191573E-06
   49.38000      1.6807520E-06
   49.44000      1.9858728E-06
   49.50000      2.3411037E-06
   49.56000      2.7538861E-06
   49.62000      3.2326061E-06
   49.68000      3.7866980E-06
   49.74000      4.4267535E-06
   49.80000      5.1646412E-06
   49.86000      6.0136222E-06
   49.92000      6.9884718E-06
   49.98000      8.1056069E-06
   50.04000      9.3832177E-06
   50.10000      1.0841419E-05
   50.16000      1.2502399E-05
   50.22000      1.4390572E-05
   50.28000      1.6532722E-05
   50.34000      1.8958148E-05
   50.40000      2.1698781E-05
   50.46000      2.4789342E-05
   50.52000      2.8267463E-05
   50.58000      3.2173815E-05
   50.64000      3.6552236E-05
   50.70000      4.1449824E-05
   50.76000      4.6917012E-05
   50.82000      5.3007599E-05
   50.88000      5.9778806E-05
   50.94000      6.7291279E-05
   51.00000      7.5609096E-05
   51.06000      8.4799685E-05
   51.12000      9.4933777E-05
   51.18000      1.0608527E-04
   51.24000      1.1833107E-04
   51.30000      1.3175080E-04
   51.36000      1.4642664E-04
   51.42000      1.6244286E-04
   51.48000      1.7988564E-04
   51.54000      1.9884246E-04
   51.60000      2.1940169E-04
   51.66000      2.4165194E-04
   51.72000      2.6568171E-04
   51.78000      2.9157841E-04
   51.84000      3.1942793E-04
   51.90000      3.4931378E-04
   51.96000      3.8131632E-04
   52.02000      4.1551210E-04
   52.08000      4.5197265E-04
   52.14000      4.9076404E-04
   52.20000      5.3194544E-04
   52.26000      5.7556882E-04
   52.32000      6.2167738E-04
   52.38000      6.7030516E-04
   52.44000      7.2147587E-04
   52.50000      7.7520200E-04
   52.56000      8.3148427E-04
   52.62000      8.9031085E-04
   52.68000      9.5165666E-04
   52.74000      1.0154825E-03
   52.80000      1.0817351E-03
   52.86000      1.1503465E-03
   52.92000      1.2212329E-03
   52.98000      1.2942962E-03
   53.04000      1.3694228E-03
   53.10000      1.4464834E-03
   53.16000      1.5253352E-03
   53.22000      1.6058201E-03
   53.28000      1.6877669E-03
   53.34000      1.7709902E-03
   53.40000      1.8552936E-03
   53.46000      1.9404690E-03
   53.52000      2.0262990E-03
   53.58000      2.1125579E-03
   53.64000      2.1990119E-03
   53.70000      2.2854237E-03
   53.76000      2.3715510E-03
   53.82000      2.4571500E-03
   53.88000      2.5419758E-03
   53.94000      2.6257872E-03
   54.00000      2.7083457E-03
   54.06000      2.7894187E-03
   54.12000      2.8687816E-03
   54.18000      2.9462199E-03
   54.24000      3.0215296E-03
   54.30000      3.0945209E-03
   54.36000      3.1650183E-03
   54.42000      3.2328628E-03
   54.48000      3.2979129E-03
   54.54000      3.3600468E-03
   54.60000      3.4191625E-03
   54.66000      3.4751790E-03
   54.72000      3.5280364E-03
   54.78000      3.5776973E-03
   54.84000      3.6241463E-03
   54.90000      3.6673893E-03
   54.96000      3.7074536E-03
   55.02000      3.7443875E-03
   55.08000      3.7782600E-03
   55.14000      3.8091587E-03
   55.20000      3.8371896E-03
   55.26000      3.8624757E-03
   55.32000      3.8851539E-03
   55.38000      3.9053739E-03
   55.44000      3.9232960E-03
   55.50000      3.9390898E-03
   55.56000      3.9529311E-03