  -2.400000      0.0000000E+00
  -2.340000      0.0000000E+00
  -2.280000      0.0000000E+00
  -2.220000      0.0000000E+00
  -2.160000      0.0000000E+00
  -2.100000      2.7937613E-21
  -2.040000      3.8516476E-20
  -1.980000      2.0326563E-19
  -1.920000      5.5752268E-19
  -1.860000      6.3182025E-19
  -1.800000     -1.2934796E-18
  -1.740000     -7.9071758E-18
  -1.680000     -1.9771736E-17
  -1.620000     -2.9487672E-17
  -1.560000     -1.7993875E-17
  -1.500000      3.8233558E-17
  -1.440000      1.4439504E-16
  -1.380000      2.5964892E-16
  -1.320000      2.9287210E-16
  -1.260000      1.4973057E-16
  -1.200000     -1.7660655E-16
  -1.140000     -5.3720333E-16
  -1.080000     -6.7904667E-16
  -1.020000     -4.5891435E-16
 -0.9600000     -1.1105584E-16
 -0.9000000     -3.0514351E-16
 -0.8400000     -1.7358174E-15
 -0.7800000     -4.2679301E-15
 -0.7200000     -6.1413832E-15
 -0.6600000     -4.0861971E-15
 -0.6000000      5.0074220E-15
 -0.5400000      2.1151272E-14
 -0.4800000      3.8629578E-14
 -0.4200000      4.6014591E-14
 -0.3600000      3.0481849E-14
 -0.3000000     -1.4253459E-14
 -0.2400000     -8.0051329E-14
 -0.1800000     -1.4190546E-13
 -0.1200000     -1.6499854E-13
 -5.9999999E-02 -1.2065091E-13
  0.0000000E+00 -4.5909491E-15
  5.9999999E-02  1.5271555E-13
  0.1200000      2.9218696E-13
  0.1800000      3.4957763E-13
  0.2400000      2.8695075E-13
  0.3000000      1.1594523E-13
  0.3600000     -1.0193398E-13
  0.4200000     -2.8204145E-13
  0.4800000     -3.5911736E-13
  0.5400000     -3.2313263E-13
  0.6000000     -2.2631217E-13
  0.6600000     -1.5296759E-13
  0.7200000     -1.6490561E-13
  0.7800000     -2.5215038E-13
  0.8400000     -3.2070039E-13
  0.9000000     -2.3249043E-13
  0.9600000      1.1547978E-13
   1.020000      7.1112430E-13
   1.080000      1.3920209E-12
   1.140000      1.8835504E-12
   1.200000      1.9039221E-12
   1.260000      1.2934659E-12
   1.320000      1.0776901E-13
   1.380000     -1.3740672E-12
   1.440000     -2.7373141E-12
   1.500000     -3.5812462E-12
   1.560000     -3.6651732E-12
   1.620000     -2.9856842E-12
   1.680000     -1.7521666E-12
   1.740000     -2.7656195E-13
   1.800000      1.1654267E-12
   1.860000      2.4317477E-12
   1.920000      3.5226297E-12
   1.980000      4.4996433E-12
   2.040000      5.3617544E-12
   2.100000      5.9489141E-12
   2.160000      5.9318717E-12
   2.220000      4.9046188E-12
   2.280000      2.5439622E-12
   2.340000     -1.2345273E-12
   2.400000     -6.1952843E-12
   2.460000     -1.1811494E-11
   2.520000     -1.7384351E-11
   2.580000     -2.2187504E-11
   2.640000     -2.5559175E-11
   2.700000     -2.6894256E-11
   2.760000     -2.5547777E-11
   2.820000     -2.0719692E-11
   2.880000     -1.1417328E-11
   2.940000      3.4320890E-12
   3.000000      2.4714765E-11
   3.060000      5.2786633E-11
   3.120000      8.7185162E-11
   3.180000      1.2652841E-10
   3.240000      1.6867079E-10
   3.300000      2.1108749E-10
   3.360000      2.5137095E-10
   3.420000      2.8768221E-10
   3.480000      3.1902830E-10
   3.540000      3.4531586E-10
   3.600000      3.6722286E-10
   3.660000      3.8599085E-10
   3.720000      4.0324041E-10
   3.780000      4.2085846E-10
   3.840000      4.4093049E-10
   3.900000      4.6563450E-10
   3.960000      4.9701093E-10
   4.020000      5.3657767E-10
   4.080000      5.8484578E-10
   4.140000      6.4087280E-10
   4.200000      7.0202488E-10
   4.260000      7.6408446E-10
   4.320000      8.2174673E-10
   4.380000      8.6942475E-10
   4.440000      9.0217978E-10
   4.500000      9.1654062E-10
   4.560000      9.1101227E-10
   4.620000      8.8617225E-10
   4.680000      8.4438845E-10
   4.740000      7.8930135E-10
   4.800000      7.2525397E-10
   4.860000      6.5681161E-10
   4.920000      5.8841598E-10
   4.980000      5.2412080E-10
   5.040000      4.6731741E-10
   5.100000      4.2039372E-10
   5.160000      3.8436193E-10
   5.220000      3.5857678E-10
   5.280000      3.4069347E-10
   5.340000      3.2696185E-10
   5.400000      3.1284636E-10
   5.460000      2.9385461E-10
   5.520000      2.6639591E-10
   5.580000      2.2850345E-10
   5.640000      1.8029912E-10
   5.700000      1.2414729E-10
   5.760000      6.4472337E-11
   5.820000      7.2411807E-12
   5.880000     -4.0871993E-11
   5.940000     -7.3575833E-11
   6.000000     -8.6178321E-11
   6.060000     -7.6737554E-11
   6.120000     -4.6927115E-11
   6.180000     -2.4376185E-12
   6.240000      4.7169449E-11
   6.300000      8.9108110E-11
   6.360000      1.0835675E-10
   6.420000      8.8763615E-11
   6.480000      1.4057628E-11
   6.540000     -1.3137093E-10
   6.600000     -3.6195269E-10
   6.660000     -6.9061451E-10
   6.720000     -1.1285435E-09
   6.780000     -1.6849468E-09
   6.840000     -2.3667954E-09
   6.900000     -3.1785978E-09
   6.960000     -4.1222843E-09
   7.020000     -5.1972275E-09
   7.080000     -6.4003647E-09
   7.140000     -7.7262987E-09
   7.200000     -9.1672732E-09
   7.260000     -1.0712929E-08
   7.320000     -1.2349896E-08
   7.380000     -1.4061268E-08
   7.440000     -1.5826091E-08
   7.500000     -1.7618937E-08
   7.560000     -1.9409638E-08
   7.620000     -2.1163258E-08
   7.680000     -2.2840435E-08
   7.740000     -2.4398190E-08
   7.800000     -2.5791374E-08
   7.860000     -2.6974705E-08
   7.920000     -2.7905330E-08
   7.980000     -2.8545621E-08
   8.040000     -2.8865971E-08
   8.100000     -2.8847250E-08
   8.160000     -2.8482644E-08
   8.220000     -2.7778624E-08
   8.280000     -2.6754869E-08
   8.340000     -2.5443036E-08
   8.400000     -2.3884539E-08
   8.460000     -2.2127653E-08
   8.520000     -2.0224425E-08
   8.580000     -1.8227851E-08
   8.640000     -1.6189572E-08
   8.700000     -1.4158119E-08
   8.760000     -1.2177528E-08
   8.820000     -1.0286164E-08
   8.880000     -8.5156904E-09
   8.940000     -6.8903843E-09
   9.000000     -5.4270251E-09
   9.060000     -4.1355288E-09
   9.120000     -3.0202334E-09
   9.180000     -2.0814608E-09
   9.240000     -1.3168932E-09
   9.300000     -7.2233769E-10
   9.360000     -2.9171135E-10
   9.420000     -1.6364540E-11
   9.480000      1.1593188E-10
   9.540000      1.2192858E-10
   9.600000      2.3408499E-11
   9.660000     -1.5297638E-10
   9.720000     -3.7664222E-10
   9.780000     -6.1474731E-10
   9.840000     -8.3444146E-10
   9.900000     -1.0054260E-09
   9.960000     -1.1024923E-09
   10.02000     -1.1076943E-09
   10.08000     -1.0118323E-09
   10.14000     -8.1500767E-10
   10.20000     -5.2609195E-10
   10.26000     -1.6109200E-10
   10.32000      2.5945307E-10
   10.38000      7.1372291E-10
   10.44000      1.1820274E-09
   10.50000      1.6498067E-09
   10.56000      2.1097011E-09
   10.62000      2.5623550E-09
   10.68000      3.0159006E-09
   10.74000      3.4843224E-09
   10.80000      3.9850727E-09
   10.86000      4.5363535E-09
   10.92000      5.1544204E-09
   10.98000      5.8511729E-09
   11.04000      6.6322254E-09
   11.10000      7.4955917E-09
   11.16000      8.4311331E-09
   11.22000      9.4208721E-09
   11.28000      1.0440218E-08
   11.34000      1.1460063E-08
   11.40000      1.2449561E-08
   11.46000      1.3379225E-08
   11.52000      1.4223907E-08
   11.58000      1.4965186E-08
   11.64000      1.5592770E-08
   11.70000      1.6104774E-08
   11.76000      1.6506991E-08
   11.82000      1.6811407E-08
   11.88000      1.7034404E-08
   11.94000      1.7194925E-08
   12.00000      1.7312829E-08
   12.06000      1.7407562E-08
   12.12000      1.7497154E-08
   12.18000      1.7597616E-08
   12.24000      1.7722670E-08
   12.30000      1.7883597E-08
   12.36000      1.8088917E-08
   12.42000      1.8343616E-08
   12.48000      1.8647791E-08
   12.54000      1.8995047E-08
   12.60000      1.9371239E-08
   12.66000      1.9754248E-08
   12.72000      2.0115181E-08
   12.78000      2.0420829E-08
   12.84000      2.0636799E-08
   12.90000      2.0730505E-08
   12.96000      2.0673500E-08
   13.02000      2.0443112E-08
   13.08000      2.0023663E-08
   13.14000      1.9407633E-08
   13.20000      1.8596818E-08
   13.26000      1.7603011E-08
   13.32000      1.6447615E-08
   13.38000      1.5159733E-08
   13.44000      1.3772781E-08
   13.50000      1.2320307E-08
   13.56000      1.0831886E-08
   13.62000      9.3299732E-09
   13.68000      7.8281168E-09
   13.74000      6.3306520E-09
   13.80000      4.8336624E-09
   13.86000      3.3270477E-09
   13.92000      1.7974892E-09
   13.98000      2.3201435E-10
   14.04000     -1.3783753E-09
   14.10000     -3.0357856E-09
   14.16000     -4.7339848E-09
   14.22000     -6.4588610E-09
   14.28000     -8.1906713E-09
   14.34000     -9.9074660E-09
   14.40000     -1.1588841E-08
   14.46000     -1.3219326E-08
   14.52000     -1.4790968E-08
   14.58000     -1.6304941E-08
   14.64000     -1.7772010E-08
   14.70000     -1.9211585E-08
   14.76000     -2.0649100E-08
   14.82000     -2.2111724E-08
   14.88000     -2.3623029E-08
   14.94000     -2.5197748E-08
   15.00000     -2.6838071E-08
   15.06000     -2.8532524E-08
   15.12000     -3.0257752E-08
   15.18000     -3.1982527E-08
   15.24000     -3.3672798E-08
   15.30000     -3.5296260E-08
   15.36000     -3.6825540E-08
   15.42000     -3.8239452E-08
   15.48000     -3.9522604E-08
   15.54000     -4.0663906E-08
   15.60000     -4.1654872E-08
   15.66000     -4.2488544E-08
   15.72000     -4.3159751E-08
   15.78000     -4.3666805E-08
   15.84000     -4.4014161E-08
   15.90000     -4.4214953E-08
   15.96000     -4.4291856E-08
   16.02000     -4.4275311E-08
   16.08000     -4.4198877E-08
   16.14000     -4.4092761E-08
   16.20000     -4.3977348E-08
   16.26000     -4.3858709E-08
   16.32000     -4.3727354E-08
   16.38000     -4.3560451E-08
   16.44000     -4.3326658E-08
   16.50000     -4.2992198E-08
   16.56000     -4.2526981E-08
   16.62000     -4.1909708E-08
   16.68000     -4.1131376E-08
   16.74000     -4.0196724E-08
   16.80000     -3.9123378E-08
   16.86000     -3.7938598E-08
   16.92000     -3.6674233E-08
   16.98000     -3.5360912E-08
   17.04000     -3.4023010E-08
   17.10000     -3.2675597E-08
   17.16000     -3.1324195E-08
   17.22000     -2.9967094E-08
   17.28000     -2.8599455E-08
   17.34000     -2.7217885E-08
   17.40000     -2.5824363E-08
   17.46000     -2.4428564E-08
   17.52000     -2.3048006E-08
   17.58000     -2.1705873E-08
   17.64000     -2.0426834E-08
   17.70000     -1.9231685E-08
   17.76000     -1.8132159E-08
   17.82000     -1.7127341E-08
   17.88000     -1.6202916E-08
   17.94000     -1.5333587E-08
   18.00000     -1.4488095E-08
   18.06000     -1.3635475E-08
   18.12000     -1.2750885E-08
   18.18000     -1.1819679E-08
   18.24000     -1.0839067E-08
   18.30000     -9.8175352E-09
   18.36000     -8.7727550E-09
   18.42000     -7.7289783E-09
   18.48000     -6.7147914E-09
   18.54000     -5.7616720E-09
   18.60000     -4.9032463E-09
   18.66000     -4.1746069E-09
   18.72000     -3.6107684E-09
   18.78000     -3.2435121E-09
   18.84000     -3.0965279E-09
   18.90000     -3.1797036E-09
   18.96000     -3.4842240E-09
   19.02000     -3.9803849E-09
   19.08000     -4.6194621E-09
   19.14000     -5.3397695E-09
   19.20000     -6.0756697E-09
   19.26000     -6.7673556E-09
   19.32000     -7.3690911E-09
   19.38000     -7.8542373E-09
   19.44000     -8.2164426E-09
   19.50000     -8.4674028E-09
   19.56000     -8.6322247E-09
   19.62000     -8.7436396E-09
   19.68000     -8.8362304E-09
   19.74000     -8.9416377E-09
   19.80000     -9.0854204E-09
   19.86000     -9.2858210E-09
   19.92000     -9.5541735E-09
   19.98000     -9.8961213E-09
   20.04000     -1.0312546E-08
   20.10000     -1.0799296E-08
   20.16000     -1.1345507E-08
   20.22000     -1.1931226E-08
   20.28000     -1.2525731E-08
   20.34000     -1.3088020E-08
   20.40000     -1.3570312E-08
   20.46000     -1.3924313E-08
   20.52000     -1.4108991E-08
   20.58000     -1.4097952E-08
   20.64000     -1.3884605E-08
   20.70000     -1.3483863E-08
   20.76000     -1.2930004E-08
   20.82000     -1.2271157E-08
   20.88000     -1.1561585E-08
   20.94000     -1.0853252E-08
   21.00000     -1.0188292E-08
   21.06000     -9.5937196E-09
   21.12000     -9.0792032E-09
   21.18000     -8.6380441E-09
   21.24000     -8.2508018E-09
   21.30000     -7.8905664E-09
   21.36000     -7.5287385E-09
   21.42000     -7.1403714E-09
   21.48000     -6.7084267E-09
   21.54000     -6.2265793E-09
   21.60000     -5.7003411E-09
   21.66000     -5.1463953E-09
   21.72000     -4.5901958E-09
   21.78000     -4.0622115E-09
   21.84000     -3.5935475E-09
   21.90000     -3.2118859E-09
   21.96000     -2.9385465E-09
   22.02000     -2.7870219E-09
   22.08000     -2.7627853E-09
   22.14000     -2.8637968E-09
   22.20000     -3.0811367E-09
   22.26000     -3.3995229E-09
   22.32000     -3.7978745E-09
   22.38000     -4.2502464E-09
   22.44000     -4.7273514E-09
   22.50000     -5.1985198E-09
   22.56000     -5.6337308E-09
   22.62000     -6.0053504E-09
   22.68000     -6.2895009E-09
   22.74000     -6.4672849E-09
   22.80000     -6.5260926E-09
   22.86000     -6.4609282E-09
   22.92000     -6.2752363E-09
   22.98000     -5.9804721E-09
   23.04000     -5.5939617E-09
   23.10000     -5.1352851E-09
   23.16000     -4.6222182E-09
   23.22000     -4.0676165E-09
   23.28000     -3.4783034E-09
   23.34000     -2.8560956E-09
   23.40000     -2.2001394E-09
   23.46000     -1.5092155E-09
   23.52000     -7.8294804E-10
   23.58000     -2.1707962E-11
   23.64000      7.7408197E-10
   23.70000      1.6041274E-09
   23.76000      2.4671787E-09
   23.82000      3.3588408E-09
   23.88000      4.2693440E-09
   23.94000      5.1826827E-09
   24.00000      6.0780807E-09
   24.06000      6.9336972E-09
   24.12000      7.7314475E-09
   24.18000      8.4612477E-09
   24.24000      9.1232542E-09
   24.30000      9.7274802E-09
   24.36000      1.0291181E-08
   24.42000      1.0835035E-08
   24.48000      1.1379206E-08
   24.54000      1.1940060E-08
   24.60000      1.2527765E-08
   24.66000      1.3144798E-08
   24.72000      1.3785388E-08
   24.78000      1.4436099E-08
   24.84000      1.5077768E-08
   24.90000      1.5688693E-08
   24.96000      1.6248400E-08
   25.02000      1.6740904E-08
   25.08000      1.7156369E-08
   25.14000      1.7490704E-08
   25.20000      1.7743449E-08
   25.26000      1.7915053E-08
   25.32000      1.8004755E-08
   25.38000      1.8009649E-08
   25.44000      1.7924743E-08
   25.50000      1.7743186E-08
   25.56000      1.7455955E-08
   25.62000      1.7050965E-08
   25.68000      1.6512450E-08
   25.74000      1.5821708E-08
   25.80000      1.4959891E-08
   25.86000      1.3912352E-08
   25.92000      1.2672987E-08
   25.98000      1.1246630E-08
   26.04000      9.6482378E-09
   26.10000      7.8989526E-09
   26.16000      6.0205010E-09
   26.22000      4.0300372E-09
   26.28000      1.9371846E-09
   26.34000     -2.5602756E-10
   26.40000     -2.5527873E-09
   26.46000     -4.9577986E-09
   26.52000     -7.4733961E-09
   26.58000     -1.0096247E-08
   26.64000     -1.2815082E-08
   26.70000     -1.5609830E-08
   26.76000     -1.8452626E-08
   26.82000     -2.1311093E-08
   26.88000     -2.4153701E-08
   26.94000     -2.6956110E-08
   27.00000     -2.9706476E-08
   27.06000     -3.2407552E-08
   27.12000     -3.5074148E-08
   27.18000     -3.7726217E-08
   27.24000     -4.0379557E-08
   27.30000     -4.3037325E-08
   27.36000     -4.5685344E-08
   27.42000     -4.8293003E-08
   27.48000     -5.0819470E-08
   27.54000     -5.3223058E-08
   27.60000     -5.5470757E-08
   27.66000     -5.7544881E-08
   27.72000     -5.9445075E-08
   27.78000     -6.1185403E-08
   27.84000     -6.2787727E-08
   27.90000     -6.4273550E-08
   27.96000     -6.5656749E-08
   28.02000     -6.6939300E-08
   28.08000     -6.8111063E-08
   28.14000     -6.9153934E-08
   28.20000     -7.0049005E-08
   28.26000     -7.0784871E-08
   28.32000     -7.1364312E-08
   28.38000     -7.1806916E-08
   28.44000     -7.2146221E-08
   28.50000     -7.2421635E-08
   28.56000     -7.2667049E-08
   28.62000     -7.2899887E-08
   28.68000     -7.3114194E-08
   28.74000     -7.3280631E-08
   28.80000     -7.3353824E-08
   28.86000     -7.3284902E-08
   28.92000     -7.3035288E-08
   28.98000     -7.2587191E-08
   29.04000     -7.1947618E-08
   29.10000     -7.1144981E-08
   29.16000     -7.0219976E-08
   29.22000     -6.9214018E-08
   29.28000     -6.8159018E-08
   29.34000     -6.7071127E-08
   29.40000     -6.5949784E-08
   29.46000     -6.4781780E-08
   29.52000     -6.3548775E-08
   29.58000     -6.2236232E-08
   29.64000     -6.0841153E-08
   29.70000     -5.9376479E-08
   29.76000     -5.7870604E-08
   29.82000     -5.6361696E-08
   29.88000     -5.4888368E-08
   29.94000     -5.3479681E-08
   30.00000     -5.2148110E-08
   30.06000     -5.0888271E-08
   30.12000     -4.9682217E-08
   30.18000     -4.8509520E-08
   30.24000     -4.7358498E-08
   30.30000     -4.6234383E-08
   30.36000     -4.5161279E-08
   30.42000     -4.4177007E-08
   30.48000     -4.3322192E-08
   30.54000     -4.2626930E-08
   30.60000     -4.2098844E-08
   30.66000     -4.1716369E-08
   30.72000     -4.1429640E-08
   30.78000     -4.1169582E-08
   30.84000     -4.0863608E-08
   30.90000     -4.0454154E-08
   30.96000     -3.9914898E-08
   31.02000     -3.9259575E-08
   31.08000     -3.8540001E-08
   31.14000     -3.7833132E-08
   31.20000     -3.7220591E-08
   31.26000     -3.6766828E-08
   31.32000     -3.6502676E-08
   31.38000     -3.6419483E-08
   31.44000     -3.6475370E-08
   31.50000     -3.6611237E-08
   31.56000     -3.6770977E-08
   31.62000     -3.6919339E-08
   31.68000     -3.7052004E-08
   31.74000     -3.7195154E-08
   31.80000     -3.7395342E-08
   31.86000     -3.7703376E-08
   31.92000     -3.8157502E-08
   31.98000     -3.8771013E-08
   32.04000     -3.9527734E-08
   32.10000     -4.0386251E-08
   32.16000     -4.1291116E-08
   32.22000     -4.2187327E-08
   32.28000     -4.3033662E-08
   32.34000     -4.3811063E-08
   32.40000     -4.4524043E-08
   32.46000     -4.5195168E-08
   32.52000     -4.5854726E-08
   32.58000     -4.6528964E-08
   32.64000     -4.7230511E-08
   32.70000     -4.7953669E-08
   32.76000     -4.8675741E-08
   32.82000     -4.9363450E-08
   32.88000     -4.9982212E-08
   32.94000     -5.0505129E-08
   33.00000     -5.0919073E-08
   33.06000     -5.1226369E-08
   33.12000     -5.1442129E-08
   33.18000     -5.1588586E-08
   33.24000     -5.1688495E-08
   33.30000     -5.1759415E-08
   33.36000     -5.1810158E-08
   33.42000     -5.1839738E-08
   33.48000     -5.1838530E-08
   33.54000     -5.1790909E-08
   33.60000     -5.1678583E-08
   33.66000     -5.1483820E-08
   33.72000     -5.1192046E-08
   33.78000     -5.0793435E-08
   33.84000     -5.0283365E-08
   33.90000     -4.9661949E-08
   33.96000     -4.8933021E-08
   34.02000     -4.8103029E-08
   34.08000     -4.7180087E-08
   34.14000     -4.6173223E-08
   34.20000     -4.5091561E-08
   34.26000     -4.3943093E-08
   34.32000     -4.2732889E-08
   34.38000     -4.1460986E-08
   34.44000     -4.0120515E-08
   34.50000     -3.8696903E-08
   34.56000     -3.7168814E-08
   34.62000     -3.5511015E-08
   34.68000     -3.3698843E-08
   34.74000     -3.1713135E-08
   34.80000     -2.9544534E-08
   34.86000     -2.7195952E-08
   34.92000     -2.4682771E-08
   34.98000     -2.2030962E-08
   35.04000     -1.9273969E-08
   35.10000     -1.6449363E-08
   35.16000     -1.3595995E-08
   35.22000     -1.0751785E-08
   35.28000     -7.9518134E-09
   35.34000     -5.2262337E-09
   35.40000     -2.5978659E-09
   35.46000     -7.9921320E-11
   35.52000      2.3252127E-09
   35.58000      4.6251536E-09
   35.64000      6.8342256E-09
   35.70000      8.9680920E-09
   35.76000      1.1037551E-08
   35.82000      1.3043126E-08
   35.88000      1.4971910E-08
   35.94000      1.6797497E-08
   36.00000      1.8482970E-08
   36.06000      1.9986224E-08
   36.12000      2.1266359E-08
   36.18000      2.2289873E-08
   36.24000      2.3035380E-08
   36.30000      2.3496037E-08
   36.36000      2.3679329E-08
   36.42000      2.3604438E-08
   36.48000      2.3297989E-08
   36.54000      2.2789289E-08
   36.60000      2.2106148E-08
   36.66000      2.1271996E-08
   36.72000      2.0304295E-08
   36.78000      1.9213797E-08
   36.84000      1.8003844E-08
   36.90000      1.6669283E-08
   36.96000      1.5195200E-08
   37.02000      1.3556377E-08
   37.08000      1.1718748E-08
   37.14000      9.6437036E-09
   37.20000      7.2951476E-09
   37.26000      4.6478719E-09
   37.32000      1.6949231E-09
   37.38000     -1.5485079E-09
   37.44000     -5.0462150E-09
   37.50000     -8.7470955E-09
   37.56000     -1.2594584E-08
   37.62000     -1.6536719E-08
   37.68000     -2.0534126E-08
   37.74000     -2.4564102E-08
   37.80000     -2.8620187E-08
   37.86000     -3.2707877E-08
   37.92000     -3.6837822E-08
   37.98000     -4.1018069E-08
   38.04000     -4.5247020E-08
   38.10000     -4.9508348E-08
   38.16000     -5.3768996E-08
   38.22000     -5.7980714E-08
   38.28000     -6.2084723E-08
   38.34000     -6.6018316E-08
   38.40000     -6.9721466E-08
   38.46000     -7.3141663E-08
   38.52000     -7.6235963E-08
   38.58000     -7.8970345E-08
   38.64000     -8.1317602E-08
   38.70000     -8.3255280E-08
   38.76000     -8.4765034E-08
   38.82000     -8.5833506E-08
   38.88000     -8.6454570E-08
   38.94000     -8.6631552E-08
   39.00000     -8.6378691E-08
   39.06000     -8.5721091E-08
   39.12000     -8.4693035E-08
   39.18000     -8.3335173E-08
   39.24000     -8.1691063E-08
   39.30000     -7.9803989E-08
   39.36000     -7.7714652E-08
   39.42000     -7.5460193E-08
   39.48000     -7.3074489E-08
   39.54000     -7.0589479E-08
   39.60000     -6.8036591E-08
   39.66000     -6.5447828E-08
   39.72000     -6.2855896E-08
   39.78000     -6.0293360E-08
   39.84000     -5.7790896E-08
   39.90000     -5.5374862E-08
   39.96000     -5.3064618E-08
   40.02000     -5.0869929E-08
   40.08000     -4.8789460E-08
   40.14000     -4.6811106E-08
   40.20000     -4.4914806E-08
   40.26000     -4.3077552E-08
   40.32000     -4.1279286E-08
   40.38000     -3.9507711E-08
   40.44000     -3.7760284E-08
   40.50000     -3.6042803E-08
   40.56000     -3.4365378E-08
   40.62000     -3.2737862E-08
   40.68000     -3.1166607E-08
   40.74000     -2.9653656E-08
   40.80000     -2.8197984E-08
   40.86000     -2.6797538E-08
   40.92000     -2.5450746E-08
   40.98000     -2.4157051E-08
   41.04000     -2.2916824E-08
   41.10000     -2.1731424E-08
   41.16000     -2.0603759E-08
   41.22000     -1.9538874E-08
   41.28000     -1.8543613E-08
   41.34000     -1.7624586E-08
   41.40000     -1.6784714E-08
   41.46000     -1.6019696E-08
   41.52000     -1.5316292E-08
   41.58000     -1.4653827E-08
   41.64000     -1.4009142E-08
   41.70000     -1.3363711E-08
   41.76000     -1.2710760E-08
   41.82000     -1.2060212E-08
   41.88000     -1.1440020E-08
   41.94000     -1.0893528E-08
   42.00000     -1.0473568E-08
   42.06000     -1.0234532E-08
   42.12000     -1.0223928E-08
   42.18000     -1.0474928E-08
   42.24000     -1.1001282E-08
   42.30000     -1.1795722E-08
   42.36000     -1.2832430E-08
   42.42000     -1.4073376E-08
   42.48000     -1.5477312E-08
   42.54000     -1.7009368E-08
   42.60000     -1.8648764E-08
   42.66000     -2.0392431E-08
   42.72000     -2.2253472E-08
   42.78000     -2.4254708E-08
   42.84000     -2.6419233E-08
   42.90000     -2.8760697E-08
   42.96000     -3.1276294E-08
   43.02000     -3.3944463E-08
   43.08000     -3.6727990E-08
   43.14000     -3.9581295E-08
   43.20000     -4.2459614E-08
   43.26000     -4.5327166E-08
   43.32000     -4.8161876E-08
   43.38000     -5.0955503E-08
   43.44000     -5.3709410E-08
   43.50000     -5.6427485E-08
   43.56000     -5.9108572E-08
   43.62000     -6.1740622E-08
   43.68000     -6.4298320E-08
   43.74000     -6.6745116E-08
   43.80000     -6.9039253E-08
   43.86000     -7.1142622E-08
   43.92000     -7.3029966E-08
   43.98000     -7.4695741E-08
   44.04000     -7.6156113E-08
   44.10000     -7.7444533E-08
   44.16000     -7.8601474E-08
   44.22000     -7.9661014E-08
   44.28000     -8.0638273E-08
   44.34000     -8.1522195E-08
   44.40000     -8.2276557E-08
   44.46000     -8.2849304E-08
   44.52000     -8.3187523E-08
   44.58000     -8.3253198E-08
   44.64000     -8.3034742E-08
   44.70000     -8.2550869E-08
   44.76000     -8.1845897E-08
   44.82000     -8.0978545E-08
   44.88000     -8.0007830E-08
   44.94000     -7.8980243E-08
   45.00000     -7.7921420E-08
   45.06000     -7.6834091E-08
   45.12000     -7.5702353E-08
   45.18000     -7.4500541E-08
   45.24000     -7.3204205E-08
   45.30000     -7.1799818E-08
   45.36000     -7.0290191E-08
   45.42000     -6.8693751E-08
   45.48000     -6.7037440E-08
   45.54000     -6.5345603E-08
   45.60000     -6.3628555E-08
   45.66000     -6.1875568E-08
   45.72000     -6.0055193E-08
   45.78000     -5.8123970E-08
   45.84000     -5.6040850E-08
   45.90000     -5.3782696E-08
   45.96000     -5.1355361E-08
   46.02000     -4.8796291E-08
   46.08000     -4.6167660E-08
   46.14000     -4.3542180E-08
   46.20000     -4.0986318E-08
   46.26000     -3.8546005E-08
   46.32000     -3.6238696E-08
   46.38000     -3.4053308E-08
   46.44000     -3.1956816E-08
   46.50000     -2.9904971E-08
   46.56000     -2.7854124E-08
   46.62000     -2.5771650E-08
   46.68000     -2.3643340E-08
   46.74000     -2.1476685E-08
   46.80000     -1.9299403E-08
   46.86000     -1.7153200E-08
   46.92000     -1.5083828E-08
   46.98000     -1.3129833E-08
   47.04000     -1.1313352E-08
   47.10000     -9.6360546E-09
   47.16000     -8.0816660E-09
   47.22000     -6.6240187E-09
   47.28000     -5.2374034E-09
   47.34000     -3.9053640E-09
   47.40000     -2.6251288E-09
   47.46000     -1.4070723E-09
   47.52000     -2.7061439E-10
   47.58000      7.6113099E-10
   47.64000      1.6659990E-09
   47.70000      2.4257960E-09
   47.76000      3.0276588E-09
   47.82000      3.4640362E-09
   47.88000      3.7315426E-09
   47.94000      3.8290215E-09
   48.00000      3.7555075E-09
   48.06000      3.5091490E-09
   48.12000      3.0879577E-09
   48.18000      2.4923759E-09
   48.24000      1.7284844E-09
   48.30000      8.1003959E-10
   48.36000     -2.4210037E-10
   48.42000     -1.4033855E-09
   48.48000     -2.6508500E-09
   48.54000     -3.9688359E-09
   48.60000     -5.3541367E-09
   48.66000     -6.8201453E-09
   48.72000     -8.3997280E-09
   48.78000     -1.0146027E-08
   48.84000     -1.2130044E-08
   48.90000     -1.4434430E-08
   48.96000     -1.7144654E-08
   49.02000     -2.0340671E-08
   49.08000     -2.4092961E-08
   49.14000     -2.8465374E-08
   49.20000     -3.3524397E-08
   49.26000     -3.9351718E-08
   49.32000     -4.6056275E-08
   49.38000     -5.3783197E-08
   49.44000     -6.2719621E-08
   49.50000     -7.3098597E-08
   49.56000     -8.5202188E-08
   49.62000     -9.9363888E-08
   49.68000     -1.1596956E-07
   49.74000     -1.3545787E-07
   49.80000     -1.5832234E-07
   49.86000     -1.8511932E-07
   49.92000     -2.1648304E-07
   49.98000     -2.5314722E-07
   50.04000     -2.9596740E-07
   50.10000     -3.4593924E-07
   50.16000     -4.0421028E-07
   50.22000     -4.7208667E-07
   50.28000     -5.5104118E-07
   50.34000     -6.4272660E-07
   50.40000     -7.4899657E-07
   50.46000     -8.7193206E-07
   50.52000     -1.0138696E-06
   50.58000     -1.1774304E-06
   50.64000     -1.3655500E-06
   50.70000     -1.5815104E-06
   50.76000     -1.8289728E-06
   50.82000     -2.1120093E-06
   50.88000     -2.4351286E-06
   50.94000     -2.8032985E-06
   51.00000     -3.2219614E-06
   51.06000     -3.6970587E-06
   51.12000     -4.2350603E-06
   51.18000     -4.8430084E-06
   51.24000     -5.5285600E-06
   51.30000     -6.3000311E-06
   51.36000     -7.1664326E-06
   51.42000     -8.1374892E-06
   51.48000     -9.2236614E-06
   51.54000     -1.0436151E-05
   51.60000     -1.1786909E-05
   51.66000     -1.3288631E-05
   51.72000     -1.4954745E-05
   51.78000     -1.6799400E-05
   51.84000     -1.8837434E-05
   51.90000     -2.1084368E-05
   51.96000     -2.3556378E-05
   52.02000     -2.6270271E-05
   52.08000     -2.9243434E-05
   52.14000     -3.2493772E-05
   52.20000     -3.6039619E-05
   52.26000     -3.9899620E-05
   52.32000     -4.4092649E-05
   52.38000     -4.8637678E-05
   52.44000     -5.3553646E-05
   52.50000     -5.8859336E-05
   52.56000     -6.4573200E-05
   52.62000     -7.0713213E-05
   52.68000     -7.7296652E-05
   52.74000     -8.4339990E-05
   52.80000     -9.1858645E-05
   52.86000     -9.9866797E-05
   52.92000     -1.0837722E-04
   52.98000     -1.1740102E-04
   53.04000     -1.2694740E-04
   53.10000     -1.3702348E-04
   53.16000     -1.4763407E-04
   53.22000     -1.5878153E-04
   53.28000     -1.7046552E-04
   53.34000     -1.8268284E-04
   53.40000     -1.9542724E-04
   53.46000     -2.0868928E-04
   53.52000     -2.2245612E-04
   53.58000     -2.3671157E-04
   53.64000     -2.5143591E-04
   53.70000     -2.6660578E-04
   53.76000     -2.8219438E-04
   53.82000     -2.9817122E-04
   53.88000     -3.1450234E-04
   53.94000     -3.3115028E-04
   54.00000     -3.4807425E-04
   54.06000     -3.6523020E-04
   54.12000     -3.8257125E-04
   54.18000     -4.0004757E-04
   54.24000     -4.1760691E-04
   54.30000     -4.3519464E-04
   54.36000     -4.5275432E-04
   54.42000     -4.7022794E-04
   54.48000     -4.8755624E-04
   54.54000     -5.0467934E-04
   54.60000     -5.2153709E-04
   54.66000     -5.3806946E-04
   54.72000     -5.5421714E-04
   54.78000     -5.6992203E-04
   54.84000     -5.8512721E-04
   54.90000     -5.9977802E-04
   54.96000     -6.1382202E-04
   55.02000     -6.2720996E-04
   55.08000     -6.3989591E-04
   55.14000     -6.5183797E-04
   55.20000     -6.6299835E-04
   55.26000     -6.7334389E-04
   55.32000     -6.8284618E-04
   55.38000     -6.9148204E-04
   55.44000     -6.9923361E-04
   55.50000     -7.0608879E-04
   55.56000     -7.1204122E-04