  -2.400000      0.0000000E+00
  -2.340000      0.0000000E+00
  -2.280000      0.0000000E+00
  -2.220000      0.0000000E+00
  -2.160000      0.0000000E+00
  -2.100000      0.0000000E+00
  -2.040000      0.0000000E+00
  -1.980000      0.0000000E+00
  -1.920000     -1.7241924E-27
  -1.860000     -2.1709844E-25
  -1.800000     -2.4675824E-24
  -1.740000     -1.3858936E-23
  -1.680000     -4.7747535E-23
  -1.620000     -1.0018751E-22
  -1.560000     -6.9751687E-23
  -1.500000      3.5836005E-22
  -1.440000      1.6743227E-21
  -1.380000      3.9708615E-21
  -1.320000      5.6040836E-21
  -1.260000      1.7979766E-21
  -1.200000     -1.4511580E-20
  -1.140000     -4.6597766E-20
  -1.080000     -8.2423785E-20
  -1.020000     -8.4955372E-20
 -0.9600000      2.5086792E-22
 -0.9000000      2.0618627E-19
 -0.8400000      4.8163201E-19
 -0.7800000      6.4967117E-19
 -0.7200000      4.5836787E-19
 -0.6600000     -2.3654457E-19
 -0.6000000     -1.2278435E-18
 -0.5400000     -1.8644490E-18
 -0.4800000     -1.3624704E-18
 -0.4200000      4.3641946E-19
 -0.3600000      2.2749984E-18
 -0.3000000      1.5169684E-18
 -0.2400000     -4.1989491E-18
 -0.1800000     -1.3860149E-17
 -0.1200000     -2.0369301E-17
 -5.9999999E-02 -1.1348006E-17
  0.0000000E+00  2.4045106E-17
  5.9999999E-02  8.3264609E-17
  0.1200000      1.3981903E-16
  0.1800000      1.4414696E-16
  0.2400000      4.4025692E-17
  0.3000000     -1.7751414E-16
  0.3600000     -4.6387659E-16
  0.4200000     -6.7435459E-16
  0.4800000     -6.2566607E-16
  0.5400000     -1.8597016E-16
  0.6000000      6.1475650E-16
  0.6600000      1.5227423E-15
  0.7200000      2.1082908E-15
  0.7800000      1.9383610E-15
  0.8400000      8.1387240E-16
  0.9000000     -1.0504668E-15
  0.9600000     -3.0286218E-15
   1.020000     -4.3141451E-15
   1.080000     -4.2937671E-15
   1.140000     -2.8668167E-15
   1.200000     -5.0576988E-16
   1.260000      2.0167602E-15
   1.320000      4.0943874E-15
   1.380000      5.6357714E-15
   1.440000      6.9951399E-15
   1.500000      8.4229888E-15
   1.560000      9.3420763E-15
   1.620000      8.0217146E-15
   1.680000      2.1624954E-15
   1.740000     -9.5609623E-15
   1.800000     -2.5639860E-14
   1.860000     -4.0715024E-14
   1.920000     -4.6512985E-14
   1.980000     -3.5053957E-14
   2.040000     -3.1809729E-15
   2.100000      4.3668550E-14
   2.160000      9.0802630E-14
   2.220000      1.1810805E-13
   2.280000      1.0776278E-13
   2.340000      5.3038879E-14
   2.400000     -3.5820820E-14
   2.460000     -1.3211121E-13
   2.520000     -2.0062120E-13
   2.580000     -2.1075291E-13
   2.640000     -1.4973474E-13
   2.700000     -3.0086834E-14
   2.760000      1.1261945E-13
   2.820000      2.3170707E-13
   2.880000      2.8667414E-13
   2.940000      2.5869969E-13
   3.000000      1.5761029E-13
   3.060000      1.7077482E-14
   3.120000     -1.1990696E-13
   3.180000     -2.1862038E-13
   3.240000     -2.6496963E-13
   3.300000     -2.6668999E-13
   3.360000     -2.4293970E-13
   3.420000     -2.0794808E-13
   3.480000     -1.5802243E-13
   3.540000     -7.0305937E-14
   3.600000      8.3804505E-14
   3.660000      3.1541490E-13
   3.720000      5.9621215E-13
   3.780000      8.5054256E-13
   3.840000      9.6958899E-13
   3.900000      8.4657091E-13
   3.960000      4.2195368E-13
   4.020000     -2.7855390E-13
   4.080000     -1.1298659E-12
   4.140000     -1.9263658E-12
   4.200000     -2.4311848E-12
   4.260000     -2.4421905E-12
   4.320000     -1.8546128E-12
   4.380000     -7.0100496E-13
   4.440000      8.4353455E-13
   4.500000      2.4922750E-12
   4.560000      3.9050907E-12
   4.620000      4.7587294E-12
   4.680000      4.8124837E-12
   4.740000      3.9559502E-12
   4.800000      2.2317339E-12
   4.860000     -1.6737160E-13
   4.920000     -2.9220532E-12
   4.980000     -5.6241088E-12
   5.040000     -7.8222541E-12
   5.100000     -9.0738814E-12
   5.160000     -9.0043849E-12
   5.220000     -7.3765794E-12
   5.280000     -4.1682187E-12
   5.340000      3.5483934E-13
   5.400000      5.5949880E-12
   5.460000      1.0641986E-11
   5.520000      1.4383486E-11
   5.580000      1.5714189E-11
   5.640000      1.3815686E-11
   5.700000      8.4419798E-12
   5.760000      1.2355991E-13
   5.820000     -9.7906058E-12
   5.880000     -1.9294765E-11
   5.940000     -2.6072530E-11
   6.000000     -2.7947865E-11
   6.060000     -2.3326018E-11
   6.120000     -1.1514120E-11
   6.180000      7.1449530E-12
   6.240000      3.1328475E-11
   6.300000      5.8927016E-11
   6.360000      8.7297308E-11
   6.420000      1.1351097E-10
   6.480000      1.3457557E-10
   6.540000      1.4764551E-10
   6.600000      1.5025810E-10
   6.660000      1.4061208E-10
   6.720000      1.1786226E-10
   6.780000      8.2358460E-11
   6.840000      3.5738780E-11
   6.900000     -1.9187076E-11
   6.960000     -7.8767902E-11
   7.020000     -1.3898582E-10
   7.080000     -1.9595951E-10
   7.140000     -2.4635938E-10
   7.200000     -2.8766498E-10
   7.260000     -3.1826408E-10
   7.320000     -3.3745029E-10
   7.380000     -3.4539213E-10
   7.440000     -3.4311765E-10
   7.500000     -3.3250452E-10
   7.560000     -3.1621783E-10
   7.620000     -2.9752723E-10
   7.680000     -2.7996741E-10
   7.740000     -2.6686589E-10
   7.800000     -2.6082123E-10
   7.860000     -2.6324870E-10
   7.920000     -2.7410285E-10
   7.980000     -2.9185040E-10
   8.040000     -3.1371267E-10
   8.100000     -3.3613959E-10
   8.160000     -3.5543382E-10
   8.220000     -3.6840811E-10
   8.280000     -3.7294770E-10
   8.340000     -3.6836037E-10
   8.400000     -3.5544229E-10
   8.460000     -3.3625744E-10
   8.520000     -3.1370423E-10
   8.580000     -2.9099451E-10
   8.640000     -2.7117311E-10
   8.700000     -2.5676103E-10
   8.760000     -2.4953289E-10
   8.820000     -2.5038702E-10
   8.880000     -2.5925942E-10
   8.940000     -2.7508107E-10
   9.000000     -2.9584166E-10
   9.060000     -3.1885516E-10
   9.120000     -3.4128561E-10
   9.180000     -3.6088393E-10
   9.240000     -3.7676184E-10
   9.300000     -3.8994796E-10
   9.360000     -4.0349135E-10
   9.420000     -4.2200338E-10
   9.480000     -4.5071122E-10
   9.540000     -4.9426518E-10
   9.600000     -5.5562593E-10
   9.660000     -6.3533317E-10
   9.720000     -7.3134171E-10
   9.780000     -8.3945373E-10
   9.840000     -9.5423092E-10
   9.900000     -1.0701700E-09
   9.960000     -1.1828756E-09
   10.02000     -1.2899731E-09
   10.08000     -1.3915487E-09
   10.14000     -1.4900060E-09
   10.20000     -1.5893588E-09
   10.26000     -1.6941268E-09
   10.32000     -1.8081252E-09
   10.38000     -1.9334783E-09
   10.44000     -2.0701325E-09
   10.50000     -2.2159847E-09
   10.56000     -2.3675315E-09
   10.62000     -2.5207731E-09
   10.68000     -2.6720135E-09
   10.74000     -2.8182643E-09
   10.80000     -2.9571106E-09
   10.86000     -3.0861367E-09
   10.92000     -3.2021912E-09
   10.98000     -3.3008611E-09
   11.04000     -3.3764702E-09
   11.10000     -3.4227365E-09
   11.16000     -3.4339818E-09
   11.22000     -3.4065852E-09
   11.28000     -3.3402581E-09
   11.34000     -3.2387599E-09
   11.40000     -3.1098280E-09
   11.46000     -2.9643219E-09
   11.52000     -2.8147928E-09
   11.58000     -2.6738385E-09
   11.64000     -2.5526434E-09
   11.70000     -2.4600517E-09
   11.76000     -2.4023719E-09
   11.82000     -2.3839162E-09
   11.88000     -2.4080600E-09
   11.94000     -2.4784210E-09
   12.00000     -2.5996889E-09
   12.06000     -2.7777030E-09
   12.12000     -3.0186176E-09
   12.18000     -3.3273264E-09
   12.24000     -3.7056171E-09
   12.30000     -4.1506718E-09
   12.36000     -4.6544222E-09
   12.42000     -5.2039475E-09
   12.48000     -5.7827227E-09
   12.54000     -6.3722050E-09
   12.60000     -6.9532033E-09
   12.66000     -7.5066504E-09
   12.72000     -8.0137754E-09
   12.78000     -8.4560003E-09
   12.84000     -8.8150678E-09
   12.90000     -9.0738439E-09
   12.96000     -9.2179286E-09
   13.02000     -9.2378247E-09
   13.08000     -9.1310772E-09
   13.14000     -8.9036352E-09
   13.20000     -8.5698471E-09
   13.26000     -8.1508569E-09
   13.32000     -7.6716686E-09
   13.38000     -7.1576354E-09
   13.44000     -6.6313288E-09
   13.50000     -6.1106462E-09
   13.56000     -5.6085807E-09
   13.62000     -5.1344551E-09
   13.68000     -4.6959059E-09
   13.74000     -4.3006518E-09
   13.80000     -3.9571910E-09
   13.86000     -3.6740500E-09
   13.92000     -3.4577514E-09
   13.98000     -3.3101486E-09
   14.04000     -3.2259924E-09
   14.10000     -3.1915437E-09
   14.16000     -3.1847553E-09
   14.22000     -3.1771712E-09
   14.28000     -3.1373020E-09
   14.34000     -3.0349012E-09
   14.40000     -2.8453602E-09
   14.46000     -2.5533466E-09
   14.52000     -2.1549438E-09
   14.58000     -1.6578292E-09
   14.64000     -1.0794933E-09
   14.70000     -4.4392817E-10
   14.76000      2.2242422E-10
   14.82000      8.9457075E-10
   14.88000      1.5519422E-09
   14.94000      2.1799753E-09
   15.00000      2.7702101E-09
   15.06000      3.3191430E-09
   15.12000      3.8263064E-09
   15.18000      4.2921462E-09
   15.24000      4.7162305E-09
   15.30000      5.0961821E-09
   15.36000      5.4274834E-09
   15.42000      5.7040483E-09
   15.48000      5.9192322E-09
   15.54000      6.0668910E-09
   15.60000      6.1421708E-09
   15.66000      6.1419523E-09
   15.72000      6.0651231E-09
   15.78000      5.9129897E-09
   15.84000      5.6900888E-09
   15.90000      5.4053855E-09
   15.96000      5.0734563E-09
   16.02000      4.7149737E-09
   16.08000      4.3557065E-09
   16.14000      4.0235522E-09
   16.20000      3.7436627E-09
   16.26000      3.5324377E-09
   16.32000      3.3917411E-09
   16.38000      3.3048946E-09
   16.44000      3.2357341E-09
   16.50000      3.1312648E-09
   16.56000      2.9275151E-09
   16.62000      2.5573514E-09
   16.68000      1.9585971E-09
   16.74000      1.0808868E-09
   16.80000     -1.0977196E-10
   16.86000     -1.6290431E-09
   16.92000     -3.4745733E-09
   16.98000     -5.6278604E-09
   17.04000     -8.0568716E-09
   17.10000     -1.0718728E-08
   17.16000     -1.3562005E-08
   17.22000     -1.6528467E-08
   17.28000     -1.9554356E-08
   17.34000     -2.2571621E-08
   17.40000     -2.5509756E-08
   17.46000     -2.8298837E-08
   17.52000     -3.0874112E-08
   17.58000     -3.3181912E-08
   17.64000     -3.5185849E-08
   17.70000     -3.6871878E-08
   17.76000     -3.8250565E-08
   17.82000     -3.9355442E-08
   17.88000     -4.0237207E-08
   17.94000     -4.0954699E-08
   18.00000     -4.1564405E-08
   18.06000     -4.2110770E-08
   18.12000     -4.2619462E-08
   18.18000     -4.3094968E-08
   18.24000     -4.3522878E-08
   18.30000     -4.3876103E-08
   18.36000     -4.4123329E-08
   18.42000     -4.4237446E-08
   18.48000     -4.4201929E-08
   18.54000     -4.4013550E-08
   18.60000     -4.3680963E-08
   18.66000     -4.3219739E-08
   18.72000     -4.2645404E-08
   18.78000     -4.1966565E-08
   18.84000     -4.1180328E-08
   18.90000     -4.0271317E-08
   18.96000     -3.9214953E-08
   19.02000     -3.7984119E-08
   19.08000     -3.6557505E-08
   19.14000     -3.4927325E-08
   19.20000     -3.3104275E-08
   19.26000     -3.1118319E-08
   19.32000     -2.9015197E-08
   19.38000     -2.6849648E-08
   19.44000     -2.4677234E-08
   19.50000     -2.2546908E-08
   19.56000     -2.0495944E-08
   19.62000     -1.8548212E-08
   19.68000     -1.6715603E-08
   19.74000     -1.5001749E-08
   19.80000     -1.3406566E-08
   19.86000     -1.1930118E-08
   19.92000     -1.0574569E-08
   19.98000     -9.3436743E-09
   20.04000     -8.2400495E-09
   20.10000     -7.2612596E-09
   20.16000     -6.3962671E-09
   20.22000     -5.6237717E-09
   20.28000     -4.9134408E-09
   20.34000     -4.2300776E-09
   20.40000     -3.5397676E-09
   20.46000     -2.8163285E-09
   20.52000     -2.0462290E-09
   20.58000     -1.2306014E-09
   20.64000     -3.8385103E-10
   20.70000      4.7064519E-10
   20.76000      1.3064955E-09
   20.82000      2.1003101E-09
   20.88000      2.8363285E-09
   20.94000      3.5087384E-09
   21.00000      4.1214827E-09
   21.06000      4.6860076E-09
   21.12000      5.2178617E-09
   21.18000      5.7331579E-09
   21.24000      6.2457075E-09
   21.30000      6.7652328E-09
   21.36000      7.2966508E-09
   21.42000      7.8401152E-09
   21.48000      8.3914093E-09
   21.54000      8.9424139E-09
   21.60000      9.4815622E-09
   21.66000      9.9943831E-09
   21.72000      1.0464333E-08
   21.78000      1.0874065E-08
   21.84000      1.1207169E-08
   21.90000      1.1450210E-08
   21.96000      1.1594788E-08
   22.02000      1.1639202E-08
   22.08000      1.1589346E-08
   22.14000      1.1458571E-08
   22.20000      1.1266369E-08
   22.26000      1.1035992E-08
   22.32000      1.0791258E-08
   22.38000      1.0553014E-08
   22.44000      1.0335821E-08
   22.50000      1.0145511E-08
   22.56000      9.9781827E-09
   22.62000      9.8209805E-09
   22.68000      9.6545518E-09
   22.74000      9.4565733E-09
   22.80000      9.2053254E-09
   22.86000      8.8822150E-09
   22.92000      8.4725267E-09
   22.98000      7.9644487E-09
   23.04000      7.3472477E-09
   23.10000      6.6099983E-09
   23.16000      5.7421614E-09
   23.22000      4.7365694E-09
   23.28000      3.5942027E-09
   23.34000      2.3290860E-09
   23.40000      9.7110542E-10
   23.46000     -4.3513027E-10
   23.52000     -1.8361748E-09
   23.58000     -3.1796141E-09
   23.64000     -4.4256785E-09
   23.70000     -5.5574469E-09
   23.76000     -6.5865056E-09
   23.82000     -7.5519146E-09
   23.88000     -8.5121021E-09
   23.94000     -9.5313091E-09
   24.00000     -1.0663897E-08
   24.06000     -1.1940602E-08
   24.12000     -1.3360480E-08
   24.18000     -1.4890764E-08
   24.24000     -1.6474742E-08
   24.30000     -1.8045480E-08
   24.36000     -1.9541663E-08
   24.42000     -2.0921158E-08
   24.48000     -2.2168736E-08
   24.54000     -2.3295994E-08
   24.60000     -2.4333955E-08
   24.66000     -2.5320912E-08
   24.72000     -2.6289598E-08
   24.78000     -2.7257752E-08
   24.84000     -2.8224999E-08
   24.90000     -2.9176674E-08
   24.96000     -3.0092764E-08
   25.02000     -3.0958333E-08
   25.08000     -3.1771261E-08
   25.14000     -3.2544229E-08
   25.20000     -3.3299976E-08
   25.26000     -3.4061404E-08
   25.32000     -3.4839999E-08
   25.38000     -3.5626794E-08
   25.44000     -3.6389235E-08
   25.50000     -3.7075548E-08
   25.56000     -3.7625735E-08
   25.62000     -3.7986222E-08
   25.68000     -3.8124021E-08
   25.74000     -3.8036156E-08
   25.80000     -3.7751327E-08
   25.86000     -3.7322920E-08
   25.92000     -3.6814797E-08
   25.98000     -3.6283570E-08
   26.04000     -3.5762124E-08
   26.10000     -3.5249130E-08
   26.16000     -3.4707867E-08
   26.22000     -3.4075004E-08
   26.28000     -3.3277200E-08
   26.34000     -3.2251045E-08
   26.40000     -3.0960603E-08
   26.46000     -2.9407545E-08
   26.52000     -2.7630877E-08
   26.58000     -2.5696520E-08
   26.64000     -2.3680066E-08
   26.70000     -2.1648082E-08
   26.76000     -1.9643847E-08
   26.82000     -1.7681726E-08
   26.88000     -1.5751640E-08
   26.94000     -1.3831625E-08
   27.00000     -1.1903915E-08
   27.06000     -9.9688329E-09
   27.12000     -8.0516411E-09
   27.18000     -6.1999361E-09
   27.24000     -4.4724677E-09
   27.30000     -2.9231961E-09
   27.36000     -1.5861296E-09
   27.42000     -4.6629178E-10
   27.48000      4.5980944E-10
   27.54000      1.2340398E-09
   27.60000      1.9000126E-09
   27.66000      2.4855773E-09
   27.72000      2.9905893E-09
   27.78000      3.3845904E-09
   27.84000      3.6157843E-09
   27.90000      3.6287580E-09
   27.96000      3.3851419E-09
   28.02000      2.8800102E-09
   28.08000      2.1479221E-09
   28.14000      1.2558665E-09
   28.20000      2.8488420E-10
   28.26000     -6.9376643E-10
   28.32000     -1.6398904E-09
   28.38000     -2.5557396E-09
   28.44000     -3.4834733E-09
   28.50000     -4.4894692E-09
   28.56000     -5.6408336E-09
   28.62000     -6.9821393E-09
   28.68000     -8.5202831E-09
   28.74000     -1.0222475E-08
   28.80000     -1.2027823E-08
   28.86000     -1.3868371E-08
   28.92000     -1.5692263E-08
   28.98000     -1.7481099E-08
   29.04000     -1.9255456E-08
   29.10000     -2.1066533E-08
   29.16000     -2.2976494E-08
   29.22000     -2.5033897E-08
   29.28000     -2.7252455E-08
   29.34000     -2.9600381E-08
   29.40000     -3.2004344E-08
   29.46000     -3.4367108E-08
   29.52000     -3.6593512E-08
   29.58000     -3.8616466E-08
   29.64000     -4.0414694E-08
   29.70000     -4.2016620E-08
   29.76000     -4.3489390E-08
   29.82000     -4.4916625E-08
   29.88000     -4.6371987E-08
   29.94000     -4.7896343E-08
   30.00000     -4.9485045E-08
   30.06000     -5.1088257E-08
   30.12000     -5.2623541E-08
   30.18000     -5.3996324E-08
   30.24000     -5.5122122E-08
   30.30000     -5.5944092E-08
   30.36000     -5.6441369E-08
   30.42000     -5.6626355E-08
   30.48000     -5.6532730E-08
   30.54000     -5.6198683E-08
   30.60000     -5.5651189E-08
   30.66000     -5.4896795E-08
   30.72000     -5.3921703E-08
   30.78000     -5.2700827E-08
   30.84000     -5.1212091E-08
   30.90000     -4.9450637E-08
   30.96000     -4.7437577E-08
   31.02000     -4.5220240E-08
   31.08000     -4.2863785E-08
   31.14000     -4.0437218E-08
   31.20000     -3.7998788E-08
   31.26000     -3.5585789E-08
   31.32000     -3.3212377E-08
   31.38000     -3.0876230E-08
   31.44000     -2.8571971E-08
   31.50000     -2.6306894E-08
   31.56000     -2.4113715E-08
   31.62000     -2.2055760E-08
   31.68000     -2.0222181E-08
   31.74000     -1.8713864E-08
   31.80000     -1.7623545E-08
   31.86000     -1.7015534E-08
   31.92000     -1.6910800E-08
   31.98000     -1.7281717E-08
   32.04000     -1.8058081E-08
   32.10000     -1.9142840E-08
   32.16000     -2.0433273E-08
   32.22000     -2.1841881E-08
   32.28000     -2.3311486E-08
   32.34000     -2.4820880E-08
   32.40000     -2.6380205E-08
   32.46000     -2.8018277E-08
   32.52000     -2.9766287E-08
   32.58000     -3.1643026E-08
   32.64000     -3.3645868E-08
   32.70000     -3.5749594E-08
   32.76000     -3.7912546E-08
   32.82000     -4.0087496E-08
   32.88000     -4.2233609E-08
   32.94000     -4.4326104E-08
   33.00000     -4.6361354E-08
   33.06000     -4.8356579E-08
   33.12000     -5.0344671E-08
   33.18000     -5.2365642E-08
   33.24000     -5.4456649E-08
   33.30000     -5.6642918E-08
   33.36000     -5.8931683E-08
   33.42000     -6.1310743E-08
   33.48000     -6.3752239E-08
   33.54000     -6.6220736E-08
   33.60000     -6.8683207E-08
   33.66000     -7.1117896E-08
   33.72000     -7.3518805E-08
   33.78000     -7.5894000E-08
   33.84000     -7.8258203E-08
   33.90000     -8.0621540E-08
   33.96000     -8.2978424E-08
   34.02000     -8.5300080E-08
   34.08000     -8.7533373E-08
   34.14000     -8.9606495E-08
   34.20000     -9.1440050E-08
   34.26000     -9.2960178E-08
   34.32000     -9.4110121E-08
   34.38000     -9.4856922E-08
   34.44000     -9.5191766E-08
   34.50000     -9.5124193E-08
   34.56000     -9.4672657E-08
   34.62000     -9.3854709E-08
   34.68000     -9.2680125E-08
   34.74000     -9.1149204E-08
   34.80000     -8.9256609E-08
   34.86000     -8.6999343E-08
   34.92000     -8.4385874E-08
   34.98000     -8.1443339E-08
   35.04000     -7.8220154E-08
   35.10000     -7.4782946E-08
   35.16000     -7.1208390E-08
   35.22000     -6.7571996E-08
   35.28000     -6.3937044E-08
   35.34000     -6.0346615E-08
   35.40000     -5.6821097E-08
   35.46000     -5.3361756E-08
   35.52000     -4.9959347E-08
   35.58000     -4.6605059E-08
   35.64000     -4.3300474E-08
   35.70000     -4.0063568E-08
   35.76000     -3.6929098E-08
   35.82000     -3.3943532E-08
   35.88000     -3.1156141E-08
   35.94000     -2.8608927E-08
   36.00000     -2.6327916E-08
   36.06000     -2.4317686E-08
   36.12000     -2.2560020E-08
   36.18000     -2.1016673E-08
   36.24000     -1.9635559E-08
   36.30000     -1.8359298E-08
   36.36000     -1.7134697E-08
   36.42000     -1.5921490E-08
   36.48000     -1.4698592E-08
   36.54000     -1.3466430E-08
   36.60000     -1.2244730E-08
   36.66000     -1.1066302E-08
   36.72000     -9.9684723E-09
   36.78000     -8.9845091E-09
   36.84000     -8.1372660E-09
   36.90000     -7.4365305E-09
   36.96000     -6.8803319E-09
   37.02000     -6.4593069E-09
   37.08000     -6.1624559E-09
   37.14000     -5.9824066E-09
   37.20000     -5.9186265E-09
   37.26000     -5.9777010E-09
   37.32000     -6.1706258E-09
   37.38000     -6.5078760E-09
   37.44000     -6.9936505E-09
   37.50000     -7.6210256E-09
   37.56000     -8.3697032E-09
   37.62000     -9.2074890E-09
   37.68000     -1.0095700E-08
   37.74000     -1.0997574E-08
   37.80000     -1.1887616E-08
   37.86000     -1.2759211E-08
   37.92000     -1.3627822E-08
   37.98000     -1.4528044E-08
   38.04000     -1.5504352E-08
   38.10000     -1.6597369E-08
   38.16000     -1.7829160E-08
   38.22000     -1.9191855E-08
   38.28000     -2.0643384E-08
   38.34000     -2.2112280E-08
   38.40000     -2.3510928E-08
   38.46000     -2.4754014E-08
   38.52000     -2.5777270E-08
   38.58000     -2.6551524E-08
   38.64000     -2.7088435E-08
   38.70000     -2.7436686E-08
   38.76000     -2.7670131E-08
   38.82000     -2.7871284E-08
   38.88000     -2.8114471E-08
   38.94000     -2.8452648E-08
   39.00000     -2.8910492E-08
   39.06000     -2.9484660E-08
   39.12000     -3.0150211E-08
   39.18000     -3.0870790E-08
   39.24000     -3.1609442E-08
   39.30000     -3.2337084E-08
   39.36000     -3.3036716E-08
   39.42000     -3.3702900E-08
   39.48000     -3.4337706E-08
   39.54000     -3.4945444E-08
   39.60000     -3.5528611E-08
   39.66000     -3.6086711E-08
   39.72000     -3.6618214E-08
   39.78000     -3.7124487E-08
   39.84000     -3.7613638E-08
   39.90000     -3.8102463E-08
   39.96000     -3.8615291E-08
   40.02000     -3.9179852E-08
   40.08000     -3.9821231E-08
   40.14000     -4.0555395E-08
   40.20000     -4.1383856E-08
   40.26000     -4.2290697E-08
   40.32000     -4.3242714E-08
   40.38000     -4.4193179E-08
   40.44000     -4.5088981E-08
   40.50000     -4.5880260E-08
   40.56000     -4.6530587E-08
   40.62000     -4.7025168E-08
   40.68000     -4.7374581E-08
   40.74000     -4.7612481E-08
   40.80000     -4.7787644E-08
   40.86000     -4.7952430E-08
   40.92000     -4.8151175E-08
   40.98000     -4.8411863E-08
   41.04000     -4.8743164E-08
   41.10000     -4.9136997E-08
   41.16000     -4.9574847E-08
   41.22000     -5.0035098E-08
   41.28000     -5.0498869E-08
   41.34000     -5.0952636E-08
   41.40000     -5.1387541E-08
   41.46000     -5.1796260E-08
   41.52000     -5.2169252E-08
   41.58000     -5.2492179E-08
   41.64000     -5.2745943E-08
   41.70000     -5.2909801E-08
   41.76000     -5.2966840E-08
   41.82000     -5.2909940E-08
   41.88000     -5.2745843E-08
   41.94000     -5.2495157E-08
   42.00000     -5.2187517E-08
   42.06000     -5.1852961E-08
   42.12000     -5.1512220E-08
   42.18000     -5.1169486E-08
   42.24000     -5.0810343E-08
   42.30000     -5.0406054E-08
   42.36000     -4.9922839E-08
   42.42000     -4.9333245E-08
   42.48000     -4.8625864E-08
   42.54000     -4.7810374E-08
   42.60000     -4.6916309E-08
   42.66000     -4.5986191E-08
   42.72000     -4.5065086E-08
   42.78000     -4.4189971E-08
   42.84000     -4.3382144E-08
   42.90000     -4.2645024E-08
   42.96000     -4.1967940E-08
   43.02000     -4.1334463E-08
   43.08000     -4.0732225E-08
   43.14000     -4.0160568E-08
   43.20000     -3.9632958E-08
   43.26000     -3.9172992E-08
   43.32000     -3.8805091E-08
   43.38000     -3.8542993E-08
   43.44000     -3.8380115E-08
   43.50000     -3.8285407E-08
   43.56000     -3.8206860E-08
   43.62000     -3.8082373E-08
   43.68000     -3.7855433E-08
   43.74000     -3.7491258E-08
   43.80000     -3.6988492E-08
   43.86000     -3.6382335E-08
   43.92000     -3.5737401E-08
   43.98000     -3.5131535E-08
   44.04000     -3.4635065E-08
   44.10000     -3.4291645E-08
   44.16000     -3.4106716E-08
   44.22000     -3.4047300E-08
   44.28000     -3.4053123E-08
   44.34000     -3.4055553E-08
   44.40000     -3.3998393E-08
   44.46000     -3.3854352E-08
   44.52000     -3.3632769E-08
   44.58000     -3.3376850E-08
   44.64000     -3.3151842E-08
   44.70000     -3.3027710E-08
   44.76000     -3.3061248E-08
   44.82000     -3.3282266E-08
   44.88000     -3.3687638E-08
   44.94000     -3.4244579E-08
   45.00000     -3.4902154E-08
   45.06000     -3.5607371E-08
   45.12000     -3.6320674E-08
   45.18000     -3.7025909E-08
   45.24000     -3.7731557E-08
   45.30000     -3.8463227E-08
   45.36000     -3.9250551E-08
   45.42000     -4.0113445E-08
   45.48000     -4.1052790E-08
   45.54000     -4.2048551E-08
   45.60000     -4.3065604E-08
   45.66000     -4.4064787E-08
   45.72000     -4.5015074E-08
   45.78000     -4.5902873E-08
   45.84000     -4.6735600E-08
   45.90000     -4.7538823E-08
   45.96000     -4.8348056E-08
   46.02000     -4.9197940E-08
   46.08000     -5.0111773E-08
   46.14000     -5.1094311E-08
   46.20000     -5.2129497E-08
   46.26000     -5.3183506E-08
   46.32000     -5.4212094E-08
   46.38000     -5.5170325E-08
   46.44000     -5.6022174E-08
   46.50000     -5.6747851E-08
   46.56000     -5.7347155E-08
   46.62000     -5.7838207E-08
   46.68000     -5.8251977E-08
   46.74000     -5.8624110E-08
   46.80000     -5.8986181E-08
   46.86000     -5.9358726E-08
   46.92000     -5.9747784E-08
   46.98000     -6.0145602E-08
   47.04000     -6.0534873E-08
   47.10000     -6.0894777E-08
   47.16000     -6.1206968E-08
   47.22000     -6.1459843E-08
   47.28000     -6.1650375E-08
   47.34000     -6.1783801E-08
   47.40000     -6.1871901E-08
   47.46000     -6.1930791E-08
   47.52000     -6.1979016E-08
   47.58000     -6.2036399E-08
   47.64000     -6.2123810E-08
   47.70000     -6.2263986E-08
   47.76000     -6.2483473E-08
   47.82000     -6.2815580E-08
   47.88000     -6.3304249E-08
   47.94000     -6.4008191E-08
   48.00000     -6.5004599E-08
   48.06000     -6.6391621E-08
   48.12000     -6.8289083E-08
   48.18000     -7.0837281E-08
   48.24000     -7.4194737E-08
   48.30000     -7.8536360E-08
   48.36000     -8.4053667E-08
   48.42000     -9.0958309E-08
   48.48000     -9.9489306E-08
   48.54000     -1.0992315E-07
   48.60000     -1.2258535E-07
   48.66000     -1.3786176E-07
   48.72000     -1.5620860E-07
   48.78000     -1.7816070E-07
   48.84000     -2.0433811E-07
   48.90000     -2.3545158E-07
   48.96000     -2.7230797E-07
   49.02000     -3.1581686E-07
   49.08000     -3.6699998E-07
   49.14000     -4.2700495E-07
   49.20000     -4.9712372E-07
   49.26000     -5.7881550E-07
   49.32000     -6.7373151E-07
   49.38000     -7.8373927E-07
   49.44000     -9.1094546E-07
   49.50000     -1.0577172E-06
   49.56000     -1.2267016E-06
   49.62000     -1.4208474E-06
   49.68000     -1.6434287E-06
   49.74000     -1.8980705E-06
   49.80000     -2.1887749E-06
   49.86000     -2.5199499E-06
   49.92000     -2.8964339E-06
   49.98000     -3.3235244E-06
   50.04000     -3.8070068E-06
   50.10000     -4.3531809E-06
   50.16000     -4.9688879E-06
   50.22000     -5.6615359E-06
   50.28000     -6.4391197E-06
   50.34000     -7.3102406E-06
   50.40000     -8.2841207E-06
   50.46000     -9.3706167E-06
   50.52000     -1.0580229E-05
   50.58000     -1.1924105E-05
   50.64000     -1.3414035E-05
   50.70000     -1.5062446E-05
   50.76000     -1.6882392E-05
   50.82000     -1.8887520E-05
   50.88000     -2.1092041E-05
   50.94000     -2.3510700E-05
   51.00000     -2.6158703E-05
   51.06000     -2.9051669E-05
   51.12000     -3.2205542E-05
   51.18000     -3.5636524E-05
   51.24000     -3.9360988E-05
   51.30000     -4.3395390E-05
   51.36000     -4.7756148E-05
   51.42000     -5.2459527E-05
   51.48000     -5.7521505E-05
   51.54000     -6.2957610E-05
   51.60000     -6.8782778E-05
   51.66000     -7.5011179E-05
   51.72000     -8.1656028E-05
   51.78000     -8.8729437E-05
   51.84000     -9.6242242E-05
   51.90000     -1.0420380E-04
   51.96000     -1.1262180E-04
   52.02000     -1.2150213E-04
   52.08000     -1.3084868E-04
   52.14000     -1.4066321E-04
   52.20000     -1.5094512E-04
   52.26000     -1.6169138E-04
   52.32000     -1.7289627E-04
   52.38000     -1.8455129E-04
   52.44000     -1.9664512E-04
   52.50000     -2.0916350E-04
   52.56000     -2.2208909E-04
   52.62000     -2.3540160E-04
   52.68000     -2.4907771E-04
   52.74000     -2.6309112E-04
   52.80000     -2.7741244E-04
   52.86000     -2.9200964E-04
   52.92000     -3.0684777E-04
   52.98000     -3.2188933E-04
   53.04000     -3.3709433E-04
   53.10000     -3.5242049E-04
   53.16000     -3.6782361E-04
   53.22000     -3.8325763E-04
   53.28000     -3.9867524E-04
   53.34000     -4.1402789E-04
   53.40000     -4.2926642E-04
   53.46000     -4.4434122E-04
   53.52000     -4.5920280E-04
   53.58000     -4.7380204E-04
   53.64000     -4.8809071E-04
   53.70000     -5.0202193E-04
   53.76000     -5.1555032E-04
   53.82000     -5.2863266E-04
   53.88000     -5.4122810E-04
   53.94000     -5.5329874E-04
   54.00000     -5.6480966E-04
   54.06000     -5.7572976E-04
   54.12000     -5.8603188E-04
   54.18000     -5.9569278E-04
   54.24000     -6.0469389E-04
   54.30000     -6.1302108E-04
   54.36000     -6.2066515E-04
   54.42000     -6.2762166E-04
   54.48000     -6.3389109E-04
   54.54000     -6.3947862E-04
   54.60000     -6.4439466E-04
   54.66000     -6.4865424E-04
   54.72000     -6.5227703E-04
   54.78000     -6.5528735E-04
   54.84000     -6.5771386E-04
   54.90000     -6.5958919E-04
   54.96000     -6.6094956E-04
   55.02000     -6.6183420E-04
   55.08000     -6.6228525E-04
   55.14000     -6.6234707E-04
   55.20000     -6.6206604E-04
   55.26000     -6.6148979E-04
   55.32000     -6.6066690E-04
   55.38000     -6.5964635E-04
   55.44000     -6.5847702E-04
   55.50000     -6.5720710E-04
   55.56000     -6.5588334E-04