 -0.750000000       0.00000000    
 -0.689999998       0.00000000    
 -0.629999995       0.00000000    
 -0.569999993       0.00000000    
 -0.509999990       0.00000000    
 -0.449999988       0.00000000    
 -0.389999986       0.00000000    
 -0.330000013       0.00000000    
 -0.270000011       3.13086537E-26
 -0.209999993       3.50228604E-25
 -0.150000006       1.93086821E-24
  -9.00000036E-02   6.80878075E-24
  -2.99999993E-02   1.62804057E-23
   2.99999993E-02   2.32441305E-23
   9.00000036E-02  -4.03018269E-24
  0.150000006      -1.40226084E-22
  0.209999993      -4.92761548E-22
  0.270000011      -1.09455685E-21
  0.330000013      -1.61499482E-21
  0.389999986      -9.06445962E-22
  0.449999988       3.25256222E-21
  0.509999990       1.33070274E-20
  0.569999993       2.87919115E-20
  0.629999995       4.07774839E-20
  0.689999998       2.69804974E-20
  0.750000000      -4.47823079E-20
  0.810000002      -1.95179263E-19
  0.870000005      -3.91487963E-19
  0.930000007      -5.02868737E-19
  0.990000010      -2.97188417E-19
   1.04999995       4.63847887E-19
   1.11000001       1.80572266E-18
   1.16999996       3.26308752E-18
   1.23000002       3.73122397E-18
   1.28999996       1.71302529E-18
   1.35000002      -3.85001621E-18
   1.40999997      -1.22783894E-17
   1.47000003      -1.99826272E-17
   1.52999997      -2.04479097E-17
   1.59000003      -6.42714042E-18
   1.64999998       2.53453533E-17
   1.71000004       6.82020672E-17
   1.76999998       1.01644516E-16
   1.83000004       9.41036862E-17
   1.88999999       1.60115730E-17
   1.95000005      -1.37634172E-16
   2.00999999      -3.23700549E-16
   2.06999993      -4.42608093E-16
   2.13000011      -3.63528965E-16
   2.19000006       8.82615610E-18
   2.25000000       6.42123078E-16
   2.30999994       1.30630628E-15
   2.36999989       1.59162160E-15
   2.43000007       1.06412569E-15
   2.49000001      -4.57211656E-16
   2.54999995      -2.61595114E-15
   2.60999990      -4.42024864E-15
   2.67000008      -4.51618740E-15
   2.73000002      -1.86925221E-15
   2.78999996       3.37170803E-15
   2.84999990       9.30947146E-15
   2.91000009       1.25775634E-14
   2.97000003       9.73106178E-15
   3.02999997      -5.89048099E-16
   3.08999991      -1.57407148E-14
   3.15000010      -2.87756438E-14
   3.21000004      -3.07051510E-14
   3.26999998      -1.50880793E-14
   3.32999992       1.68940366E-14
   3.39000010       5.38041901E-14
   3.45000005       7.63903101E-14
   3.50999999       6.56718671E-14
   3.56999993       1.40413871E-14
   3.63000011      -6.60417020E-14
   3.69000006      -1.41713654E-13
   3.75000000      -1.70834497E-13
   3.80999994      -1.22073196E-13
   3.86999989       4.51576176E-15
   3.93000007       1.67793446E-13
   3.99000001       2.95342093E-13
   4.05000019       3.12975530E-13
   4.11000013       1.83282087E-13
   4.17000008      -6.52902889E-14
   4.23000002      -3.36879911E-13
   4.28999996      -5.01797605E-13
   4.34999990      -4.55712996E-13
   4.40999985      -1.78943205E-13
   4.46999979       2.35430788E-13
   4.53000021       6.06108317E-13
   4.59000015       7.38878034E-13
   4.65000010       5.23570607E-13
   4.71000004       6.29092725E-15
   4.76999998      -6.05502302E-13
   4.82999992      -1.02036565E-12
   4.88999987      -9.97625593E-13
   4.94999981      -4.79761413E-13
   5.01000023       3.47021267E-13
   5.07000017       1.10848158E-12
   5.13000011       1.40602200E-12
   5.19000006       1.02226441E-12
   5.25000000       6.87466509E-14
   5.30999994      -1.01195387E-12
   5.36999989      -1.61802256E-12
   5.42999983      -1.27838137E-12
   5.48999977       6.50495825E-14
   5.55000019       1.92729751E-12
   5.61000013       3.39683186E-12
   5.67000008       3.48859158E-12
   5.73000002       1.60818114E-12
   5.78999996      -2.07038098E-12
   5.84999990      -6.50039874E-12
   5.90999985      -1.00206848E-11
   5.96999979      -1.09157839E-11
   6.03000021      -8.08055619E-12
   6.09000015      -1.52920200E-12
   6.15000010       7.46524283E-12
   6.21000004       1.66749080E-11
   6.26999998       2.35618278E-11
   6.32999992       2.60235097E-11
   6.38999987       2.29633968E-11
   6.44999981       1.44931549E-11
   6.51000023       1.73979765E-12
   6.57000017      -1.35946358E-11
   6.63000011      -2.96715187E-11
   6.69000006      -4.47255774E-11
   6.75000000      -5.69621433E-11
   6.80999994      -6.42577727E-11
   6.86999989      -6.39424347E-11
   6.92999983      -5.29766300E-11
   6.98999977      -2.87056004E-11
   7.05000019       9.89044870E-12
   7.11000013       6.08245745E-11
   7.17000008       1.18173235E-10
   7.23000002       1.72129186E-10
   7.28999996       2.10313891E-10
   7.34999990       2.20195570E-10
   7.40999985       1.92022925E-10
   7.46999979       1.21427493E-10
   7.53000021       1.08982389E-11
   7.59000015      -1.30303199E-10
   7.65000010      -2.87671609E-10
   7.71000004      -4.43812820E-10
   7.76999998      -5.80765436E-10
   7.82999992      -6.81571466E-10
   7.88999987      -7.30843386E-10
   7.94999981      -7.14656445E-10
   8.01000023      -6.20512752E-10
   8.06999969      -4.38158176E-10
   8.13000011      -1.61627836E-10
   8.18999958       2.07787718E-10
   8.25000000       6.58633370E-10
   8.31000042       1.16774002E-09
   8.36999989       1.70112990E-09
   8.43000031       2.21775864E-09
   8.48999977       2.67550804E-09
   8.55000019       3.03802405E-09
   8.60999966       3.28062888E-09
   8.67000008       3.39383321E-09
   8.72999954       3.38377748E-09
   8.78999996       3.26995342E-09
   8.85000038       3.08134052E-09
   8.90999985       2.85235369E-09
   8.97000027       2.61962452E-09
   9.02999973       2.41987008E-09
   9.09000015       2.28829466E-09
   9.14999962       2.25657626E-09
   9.21000004       2.34969488E-09
   9.27000046       2.58162292E-09
   9.32999992       2.95084956E-09
   9.39000034       3.43737838E-09
   9.44999981       4.00285094E-09
   9.51000023       4.59468286E-09
   9.56999969       5.15380583E-09
   9.63000011       5.62431390E-09
   9.68999958       5.96249361E-09
   9.75000000       6.14281248E-09
   9.81000042       6.15939566E-09
   9.86999989       6.02300254E-09
   9.93000031       5.75497028E-09
   9.98999977       5.38041789E-09
   10.0500002       4.92294117E-09
   10.1099997       4.40211911E-09
   10.1700001       3.83377285E-09
   10.2299995       3.23175930E-09
   10.2900000       2.60952038E-09
   10.3500004       1.97998418E-09
   10.4099998       1.35347222E-09
   10.4700003       7.34542926E-10
   10.5299997       1.19574420E-10
   10.5900002      -5.03087183E-10
   10.6499996      -1.14948762E-09
   10.7100000      -1.83349713E-09
   10.7700005      -2.55931076E-09
   10.8299999      -3.31575190E-09
   10.8900003      -4.07476719E-09
   10.9499998      -4.79514295E-09
   11.0100002      -5.43061818E-09
   11.0699997      -5.93993299E-09
   11.1300001      -6.29563335E-09
   11.1899996      -6.48891341E-09
   11.2500000      -6.52927534E-09
   11.3100004      -6.43966303E-09
   11.3699999      -6.24927132E-09
   11.4300003      -5.98678174E-09
   11.4899998      -5.67620084E-09
   11.5500002      -5.33605071E-09
   11.6099997      -4.98105868E-09
   11.6700001      -4.62444572E-09
   11.7299995      -4.27885505E-09
   11.7900000      -3.95490751E-09
   11.8500004      -3.65783448E-09
   11.9099998      -3.38392536E-09
   11.9700003      -3.11897375E-09
   12.0299997      -2.84031509E-09
   12.0900002      -2.52256638E-09
   12.1499996      -2.14549001E-09
   12.2100000      -1.70121495E-09
   12.2700005      -1.19791688E-09
   12.3299999      -6.58119226E-10
   12.3900003      -1.11659591E-10
   12.4499998       4.14610984E-10
   12.5100002       9.06949238E-10
   12.5699997       1.37105272E-09
   12.6300001       1.83215332E-09
   12.6899996       2.32853758E-09
   12.7500000       2.90046098E-09
   12.8100004       3.57804963E-09
   12.8699999       4.37209247E-09
   12.9300003       5.27049648E-09
   12.9899998       6.24103969E-09
   13.0500002       7.23885574E-09
   13.1099997       8.21561130E-09
   13.1700001       9.12731579E-09
   13.2299995       9.93888083E-09
   13.2900000       1.06254099E-08
   13.3500004       1.11717071E-08
   13.4099998       1.15719256E-08
   13.4700003       1.18305357E-08
   13.5299997       1.19642376E-08
   13.5900002       1.20030830E-08
   13.6499996       1.19886794E-08
   13.7100000       1.19682522E-08
   13.7700005       1.19851720E-08
   13.8299999       1.20685577E-08
   13.8900003       1.22255734E-08
   13.9499998       1.24396609E-08
   14.0100002       1.26760016E-08
   14.0699997       1.28929400E-08
   14.1300001       1.30557005E-08
   14.1899996       1.31477425E-08
   14.2500000       1.31757227E-08
   14.3100004       1.31662947E-08
   14.3699999       1.31558568E-08
   14.4300003       1.31769200E-08
   14.4899998       1.32458817E-08
   14.5500002       1.33564386E-08
   14.6099997       1.34807152E-08
   14.6700001       1.35773783E-08
   14.7299995       1.36036133E-08
   14.7900000       1.35267531E-08
   14.8500004       1.33318538E-08
   14.9099998       1.30233690E-08
   14.9700003       1.26213964E-08
   15.0299997       1.21547208E-08
   15.0900002       1.16536336E-08
   15.1499996       1.11448291E-08
   15.2100000       1.06492877E-08
   15.2700005       1.01825934E-08
   15.3299999       9.75621450E-09
   15.3900003       9.37830436E-09
   15.4499998       9.05330744E-09
   15.5100002       8.78062423E-09
   15.5699997       8.55330207E-09
   15.6300001       8.35777669E-09
   15.6899996       8.17526136E-09
   15.7500000       7.98458366E-09
   15.8100004       7.76563702E-09
   15.8699999       7.50229212E-09
   15.9300003       7.18380644E-09
   15.9899998       6.80436107E-09
   16.0499992       6.36107655E-09
   16.1100006       5.85149484E-09
   16.1700001       5.27177280E-09
   16.2299995       4.61662353E-09
   16.2900009       3.88139298E-09
   16.3500004       3.06579517E-09
   16.4099998       2.17807550E-09
   16.4699993       1.23805144E-09
   16.5300007       2.77702583E-10
   16.5900002      -6.61287525E-10
   16.6499996      -1.53272706E-09
   16.7099991      -2.29277597E-09
   16.7700005      -2.90703506E-09
   16.8299999      -3.35649575E-09
   16.8899994      -3.64135455E-09
   16.9500008      -3.78212350E-09
   17.0100002      -3.81784870E-09
   17.0699997      -3.80154308E-09
   17.1299992      -3.79323328E-09
   17.1900005      -3.85142407E-09
   17.2500000      -4.02421696E-09
   17.3099995      -4.34165059E-09
   17.3700008      -4.81081175E-09
   17.4300003      -5.41476197E-09
   17.4899998      -6.11541884E-09
   17.5499992      -6.85947299E-09
   17.6100006      -7.58562990E-09
   17.6700001      -8.23129298E-09
   17.7299995      -8.73733441E-09
   17.7900009      -9.05066067E-09
   17.8500004      -9.12531473E-09
   17.9099998      -8.92349128E-09
   17.9699993      -8.41764969E-09
   18.0300007      -7.59402585E-09
   18.0900002      -6.45669518E-09
   18.1499996      -5.03043340E-09
   18.2099991      -3.36053119E-09
   18.2700005      -1.50846402E-09
   18.3299999       4.56292892E-10
   18.3899994       2.46663845E-09
   18.4500008       4.46784743E-09
   18.5100002       6.42465903E-09
   18.5699997       8.32374702E-09
   18.6299992       1.01712549E-08
   18.6900005       1.19864403E-08
   18.7500000       1.37933620E-08
   18.8099995       1.56127538E-08
   18.8700008       1.74557684E-08
   18.9300003       1.93203000E-08
   18.9899998       2.11897664E-08
   19.0499992       2.30335999E-08
   19.1100006       2.48086280E-08
   19.1700001       2.64609437E-08
   19.2299995       2.79283903E-08
   19.2900009       2.91442248E-08
   19.3500004       3.00424610E-08
   19.4099998       3.05648875E-08
   19.4699993       3.06689891E-08
   19.5300007       3.03352188E-08
   19.5900002       2.95717548E-08
   19.6499996       2.84150516E-08
   19.7099991       2.69256191E-08
   19.7700005       2.51794834E-08
   19.8299999       2.32573338E-08
   19.8899994       2.12340492E-08
   19.9500008       1.91713525E-08
   20.0100002       1.71153740E-08
   20.0699997       1.50992889E-08
   20.1299992       1.31494664E-08
   20.1900005       1.12924035E-08
   20.2500000       9.55963486E-09
   20.3099995       7.98876698E-09
   20.3700008       6.62048816E-09
   20.4300003       5.49288925E-09
   20.4899998       4.63524286E-09
   20.5499992       4.06309919E-09
   20.6100006       3.77553633E-09
   20.6700001       3.75428444E-09
   20.7299995       3.96383326E-09
   20.7900009       4.35185932E-09
   20.8500004       4.85009544E-09
   20.9099998       5.37658407E-09
   20.9699993       5.84051740E-09
   21.0300007       6.15025941E-09
   21.0900002       6.22395380E-09
   21.1499996       6.00079320E-09
   21.2099991       5.45024026E-09
   21.2700005       4.57659821E-09
   21.3299999       3.41730777E-09
   21.3899994       2.03491735E-09
   21.4500008       5.04294717E-10
   21.5100002      -1.10214604E-09
   21.5699997      -2.72788014E-09
   21.6299992      -4.34130687E-09
   21.6900005      -5.93828053E-09
   21.7500000      -7.53755902E-09
   21.8099995      -9.17033915E-09
   21.8700008      -1.08666258E-08
   21.9300003      -1.26421194E-08
   21.9899998      -1.44891672E-08
   22.0499992      -1.63741039E-08
   22.1100006      -1.82412556E-08
   22.1700001      -2.00218544E-08
   22.2299995      -2.16447429E-08
   22.2900009      -2.30457964E-08
   22.3500004      -2.41742093E-08
   22.4099998      -2.49955239E-08
   22.4699993      -2.54926871E-08
   22.5300007      -2.56667274E-08
   22.5900002      -2.55377977E-08
   22.6499996      -2.51459316E-08
   22.7099991      -2.45499177E-08
   22.7700005      -2.38227909E-08
   22.8299999      -2.30436150E-08
   22.8899994      -2.22869669E-08
   22.9500008      -2.16127347E-08
   23.0100002      -2.10590354E-08
   23.0699997      -2.06400017E-08
   23.1299992      -2.03484607E-08
   23.1900005      -2.01620267E-08
   23.2500000      -2.00502797E-08
   23.3099995      -1.99810000E-08
   23.3700008      -1.99242702E-08
   23.4300003      -1.98543013E-08
   23.4899998      -1.97496330E-08
   23.5499992      -1.95926315E-08
   23.6100006      -1.93690433E-08
   23.6700001      -1.90681178E-08
   23.7299995      -1.86833500E-08
   23.7900009      -1.82136670E-08
   23.8500004      -1.76646022E-08
   23.9099998      -1.70488477E-08
   23.9699993      -1.63855987E-08
   24.0300007      -1.56983688E-08
   24.0900002      -1.50113308E-08
   24.1499996      -1.43450025E-08
   24.2099991      -1.37124729E-08
   24.2700005      -1.31176936E-08
   24.3299999      -1.25568818E-08
   24.3899994      -1.20231398E-08
   24.4500008      -1.15129941E-08
   24.5100002      -1.10324310E-08
   24.5699997      -1.05995053E-08
   24.6299992      -1.02414175E-08
   24.6900005      -9.98584326E-09
   24.7500000      -9.84881243E-09
   24.8099995      -9.82335280E-09
   24.8700008      -9.87352511E-09
   24.9300003      -9.93678029E-09
   24.9899998      -9.93442484E-09
   25.0499992      -9.78662129E-09
   25.1100006      -9.42649425E-09
   25.1700001      -8.80845263E-09
   25.2299995      -7.90872967E-09
   25.2900009      -6.71979983E-09
   25.3500004      -5.24298427E-09
   25.4099998      -3.48378837E-09
   25.4699993      -1.45231760E-09
   25.5300007       8.32209857E-10
   25.5900002       3.33641226E-09
   25.6499996       6.01110406E-09
   25.7099991       8.79513795E-09
   25.7700005       1.16238130E-08
   25.8299999       1.44385330E-08
   25.8899994       1.71938801E-08
   25.9500008       1.98596819E-08
   26.0100002       2.24181527E-08
   26.0699997       2.48582808E-08
   26.1299992       2.71704490E-08
   26.1900005       2.93435622E-08
   26.2500000       3.13654027E-08
   26.3099995       3.32254508E-08
   26.3700008       3.49183686E-08
   26.4300003       3.64464654E-08
   26.4899998       3.78197598E-08
   26.5499992       3.90532833E-08
   26.6100006       4.01621421E-08
   26.6700001       4.11557473E-08
   26.7299995       4.20332498E-08
   26.7900009       4.27822044E-08
   26.8500004       4.33817284E-08
   26.9099998       4.38098446E-08
   26.9699993       4.40530208E-08
   27.0300007       4.41145396E-08
   27.0900002       4.40183143E-08
   27.1499996       4.38060752E-08
   27.2099991       4.35282566E-08
   27.2700005       4.32314451E-08
   27.3299999       4.29468230E-08
   27.3899994       4.26837801E-08
   27.4500008       4.24309903E-08
   27.5100002       4.21641637E-08
   27.5699997       4.18569606E-08
   27.6299992       4.14901038E-08
   27.6900005       4.10546761E-08
   27.7500000       4.05484322E-08
   27.8099995       3.99676132E-08
   27.8700008       3.92993336E-08
   27.9300003       3.85198788E-08
   27.9899998       3.76016907E-08
   28.0499992       3.65271120E-08
   28.1100006       3.53031915E-08
   28.1700001       3.39698580E-08
   28.2299995       3.25961871E-08
   28.2900009       3.12643458E-08
   28.3500004       3.00467313E-08
   28.4099998       2.89852711E-08
   28.4699993       2.80815176E-08
   28.5300007       2.73016045E-08
   28.5900002       2.65939164E-08
   28.6499996       2.59119677E-08
   28.7099991       2.52333656E-08
   28.7700005       2.45678162E-08
   28.8299999       2.39521594E-08
   28.8899994       2.34354225E-08
   28.9500008       2.30601458E-08
   29.0100002       2.28466508E-08
   29.0699997       2.27849917E-08
   29.1299992       2.28365113E-08
   29.1900005       2.29441266E-08
   29.2500000       2.30483721E-08
   29.3099995       2.31049686E-08
   29.3700008       2.30990462E-08
   29.4300003       2.30516779E-08
   29.4899998       2.30160140E-08
   29.5499992       2.30635671E-08
   29.6100006       2.32645281E-08
   29.6700001       2.36687683E-08
   29.7299995       2.42941063E-08
   29.7900009       2.51257379E-08
   29.8500004       2.61260524E-08
   29.9099998       2.72495946E-08
   29.9699993       2.84558777E-08
   30.0300007       2.97142648E-08
   30.0900002       3.09993773E-08
   30.1499996       3.22805427E-08
   30.2099991       3.35119523E-08
   30.2700005       3.46301654E-08
   30.3299999       3.55621097E-08
   30.3899994       3.62416941E-08
   30.4500008       3.66288901E-08
   30.5100002       3.67234740E-08
   30.5699997       3.65675952E-08
   30.6299992       3.62357220E-08
   30.6900005       3.58153791E-08
   30.7500000       3.53857068E-08
   30.8099995       3.50012357E-08
   30.8700008       3.46857227E-08
   30.9300003       3.44367130E-08
   30.9899998       3.42371607E-08
   31.0499992       3.40684032E-08
   31.1100006       3.39191040E-08
   31.1700001       3.37874866E-08
   31.2299995       3.36774910E-08
   31.2900009       3.35920305E-08
   31.3500004       3.35270443E-08
   31.4099998       3.34687620E-08
   31.4699993       3.33946595E-08
   31.5300007       3.32767911E-08
   31.5900002       3.30855521E-08
   31.6499996       3.27925136E-08
   31.7099991       3.23718545E-08
   31.7700005       3.18008802E-08
   31.8299999       3.10602424E-08
   31.8899994       3.01344549E-08
   31.9500008       2.90129005E-08
   32.0099983       2.76913568E-08
   32.0699997       2.61737529E-08
   32.1300011       2.44736800E-08
   32.1899986       2.26146053E-08
   32.2500000       2.06277448E-08
   32.3100014       1.85469666E-08
   32.3699989       1.64013993E-08
   32.4300003       1.42081102E-08
   32.4900017       1.19680390E-08
   32.5499992       9.66788605E-09
   32.6100006       7.28827709E-09
   32.6699982       4.81555995E-09
   32.7299995       2.25232100E-09
   32.7900009      -3.78252207E-10
   32.8499985      -3.03646130E-09
   32.9099998      -5.67690073E-09
   32.9700012      -8.26074231E-09
   33.0299988      -1.07632889E-08
   33.0900002      -1.31727242E-08
   33.1500015      -1.54803708E-08
   33.2099991      -1.76672259E-08
   33.2700005      -1.96938004E-08
   33.3300018      -2.14992166E-08
   33.3899994      -2.30114541E-08
   33.4500008      -2.41657361E-08
   33.5099983      -2.49240895E-08
   33.5699997      -2.52884931E-08
   33.6300011      -2.53023025E-08
   33.6899986      -2.50393501E-08
   33.7500000      -2.45848248E-08
   33.8100014      -2.40149838E-08
   33.8699989      -2.33828477E-08
   33.9300003      -2.27142891E-08
   33.9900017      -2.20146710E-08
   34.0499992      -2.12821867E-08
   34.1100006      -2.05218473E-08
   34.1699982      -1.97543368E-08
   34.2299995      -1.90164933E-08
   34.2900009      -1.83536937E-08
   34.3499985      -1.78074959E-08
   34.4099998      -1.74034103E-08
   34.4700012      -1.71431704E-08
   34.5299988      -1.70039591E-08
   34.5900002      -1.69443624E-08
   34.6500015      -1.69147611E-08
   34.7099991      -1.68686327E-08
   34.7700005      -1.67714180E-08
   34.8300018      -1.66046306E-08
   34.8899994      -1.63645861E-08
   34.9500008      -1.60569034E-08
   35.0099983      -1.56892348E-08
   35.0699997      -1.52651989E-08
   35.1300011      -1.47819286E-08
   35.1899986      -1.42320653E-08
   35.2500000      -1.36090152E-08
   35.3100014      -1.29127464E-08
   35.3699989      -1.21530279E-08
   35.4300003      -1.13482352E-08
   35.4900017      -1.05200026E-08
   35.5499992      -9.68618163E-09
   35.6100006      -8.85542217E-09
   35.6699982      -8.02587508E-09
   35.7299995      -7.18835391E-09
   35.7900009      -6.33208064E-09
   35.8499985      -5.45008927E-09
   35.9099998      -4.54199034E-09
   35.9700012      -3.61363961E-09
   36.0299988      -2.67505351E-09
   36.0900002      -1.73856429E-09
   36.1500015      -8.18374757E-10
   36.2099991       6.90070501E-11
   36.2700005       9.05184150E-10
   36.3300018       1.67275616E-09
   36.3899994       2.36073605E-09
   36.4500008       2.97058245E-09
   36.5099983       3.51973339E-09
   36.5699997       4.04008516E-09
   36.6300011       4.57095206E-09
   36.6899986       5.14866993E-09
   36.7500000       5.79675863E-09
   36.8100014       6.52052590E-09
   36.8699989       7.30814387E-09
   36.9300003       8.13751111E-09
   36.9900017       8.98591779E-09
   37.0499992       9.83866055E-09
   37.1100006       1.06935838E-08
   37.1699982       1.15605232E-08
   37.2299995       1.24567237E-08
   37.2900009       1.34005997E-08
   37.3499985       1.44061438E-08
   37.4099998       1.54792872E-08
   37.4700012       1.66161893E-08
   37.5299988       1.78027051E-08
   37.5900002       1.90144362E-08
   37.6500015       2.02175627E-08
   37.7099991       2.13714451E-08
   37.7700005       2.24336691E-08
   37.8300018       2.33672370E-08
   37.8899994       2.41479050E-08
   37.9500008       2.47688643E-08
   38.0099983       2.52404675E-08
   38.0699997       2.55846313E-08
   38.1300011       2.58260133E-08
   38.1899986       2.59834110E-08
   38.2500000       2.60645976E-08
   38.3100014       2.60658162E-08
   38.3699989       2.59748312E-08
   38.4300003       2.57750781E-08
   38.4900017       2.54488732E-08
   38.5499992       2.49792489E-08
   38.6100006       2.43515732E-08
   38.6699982       2.35563871E-08
   38.7299995       2.25936994E-08
   38.7900009       2.14771116E-08
   38.8499985       2.02351575E-08
   38.9099998       1.89081444E-08
   38.9700012       1.75409962E-08
   39.0299988       1.61750489E-08
   39.0900002       1.48425734E-08
   39.1500015       1.35665292E-08
   39.2099991       1.23651720E-08
   39.2700005       1.12585345E-08
   39.3300018       1.02727764E-08
   39.3899994       9.43968637E-09
   39.4500008       8.79121309E-09
   39.5099983       8.35143332E-09
   39.5699997       8.12937184E-09
   39.6300011       8.11541945E-09
   39.6899986       8.28228952E-09
   39.7500000       8.58969251E-09
   39.8100014       8.99096264E-09
   39.8699989       9.43977874E-09
   39.9300003       9.89558835E-09
   39.9900017       1.03267492E-08
   40.0499992       1.07107763E-08
   40.1100006       1.10315446E-08
   40.1699982       1.12741967E-08
   40.2299995       1.14196821E-08
   40.2900009       1.14415917E-08
   40.3499985       1.13077494E-08
   40.4099998       1.09872440E-08
   40.4700012       1.04610445E-08
   40.5299988       9.73190062E-09
   40.5900002       8.82855744E-09
   40.6500015       7.80089859E-09
   40.7099991       6.70625999E-09
   40.7700005       5.59128344E-09
   40.8300018       4.47630022E-09
   40.8899994       3.34900974E-09
   40.9500008       2.17079621E-09
   41.0099983       8.93821961E-10
   41.0699997      -5.17725196E-10
   41.1300011      -2.07087769E-09
   41.1899986      -3.73850817E-09
   41.2500000      -5.46730439E-09
   41.3100014      -7.19525772E-09
   41.3699989      -8.87073526E-09
   41.4300003      -1.04648450E-08
   41.4900017      -1.19722605E-08
   41.5499992      -1.34012534E-08
   41.6100006      -1.47586672E-08
   41.6699982      -1.60376672E-08
   41.7299995      -1.72142141E-08
   41.7900009      -1.82538198E-08
   41.8499985      -1.91251281E-08
   41.9099998      -1.98141095E-08
   41.9700012      -2.03328359E-08
   42.0299988      -2.07199733E-08
   42.0900002      -2.10338165E-08
   42.1500015      -2.13415454E-08
   42.2099991      -2.17088036E-08
   42.2700005      -2.21921272E-08
   42.3300018      -2.28346781E-08
   42.3899994      -2.36641640E-08
   42.4500008      -2.46918397E-08
   42.5099983      -2.59124668E-08
   42.5699997      -2.73060525E-08
   42.6300011      -2.88421660E-08
   42.6899986      -3.04865218E-08
   42.7500000      -3.22080389E-08
   42.8100014      -3.39838238E-08
   42.8699989      -3.58000882E-08
   42.9300003      -3.76489950E-08
   42.9900017      -3.95232327E-08
   43.0499992      -4.14114254E-08
   43.1100006      -4.32967049E-08
   43.1699982      -4.51590410E-08
   43.2299995      -4.69798209E-08
   43.2900009      -4.87461662E-08
   43.3499985      -5.04528721E-08
   43.4099998      -5.21015657E-08
   43.4700012      -5.36983968E-08
   43.5299988      -5.52522259E-08
   43.5900002      -5.67744678E-08
   43.6500015      -5.82801931E-08
   43.7099991      -5.97883840E-08
   43.7700005      -6.13191986E-08
   43.8300018      -6.28875085E-08
   43.8899994      -6.44943441E-08
   43.9500008      -6.61196609E-08
   44.0099983      -6.77206771E-08
   44.0699997      -6.92374087E-08
   44.1300011      -7.06046848E-08
   44.1899986      -7.17664292E-08
   44.2500000      -7.26872003E-08
   44.3100014      -7.33570218E-08
   44.3699989      -7.37884278E-08
   44.4300003      -7.40081276E-08
   44.4900017      -7.40474775E-08
   44.5499992      -7.39355244E-08
   44.6100006      -7.36966612E-08
   44.6699982      -7.33516785E-08
   44.7299995      -7.29196756E-08
   44.7900009      -7.24181177E-08
   44.8499985      -7.18601143E-08
   44.9099998      -7.12501631E-08
   44.9700012      -7.05811658E-08
   45.0299988      -6.98354725E-08
   45.0900002      -6.89909427E-08
   45.1500015      -6.80303600E-08
   45.2099991      -6.69509390E-08
   45.2700005      -6.57697967E-08
   45.3300018      -6.45230642E-08
   45.3899994      -6.32585326E-08
   45.4500008      -6.20246823E-08
   45.5099983      -6.08602591E-08
   45.5699997      -5.97882774E-08
   45.6300011      -5.88162372E-08
   45.6899986      -5.79414774E-08
   45.7500000      -5.71585943E-08
   45.8100014      -5.64649945E-08
   45.8699989      -5.58619959E-08
   45.9300003      -5.53512258E-08
   45.9900017      -5.49285097E-08
   46.0499992      -5.45787557E-08
   46.1100006      -5.42750058E-08
   46.1699982      -5.39828839E-08
   46.2299995      -5.36691616E-08
   46.2900009      -5.33111155E-08
   46.3499985      -5.29027169E-08
   46.4099998      -5.24546273E-08
   46.4700012      -5.19875165E-08
   46.5299988      -5.15213685E-08
   46.5900002      -5.10651859E-08
   46.6500015      -5.06121722E-08
   46.7099991      -5.01431288E-08
   46.7700005      -4.96371904E-08
   46.8300018      -4.90852372E-08
   46.8899994      -4.84992597E-08
   46.9500008      -4.79124758E-08
   47.0099983      -4.73688964E-08
   47.0699997      -4.69065142E-08
   47.1300011      -4.65418140E-08
   47.1899986      -4.62632066E-08
   47.2500000      -4.60367637E-08
   47.3100014      -4.58216434E-08
   47.3699989      -4.55876226E-08
   47.4300003      -4.53262388E-08
   47.4900017      -4.50505553E-08
   47.5499992      -4.47846666E-08
   47.6100006      -4.45492567E-08
   47.6699982      -4.43510118E-08
   47.7299995      -4.41808403E-08
   47.7900009      -4.40204708E-08
   47.8499985      -4.38524879E-08
   47.9099998      -4.36674732E-08
   47.9700012      -4.34646097E-08
   48.0299988      -4.32465086E-08
   48.0900002      -4.30126619E-08
   48.1500015      -4.27561346E-08
   48.2099991      -4.24655653E-08
   48.2700005      -4.21307114E-08
   48.3300018      -4.17474268E-08
   48.3899994      -4.13186072E-08
   48.4500008      -4.08506686E-08
   48.5099983      -4.03482296E-08
   48.5699997      -3.98109350E-08
   48.6300011      -3.92344219E-08
   48.6899986      -3.86142816E-08
   48.7500000      -3.79492882E-08
   48.8100014      -3.72403939E-08
   48.8699989      -3.64850159E-08
   48.9300003      -3.56698706E-08
   48.9900017      -3.47674778E-08
   49.0499992      -3.37398340E-08
   49.1100006      -3.25484173E-08
   49.1699982      -3.11649622E-08
   49.2299995      -2.95758404E-08
   49.2900009      -2.77753784E-08
   49.3499985      -2.57490882E-08
   49.4099998      -2.34534312E-08
   49.4700012      -2.08010817E-08
   49.5299988      -1.76582642E-08
   49.5900002      -1.38546765E-08
   49.6500015      -9.20011889E-09
   49.7099991      -3.49842910E-09
   49.7700005       3.44942053E-09
   49.8300018       1.18560513E-08
   49.8899994       2.19688570E-08
   49.9500008       3.40939899E-08
   50.0099983       4.86153269E-08
   50.0699997       6.60046950E-08
   50.1300011       8.68252812E-08
   50.1899986       1.11734941E-07
   50.2500000       1.41496841E-07
   50.3100014       1.77001439E-07
   50.3699989       2.19298371E-07
   50.4300003       2.69631272E-07
   50.4900017       3.29468236E-07
   50.5499992       4.00523788E-07
   50.6100006       4.84774944E-07