 -0.750000000       0.00000000    
 -0.689999998       0.00000000    
 -0.629999995       0.00000000    
 -0.569999993       0.00000000    
 -0.509999990       0.00000000    
 -0.449999988       6.06223804E-20
 -0.389999986       4.19178247E-19
 -0.330000013       1.14409780E-18
 -0.270000011       3.29822553E-19
 -0.209999993      -8.66444726E-18
 -0.150000006      -3.56594088E-17
  -9.00000036E-02  -7.86724731E-17
  -2.99999993E-02  -9.41800383E-17
   2.99999993E-02   2.26569385E-17
   9.00000036E-02   3.94396646E-16
  0.150000006       1.01205339E-15
  0.209999993       1.52677953E-15
  0.270000011       1.17054575E-15
  0.330000013      -9.33695217E-16
  0.389999986      -4.96867536E-15
  0.449999988      -9.45415316E-15
  0.509999990      -1.09302902E-14
  0.569999993      -5.20281602E-15
  0.629999995       9.65166769E-15
  0.689999998       2.97652155E-14
  0.750000000       4.40667434E-14
  0.810000002       3.76678398E-14
  0.870000005       6.07190380E-16
  0.930000007      -6.13730936E-14
  0.990000010      -1.20912313E-13
   1.04999995      -1.35207790E-13
   1.11000001      -6.67118203E-14
   1.16999996       8.82125658E-14
   1.23000002       2.78059558E-13
   1.28999996       4.00275570E-13
   1.35000002       3.40358763E-13
   1.40999997       3.74996190E-14
   1.47000003      -4.52213869E-13
   1.52999997      -9.34933446E-13
   1.59000003      -1.13126045E-12
   1.64999998      -8.00809560E-13
   1.71000004       1.04823607E-13
   1.76999998       1.33828311E-12
   1.83000004       2.38004625E-12
   1.88999999       2.62277223E-12
   1.95000005       1.66957886E-12
   2.00999999      -3.81825837E-13
   2.06999993      -2.83252436E-12
   2.13000011      -4.56997981E-12
   2.19000006      -4.53800062E-12
   2.25000000      -2.31509083E-12
   2.30999994       1.48529463E-12
   2.36999989       5.26231229E-12
   2.43000007       7.01924933E-12
   2.49000001       5.32084056E-12
   2.54999995       1.92770821E-13
   2.60999990      -6.53081669E-12
   2.67000008      -1.17207381E-11
   2.73000002      -1.22419019E-11
   2.78999996      -6.50546717E-12
   2.84999990       4.45994240E-12
   2.91000009       1.70350765E-11
   2.97000003       2.62774056E-11
   3.02999997       2.79541616E-11
   3.08999991       2.04208386E-11
   3.15000010       5.41318813E-12
   3.21000004      -1.27002072E-11
   3.26999998      -2.88935421E-11
   3.32999992      -3.97083512E-11
   3.39000010      -4.45446006E-11
   3.45000005      -4.52490927E-11
   3.50999999      -4.40983257E-11
   3.56999993      -4.11765136E-11
   3.63000011      -3.26234838E-11
   3.69000006      -1.09939982E-11
   3.75000000       3.19102349E-11
   3.80999994       1.00518961E-10
   3.86999989       1.90948993E-10
   3.93000007       2.88309737E-10
   3.99000001       3.67146036E-10
   4.05000019       3.95172756E-10
   4.11000013       3.39254430E-10
   4.17000008       1.71813896E-10
   4.23000002      -1.24184246E-10
   4.28999996      -5.52854318E-10
   4.34999990      -1.10572229E-09
   4.40999985      -1.76387593E-09
   4.46999979      -2.50052046E-09
   4.53000021      -3.28269278E-09
   4.59000015      -4.07164169E-09
   4.65000010      -4.82235896E-09
   4.71000004      -5.48353540E-09
   4.76999998      -5.99936234E-09
   4.82999992      -6.31407637E-09
   4.88999987      -6.37901643E-09
   4.94999981      -6.16076390E-09
   5.01000023      -5.64810820E-09
   5.07000017      -4.85560392E-09
   5.13000011      -3.82235488E-09
   5.19000006      -2.60616839E-09
   5.25000000      -1.27473987E-09
   5.30999994       1.03554824E-10
   5.36999989       1.46675749E-09
   5.42999983       2.76289036E-09
   5.48999977       3.95017929E-09
   5.55000019       4.99558972E-09
   5.61000013       5.87392401E-09
   5.67000008       6.56922072E-09
   5.73000002       7.07865944E-09
   5.78999996       7.41743422E-09
   5.84999990       7.62187824E-09
   5.90999985       7.74816655E-09
   5.96999979       7.86538301E-09
   6.03000021       8.04397882E-09
   6.09000015       8.34280467E-09
   6.15000010       8.79888251E-09
   6.21000004       9.42343270E-09
   6.26999998       1.02054099E-08
   6.32999992       1.11210454E-08
   6.38999987       1.21455637E-08
   6.44999981       1.32625999E-08
   6.51000023       1.44680143E-08
   6.57000017       1.57673199E-08
   6.63000011       1.71686700E-08
   6.69000006       1.86750704E-08
   6.75000000       2.02794368E-08
   6.80999994       2.19644658E-08
   6.86999989       2.37068498E-08
   6.92999983       2.54833363E-08
   6.98999977       2.72753997E-08
   7.05000019       2.90702786E-08
   7.11000013       3.08580752E-08
   7.17000008       3.26268044E-08
   7.23000002       3.43583650E-08
   7.28999996       3.60282257E-08
   7.34999990       3.76097731E-08
   7.40999985       3.90822450E-08
   7.46999979       4.04391933E-08
   7.53000021       4.16940829E-08
   7.59000015       4.28805116E-08
   7.65000010       4.40466188E-08
   7.71000004       4.52455708E-08
   7.76999998       4.65252761E-08
   7.82999992       4.79207429E-08
   7.88999987       4.94509678E-08
   7.94999981       5.11203346E-08
   8.01000023       5.29227933E-08
   8.06999969       5.48459980E-08
   8.13000011       5.68735459E-08
   8.18999958       5.89844760E-08
   8.25000000       6.11511339E-08
   8.31000042       6.33372466E-08
   8.36999989       6.54979360E-08
   8.43000031       6.75825476E-08
   8.48999977       6.95394675E-08
   8.55000019       7.13215087E-08
   8.60999966       7.28899110E-08
   8.67000008       7.42157837E-08
   8.72999954       7.52787344E-08
   8.78999996       7.60631949E-08
   8.85000038       7.65538530E-08
   8.90999985       7.67314958E-08
   8.97000027       7.65707426E-08
   9.02999973       7.60405285E-08
   9.09000015       7.51079270E-08
   9.14999962       7.37448858E-08
   9.21000004       7.19366682E-08
   9.27000046       6.96900102E-08
   9.32999992       6.70384992E-08
   9.39000034       6.40434266E-08
   9.44999981       6.07891977E-08
   9.51000023       5.73738461E-08
   9.56999969       5.38968123E-08
   9.63000011       5.04463706E-08
   9.68999958       4.70895145E-08
   9.75000000       4.38661480E-08
   9.81000042       4.07884748E-08
   9.86999989       3.78452754E-08
   9.93000031       3.50097942E-08
   9.98999977       3.22492717E-08
   10.0500002       2.95338811E-08
   10.1099997       2.68432672E-08
   10.1700001       2.41697879E-08
   10.2299995       2.15185914E-08
   10.2900000       1.89056291E-08
   10.3500004       1.63549121E-08
   10.4099998       1.38958454E-08
   10.4700003       1.15606369E-08
   10.5299997       9.38111455E-09
   10.5900002       7.38447437E-09
   10.6499996       5.58830626E-09
   10.7100000       3.99641431E-09
   10.7700005       2.59743027E-09
   10.8299999       1.36762190E-09
   10.8900003       2.77657286E-10
   10.9499998      -6.98763547E-10
   11.0100002      -1.57754154E-09
   11.0699997      -2.36082087E-09
   11.1300001      -3.03869774E-09
   11.1899996      -3.59495900E-09
   11.2500000      -4.01436351E-09
   11.3100004      -4.28880220E-09
   11.3699999      -4.42068249E-09
   11.4300003      -4.42331638E-09
   11.4899998      -4.31917657E-09
   11.5500002      -4.13715995E-09
   11.6099997      -3.90966415E-09
   11.6700001      -3.66976805E-09
   11.7299995      -3.44862117E-09
   11.7900000      -3.27324723E-09
   11.8500004      -3.16513660E-09
   11.9099998      -3.13985771E-09
   11.9700003      -3.20745697E-09
   12.0299997      -3.37292327E-09
   12.0900002      -3.63596331E-09
   12.1499996      -3.98989775E-09
   12.2100000      -4.42045778E-09
   12.2700005      -4.90592678E-09
   12.3299999      -5.41989698E-09
   12.3900003      -5.93678884E-09
   12.4499998      -6.43869225E-09
   12.5100002      -6.92096291E-09
   12.5699997      -7.39409201E-09
   12.6300001      -7.88074228E-09
   12.6899996      -8.40895087E-09
   12.7500000      -9.00415387E-09
   12.8100004      -9.68312985E-09
   12.8699999      -1.04517861E-08
   12.9300003      -1.13067617E-08
   12.9899998      -1.22389610E-08
   13.0500002      -1.32366162E-08
   13.1099997      -1.42862824E-08
   13.1700001      -1.53719899E-08
   13.2299995      -1.64742300E-08
   13.2900000      -1.75707768E-08
   13.3500004      -1.86400850E-08
   13.4099998      -1.96661549E-08
   13.4700003      -2.06422470E-08
   13.5299997      -2.15709104E-08
   13.5900002      -2.24595382E-08
   13.6499996      -2.33131310E-08
   13.7100000      -2.41278428E-08
   13.7700005      -2.48888448E-08
   13.8299999      -2.55740176E-08
   13.8900003      -2.61619437E-08
   13.9499998      -2.66403131E-08
   14.0100002      -2.70104756E-08
   14.0699997      -2.72858873E-08
   14.1300001      -2.74854415E-08
   14.1899996      -2.76254255E-08
   14.2500000      -2.77145062E-08
   14.3100004      -2.77543446E-08
   14.3699999      -2.77451662E-08
   14.4300003      -2.76926713E-08
   14.4899998      -2.76116872E-08
   14.5500002      -2.75237397E-08
   14.6099997      -2.74490013E-08
   14.6700001      -2.73964744E-08
   14.7299995      -2.73575598E-08
   14.7900000      -2.73068128E-08
   14.8500004      -2.72102838E-08
   14.9099998      -2.70379399E-08
   14.9700003      -2.67746412E-08
   15.0299997      -2.64246491E-08
   15.0900002      -2.60077400E-08
   15.1499996      -2.55490260E-08
   15.2100000      -2.50674237E-08
   15.2700005      -2.45681928E-08
   15.3299999      -2.40427092E-08
   15.3900003      -2.34750051E-08
   15.4499998      -2.28513457E-08
   15.5100002      -2.21679670E-08
   15.5699997      -2.14333316E-08
   15.6300001      -2.06642472E-08
   15.6899996      -1.98782377E-08
   15.7500000      -1.90861194E-08
   15.8100004      -1.82882509E-08
   15.8699999      -1.74757240E-08
   15.9300003      -1.66352567E-08
   15.9899998      -1.57550879E-08
   16.0499992      -1.48293049E-08
   16.1100006      -1.38593794E-08
   16.1700001      -1.28533619E-08
   16.2299995      -1.18240902E-08
   16.2900009      -1.07875024E-08
   16.3500004      -9.76121850E-09
   16.4099998      -8.76283845E-09
   16.4699993      -7.80747911E-09
   16.5300007      -6.90498592E-09
   16.5900002      -6.05817618E-09
   16.6499996      -5.26357535E-09
   16.7099991      -4.51497728E-09
   16.7700005      -3.80834653E-09
   16.8299999      -3.14536286E-09
   16.8899994      -2.53321342E-09
   16.9500008      -1.98028416E-09
   17.0100002      -1.49006441E-09
   17.0699997      -1.05715048E-09
   17.1299992      -6.68464561E-10
   17.1900005      -3.09834741E-10
   17.2500000       2.54628141E-11
   17.3099995       3.31468020E-10
   17.3700008       5.91578841E-10
   17.4300003       7.87793553E-10
   17.4899998       9.12499798E-10
   17.5499992       9.75881487E-10
   17.6100006       1.00376440E-09
   17.6700001       1.02585285E-09
   17.7299995       1.06005760E-09
   17.7900009       1.10154241E-09
   17.8500004       1.12324616E-09
   17.9099998       1.08870857E-09
   17.9699993       9.71187353E-10
   18.0300007       7.69247721E-10
   18.0900002       5.10488540E-10
   18.1499996       2.41215214E-10
   18.2099991       7.30068263E-12
   18.2700005      -1.63905584E-10
   18.3299999      -2.71536987E-10
   18.3899994      -3.35628164E-10
   18.4500008      -3.81927212E-10
   18.5100002      -4.25956770E-10
   18.5699997      -4.65044558E-10
   18.6299992      -4.82116125E-10
   18.6900005      -4.58268395E-10
   18.7500000      -3.86357585E-10
   18.8099995      -2.77624229E-10
   18.8700008      -1.57639873E-10
   18.9300003      -5.40272133E-11
   18.9899998       1.70450980E-11
   19.0499992       5.81024014E-11
   19.1100006       8.75177986E-11
   19.1700001       1.28414807E-10
   19.2299995       1.95615787E-10
   19.2900009       2.87848911E-10
   19.3500004       3.89432930E-10
   19.4099998       4.80489870E-10
   19.4699993       5.50194001E-10
   19.5300007       6.05984263E-10
   19.5900002       6.73751832E-10
   19.6499996       7.88573595E-10
   19.7099991       9.80223569E-10
   19.7700005       1.26017219E-09
   19.8299999       1.61598324E-09
   19.8899994       2.01550954E-09
   19.9500008       2.41888243E-09
   20.0100002       2.79307311E-09
   20.0699997       3.12314374E-09
   20.1299992       3.41625772E-09
   20.1900005       3.69789777E-09
   20.2500000       4.00290157E-09
   20.3099995       4.36548753E-09
   20.3700008       4.81193574E-09
   20.4300003       5.35764100E-09
   20.4899998       6.00797767E-09
   20.5499992       6.76093093E-09
   20.6100006       7.60937358E-09
   20.6700001       8.54185966E-09
   20.7299995       9.54225232E-09
   20.7900009       1.05894475E-08
   20.8500004       1.16585417E-08
   20.9099998       1.27239792E-08
   20.9699993       1.37641543E-08
   21.0300007       1.47660932E-08
   21.0900002       1.57287232E-08
   21.1499996       1.66637335E-08
   21.2099991       1.75937398E-08
   21.2700005       1.85481870E-08
   21.3299999       1.95576373E-08
   21.3899994       2.06471817E-08
   21.4500008       2.18298286E-08
   21.5100002       2.31009203E-08
   21.5699997       2.44350264E-08
   21.6299992       2.57867701E-08
   21.6900005       2.70962541E-08
   21.7500000       2.82984089E-08
   21.8099995       2.93338367E-08
   21.8700008       3.01578567E-08
   21.9300003       3.07448396E-08
   21.9899998       3.10868522E-08
   22.0499992       3.11881543E-08
   22.1100006       3.10590451E-08
   22.1700001       3.07123464E-08
   22.2299995       3.01641627E-08
   22.2900009       2.94374729E-08
   22.3500004       2.85651289E-08
   22.4099998       2.75888805E-08
   22.4699993       2.65532663E-08
   22.5300007       2.54966555E-08
   22.5900002       2.44439473E-08
   22.6499996       2.34052653E-08
   22.7099991       2.23820127E-08
   22.7700005       2.13776516E-08
   22.8299999       2.04077146E-08
   22.8899994       1.95036183E-08
   22.9500008       1.87079614E-08
   23.0100002       1.80633943E-08
   23.0699997       1.76002928E-08
   23.1299992       1.73287695E-08
   23.1900005       1.72378076E-08
   23.2500000       1.73001755E-08
   23.3099995       1.74790387E-08
   23.3700008       1.77319190E-08
   23.4300003       1.80103310E-08
   23.4899998       1.82568325E-08
   23.5499992       1.84036004E-08
   23.6100006       1.83761610E-08
   23.6700001       1.81032238E-08
   23.7299995       1.75300698E-08
   23.7900009       1.66306702E-08
   23.8500004       1.54139848E-08
   23.9099998       1.39222154E-08
   23.9699993       1.22220074E-08
   24.0300007       1.03919362E-08
   24.0900002       8.51026449E-09
   24.1499996       6.64587274E-09
   24.2099991       4.85348117E-09
   24.2700005       3.17268478E-09
   24.3299999       1.62956648E-09
   24.3899994       2.39647746E-10
   24.4500008      -9.88671922E-10
   24.5100002      -2.05071138E-09
   24.5699997      -2.94251623E-09
   24.6299992      -3.65862785E-09
   24.6900005      -4.19087609E-09
   24.7500000      -4.52829507E-09
   24.8099995      -4.65805616E-09
   24.8700008      -4.56723903E-09
   24.9300003      -4.24524593E-09
   24.9899998      -3.68666875E-09
   25.0499992      -2.89428126E-09
   25.1100006      -1.88155602E-09
   25.1700001      -6.73907652E-10
   25.2299995       6.92089552E-10
   25.2900009       2.17172857E-09
   25.3500004       3.71687570E-09
   25.4099998       5.28096677E-09
   25.4699993       6.82263002E-09
   25.5300007       8.30670910E-09
   25.5900002       9.70254543E-09
   25.6499996       1.09806244E-08
   25.7099991       1.21094841E-08
   25.7700005       1.30546587E-08
   25.8299999       1.37804257E-08
   25.8899994       1.42536853E-08
   25.9500008       1.44482746E-08
   26.0100002       1.43478385E-08
   26.0699997       1.39462752E-08
   26.1299992       1.32460967E-08
   26.1900005       1.22561676E-08
   26.2500000       1.09904263E-08
   26.3099995       9.46849354E-09
   26.3700008       7.71782727E-09
   26.4300003       5.77625014E-09
   26.4899998       3.69347752E-09
   26.5499992       1.53091573E-09
   26.6100006      -6.40271003E-10
   26.6700001      -2.74236656E-09
   26.7299995      -4.69525352E-09
   26.7900009      -6.42149844E-09
   26.8500004      -7.85237120E-09
   26.9099998      -8.93424801E-09
   26.9699993      -9.63396651E-09
   27.0300007      -9.94132687E-09
   27.0900002      -9.86743842E-09
   27.1499996      -9.43927514E-09
   27.2099991      -8.69248495E-09
   27.2700005      -7.66541586E-09
   27.3299999      -6.39655751E-09
   27.3899994      -4.92551688E-09
   27.4500008      -3.29547190E-09
   27.5100002      -1.55402335E-09
   27.5699997       2.49647580E-10
   27.6299992       2.07102357E-09
   27.6900005       3.87718613E-09
   27.7500000       5.65080871E-09
   27.8099995       7.38878914E-09
   27.8700008       9.09582454E-09
   27.9300003       1.07758398E-08
   27.9899998       1.24252812E-08
   28.0499992       1.40311727E-08
   28.1100006       1.55743063E-08
   28.1700001       1.70353509E-08
   28.2299995       1.84005344E-08
   28.2900009       1.96641299E-08
   28.3500004       2.08270627E-08
   28.4099998       2.18928822E-08
   28.4699993       2.28634320E-08
   28.5300007       2.37361810E-08
   28.5900002       2.45039491E-08
   28.6499996       2.51564121E-08
   28.7099991       2.56821053E-08
   28.7700005       2.60699426E-08
   28.8299999       2.63100066E-08
   28.8899994       2.63941100E-08
   28.9500008       2.63169255E-08
   29.0100002       2.60780340E-08
   29.0699997       2.56846011E-08
   29.1299992       2.51537386E-08
   29.1900005       2.45132785E-08
   29.2500000       2.38002507E-08
   29.3099995       2.30569182E-08
   29.3700008       2.23252048E-08
   29.4300003       2.16408793E-08
   29.4899998       2.10290025E-08
   29.5499992       2.05016413E-08
   29.6100006       2.00582058E-08
   29.6700001       1.96879562E-08
   29.7299995       1.93738323E-08
   29.7900009       1.90967118E-08
   29.8500004       1.88395095E-08
   29.9099998       1.85906845E-08
   29.9699993       1.83468760E-08
   30.0300007       1.81141449E-08
   30.0900002       1.79071353E-08
   30.1499996       1.77456769E-08
   30.2099991       1.76489898E-08
   30.2700005       1.76287607E-08
   30.3299999       1.76832895E-08
   30.3899994       1.77952089E-08
   30.4500008       1.79343278E-08
   30.5100002       1.80653874E-08
   30.5699997       1.81583957E-08
   30.6299992       1.81979019E-08
   30.6900005       1.81876523E-08
   30.7500000       1.81488122E-08
   30.8099995       1.81125710E-08
   30.8700008       1.81102209E-08
   30.9300003       1.81646165E-08
   30.9899998       1.82859576E-08
   31.0499992       1.84724520E-08
   31.1100006       1.87140579E-08
   31.1700001       1.89964648E-08
   31.2299995       1.93031333E-08
   31.2900009       1.96153156E-08
   31.3500004       1.99118375E-08
   31.4099998       2.01709458E-08
   31.4699993       2.03751362E-08
   31.5300007       2.05174970E-08
   31.5900002       2.06060875E-08
   31.6499996       2.06631423E-08
   31.7099991       2.07180815E-08
   31.7700005       2.07969144E-08
   31.8299999       2.09129656E-08
   31.8899994       2.10637587E-08
   31.9500008       2.12357509E-08
   32.0099983       2.14144009E-08
   32.0699997       2.15937952E-08
   32.1300011       2.17801173E-08
   32.1899986       2.19864997E-08
   32.2500000       2.22216912E-08
   32.3100014       2.24787282E-08
   32.3699989       2.27300951E-08
   32.4300003       2.29326229E-08
   32.4900017       2.30402719E-08
   32.5499992       2.30187371E-08
   32.6100006       2.28549357E-08
   32.6699982       2.25572077E-08
   32.7299995       2.21468408E-08
   32.7900009       2.16457750E-08
   32.8499985       2.10667075E-08
   32.9099998       2.04099901E-08
   32.9700012       1.96678691E-08
   33.0299988       1.88330311E-08
   33.0900002       1.79069151E-08
   33.1500015       1.69042682E-08
   33.2099991       1.58527733E-08
   33.2700005       1.47889132E-08
   33.3300018       1.37521416E-08
   33.3899994       1.27788917E-08
   33.4500008       1.18969563E-08
   33.5099983       1.11202390E-08
   33.5699997       1.04443592E-08
   33.6300011       9.84447457E-09
   33.6899986       9.27715416E-09
   33.7500000       8.68721006E-09
   33.8100014       8.01844724E-09
   33.8699989       7.22524129E-09
   33.9300003       6.28105390E-09
   33.9900017       5.18112442E-09
   34.0499992       3.93916100E-09
   34.1100006       2.58053467E-09
   34.1699982       1.13577836E-09
   34.2299995      -3.62666647E-10
   34.2900009      -1.87987359E-09
   34.3499985      -3.37598949E-09
   34.4099998      -4.80504792E-09
   34.4700012      -6.11730133E-09
   34.5299988      -7.26506322E-09
   34.5900002      -8.20977153E-09
   34.6500015      -8.92708574E-09
   34.7099991      -9.40781231E-09
   34.7700005      -9.65472235E-09
   34.8300018      -9.67748814E-09
   34.8899994      -9.48874757E-09
   34.9500008      -9.10336961E-09
   35.0099983      -8.54085425E-09
   35.0699997      -7.82890286E-09
   35.1300011      -7.00540692E-09
   35.1899986      -6.11705797E-09
   35.2500000      -5.21456833E-09
   35.3100014      -4.34622649E-09
   35.3699989      -3.55216367E-09
   35.4300003      -2.86100144E-09
   35.4900017      -2.28913311E-09
   35.5499992      -1.84157001E-09
   35.6100006      -1.51290369E-09
   35.6699982      -1.28753219E-09
   35.7299995      -1.13948695E-09
   35.7900009      -1.03308051E-09
   35.8499985      -9.25652888E-10
   35.9099998      -7.72826025E-10
   35.9700012      -5.35363309E-10
   36.0299988      -1.85681442E-10
   36.0900002       2.88156887E-10
   36.1500015       8.82348528E-10
   36.2099991       1.58111491E-09
   36.2700005       2.36285858E-09
   36.3300018       3.20641536E-09
   36.3899994       4.09526013E-09
   36.4500008       5.01847852E-09
   36.5099983       5.96874239E-09
   36.5699997       6.93867230E-09
   36.6300011       7.91738497E-09
   36.6899986       8.88863561E-09
   36.7500000       9.83090409E-09
   36.8100014       1.07188542E-08
   36.8699989       1.15251622E-08
   36.9300003       1.22220749E-08
   36.9900017       1.27828512E-08
   37.0499992       1.31837830E-08
   37.1100006       1.34073188E-08
   37.1699982       1.34459137E-08
   37.2299995       1.33051010E-08
   37.2900009       1.30039055E-08
   37.3499985       1.25716033E-08
   37.4099998       1.20415953E-08
   37.4700012       1.14449881E-08
   37.5299988       1.08069491E-08
   37.5900002       1.01476783E-08
   37.6500015       9.48722256E-09
   37.7099991       8.85106211E-09
   37.7700005       8.27267144E-09
   37.8300018       7.79085418E-09
   37.8899994       7.44263495E-09
   37.9500008       7.25516136E-09
   38.0099983       7.24066762E-09
   38.0699997       7.39680717E-09
   38.1300011       7.71144393E-09
   38.1899986       8.16849344E-09
   38.2500000       8.75111006E-09
   38.3100014       9.44059053E-09
   38.3699989       1.02125277E-08
   38.4300003       1.10337517E-08
   38.4900017       1.18632242E-08
   38.5499992       1.26573489E-08
   38.6100006       1.33770985E-08
   38.6699982       1.39927900E-08
   38.7299995       1.44836845E-08
   38.7900009       1.48328505E-08
   38.8499985       1.50210582E-08
   38.9099998       1.50244848E-08
   38.9700012       1.48190011E-08
   39.0299988       1.43897854E-08
   39.0900002       1.37415128E-08
   39.1500015       1.29034081E-08
   39.2099991       1.19259136E-08
   39.2700005       1.08700204E-08
   39.3300018       9.79401626E-09
   39.3899994       8.74341843E-09
   39.4500008       7.74769582E-09
   39.5099983       6.82352930E-09
   39.5699997       5.98121952E-09
   39.6300011       5.23010879E-09
   39.6899986       4.58067362E-09
   39.7500000       4.04374090E-09
   39.8100014       3.62912367E-09
   39.8699989       3.34574257E-09
   39.9300003       3.20345528E-09
   39.9900017       3.21490878E-09
   40.0499992       3.39530848E-09
   40.1100006       3.75935594E-09
   40.1699982       4.31676561E-09
   40.2299995       5.06907760E-09
   40.2900009       6.00981886E-09
   40.3499985       7.12786319E-09
   40.4099998       8.41149106E-09
   40.4700012       9.84995463E-09
   40.5299988       1.14308305E-08
   40.5900002       1.31342892E-08
   40.6500015       1.49277870E-08
   40.7099991       1.67650160E-08
   40.7700005       1.85909173E-08
   40.8300018       2.03513153E-08
   40.8899994       2.20030856E-08
   40.9500008       2.35202986E-08
   41.0099983       2.48936072E-08
   41.0699997       2.61232440E-08
   41.1300011       2.72087970E-08
   41.1899986       2.81401604E-08
   41.2500000       2.88933393E-08
   41.3100014       2.94327762E-08
   41.3699989       2.97193914E-08
   41.4300003       2.97216918E-08
   41.4900017       2.94262108E-08
   41.5499992       2.88438766E-08
   41.6100006       2.80099766E-08
   41.6699982       2.69774834E-08
   41.7299995       2.58056794E-08
   41.7900009       2.45477612E-08
   41.8499985       2.32415704E-08
   41.9099998       2.19063825E-08
   41.9700012       2.05461941E-08
   42.0299988       1.91573051E-08
   42.0900002       1.77363741E-08
   42.1500015       1.62854743E-08
   42.2099991       1.48126329E-08
   42.2700005       1.33289220E-08
   42.3300018       1.18446932E-08
   42.3899994       1.03674367E-08
   42.4500008       8.90205509E-09
   42.5099983       7.45238093E-09
   42.5699997       6.02182748E-09
   42.6300011       4.61181404E-09
   42.6899986       3.21842775E-09
   42.7500000       1.82940252E-09
   42.8100014       4.23747787E-10
   42.8699989      -1.02508912E-09
   42.9300003      -2.54374632E-09
   42.9900017      -4.15383594E-09
   43.0499992      -5.86962035E-09
   43.1100006      -7.69911157E-09
   43.1699982      -9.64710622E-09
   43.2299995      -1.17176953E-08
   43.2900009      -1.39144607E-08
   43.3499985      -1.62385785E-08
   43.4099998      -1.86866131E-08
   43.4700012      -2.12500417E-08
   43.5299988      -2.39171225E-08
   43.5900002      -2.66756803E-08
   43.6500015      -2.95144158E-08
   43.7099991      -3.24211378E-08
   43.7700005      -3.53785836E-08
   43.8300018      -3.83605929E-08
   43.8899994      -4.13316954E-08
   43.9500008      -4.42514505E-08
   44.0099983      -4.70816133E-08
   44.0699997      -4.97924368E-08
   44.1300011      -5.23644061E-08
   44.1899986      -5.47845538E-08
   44.2500000      -5.70400545E-08
   44.3100014      -5.91137876E-08
   44.3699989      -6.09855206E-08
   44.4300003      -6.26388825E-08
   44.4900017      -6.40703348E-08
   44.5499992      -6.52944010E-08
   44.6100006      -6.63410731E-08
   44.6699982      -6.72456366E-08
   44.7299995      -6.80355541E-08
   44.7900009      -6.87210999E-08
   44.8499985      -6.92942805E-08
   44.9099998      -6.97362665E-08
   44.9700012      -7.00286549E-08
   45.0299988      -7.01621730E-08
   45.0900002      -7.01383982E-08
   45.1500015      -6.99648126E-08
   45.2099991      -6.96474558E-08
   45.2700005      -6.91871591E-08
   45.3300018      -6.85823238E-08
   45.3899994      -6.78366163E-08
   45.4500008      -6.69663365E-08
   45.5099983      -6.60015758E-08
   45.5699997      -6.49792682E-08
   45.6300011      -6.39311395E-08
   45.6899986      -6.28733332E-08
   45.7500000      -6.18039877E-08
   45.8100014      -6.07106543E-08
   45.8699989      -5.95836198E-08
   45.9300003      -5.84276307E-08
   45.9900017      -5.72654351E-08
   46.0499992      -5.61311673E-08
   46.1100006      -5.50574377E-08
   46.1699982      -5.40632037E-08
   46.2299995      -5.31485824E-08
   46.2900009      -5.22986134E-08
   46.3499985      -5.14928331E-08
   46.4099998      -5.07150588E-08
   46.4700012      -4.99588353E-08
   46.5299988      -4.92273635E-08
   46.5900002      -4.85300617E-08
   46.6500015      -4.78791016E-08
   46.7099991      -4.72878554E-08
   46.7700005      -4.67705235E-08
   46.8300018      -4.63408441E-08
   46.8899994      -4.60082958E-08
   46.9500008      -4.57726941E-08
   47.0099983      -4.56201583E-08
   47.0699997      -4.55238371E-08
   47.1300011      -4.54505447E-08
   47.1899986      -4.53712232E-08
   47.2500000      -4.52704825E-08
   47.3100014      -4.51505890E-08
   47.3699989      -4.50277824E-08
   47.4300003      -4.49225190E-08
   47.4900017      -4.48483704E-08
   47.5499992      -4.48045903E-08
   47.6100006      -4.47754331E-08
   47.6699982      -4.47358772E-08
   47.7299995      -4.46605988E-08
   47.7900009      -4.45318555E-08
   47.8499985      -4.43430856E-08
   47.9099998      -4.40975114E-08
   47.9700012      -4.38033005E-08
   48.0299988      -4.34681944E-08
   48.0900002      -4.30961364E-08
   48.1500015      -4.26871729E-08
   48.2099991      -4.22400674E-08
   48.2700005      -4.17560315E-08
   48.3300018      -4.12416092E-08
   48.3899994      -4.07093914E-08
   48.4500008      -4.01763671E-08
   48.5099983      -3.96605877E-08
   48.5699997      -3.91776851E-08
   48.6300011      -3.87385981E-08
   48.6899986      -3.83493521E-08
   48.7500000      -3.80128355E-08
   48.8100014      -3.77315530E-08
   48.8699989      -3.75098743E-08
   48.9300003      -3.73547095E-08
   48.9900017      -3.72742726E-08
   49.0499992      -3.72758571E-08
   49.1100006      -3.73637512E-08
   49.1699982      -3.75383316E-08
   49.2299995      -3.77962266E-08
   49.2900009      -3.81305085E-08
   49.3499985      -3.85297980E-08
   49.4099998      -3.89760935E-08
   49.4700012      -3.94427389E-08
   49.5299988      -3.98945730E-08
   49.5900002      -4.02918729E-08
   49.6500015      -4.05972678E-08
   49.7099991      -4.07825134E-08
   49.7700005      -4.08309724E-08
   49.8300018      -4.07330774E-08
   49.8899994      -4.04757543E-08
   49.9500008      -4.00302405E-08
   50.0099983      -3.93443891E-08
   50.0699997      -3.83432770E-08
   50.1300011      -3.69375996E-08
   50.1899986      -3.50345388E-08
   50.2500000      -3.25441825E-08
   50.3100014      -2.93766007E-08
   50.3699989      -2.54298858E-08
   50.4300003      -2.05743369E-08
   50.4900017      -1.46398742E-08
   50.5499992      -7.41145412E-09
   50.6100006       1.36787748E-09