 -0.750000000       0.00000000    
 -0.689999998       0.00000000    
 -0.629999995       0.00000000    
 -0.569999993       0.00000000    
 -0.509999990       0.00000000    
 -0.449999988       0.00000000    
 -0.389999986       0.00000000    
 -0.330000013       0.00000000    
 -0.270000011       1.71924642E-25
 -0.209999993       1.57783403E-24
 -0.150000006       6.17306062E-24
  -9.00000036E-02   9.61649132E-24
  -2.99999993E-02  -2.05679956E-23
   2.99999993E-02  -1.62451136E-22
   9.00000036E-02  -4.68392486E-22
  0.150000006      -6.84502206E-22
  0.209999993       1.86664597E-22
  0.270000011       3.90481675E-21
  0.330000013       1.14182711E-20
  0.389999986       1.88378381E-20
  0.449999988       1.25900209E-20
  0.509999990      -3.00143067E-20
  0.569999993      -1.25282850E-19
  0.629999995      -2.48155295E-19
  0.689999998      -2.92085203E-19
  0.750000000      -6.64257439E-20
  0.810000002       6.10853650E-19
  0.870000005       1.70004920E-18
  0.930000007       2.68274401E-18
  0.990000010       2.47575840E-18
   1.04999995      -2.00755313E-19
   1.11000001      -5.86259544E-18
   1.16999996      -1.29956758E-17
   1.23000002      -1.73349379E-17
   1.28999996      -1.28306044E-17
   1.35000002       5.03571923E-18
   1.40999997       3.43866061E-17
   1.47000003       6.32843395E-17
   1.52999997       7.11381680E-17
   1.59000003       3.78032922E-17
   1.64999998      -4.12790654E-17
   1.71000004      -1.41417127E-16
   1.76999998      -2.07807040E-16
   1.83000004      -1.76243416E-16
   1.88999999      -1.33198859E-17
   1.95000005       2.41729571E-16
   2.00999999       4.63001973E-16
   2.06999993       4.77623827E-16
   2.13000011       1.60770400E-16
   2.19000006      -4.50861344E-16
   2.25000000      -1.09634217E-15
   2.30999994      -1.34809751E-15
   2.36999989      -8.11788647E-16
   2.43000007       5.94970077E-16
   2.49000001       2.43135027E-15
   2.54999995       3.75932958E-15
   2.60999990       3.49933451E-15
   2.67000008       1.03674408E-15
   2.73000002      -3.19276766E-15
   2.78999996      -7.51200148E-15
   2.84999990      -9.48591689E-15
   2.91000009      -7.05808330E-15
   2.97000003       8.87688808E-17
   3.02999997       9.67620200E-15
   3.08999991       1.71765830E-14
   3.15000010       1.76038807E-14
   3.21000004       8.22580715E-15
   3.26999998      -9.04880131E-15
   3.32999992      -2.70969753E-14
   3.39000010      -3.57755885E-14
   3.45000005      -2.65751369E-14
   3.50999999       2.06256377E-15
   3.56999993       4.14990816E-14
   3.63000011       7.41592185E-14
   3.69000006       7.99875709E-14
   3.75000000       4.61758114E-14
   3.80999994      -2.40528439E-14
   3.86999989      -1.08433289E-13
   3.93000007      -1.71442965E-13
   3.99000001      -1.78055677E-13
   4.05000019      -1.10359232E-13
   4.11000013       2.05887926E-14
   4.17000008       1.74344981E-13
   4.23000002       2.94199859E-13
   4.28999996       3.29481017E-13
   4.34999990       2.57482566E-13
   4.40999985       9.44742399E-14
   4.46999979      -1.10352211E-13
   4.53000021      -2.95934555E-13
   4.59000015      -4.15241599E-13
   4.65000010      -4.52387097E-13
   4.71000004      -4.21044737E-13
   4.76999998      -3.44183991E-13
   4.82999992      -2.26649184E-13
   4.88999987      -3.88843011E-14
   4.94999981       2.72607972E-13
   5.01000023       7.45038796E-13
   5.07000017       1.34379194E-12
   5.13000011       1.91998587E-12
   5.19000006       2.21186155E-12
   5.25000000       1.90776626E-12
   5.30999994       7.63605867E-13
   5.36999989      -1.25967184E-12
   5.42999983      -3.89077442E-12
   5.48999977      -6.52625697E-12
   5.55000019      -8.32195337E-12
   5.61000013      -8.39150797E-12
   5.67000008      -6.06819803E-12
   5.73000002      -1.16019119E-12
   5.78999996       5.87576082E-12
   5.84999990       1.38999775E-11
   5.90999985       2.12193371E-11
   5.96999979       2.58664028E-11
   6.03000021       2.59810021E-11
   6.09000015       2.02267751E-11
   6.15000010       8.16942607E-12
   6.21000004      -9.45046385E-12
   6.26999998      -3.06039534E-11
   6.32999992      -5.20563696E-11
   6.38999987      -6.96641078E-11
   6.44999981      -7.88820051E-11
   6.51000023      -7.54520266E-11
   6.57000017      -5.62133638E-11
   6.63000011      -1.99398276E-11
   6.69000006       3.19224126E-11
   6.75000000       9.47673329E-11
   6.80999994       1.60744876E-10
   6.86999989       2.19204835E-10
   6.92999983       2.57725952E-10
   6.98999977       2.63683880E-10
   7.05000019       2.26187291E-10
   7.11000013       1.38094994E-10
   7.17000008      -2.24756108E-12
   7.23000002      -1.89911170E-10
   7.28999996      -4.13194312E-10
   7.34999990      -6.54442278E-10
   7.40999985      -8.91765273E-10
   7.46999979      -1.10135967E-09
   7.53000021      -1.26002198E-09
   7.59000015      -1.34744516E-09
   7.65000010      -1.34799472E-09
   7.71000004      -1.25183475E-09
   7.76999998      -1.05545395E-09
   7.82999992      -7.61747831E-10
   7.88999987      -3.79827614E-10
   7.94999981       7.53630977E-11
   8.01000023       5.83659510E-10
   8.06999969       1.12064369E-09
   8.13000011       1.65909264E-09
   8.18999958       2.17092322E-09
   8.25000000       2.62947797E-09
   8.31000042       3.01183856E-09
   8.36999989       3.30079231E-09
   8.43000031       3.48613893E-09
   8.48999977       3.56520080E-09
   8.55000019       3.54260599E-09
   8.60999966       3.42956219E-09
   8.67000008       3.24286398E-09
   8.72999954       3.00378988E-09
   8.78999996       2.73687273E-09
   8.85000038       2.46840859E-09
   8.90999985       2.22453433E-09
   8.97000027       2.02882910E-09
   9.02999973       1.89959981E-09
   9.09000015       1.84725180E-09
   9.14999962       1.87227855E-09
   9.21000004       1.96438155E-09
   9.27000046       2.10303641E-09
   9.32999992       2.25950525E-09
   9.39000034       2.39998577E-09
   9.44999981       2.48936338E-09
   9.51000023       2.49499843E-09
   9.56999969       2.39009235E-09
   9.63000011       2.15637774E-09
   9.68999958       1.78605730E-09
   9.75000000       1.28298927E-09
   9.81000042       6.63063882E-10
   9.86999989      -4.63942877E-11
   9.93000031      -8.08441702E-10
   9.98999977      -1.57971447E-09
   10.0500002      -2.31493824E-09
   10.1099997      -2.97230507E-09
   10.1700001      -3.51890428E-09
   10.2299995      -3.93515442E-09
   10.2900000      -4.21721769E-09
   10.3500004      -4.37667103E-09
   10.4099998      -4.43727766E-09
   10.4700003      -4.42935288E-09
   10.5299997      -4.38285142E-09
   10.5900002      -4.32066383E-09
   10.6499996      -4.25364588E-09
   10.7100000      -4.17848556E-09
   10.7700005      -4.07883594E-09
   10.8299999      -3.92926180E-09
   10.8900003      -3.70088094E-09
   10.9499998      -3.36719586E-09
   11.0100002      -2.90875768E-09
   11.0699997      -2.31580066E-09
   11.1300001      -1.58867963E-09
   11.1899996      -7.36537054E-10
   11.2500000       2.25082272E-10
   11.3100004       1.27699096E-09
   11.3699999       2.39908360E-09
   11.4300003       3.57287444E-09
   11.4899998       4.78377560E-09
   11.5500002       6.02291284E-09
   11.6099997       7.28804794E-09
   11.6700001       8.58309157E-09
   11.7299995       9.91591342E-09
   11.7900000       1.12946736E-08
   11.8500004       1.27235866E-08
   11.9099998       1.41994754E-08
   11.9700003       1.57104729E-08
   12.0299997       1.72376051E-08
   12.0900002       1.87590032E-08
   12.1499996       2.02554276E-08
   12.2100000       2.17151790E-08
   12.2700005       2.31365682E-08
   12.3299999       2.45269156E-08
   12.3900003       2.58983217E-08
   12.4499998       2.72616241E-08
   12.5100002       2.86206827E-08
   12.5699997       2.99689873E-08
   12.6300001       3.12898401E-08
   12.6899996       3.25600737E-08
   12.7500000       3.37560948E-08
   12.8100004       3.48603422E-08
   12.8699999       3.58661048E-08
   12.9300003       3.67793760E-08
   12.9899998       3.76173652E-08
   13.0500002       3.84043695E-08
   13.1099997       3.91664585E-08
   13.1700001       3.99266717E-08
   13.2299995       4.07018348E-08
   13.2900000       4.15014583E-08
   13.3500004       4.23281357E-08
   13.4099998       4.31783214E-08
   13.4700003       4.40424976E-08
   13.5299997       4.49042297E-08
   13.5900002       4.57385703E-08
   13.6499996       4.65112073E-08
   13.7100000       4.71799453E-08
   13.7700005       4.76994124E-08
   13.8299999       4.80288698E-08
   13.8900003       4.81412563E-08
   13.9499998       4.80307634E-08
   14.0100002       4.77159858E-08
   14.0699997       4.72368029E-08
   14.1300001       4.66451375E-08
   14.1899996       4.59918148E-08
   14.2500000       4.53133815E-08
   14.3100004       4.46230928E-08
   14.3699999       4.39092531E-08
   14.4300003       4.31417639E-08
   14.4899998       4.22851443E-08
   14.5500002       4.13138856E-08
   14.6099997       4.02249860E-08
   14.6700001       3.90432575E-08
   14.7299995       3.78169425E-08
   14.7900000       3.66045292E-08
   14.8500004       3.54565231E-08
   14.9099998       3.43978890E-08
   14.9700003       3.34169918E-08
   15.0299997       3.24650280E-08
   15.0900002       3.14667936E-08
   15.1499996       3.03400363E-08
   15.2100000       2.90179951E-08
   15.2700005       2.74686531E-08
   15.3299999       2.57051127E-08
   15.3900003       2.37840485E-08
   15.4499998       2.17927081E-08
   15.5100002       1.98280556E-08
   15.5699997       1.79738677E-08
   15.6300001       1.62819696E-08
   15.6899996       1.47624428E-08
   15.7500000       1.33849243E-08
   15.8100004       1.20899335E-08
   15.8699999       1.08064597E-08
   15.9300003       9.47063583E-09
   15.9899998       8.04057088E-09
   16.0499992       6.50403154E-09
   16.1100006       4.87802243E-09
   16.1700001       3.20155413E-09
   16.2299995       1.52440216E-09
   16.2900009      -1.04879494E-10
   16.3500004      -1.64883285E-09
   16.4099998      -3.08701242E-09
   16.4699993      -4.41731363E-09
   16.5300007      -5.65323921E-09
   16.5900002      -6.81854218E-09
   16.6499996      -7.94112598E-09
   16.7099991      -9.04800501E-09
   16.7700005      -1.01624567E-08
   16.8299999      -1.13034391E-08
   16.8899994      -1.24863808E-08
   16.9500008      -1.37238647E-08
   17.0100002      -1.50249218E-08
   17.0699997      -1.63924962E-08
   17.1299992      -1.78196320E-08
   17.1900005      -1.92858618E-08
   17.2500000      -2.07553619E-08
   17.3099995      -2.21781384E-08
   17.3700008      -2.34946373E-08
   17.4300003      -2.46432599E-08
   17.4899998      -2.55695589E-08
   17.5499992      -2.62353907E-08
   17.6100006      -2.66262443E-08
   17.6700001      -2.67552025E-08
   17.7299995      -2.66626863E-08
   17.7900009      -2.64121454E-08
   17.8500004      -2.60828994E-08
   17.9099998      -2.57620538E-08
   17.9699993      -2.55374637E-08
   18.0300007      -2.54929411E-08
   18.0900002      -2.57056652E-08
   18.1499996      -2.62445958E-08
   18.2099991      -2.71681166E-08
   18.2700005      -2.85195849E-08
   18.3299999      -3.03206171E-08
   18.3899994      -3.25635305E-08
   18.4500008      -3.52054954E-08
   18.5100002      -3.81672898E-08
   18.5699997      -4.13388435E-08
   18.6299992      -4.45919888E-08
   18.6900005      -4.77987818E-08
   18.7500000      -5.08517495E-08
   18.8099995      -5.36812657E-08
   18.8700008      -5.62655309E-08
   18.9300003      -5.86299436E-08
   18.9899998      -6.08353901E-08
   19.0499992      -6.29576391E-08
   19.1100006      -6.50625580E-08
   19.1700001      -6.71828246E-08
   19.2299995      -6.93018904E-08
   19.2900009      -7.13490564E-08
   19.3500004      -7.32072110E-08
   19.4099998      -7.47315312E-08
   19.4699993      -7.57752829E-08
   19.5300007      -7.62166579E-08
   19.5900002      -7.59807293E-08
   19.6499996      -7.50516804E-08
   19.7099991      -7.34731884E-08
   19.7700005      -7.13378441E-08
   19.8299999      -6.87693245E-08
   19.8899994      -6.59023414E-08
   19.9500008      -6.28651193E-08
   20.0100002      -5.97676078E-08
   20.0699997      -5.66961091E-08
   20.1299992      -5.37133324E-08
   20.1900005      -5.08614342E-08
   20.2500000      -4.81657629E-08
   20.3099995      -4.56376377E-08
   20.3700008      -4.32755094E-08
   20.4300003      -4.10648582E-08
   20.4899998      -3.89779942E-08
   20.5499992      -3.69752300E-08
   20.6100006      -3.50086680E-08
   20.6700001      -3.30291812E-08
   20.7299995      -3.09958601E-08
   20.7900009      -2.88858306E-08
   20.8500004      -2.67016382E-08
   20.9099998      -2.44733993E-08
   20.9699993      -2.22543424E-08
   21.0300007      -2.01102726E-08
   21.0900002      -1.81055100E-08
   21.1499996      -1.62890004E-08
   21.2099991      -1.46841641E-08
   21.2700005      -1.32848887E-08
   21.3299999      -1.20582024E-08
   21.3899994      -1.09524612E-08
   21.4500008      -9.90865168E-09
   21.5100002      -8.87196716E-09
   21.5699997      -7.80100606E-09
   21.6299992      -6.67270239E-09
   21.6900005      -5.48222445E-09
   21.7500000      -4.23840385E-09
   21.8099995      -2.95651614E-09
   21.8700008      -1.65095859E-09
   21.9300003      -3.30335787E-10
   21.9899998       1.00352182E-09
   22.0499992       2.35261832E-09
   22.1100006       3.71752451E-09
   22.1700001       5.09228304E-09
   22.2299995       6.46190346E-09
   22.2900009       7.80380738E-09
   22.3500004       9.09304010E-09
   22.4099998       1.03095896E-08
   22.4699993       1.14453069E-08
   22.5300007       1.25078703E-08
   22.5900002       1.35200517E-08
   22.6499996       1.45139394E-08
   22.7099991       1.55214241E-08
   22.7700005       1.65636909E-08
   22.8299999       1.76431314E-08
   22.8899994       1.87406535E-08
   22.9500008       1.98197014E-08
   23.0100002       2.08359676E-08
   23.0699997       2.17496012E-08
   23.1299992       2.25356462E-08
   23.1900005       2.31891768E-08
   23.2500000       2.37235707E-08
   23.3099995       2.41630627E-08
   23.3700008       2.45326710E-08
   23.4300003       2.48492071E-08
   23.4899998       2.51162540E-08
   23.5499992       2.53243417E-08
   23.6100006       2.54558099E-08
   23.6700001       2.54926267E-08
   23.7299995       2.54248516E-08
   23.7900009       2.52572896E-08
   23.8500004       2.50121417E-08
   23.9099998       2.47261944E-08
   23.9699993       2.44424339E-08
   24.0300007       2.41978668E-08
   24.0900002       2.40110634E-08
   24.1499996       2.38737332E-08
   24.2099991       2.37497915E-08
   24.2700005       2.35830200E-08
   24.3299999       2.33113635E-08
   24.3899994       2.28834605E-08
   24.4500008       2.22723049E-08
   24.5100002       2.14819984E-08
   24.5699997       2.05460609E-08
   24.6299992       1.95183105E-08
   24.6900005       1.84594242E-08
   24.7500000       1.74230212E-08
   24.8099995       1.64448632E-08
   24.8700008       1.55375819E-08
   24.9300003       1.46917296E-08
   24.9899998       1.38820928E-08
   25.0499992       1.30768241E-08
   25.1100006       1.22462147E-08
   25.1700001       1.13684555E-08
   25.2299995       1.04312408E-08
   25.2900009       9.42991463E-09
   25.3500004       8.36431369E-09
   25.4099998       7.23660731E-09
   25.4699993       6.05147443E-09
   25.5300007       4.81832174E-09
   25.5900002       3.55401286E-09
   25.6499996       2.28417329E-09
   25.7099991       1.04181341E-09
   25.7700005      -1.36891942E-10
   25.8299999      -1.21877330E-09
   25.8899994      -2.18030016E-09
   25.9500008      -3.01305780E-09
   26.0100002      -3.72664299E-09
   26.0699997      -4.34798464E-09
   26.1299992      -4.91687047E-09
   26.1900005      -5.47848078E-09
   26.2500000      -6.07479000E-09
   26.3099995      -6.73722900E-09
   26.3700008      -7.48263140E-09
   26.4300003      -8.31319547E-09
   26.4899998      -9.21963395E-09
   26.5499992      -1.01855617E-08
   26.6100006      -1.11912568E-08
   26.6700001      -1.22158310E-08
   26.7299995      -1.32381892E-08
   26.7900009      -1.42378394E-08
   26.8500004      -1.51964468E-08
   26.9099998      -1.61002038E-08
   26.9699993      -1.69422698E-08
   27.0300007      -1.77243091E-08
   27.0900002      -1.84566176E-08
   27.1499996      -1.91569054E-08
   27.2099991      -1.98482617E-08
   27.2700005      -2.05567190E-08
   27.3299999      -2.13084679E-08
   27.3899994      -2.21267040E-08
   27.4500008      -2.30282247E-08
   27.5100002      -2.40203768E-08
   27.5699997      -2.50992453E-08
   27.6299992      -2.62497846E-08
   27.6900005      -2.74479923E-08
   27.7500000      -2.86646262E-08
   27.8099995      -2.98695646E-08
   27.8700008      -3.10360129E-08
   27.9300003      -3.21440261E-08
   27.9899998      -3.31831131E-08
   28.0499992      -3.41536115E-08
   28.1100006      -3.50665381E-08
   28.1700001      -3.59416035E-08
   28.2299995      -3.68035131E-08
   28.2900009      -3.76770259E-08
   28.3500004      -3.85818737E-08
   28.4099998      -3.95285511E-08
   28.4699993      -4.05159923E-08
   28.5300007      -4.15315782E-08
   28.5900002      -4.25536406E-08
   28.6499996      -4.35561631E-08
   28.7099991      -4.45150334E-08
   28.7700005      -4.54145592E-08
   28.8299999      -4.62527794E-08
   28.8899994      -4.70440078E-08
   28.9500008      -4.78177462E-08
   29.0100002      -4.86141083E-08
   29.0699997      -4.94771122E-08
   29.1299992      -5.04476141E-08
   29.1900005      -5.15576595E-08
   29.2500000      -5.28270618E-08
   29.3099995      -5.42623653E-08
   29.3700008      -5.58577611E-08
   29.4300003      -5.75975143E-08
   29.4899998      -5.94594347E-08
   29.5499992      -6.14189943E-08
   29.6100006      -6.34531148E-08
   29.6700001      -6.55423804E-08
   29.7299995      -6.76705696E-08
   29.7900009      -6.98211480E-08
   29.8500004      -7.19719324E-08
   29.9099998      -7.40898685E-08
   29.9699993      -7.61285150E-08
   30.0300007      -7.80292950E-08
   30.0900002      -7.97266395E-08
   30.1499996      -8.11550080E-08
   30.2099991      -8.22558093E-08
   30.2700005      -8.29821687E-08
   30.3299999      -8.33012592E-08
   30.3899994      -8.31943439E-08
   30.4500008      -8.26558662E-08
   30.5100002      -8.16924270E-08
   30.5699997      -8.03220672E-08
   30.6299992      -7.85736276E-08
   30.6900005      -7.64856907E-08
   30.7500000      -7.41046478E-08
   30.8099995      -7.14818000E-08
   30.8700008      -6.86695998E-08
   30.9300003      -6.57179271E-08
   30.9899998      -6.26711198E-08
   31.0499992      -5.95669363E-08
   31.1100006      -5.64378269E-08
   31.1700001      -5.33146185E-08
   31.2299995      -5.02314208E-08
   31.2900009      -4.72301807E-08
   31.3500004      -4.43629276E-08
   31.4099998      -4.16904022E-08
   31.4699993      -3.92767134E-08
   31.5300007      -3.71809392E-08
   31.5900002      -3.54476626E-08
   31.6499996      -3.40990169E-08
   31.7099991      -3.31307142E-08
   31.7700005      -3.25136718E-08
   31.8299999      -3.22014948E-08
   31.8899994      -3.21421503E-08
   31.9500008      -3.22906715E-08
   32.0099983      -3.26188676E-08
   32.0699997      -3.31186811E-08
   32.1300011      -3.37978321E-08
   32.1899986      -3.46691813E-08
   32.2500000      -3.57376351E-08
   32.3100014      -3.69894266E-08
   32.3699989      -3.83873839E-08
   32.4300003      -3.98733810E-08
   32.4900017      -4.13762855E-08
   32.5499992      -4.28217177E-08
   32.6100006      -4.41401014E-08
   32.6699982      -4.52709017E-08
   32.7299995      -4.61632013E-08
   32.7900009      -4.67745629E-08
   32.8499985      -4.70705572E-08
   32.9099998      -4.70266848E-08
   32.9700012      -4.66328167E-08
   33.0299988      -4.58988119E-08
   33.0900002      -4.48590072E-08
   33.1500015      -4.35732233E-08
   33.2099991      -4.21226893E-08
   33.2700005      -4.06006855E-08
   33.3300018      -3.90994934E-08
   33.3899994      -3.76965730E-08
   33.4500008      -3.64438790E-08
   33.5099983      -3.53636196E-08
   33.5699997      -3.44522277E-08
   33.6300011      -3.36916273E-08
   33.6899986      -3.30644347E-08
   33.7500000      -3.25679821E-08
   33.8100014      -3.22221787E-08
   33.8699989      -3.20681082E-08
   33.9300003      -3.21572706E-08
   33.9900017      -3.25347678E-08
   34.0499992      -3.32220225E-08
   34.1100006      -3.42049127E-08
   34.1699982      -3.54318459E-08
   34.2299995      -3.68226907E-08
   34.2900009      -3.82858580E-08
   34.3499985      -3.97379836E-08
   34.4099998      -4.11196801E-08
   34.4700012      -4.24024051E-08
   34.5299988      -4.35849614E-08
   34.5900002      -4.46817907E-08
   34.6500015      -4.57080915E-08
   34.7099991      -4.66673811E-08
   34.7700005      -4.75456794E-08
   34.8300018      -4.83136766E-08
   34.8899994      -4.89354512E-08
   34.9500008      -4.93804322E-08
   35.0099983      -4.96346715E-08
   35.0699997      -4.97081700E-08
   35.1300011      -4.96359860E-08
   35.1899986      -4.94725150E-08
   35.2500000      -4.92797163E-08
   35.3100014      -4.91117937E-08
   35.3699989      -4.90001035E-08
   35.4300003      -4.89426988E-08
   35.4900017      -4.89021055E-08
   35.5499992      -4.88129466E-08
   35.6100006      -4.85979683E-08
   35.6699982      -4.81883298E-08
   35.7299995      -4.75424073E-08
   35.7900009      -4.66577852E-08
   35.8499985      -4.55730245E-08
   35.9099998      -4.43587318E-08
   35.9700012      -4.31005134E-08
   36.0299988      -4.18782129E-08
   36.0900002      -4.07467589E-08
   36.1500015      -3.97233890E-08
   36.2099991      -3.87843571E-08
   36.2700005      -3.78719776E-08
   36.3300018      -3.69102615E-08
   36.3899994      -3.58251384E-08
   36.4500008      -3.45640352E-08
   36.5099983      -3.31095507E-08
   36.5699997      -3.14835589E-08
   36.6300011      -2.97407485E-08
   36.6899986      -2.79534724E-08
   36.7500000      -2.61924615E-08
   36.8100014      -2.45088589E-08
   36.8699989      -2.29227481E-08
   36.9300003      -2.14211813E-08
   36.9900017      -1.99658725E-08
   37.0499992      -1.85078566E-08
   37.1100006      -1.70044814E-08
   37.1699982      -1.54338320E-08
   37.2299995      -1.38027927E-08
   37.2900009      -1.21472032E-08
   37.3499985      -1.05247970E-08
   37.4099998      -9.00324526E-09
   37.4700012      -7.64629426E-09
   37.5299988      -6.50085763E-09
   37.5900002      -5.58747404E-09
   37.6500015      -4.89603957E-09
   37.7099991      -4.38808678E-09
   37.7700005      -4.00578193E-09
   37.8300018      -3.68612296E-09
   37.8899994      -3.37689499E-09
   37.9500008      -3.04965253E-09
   38.0099983      -2.70529066E-09
   38.0699997      -2.36995445E-09
   38.1300011      -2.08249440E-09
   38.1899986      -1.87797156E-09
   38.2500000      -1.77332837E-09
   38.3100014      -1.76048842E-09
   38.3699989      -1.80919746E-09
   38.4300003      -1.87822979E-09
   38.4900017      -1.93070515E-09
   38.5499992      -1.94820649E-09
   38.6100006      -1.93927763E-09
   38.6699982      -1.93997529E-09
   38.7299995      -2.00652694E-09
   38.7900009      -2.20209961E-09
   38.8499985      -2.58092103E-09
   38.9099998      -3.17352922E-09
   38.9700012      -3.97679534E-09
   39.0299988      -4.95149965E-09
   39.0900002      -6.02863137E-09
   39.1500015      -7.12338677E-09
   39.2099991      -8.15366619E-09
   39.2700005      -9.05833097E-09
   39.3300018      -9.81032677E-09
   39.3899994      -1.04210747E-08
   39.4500008      -1.09349667E-08
   39.5099983      -1.14155876E-08
   39.5699997      -1.19276296E-08
   39.6300011      -1.25196022E-08
   39.6899986      -1.32122029E-08
   39.7500000      -1.39955372E-08
   39.8100014      -1.48358090E-08
   39.8699989      -1.56892401E-08
   39.9300003      -1.65186300E-08
   39.9900017      -1.73070820E-08
   40.0499992      -1.80641777E-08
   40.1100006      -1.88224174E-08
   40.1699982      -1.96251033E-08
   40.2299995      -2.05098463E-08
   40.2900009      -2.14934488E-08
   40.3499985      -2.25633574E-08
   40.4099998      -2.36784956E-08
   40.4700012      -2.47790144E-08
   40.5299988      -2.58015831E-08
   40.5900002      -2.66953286E-08
   40.6500015      -2.74336127E-08
   40.7099991      -2.80184498E-08
   40.7700005      -2.84766273E-08
   40.8300018      -2.88489286E-08
   40.8899994      -2.91757072E-08
   40.9500008      -2.94830880E-08
   41.0099983      -2.97741884E-08
   41.0699997      -3.00285095E-08
   41.1300011      -3.02104617E-08
   41.1899986      -3.02849976E-08
   41.2500000      -3.02355936E-08
   41.3100014      -3.00784038E-08
   41.3699989      -2.98669782E-08
   41.4300003      -2.96850153E-08
   41.4900017      -2.96284650E-08
   41.5499992      -2.97823277E-08
   41.6100006      -3.01993310E-08
   41.6699982      -3.08870582E-08
   41.7299995      -3.18072182E-08
   41.7900009      -3.28868133E-08
   41.8499985      -3.40373383E-08
   41.9099998      -3.51762104E-08
   41.9700012      -3.62444865E-08
   42.0299988      -3.72165232E-08
   42.0900002      -3.80995715E-08
   42.1500015      -3.89242629E-08
   42.2099991      -3.97290592E-08
   42.2700005      -4.05433767E-08
   42.3300018      -4.13744843E-08
   42.3899994      -4.22019752E-08
   42.4500008      -4.29816538E-08
   42.5099983      -4.36576535E-08
   42.5699997      -4.41791030E-08
   42.6300011      -4.45163266E-08
   42.6899986      -4.46715163E-08
   42.7500000      -4.46807711E-08
   42.8100014      -4.46068995E-08
   42.8699989      -4.45250734E-08
   42.9300003      -4.45054908E-08
   42.9900017      -4.45979431E-08
   43.0499992      -4.48223858E-08
   43.1100006      -4.51678659E-08
   43.1699982      -4.55995952E-08
   43.2299995      -4.60715874E-08
   43.2900009      -4.65409116E-08
   43.3499985      -4.69795580E-08
   43.4099998      -4.73810715E-08
   43.4700012      -4.77610733E-08
   43.5299988      -4.81525610E-08
   43.5900002      -4.85978262E-08
   43.6500015      -4.91388832E-08
   43.7099991      -4.98081434E-08
   43.7700005      -5.06205424E-08
   43.8300018      -5.15686622E-08
   43.8899994      -5.26222017E-08
   43.9500008      -5.37327978E-08
   44.0099983      -5.48436745E-08
   44.0699997      -5.59017614E-08
   44.1300011      -5.68683163E-08
   44.1899986      -5.77242325E-08
   44.2500000      -5.84679718E-08
   44.3100014      -5.91071441E-08
   44.3699989      -5.96476752E-08
   44.4300003      -6.00855827E-08
   44.4900017      -6.04050783E-08
   44.5499992      -6.05840924E-08
   44.6100006      -6.06047550E-08
   44.6699982      -6.04646715E-08
   44.7299995      -6.01846111E-08
   44.7900009      -5.98096435E-08
   44.8499985      -5.94033409E-08
   44.9099998      -5.90364237E-08
   44.9700012      -5.87726241E-08
   45.0299988      -5.86551820E-08
   45.0900002      -5.86972106E-08
   45.1500015      -5.88786975E-08
   45.2099991      -5.91515885E-08
   45.2700005      -5.94522795E-08
   45.3300018      -5.97185803E-08
   45.3899994      -5.99062915E-08
   45.4500008      -6.00000831E-08
   45.5099983      -6.00152177E-08
   45.5699997      -5.99896453E-08
   45.6300011      -5.99696506E-08
   45.6899986      -5.99942496E-08
   45.7500000      -6.00838987E-08
   45.8100014      -6.02366796E-08
   45.8699989      -6.04321784E-08
   45.9300003      -6.06401827E-08
   45.9900017      -6.08303168E-08
   46.0499992      -6.09788700E-08
   46.1100006      -6.10711126E-08
   46.1699982      -6.10996125E-08
   46.2299995      -6.10605895E-08
   46.2900009      -6.09511162E-08
   46.3499985      -6.07688335E-08
   46.4099998      -6.05145729E-08
   46.4700012      -6.01963706E-08
   46.5299988      -5.98322174E-08
   46.5900002      -5.94493024E-08
   46.6500015      -5.90787863E-08
   46.7099991      -5.87472471E-08
   46.7700005      -5.84680215E-08
   46.8300018      -5.82359263E-08
   46.8899994      -5.80278581E-08
   46.9500008      -5.78094657E-08
   47.0099983      -5.75454564E-08
   47.0699997      -5.72099061E-08
   47.1300011      -5.67929455E-08
   47.1899986      -5.63018610E-08
   47.2500000      -5.57566651E-08
   47.3100014      -5.51818324E-08
   47.3699989      -5.45966934E-08
   47.4300003      -5.40071277E-08
   47.4900017      -5.34010134E-08
   47.5499992      -5.27492112E-08
   47.6100006      -5.20129539E-08
   47.6699982      -5.11563130E-08
   47.7299995      -5.01604340E-08
   47.7900009      -4.90342842E-08
   47.8499985      -4.78170641E-08
   47.9099998      -4.65698768E-08
   47.9700012      -4.53585791E-08
   48.0299988      -4.42336372E-08
   48.0900002      -4.32145235E-08
   48.1500015      -4.22846753E-08
   48.2099991      -4.13989945E-08
   48.2700005      -4.05011704E-08
   48.3300018      -3.95450677E-08
   48.3899994      -3.85135976E-08
   48.4500008      -3.74298033E-08
   48.5099983      -3.63573847E-08
   48.5699997      -3.53903786E-08
   48.6300011      -3.46340983E-08
   48.6899986      -3.41820048E-08
   48.7500000      -3.40949704E-08
   48.8100014      -3.43904034E-08
   48.8699989      -3.50467815E-08
   48.9300003      -3.60245842E-08
   48.9900017      -3.72986939E-08
   49.0499992      -3.88921748E-08
   49.1100006      -4.09000513E-08
   49.1699982      -4.34950955E-08
   49.2299995      -4.69140709E-08
   49.2900009      -5.14301703E-08
   49.3499985      -5.73217740E-08
   49.4099998      -6.48484360E-08
   49.4700012      -7.42420738E-08
   49.5299988      -8.57167706E-08
   49.5900002      -9.94957929E-08
   49.6500015      -1.15850355E-07
   49.7099991      -1.35141718E-07
   49.7700005      -1.57857116E-07
   49.8300018      -1.84631034E-07
   49.8899994      -2.16247273E-07
   49.9500008      -2.53623796E-07
   50.0099983      -2.97788432E-07
   50.0699997      -3.49858112E-07
   50.1300011      -4.11032204E-07
   50.1899986      -4.82607106E-07
   50.2500000      -5.66011011E-07
   50.3100014      -6.62851789E-07
   50.3699989      -7.74969521E-07
   50.4300003      -9.04484466E-07
   50.4900017      -1.05383424E-06
   50.5499992      -1.22579911E-06
   50.6100006      -1.42351485E-06