 -0.750000000       0.00000000    
 -0.689999998       0.00000000    
 -0.629999995       0.00000000    
 -0.569999993       0.00000000    
 -0.509999990       0.00000000    
 -0.449999988       0.00000000    
 -0.389999986       0.00000000    
 -0.330000013       0.00000000    
 -0.270000011       3.69124312E-25
 -0.209999993       3.46077539E-24
 -0.150000006       1.40013344E-23
  -9.00000036E-02   2.43169198E-23
  -2.99999993E-02  -3.25511336E-23
   2.99999993E-02  -3.20811227E-22
   9.00000036E-02  -9.44637735E-22
  0.150000006      -1.34050818E-21
  0.209999993       6.00689534E-22
  0.270000011       8.27479415E-21
  0.330000013       2.23694808E-20
  0.389999986       3.19446425E-20
  0.449999988       6.17362979E-21
  0.509999990      -9.71805711E-20
  0.569999993      -2.87021074E-19
  0.629999995      -4.59204044E-19
  0.689999998      -3.35987039E-19
  0.750000000       4.62447522E-19
  0.810000002       2.10591850E-18
  0.870000005       4.03800500E-18
  0.930000007       4.57738218E-18
  0.990000010       1.22162686E-18
   1.04999995      -7.83399349E-18
   1.11000001      -2.11324447E-17
   1.16999996      -3.17187501E-17
   1.23000002      -2.76394146E-17
   1.28999996       2.68209819E-18
   1.35000002       6.04883102E-17
   1.40999997       1.26636217E-16
   1.47000003       1.59617152E-16
   1.52999997       1.09482661E-16
   1.59000003      -5.14184468E-17
   1.64999998      -2.92456072E-16
   1.71000004      -5.06882462E-16
   1.76999998      -5.37172678E-16
   1.83000004      -2.52477387E-16
   1.88999999       3.45314845E-16
   1.95000005       1.04490715E-15
   2.00999999       1.44910937E-15
   2.06999993       1.13923793E-15
   2.13000011      -5.40551281E-17
   2.19000006      -1.80002040E-15
   2.25000000      -3.21809882E-15
   2.30999994      -3.17057879E-15
   2.36999989      -8.83686233E-16
   2.43000007       3.34228063E-15
   2.49000001       7.75434946E-15
   2.54999995       9.51628387E-15
   2.60999990       5.96572970E-15
   2.67000008      -3.60207452E-15
   2.73000002      -1.64939084E-14
   2.78999996      -2.65869260E-14
   2.84999990      -2.63866958E-14
   2.91000009      -1.08737008E-14
   2.97000003       1.83912215E-14
   3.02999997       5.12512735E-14
   3.08999991       7.11108554E-14
   3.15000010       6.17171245E-14
   3.21000004       1.64652431E-14
   3.26999998      -5.41688175E-14
   3.32999992      -1.22034341E-13
   3.39000010      -1.50392543E-13
   3.45000005      -1.10994588E-13
   3.50999999      -2.33769934E-15
   3.56999993       1.40659985E-13
   3.63000011       2.53691463E-13
   3.69000006       2.68201450E-13
   3.75000000       1.46483181E-13
   3.80999994      -8.92642283E-14
   3.86999989      -3.51178450E-13
   3.93000007      -5.12721538E-13
   3.99000001      -4.62866399E-13
   4.05000019      -1.66149172E-13
   4.11000013       3.00944951E-13
   4.17000008       7.61213792E-13
   4.23000002       1.00010918E-12
   4.28999996       8.59930616E-13
   4.34999990       3.23735125E-13
   4.40999985      -4.54220754E-13
   4.46999979      -1.19471241E-12
   4.53000021      -1.60435109E-12
   4.59000015      -1.50435198E-12
   4.65000010      -9.15387666E-13
   4.71000004      -5.17246192E-14
   4.76999998       7.80209664E-13
   4.82999992       1.33336647E-12
   4.88999987       1.54349884E-12
   4.94999981       1.55148832E-12
   5.01000023       1.59792600E-12
   5.07000017       1.83213622E-12
   5.13000011       2.13550206E-12
   5.19000006       2.07245787E-12
   5.25000000       1.03681527E-12
   5.30999994      -1.43021261E-12
   5.36999989      -5.27179862E-12
   5.42999983      -9.67470808E-12
   5.48999977      -1.31132891E-11
   5.55000019      -1.37368502E-11
   5.61000013      -1.00164460E-11
   5.67000008      -1.43990180E-12
   5.73000002       1.10101398E-11
   5.78999996       2.48108062E-11
   5.84999990       3.63618892E-11
   5.90999985       4.18546482E-11
   5.96999979       3.82984755E-11
   6.03000021       2.44021296E-11
   6.09000015       1.06148413E-12
   6.15000010      -2.86550349E-11
   6.21000004      -5.99699665E-11
   6.26999998      -8.71388378E-11
   6.32999992      -1.04272146E-10
   6.38999987      -1.06100420E-10
   6.44999981      -8.86523424E-11
   6.51000023      -4.99032517E-11
   6.57000017       9.53861209E-12
   6.63000011       8.57252949E-11
   6.69000006       1.70803524E-10
   6.75000000       2.52883076E-10
   6.80999994       3.16666166E-10
   6.86999989       3.45049100E-10
   6.92999983       3.21651261E-10
   6.98999977       2.33902481E-10
   7.05000019       7.60463914E-11
   7.11000013      -1.48689214E-10
   7.17000008      -4.27378660E-10
   7.23000002      -7.38423489E-10
   7.28999996      -1.05414644E-09
   7.34999990      -1.34437028E-09
   7.40999985      -1.58017499E-09
   7.46999979      -1.73706849E-09
   7.53000021      -1.79709858E-09
   7.59000015      -1.74984305E-09
   7.65000010      -1.59258595E-09
   7.71000004      -1.33015088E-09
   7.76999998      -9.74761272E-10
   7.82999992      -5.45991419E-10
   7.88999987      -7.05076483E-11
   7.94999981       4.18924895E-10
   8.01000023       8.85641560E-10
   8.06999969       1.29261524E-09
   8.13000011       1.60695168E-09
   8.18999958       1.80449256E-09
   8.25000000       1.87346383E-09
   8.31000042       1.81625448E-09
   8.36999989       1.64889236E-09
   8.43000031       1.39840917E-09
   8.48999977       1.09882536E-09
   8.55000019       7.86734955E-10
   8.60999966       4.97348718E-10
   8.67000008       2.61482863E-10
   8.72999954       1.03517556E-10
   8.78999996       4.00463100E-11
   8.85000038       7.88920318E-11
   8.90999985       2.18380689E-10
   8.97000027       4.47075876E-10
   9.02999973       7.44387385E-10
   9.09000015       1.08242604E-09
   9.14999962       1.42915590E-09
   9.21000004       1.75242143E-09
   9.27000046       2.02401229E-09
   9.32999992       2.22278862E-09
   9.39000034       2.33611019E-09
   9.44999981       2.35933539E-09
   9.51000023       2.29379626E-09
   9.56999969       2.14414420E-09
   9.63000011       1.91610150E-09
   9.68999958       1.61540203E-09
   9.75000000       1.24813693E-09
   9.81000042       8.22087676E-10
   9.86999989       3.48176543E-10
   9.93000031      -1.58910191E-10
   9.98999977      -6.81540435E-10
   10.0500002      -1.20138788E-09
   10.1099997      -1.70245451E-09
   10.1700001      -2.17378138E-09
   10.2299995      -2.61076405E-09
   10.2900000      -3.01442871E-09
   10.3500004      -3.38876194E-09
   10.4099998      -3.73692188E-09
   10.4700003      -4.05762535E-09
   10.5299997      -4.34298641E-09
   10.5900002      -4.57861082E-09
   10.6499996      -4.74594941E-09
   10.7100000      -4.82615281E-09
   10.7700005      -4.80415219E-09
   10.8299999      -4.67168748E-09
   10.8900003      -4.42839143E-09
   10.9499998      -4.08074952E-09
   11.0100002      -3.63941655E-09
   11.0699997      -3.11580917E-09
   11.1300001      -2.51896504E-09
   11.1899996      -1.85340465E-09
   11.2500000      -1.11830789E-09
   11.3100004      -3.07927017E-10
   11.3699999       5.87058957E-10
   11.4300003       1.57759561E-09
   11.4899998       2.67397438E-09
   11.5500002       3.88343624E-09
   11.6099997       5.20789278E-09
   11.6700001       6.64213928E-09
   11.7299995       8.17301160E-09
   11.7900000       9.77995640E-09
   11.8500004       1.14372103E-08
   11.9099998       1.31173836E-08
   11.9700003       1.47957318E-08
   12.0299997       1.64541110E-08
   12.0900002       1.80834938E-08
   12.1499996       1.96843519E-08
   12.2100000       2.12646931E-08
   12.2700005       2.28363408E-08
   12.3299999       2.44104363E-08
   12.3900003       2.59934634E-08
   12.4499998       2.75847967E-08
   12.5100002       2.91763733E-08
   12.5699997       3.07543999E-08
   12.6300001       3.23025233E-08
   12.6899996       3.38054811E-08
   12.7500000       3.52523060E-08
   12.8100004       3.66382480E-08
   12.8699999       3.79650764E-08
   12.9300003       3.92397510E-08
   12.9899998       4.04719955E-08
   13.0500002       4.16714165E-08
   13.1099997       4.28449276E-08
   13.1700001       4.39950156E-08
   13.2299995       4.51189521E-08
   13.2900000       4.62087435E-08
   13.3500004       4.72513300E-08
   13.4099998       4.82285962E-08
   13.4700003       4.91172472E-08
   13.5299997       4.98889570E-08
   13.5900002       5.05116553E-08
   13.6499996       5.09526998E-08
   13.7100000       5.11839993E-08
   13.7700005       5.11882803E-08
   13.8299999       5.09646227E-08
   13.8900003       5.05310993E-08
   13.9499998       4.99228072E-08
   14.0100002       4.91849583E-08
   14.0699997       4.83624305E-08
   14.1300001       4.74888182E-08
   14.1899996       4.65784602E-08
   14.2500000       4.56244358E-08
   14.3100004       4.46035848E-08
   14.3699999       4.34872263E-08
   14.4300003       4.22542428E-08
   14.4899998       4.09020977E-08
   14.5500002       3.94518409E-08
   14.6099997       3.79449823E-08
   14.6700001       3.64328052E-08
   14.7299995       3.49612748E-08
   14.7900000       3.35563399E-08
   14.8500004       3.22145333E-08
   14.9099998       3.09022603E-08
   14.9700003       2.95644558E-08
   15.0299997       2.81402244E-08
   15.0900002       2.65808513E-08
   15.1499996       2.48646810E-08
   15.2100000       2.30044179E-08
   15.2700005       2.10447517E-08
   15.3299999       1.90512406E-08
   15.3900003       1.70941021E-08
   15.4499998       1.52317003E-08
   15.5100002       1.34984655E-08
   15.5699997       1.19001795E-08
   15.6300001       1.04171862E-08
   15.6899996       9.01372221E-09
   15.7500000       7.64997399E-09
   15.8100004       6.29306873E-09
   15.8699999       4.92396390E-09
   15.9300003       3.53879459E-09
   15.9899998       2.14515339E-09
   16.0499992       7.55355500E-10
   16.1100006      -6.20473894E-10
   16.1700001      -1.97887329E-09
   16.2299995      -3.32361227E-09
   16.2900009      -4.66251260E-09
   16.3500004      -6.00214856E-09
   16.4099998      -7.34286187E-09
   16.4699993      -8.67631389E-09
   16.5300007      -9.98674299E-09
   16.5900002      -1.12555858E-08
   16.6499996      -1.24678134E-08
   16.7099991      -1.36176936E-08
   16.7700005      -1.47118717E-08
   16.8299999      -1.57686664E-08
   16.8899994      -1.68136243E-08
   16.9500008      -1.78726509E-08
   17.0100002      -1.89646219E-08
   17.0699997      -2.00955874E-08
   17.1299992      -2.12561719E-08
   17.1900005      -2.24229488E-08
   17.2500000      -2.35634463E-08
   17.3099995      -2.46434002E-08
   17.3700008      -2.56341242E-08
   17.4300003      -2.65177817E-08
   17.4899998      -2.72889142E-08
   17.5499992      -2.79518666E-08
   17.6100006      -2.85153643E-08
   17.6700001      -2.89867348E-08
   17.7299995      -2.93686639E-08
   17.7900009      -2.96605247E-08
   17.8500004      -2.98645801E-08
   17.9099998      -2.99950962E-08
   17.9699993      -3.00868344E-08
   18.0300007      -3.01990788E-08
   18.0900002      -3.04125898E-08
   18.1499996      -3.08190877E-08
   18.2099991      -3.15055821E-08
   18.2700005      -3.25375886E-08
   18.3299999      -3.39458133E-08
   18.3899994      -3.57198786E-08
   18.4500008      -3.78107252E-08
   18.5100002      -4.01409430E-08
   18.5699997      -4.26205169E-08
   18.6299992      -4.51641462E-08
   18.6900005      -4.77063793E-08
   18.7500000      -5.02112592E-08
   18.8099995      -5.26746469E-08
   18.8700008      -5.51189459E-08
   18.9300003      -5.75816799E-08
   18.9899998      -6.01007173E-08
   19.0499992      -6.26995842E-08
   19.1100006      -6.53762839E-08
   19.1700001      -6.80978900E-08
   19.2299995      -7.08017680E-08
   19.2900009      -7.34025889E-08
   19.3500004      -7.58028023E-08
   19.4099998      -7.79038629E-08
   19.4699993      -7.96157664E-08
   19.5300007      -8.08632663E-08
   19.5900002      -8.15886949E-08
   19.6499996      -8.17523755E-08
   19.7099991      -8.13322174E-08
   19.7700005      -8.03237512E-08
   19.8299999      -7.87413583E-08
   19.8899994      -7.66201964E-08
   19.9500008      -7.40174855E-08
   20.0100002      -7.10119252E-08
   20.0699997      -6.77000358E-08
   20.1299992      -6.41892584E-08
   20.1900005      -6.05885759E-08
   20.2500000      -5.69980187E-08
   20.3099995      -5.34988445E-08
   20.3700008      -5.01460278E-08
   20.4300003      -4.69645691E-08
   20.4899998      -4.39504149E-08
   20.5499992      -4.10761238E-08
   20.6100006      -3.83003780E-08
   20.6700001      -3.55795393E-08
   20.7299995      -3.28787806E-08
   20.7900009      -3.01803524E-08
   20.8500004      -2.74872445E-08
   20.9099998      -2.48218708E-08
   20.9699993      -2.22206822E-08
   21.0300007      -1.97266150E-08
   21.0900002      -1.73815113E-08
   21.1499996      -1.52201238E-08
   21.2099991      -1.32665043E-08
   21.2700005      -1.15327845E-08
   21.3299999      -1.00198205E-08
   21.3899994      -8.71903350E-09
   21.4500008      -7.61471064E-09
   21.5100002      -6.68610456E-09
   21.5699997      -5.90871174E-09
   21.6299992      -5.25442134E-09
   21.6900005      -4.69074513E-09
   21.7500000      -4.18005097E-09
   21.8099995      -3.68017816E-09
   21.8700008      -3.14764725E-09
   21.9300003      -2.54371413E-09
   21.9899998      -1.84203564E-09
   22.0499992      -1.03544739E-09
   22.1100006      -1.38991582E-10
   22.1700001       8.12695689E-10
   22.2299995       1.77353643E-09
   22.2900009       2.69743272E-09
   22.3500004       3.54938479E-09
   22.4099998       4.31287983E-09
   22.4699993       4.99166530E-09
   22.5300007       5.60616042E-09
   22.5900002       6.18650153E-09
   22.6499996       6.76485623E-09
   22.7099991       7.36911199E-09
   22.7700005       8.01887179E-09
   22.8299999       8.72359252E-09
   22.8899994       9.48221324E-09
   22.9500008       1.02837374E-08
   23.0100002       1.11086091E-08
   23.0699997       1.19309504E-08
   23.1299992       1.27215776E-08
   23.1900005       1.34513680E-08
   23.2500000       1.40942733E-08
   23.3099995       1.46294212E-08
   23.3700008       1.50422110E-08
   23.4300003       1.53247885E-08
   23.4899998       1.54765427E-08
   23.5499992       1.55049804E-08
   23.6100006       1.54267159E-08
   23.6700001       1.52677710E-08
   23.7299995       1.50620796E-08
   23.7900009       1.48475090E-08
   23.8500004       1.46595633E-08
   23.9099998       1.45238994E-08
   23.9699993       1.44495811E-08
   24.0300007       1.44251375E-08
   24.0900002       1.44190135E-08
   24.1499996       1.43849528E-08
   24.2099991       1.42715626E-08
   24.2700005       1.40341374E-08
   24.3299999       1.36460230E-08
   24.3899994       1.31066793E-08
   24.4500008       1.24441515E-08
   24.5100002       1.17107906E-08
   24.5699997       1.09727392E-08
   24.6299992       1.02953965E-08
   24.6900005       9.72844383E-09
   24.7500000       9.29455357E-09
   24.8099995       8.98520813E-09
   24.8700008       8.76511042E-09
   24.9300003       8.58402149E-09
   24.9899998       8.39228687E-09
   25.0499992       8.15493806E-09
   25.1100006       7.85970933E-09
   25.1700001       7.51652340E-09
   25.2299995       7.14921322E-09
   25.2900009       6.78309187E-09
   25.3500004       6.43331166E-09
   25.4099998       6.09831341E-09
   25.4699993       5.76036197E-09
   25.5300007       5.39240297E-09
   25.5900002       4.96830577E-09
   25.6499996       4.47276705E-09
   25.7099991       3.90773280E-09
   25.7700005       3.29362382E-09
   25.8299999       2.66520694E-09
   25.8899994       2.06323980E-09
   25.9500008       1.52388091E-09
   26.0100002       1.06836640E-09
   26.0699997       6.95675795E-10
   26.1299992       3.80592946E-10
   26.1900005       7.85045501E-11
   26.2500000      -2.63578603E-10
   26.3099995      -6.92507274E-10
   26.3700008      -1.23543353E-09
   26.4300003      -1.89197125E-09
   26.4899998      -2.63530531E-09
   26.5499992      -3.42240281E-09
   26.6100006      -4.21000479E-09
   26.6700001      -4.97064034E-09
   26.7299995      -5.70262415E-09
   26.7900009      -6.43013731E-09
   26.8500004      -7.19321402E-09
   26.9099998      -8.03136668E-09
   26.9699993      -8.96697916E-09
   27.0300007      -9.99471794E-09
   27.0900002      -1.10809362E-08
   27.1499996      -1.21734187E-08
   27.2099991      -1.32181848E-08
   27.2700005      -1.41777248E-08
   27.3299999      -1.50446624E-08
   27.3899994      -1.58463855E-08
   27.4500008      -1.66390333E-08
   27.5100002      -1.74924111E-08
   27.5699997      -1.84701072E-08
   27.6299992      -1.96105905E-08
   27.6900005      -2.09150031E-08
   27.7500000      -2.23456471E-08
   27.8099995      -2.38362379E-08
   27.8700008      -2.53113885E-08
   27.9300003      -2.67097438E-08
   27.9899998      -2.80034982E-08
   28.0499992      -2.92077935E-08
   28.1100006      -3.03763699E-08
   28.1700001      -3.15844098E-08
   28.2299995      -3.29038912E-08
   28.2900009      -3.43796103E-08
   28.3500004      -3.60140184E-08
   28.4099998      -3.77661031E-08
   28.4699993      -3.95646929E-08
   28.5300007      -4.13315284E-08
   28.5900002      -4.30060183E-08
   28.6499996      -4.45631407E-08
   28.7099991      -4.60183429E-08
   28.7700005      -4.74178812E-08
   28.8299999      -4.88180198E-08
   28.8899994      -5.02603292E-08
   28.9500008      -5.17515595E-08
   29.0100002      -5.32551567E-08
   29.0699997      -5.46977290E-08
   29.1299992      -5.59890090E-08
   29.1900005      -5.70494301E-08
   29.2500000      -5.78369530E-08
   29.3099995      -5.83645274E-08
   29.3700008      -5.87021773E-08
   29.4300003      -5.89622111E-08
   29.4899998      -5.92711409E-08
   29.5499992      -5.97364149E-08
   29.6100006      -6.04177828E-08
   29.6700001      -6.13123134E-08
   29.7299995      -6.23579695E-08
   29.7900009      -6.34546495E-08
   29.8500004      -6.44960920E-08
   29.9099998      -6.54021335E-08
   29.9699993      -6.61407995E-08
   30.0300007      -6.67329090E-08
   30.0900002      -6.72381191E-08
   30.1499996      -6.77274130E-08
   30.2099991      -6.82518859E-08
   30.2700005      -6.88185722E-08
   30.3299999      -6.93816986E-08
   30.3899994      -6.98521418E-08
   30.4500008      -7.01218568E-08
   30.5100002      -7.00951119E-08
   30.5699997      -6.97162150E-08
   30.6299992      -6.89848960E-08
   30.6900005      -6.79545380E-08
   30.7500000      -6.67141506E-08
   30.8099995      -6.53601688E-08
   30.8700008      -6.39674411E-08
   30.9300003      -6.25689580E-08
   30.9899998      -6.11508497E-08
   31.0499992      -5.96640888E-08
   31.1100006      -5.80484496E-08
   31.1700001      -5.62604718E-08
   31.2299995      -5.42954339E-08
   31.2900009      -5.21959684E-08
   31.3500004      -5.00443953E-08
   31.4099998      -4.79415441E-08
   31.4699993      -4.59791707E-08
   31.5300007      -4.42147901E-08
   31.5900002      -4.26566515E-08
   31.6499996      -4.12631351E-08
   31.7099991      -3.99563653E-08
   31.7700005      -3.86459220E-08
   31.8299999      -3.72557984E-08
   31.8899994      -3.57468544E-08
   31.9500008      -3.41283908E-08
   32.0099983      -3.24552509E-08
   32.0699997      -3.08112362E-08
   32.1300011      -2.92838109E-08
   32.1899986      -2.79383521E-08
   32.2500000      -2.68005458E-08
   32.3100014      -2.58529891E-08
   32.3699989      -2.50469654E-08
   32.4300003      -2.43246596E-08
   32.4900017      -2.36431568E-08
   32.5499992      -2.29912160E-08
   32.6100006      -2.23929177E-08
   32.6699982      -2.18978045E-08
   32.7299995      -2.15621849E-08
   32.7900009      -2.14291642E-08
   32.8499985      -2.15143334E-08
   32.9099998      -2.18012080E-08
   32.9700012      -2.22465637E-08
   33.0299988      -2.27929124E-08
   33.0900002      -2.33840556E-08
   33.1500015      -2.39798137E-08
   33.2099991      -2.45669227E-08
   33.2700005      -2.51639509E-08
   33.3300018      -2.58190429E-08
   33.3899994      -2.66004960E-08
   33.4500008      -2.75819581E-08
   33.5099983      -2.88258821E-08
   33.5699997      -3.03699963E-08
   33.6300011      -3.22210028E-08
   33.6899986      -3.43571536E-08
   33.7500000      -3.67381112E-08
   33.8100014      -3.93174879E-08
   33.8699989      -4.20530384E-08
   33.9300003      -4.49109869E-08
   33.9900017      -4.78645426E-08
   34.0499992      -5.08894509E-08
   34.1100006      -5.39605693E-08
   34.1699982      -5.70520271E-08
   34.2299995      -6.01406498E-08
   34.2900009      -6.32098320E-08
   34.3499985      -6.62505144E-08
   34.4099998      -6.92573963E-08
   34.4700012      -7.22218019E-08
   34.5299988      -7.51245040E-08
   34.5900002      -7.79324552E-08
   34.6500015      -8.06013318E-08
   34.7099991      -8.30827602E-08
   34.7700005      -8.53327862E-08
   34.8300018      -8.73178081E-08
   34.8899994      -8.90155647E-08
   34.9500008      -9.04120583E-08
   35.0099983      -9.14967231E-08
   35.0699997      -9.22591283E-08
   35.1300011      -9.26887935E-08
   35.1899986      -9.27776966E-08
   35.2500000      -9.25236563E-08
   35.3100014      -9.19321295E-08
   35.3699989      -9.10157212E-08
   35.4300003      -8.97917118E-08
   35.4900017      -8.82792506E-08
   35.5499992      -8.64973657E-08
   35.6100006      -8.44641406E-08
   35.6699982      -8.21963724E-08
   35.7299995      -7.97085349E-08
   35.7900009      -7.70109239E-08
   35.8499985      -7.41075752E-08
   35.9099998      -7.09957106E-08
   35.9700012      -6.76679335E-08
   36.0299988      -6.41172733E-08
   36.0900002      -6.03438934E-08
   36.1500015      -5.63608964E-08
   36.2099991      -5.21972829E-08
   36.2700005      -4.78968367E-08
   36.3300018      -4.35136478E-08
   36.3899994      -3.91058919E-08
   36.4500008      -3.47297551E-08
   36.5099983      -3.04348831E-08
   36.5699997      -2.62617625E-08
   36.6300011      -2.22406271E-08
   36.6899986      -1.83915816E-08
   36.7500000      -1.47255586E-08
   36.8100014      -1.12462626E-08
   36.8699989      -7.95302846E-09
   36.9300003      -4.84427165E-09
   36.9900017      -1.92073690E-09
   37.0499992       8.12294843E-10
   37.1100006       3.34432593E-09
   37.1699982       5.66029401E-09
   37.2299995       7.74187736E-09
   37.2900009       9.56878043E-09
   37.3499985       1.11198899E-08
   37.4099998       1.23748602E-08
   37.4700012       1.33169298E-08
   37.5299988       1.39372824E-08
   37.5900002       1.42401637E-08
   37.6500015       1.42468979E-08
   37.7099991       1.39966554E-08
   37.7700005       1.35426221E-08
   37.8300018       1.29438940E-08
   37.8899994       1.22551427E-08
   37.9500008       1.15170762E-08
   38.0099983       1.07504263E-08
   38.0699997       9.95489735E-09
   38.1300011       9.11286158E-09
   38.1899986       8.19640000E-09
   38.2500000       7.17579107E-09
   38.3100014       6.02779604E-09
   38.3699989       4.74241313E-09
   38.4300003       3.32701466E-09
   38.4900017       1.80684823E-09
   38.5499992       2.21223873E-10
   38.6100006      -1.38440837E-09
   38.6699982      -2.96889491E-09
   38.7299995      -4.50543425E-09
   38.7900009      -5.98791994E-09
   38.8499985      -7.43112594E-09
   38.9099998      -8.86435370E-09
   38.9700012      -1.03204760E-08
   39.0299988      -1.18239436E-08
   39.0900002      -1.33814675E-08
   39.1500015      -1.49779744E-08
   39.2099991      -1.65784897E-08
   39.2700005      -1.81349904E-08
   39.3300018      -1.95962269E-08
   39.3899994      -2.09182858E-08
   39.4500008      -2.20737668E-08
   39.5099983      -2.30577424E-08
   39.5699997      -2.38890063E-08
   39.6300011      -2.46059120E-08
   39.6899986      -2.52573589E-08
   39.7500000      -2.58911168E-08
   39.8100014      -2.65427857E-08
   39.8699989      -2.72288698E-08
   39.9300003      -2.79460917E-08
   39.9900017      -2.86767960E-08
   40.0499992      -2.93980342E-08
   40.1100006      -3.00907850E-08
   40.1699982      -3.07460937E-08
   40.2299995      -3.13665502E-08
   40.2900009      -3.19635838E-08
   40.3499985      -3.25523040E-08
   40.4099998      -3.31461152E-08
   40.4700012      -3.37526451E-08
   40.5299988      -3.43718440E-08
   40.5900002      -3.49963472E-08
   40.6500015      -3.56139900E-08
   40.7099991      -3.62121959E-08
   40.7700005      -3.67834616E-08
   40.8300018      -3.73306364E-08
   40.8899994      -3.78702083E-08
   40.9500008      -3.84318035E-08
   41.0099983      -3.90533685E-08
   41.0699997      -3.97729103E-08
   41.1300011      -4.06193870E-08
   41.1899986      -4.16057944E-08
   41.2500000      -4.27268532E-08
   41.3100014      -4.39618262E-08
   41.3699989      -4.52811086E-08
   41.4300003      -4.66538985E-08
   41.4900017      -4.80543214E-08
   41.5499992      -4.94644894E-08
   41.6100006      -5.08742595E-08
   41.6699982      -5.22787005E-08
   41.7299995      -5.36743450E-08
   41.7900009      -5.50550219E-08
   41.8499985      -5.64076217E-08
   41.9099998      -5.77082098E-08
   41.9700012      -5.89193618E-08
   42.0299988      -5.99901355E-08
   42.0900002      -6.08600459E-08
   42.1500015      -6.14674605E-08
   42.2099991      -6.17610993E-08
   42.2700005      -6.17117735E-08
   42.3300018      -6.13209750E-08
   42.3899994      -6.06232931E-08
   42.4500008      -5.96819305E-08
   42.5099983      -5.85781947E-08
   42.5699997      -5.73980472E-08
   42.6300011      -5.62187736E-08
   42.6899986      -5.50985746E-08
   42.7500000      -5.40707674E-08
   42.8100014      -5.31430260E-08
   42.8699989      -5.23012496E-08
   42.9300003      -5.15171976E-08
   42.9900017      -5.07582030E-08
   43.0499992      -4.99970412E-08
   43.1100006      -4.92194694E-08
   43.1699982      -4.84273706E-08
   43.2299995      -4.76365862E-08
   43.2900009      -4.68702837E-08
   43.3499985      -4.61503298E-08
   43.4099998      -4.54900793E-08
   43.4700012      -4.48914506E-08
   43.5299988      -4.43472672E-08
   43.5900002      -4.38476917E-08
   43.6500015      -4.33877574E-08
   43.7099991      -4.29726263E-08
   43.7700005      -4.26183604E-08
   43.8300018      -4.23478141E-08
   43.8899994      -4.21833128E-08
   43.9500008      -4.21386979E-08
   44.0099983      -4.22132906E-08
   44.0699997      -4.23892637E-08
   44.1300011      -4.26328484E-08
   44.1899986      -4.28988436E-08
   44.2500000      -4.31374438E-08
   44.3100014      -4.33022720E-08
   44.3699989      -4.33581455E-08
   44.4300003      -4.32869882E-08
   44.4900017      -4.30901146E-08
   44.5499992      -4.27859455E-08
   44.6100006      -4.24035278E-08
   44.6699982      -4.19739798E-08
   44.7299995      -4.15230410E-08
   44.7900009      -4.10675938E-08
   44.8499985      -4.06172269E-08
   44.9099998      -4.01792981E-08
   44.9700012      -3.97642062E-08
   45.0299988      -3.93874409E-08
   45.0900002      -3.90669221E-08
   45.1500015      -3.88168573E-08
   45.2099991      -3.86415593E-08
   45.2700005      -3.85327610E-08
   45.3300018      -3.84720806E-08
   45.3899994      -3.84374417E-08
   45.4500008      -3.84103060E-08
   45.5099983      -3.83803034E-08
   45.5699997      -3.83458278E-08
   45.6300011      -3.83113843E-08
   45.6899986      -3.82840106E-08
   45.7500000      -3.82707093E-08
   45.8100014      -3.82773173E-08
   45.8699989      -3.83077463E-08
   45.9300003      -3.83622307E-08
   45.9900017      -3.84346244E-08
   46.0499992      -3.85105992E-08
   46.1100006      -3.85693255E-08
   46.1699982      -3.85900485E-08
   46.2299995      -3.85619749E-08
   46.2900009      -3.84932264E-08
   46.3499985      -3.84137735E-08
   46.4099998      -3.83694108E-08
   46.4700012      -3.84081140E-08
   46.5299988      -3.85640817E-08
   46.5900002      -3.88464869E-08
   46.6500015      -3.92379675E-08
   46.7099991      -3.97035009E-08
   46.7700005      -4.02053111E-08
   46.8300018      -4.07171541E-08
   46.8899994      -4.12320347E-08
   46.9500008      -4.17611403E-08
   47.0099983      -4.23259472E-08
   47.0699997      -4.29481588E-08
   47.1300011      -4.36418226E-08
   47.1899986      -4.44096244E-08
   47.2500000      -4.52425972E-08
   47.3100014      -4.61209666E-08
   47.3699989      -4.70144990E-08
   47.4300003      -4.78826401E-08
   47.4900017      -4.86764975E-08
   47.5499992      -4.93445995E-08
   47.6100006      -4.98426225E-08
   47.6699982      -5.01445960E-08
   47.7299995      -5.02513160E-08
   47.7900009      -5.01920887E-08
   47.8499985      -5.00184818E-08
   47.9099998      -4.97918968E-08
   47.9700012      -4.95693087E-08
   48.0299988      -4.93918897E-08
   48.0900002      -4.92793610E-08
   48.1500015      -4.92305574E-08
   48.2099991      -4.92282943E-08
   48.2700005      -4.92461858E-08
   48.3300018      -4.92555685E-08
   48.3899994      -4.92316978E-08
   48.4500008      -4.91590271E-08
   48.5099983      -4.90347993E-08
   48.5699997      -4.88697260E-08
   48.6300011      -4.86843028E-08
   48.6899986      -4.85006773E-08
   48.7500000      -4.83320548E-08
   48.8100014      -4.81738169E-08
   48.8699989      -4.80010094E-08
   48.9300003      -4.77749857E-08
   48.9900017      -4.74584958E-08
   49.0499992      -4.70344226E-08
   49.1100006      -4.65212011E-08
   49.1699982      -4.59786129E-08
   49.2299995      -4.55011389E-08
   49.2900009      -4.52007853E-08
   49.3499985      -4.51854554E-08
   49.4099998      -4.55404425E-08
   49.4700012      -4.63193075E-08
   49.5299988      -4.75470934E-08
   49.5900002      -4.92347283E-08
   49.6500015      -5.14005265E-08
   49.7099991      -5.40931673E-08
   49.7700005      -5.74106629E-08
   49.8300018      -6.15110594E-08
   49.8899994      -6.66127065E-08
   49.9500008      -7.29846050E-08
   50.0099983      -8.09300857E-08
   50.0699997      -9.07701008E-08
   50.1300011      -1.02833049E-07
   50.1899986      -1.17457134E-07
   50.2500000      -1.35007369E-07
   50.3100014      -1.55904189E-07
   50.3699989      -1.80656784E-07
   50.4300003      -2.09892278E-07
   50.4900017      -2.44375059E-07
   50.5499992      -2.85013897E-07
   50.6100006      -3.32860367E-07