  -2.400000      0.0000000E+00
  -2.340000      0.0000000E+00
  -2.280000      0.0000000E+00
  -2.220000      0.0000000E+00
  -2.160000      0.0000000E+00
  -2.100000     -1.0337186E-20
  -2.040000      7.4266466E-20
  -1.980000      9.5421488E-19
  -1.920000      4.1260253E-18
  -1.860000      9.6116179E-18
  -1.800000      9.6373043E-18
  -1.740000     -1.7097898E-17
  -1.680000     -9.6555675E-17
  -1.620000     -2.2177281E-16
  -1.560000     -2.9619453E-16
  -1.500000     -1.1193277E-16
  -1.440000      5.5487927E-16
  -1.380000      1.6938172E-15
  -1.320000      2.7579365E-15
  -1.260000      2.5831180E-15
  -1.200000     -1.5630006E-16
  -1.140000     -5.8836586E-15
  -1.080000     -1.2890530E-14
  -1.020000     -1.6887824E-14
 -0.9600000     -1.2312541E-14
 -0.9000000      4.4140670E-15
 -0.8400000      3.0907599E-14
 -0.7800000      5.6641679E-14
 -0.7200000      6.5167537E-14
 -0.6600000      4.1537767E-14
 -0.6000000     -1.7478742E-14
 -0.5400000     -9.5788266E-14
 -0.4800000     -1.5897414E-13
 -0.4200000     -1.6683180E-13
 -0.3600000     -9.4272483E-14
 -0.3000000      4.8829684E-14
 -0.2400000      2.1089880E-13
 -0.1800000      3.1336535E-13
 -0.1200000      2.8540988E-13
 -5.9999999E-02  1.0542542E-13
  0.0000000E+00 -1.7202476E-13
  5.9999999E-02 -4.2330814E-13
  0.1200000     -5.0336834E-13
  0.1800000     -3.1981671E-13
  0.2400000      9.9635605E-14
  0.3000000      5.8601838E-13
  0.3600000      8.8039455E-13
  0.4200000      7.5160998E-13
  0.4800000      1.3557031E-13
  0.5400000     -7.7497980E-13
  0.6000000     -1.5557974E-12
  0.6600000     -1.7135818E-12
  0.7200000     -9.3844583E-13
  0.7800000      6.6403540E-13
  0.8400000      2.4926101E-12
  0.9000000      3.6089434E-12
  0.9600000      3.1197807E-12
   1.020000      6.4870413E-13
   1.080000     -3.3124738E-12
   1.140000     -7.3681269E-12
   1.200000     -9.5815751E-12
   1.260000     -8.1501412E-12
   1.320000     -2.1589898E-12
   1.380000      7.8729089E-12
   1.440000      1.9870643E-11
   1.500000      3.0559066E-11
   1.560000      3.6177724E-11
   1.620000      3.3337704E-11
   1.680000      1.9819021E-11
   1.740000     -4.7893751E-12
   1.800000     -3.8596789E-11
   1.860000     -7.7029022E-11
   1.920000     -1.1261594E-10
   1.980000     -1.3517730E-10
   2.040000     -1.3277275E-10
   2.100000     -9.3762172E-11
   2.160000     -1.0080187E-11
   2.220000      1.1860019E-10
   2.280000      2.8061997E-10
   2.340000      4.4915280E-10
   2.400000      5.8128991E-10
   2.460000      6.2027716E-10
   2.520000      5.0116350E-10
   2.580000      1.5933391E-10
   2.640000     -4.5934054E-10
   2.700000     -1.3885076E-09
   2.760000     -2.6333986E-09
   2.820000     -4.1665804E-09
   2.880000     -5.9283813E-09
   2.940000     -7.8321012E-09
   3.000000     -9.7731956E-09
   3.060000     -1.1640904E-08
   3.120000     -1.3330331E-08
   3.180000     -1.4753139E-08
   3.240000     -1.5845419E-08
   3.300000     -1.6572127E-08
   3.360000     -1.6928203E-08
   3.420000     -1.6937120E-08
   3.480000     -1.6647684E-08
   3.540000     -1.6129786E-08
   3.600000     -1.5469366E-08
   3.660000     -1.4762454E-08
   3.720000     -1.4108101E-08
   3.780000     -1.3600229E-08
   3.840000     -1.3318834E-08
   3.900000     -1.3321531E-08
   3.960000     -1.3636616E-08
   4.020000     -1.4258814E-08
   4.080000     -1.5148553E-08
   4.140000     -1.6235147E-08
   4.200000     -1.7423826E-08
   4.260000     -1.8606190E-08
   4.320000     -1.9673282E-08
   4.380000     -2.0530003E-08
   4.440000     -2.1109093E-08
   4.500000     -2.1382261E-08
   4.560000     -2.1366001E-08
   4.620000     -2.1119970E-08
   4.680000     -2.0737168E-08
   4.740000     -2.0326963E-08
   4.800000     -1.9994022E-08
   4.860000     -1.9817699E-08
   4.920000     -1.9836623E-08
   4.980000     -2.0042217E-08
   5.040000     -2.0382592E-08
   5.100000     -2.0775619E-08
   5.160000     -2.1127622E-08
   5.220000     -2.1352998E-08
   5.280000     -2.1390180E-08
   5.340000     -2.1210818E-08
   5.400000     -2.0821012E-08
   5.460000     -2.0255499E-08
   5.520000     -1.9567098E-08
   5.580000     -1.8814367E-08
   5.640000     -1.8050192E-08
   5.700000     -1.7313447E-08
   5.760000     -1.6624757E-08
   5.820000     -1.5986579E-08
   5.880000     -1.5386805E-08
   5.940000     -1.4804611E-08
   6.000000     -1.4216871E-08
   6.060000     -1.3603619E-08
   6.120000     -1.2951462E-08
   6.180000     -1.2254572E-08
   6.240000     -1.1513546E-08
   6.300000     -1.0732990E-08
   6.360000     -9.9188204E-09
   6.420000     -9.0761221E-09
   6.480000     -8.2081355E-09
   6.540000     -7.3165731E-09
   6.600000     -6.4031758E-09
   6.660000     -5.4721836E-09
   6.720000     -4.5330455E-09
   6.780000     -3.6023990E-09
   6.840000     -2.7041511E-09
   6.900000     -1.8667046E-09
   6.960000     -1.1171110E-09
   7.020000     -4.7307763E-10
   7.080000      6.5062476E-11
   7.140000      5.1967675E-10
   7.200000      9.3603680E-10
   7.260000      1.3763446E-09
   7.320000      1.9084938E-09
   7.380000      2.5923561E-09
   7.440000      3.4674001E-09
   7.500000      4.5451980E-09
   7.560000      5.8089253E-09
   7.620000      7.2198323E-09
   7.680000      8.7286169E-09
   7.740000      1.0288323E-08
   7.800000      1.1865171E-08
   7.860000      1.3444602E-08
   7.920000      1.5031345E-08
   7.980000      1.6644051E-08
   8.040000      1.8306437E-08
   8.100000      2.0037616E-08
   8.160000      2.1844221E-08
   8.220000      2.3716243E-08
   8.280000      2.5627374E-08
   8.340000      2.7539441E-08
   8.400000      2.9409566E-08
   8.460000      3.1198137E-08
   8.520000      3.2875580E-08
   8.580000      3.4426339E-08
   8.640000      3.5849240E-08
   8.700000      3.7154223E-08
   8.760000      3.8356532E-08
   8.820000      3.9469946E-08
   8.880000      4.0501117E-08
   8.940000      4.1446725E-08
   9.000000      4.2294403E-08
   9.060000      4.3027278E-08
   9.120000      4.3630809E-08
   9.180000      4.4099778E-08
   9.240000      4.4443158E-08
   9.300000      4.4685077E-08
   9.360000      4.4861309E-08
   9.420000      4.5011948E-08
   9.480000      4.5172218E-08
   9.540000      4.5363961E-08
   9.600000      4.5590163E-08
   9.660000      4.5834259E-08
   9.720000      4.6064461E-08
   9.780000      4.6242089E-08
   9.840000      4.6331511E-08
   9.900000      4.6308983E-08
   9.960000      4.6167802E-08
   10.02000      4.5918412E-08
   10.08000      4.5583754E-08
   10.14000      4.5191577E-08
   10.20000      4.4766495E-08
   10.26000      4.4324310E-08
   10.32000      4.3870138E-08
   10.38000      4.3400227E-08
   10.44000      4.2905896E-08
   10.50000      4.2377465E-08
   10.56000      4.1806526E-08
   10.62000      4.1186020E-08
   10.68000      4.0508972E-08
   10.74000      3.9767311E-08
   10.80000      3.8952113E-08
   10.86000      3.8055585E-08
   10.92000      3.7074063E-08
   10.98000      3.6010661E-08
   11.04000      3.4876365E-08
   11.10000      3.3689034E-08
   11.16000      3.2470648E-08
   11.22000      3.1243683E-08
   11.28000      3.0027486E-08
   11.34000      2.8835267E-08
   11.40000      2.7672058E-08
   11.46000      2.6533911E-08
   11.52000      2.5408662E-08
   11.58000      2.4278574E-08
   11.64000      2.3124713E-08
   11.70000      2.1932104E-08
   11.76000      2.0694154E-08
   11.82000      1.9414575E-08
   11.88000      1.8105899E-08
   11.94000      1.6784922E-08
   12.00000      1.5466860E-08
   12.06000      1.4160616E-08
   12.12000      1.2867104E-08
   12.18000      1.1581197E-08
   12.24000      1.0296167E-08
   12.30000      9.0084056E-09
   12.36000      7.7202227E-09
   12.42000      6.4395054E-09
   12.48000      5.1766098E-09
   12.54000      3.9400017E-09
   12.60000      2.7326001E-09
   12.66000      1.5502285E-09
   12.72000      3.8252806E-10
   12.78000     -7.8431522E-10
   12.84000     -1.9642388E-09
   12.90000     -3.1685328E-09
   12.96000     -4.4044017E-09
   13.02000     -5.6751115E-09
   13.08000     -6.9815629E-09
   13.14000     -8.3248093E-09
   13.20000     -9.7087440E-09
   13.26000     -1.1141938E-08
   13.32000     -1.2637548E-08
   13.38000     -1.4210631E-08
   13.44000     -1.5873066E-08
   13.50000     -1.7627553E-08
   13.56000     -1.9462986E-08
   13.62000     -2.1353719E-08
   13.68000     -2.3263958E-08
   13.74000     -2.5156622E-08
   13.80000     -2.7003832E-08
   13.86000     -2.8795116E-08
   13.92000     -3.0539873E-08
   13.98000     -3.2262822E-08
   14.04000     -3.3993850E-08
   14.10000     -3.5756095E-08
   14.16000     -3.7556681E-08
   14.22000     -3.9383327E-08
   14.28000     -4.1207549E-08
   14.34000     -4.2992699E-08
   14.40000     -4.4703373E-08
   14.46000     -4.6312948E-08
   14.52000     -4.7807251E-08
   14.58000     -4.9184059E-08
   14.64000     -5.0449636E-08
   14.70000     -5.1613895E-08
   14.76000     -5.2685522E-08
   14.82000     -5.3668046E-08
   14.88000     -5.4557340E-08
   14.94000     -5.5341175E-08
   15.00000     -5.6001191E-08
   15.06000     -5.6517255E-08
   15.12000     -5.6873318E-08
   15.18000     -5.7062934E-08
   15.24000     -5.7092247E-08
   15.30000     -5.6978969E-08
   15.36000     -5.6747329E-08
   15.42000     -5.6420685E-08
   15.48000     -5.6014660E-08
   15.54000     -5.5533409E-08
   15.60000     -5.4970279E-08
   15.66000     -5.4312238E-08
   15.72000     -5.3545978E-08
   15.78000     -5.2663129E-08
   15.84000     -5.1662916E-08
   15.90000     -5.0551922E-08
   15.96000     -4.9341981E-08
   16.02000     -4.8047632E-08
   16.08000     -4.6684363E-08
   16.14000     -4.5267971E-08
   16.20000     -4.3814488E-08
   16.26000     -4.2339963E-08
   16.32000     -4.0859511E-08
   16.38000     -3.9385668E-08
   16.44000     -3.7926583E-08
   16.50000     -3.6484909E-08
   16.56000     -3.5058019E-08
   16.62000     -3.3639797E-08
   16.68000     -3.2223856E-08
   16.74000     -3.0807353E-08
   16.80000     -2.9394469E-08
   16.86000     -2.7998320E-08
   16.92000     -2.6640292E-08
   16.98000     -2.5346390E-08
   17.04000     -2.4141089E-08
   17.10000     -2.3040137E-08
   17.16000     -2.2044615E-08
   17.22000     -2.1138462E-08
   17.28000     -2.0290889E-08
   17.34000     -1.9463593E-08
   17.40000     -1.8620854E-08
   17.46000     -1.7739515E-08
   17.52000     -1.6815525E-08
   17.58000     -1.5864764E-08
   17.64000     -1.4917578E-08
   17.70000     -1.4008558E-08
   17.76000     -1.3164576E-08
   17.82000     -1.2394731E-08
   17.88000     -1.1685318E-08
   17.94000     -1.1001513E-08
   18.00000     -1.0295488E-08
   18.06000     -9.5188319E-09
   18.12000     -8.6358245E-09
   18.18000     -7.6337647E-09
   18.24000     -6.5273325E-09
   18.30000     -5.3555760E-09
   18.36000     -4.1722994E-09
   18.42000     -3.0325156E-09
   18.48000     -1.9787727E-09
   18.54000     -1.0311098E-09
   18.60000     -1.8319862E-10
   18.66000      5.9467392E-10
   18.72000      1.3470989E-09
   18.78000      2.1222160E-09
   18.84000      2.9607039E-09
   18.90000      3.8876902E-09
   18.96000      4.9089683E-09
   19.02000      6.0114966E-09
   19.08000      7.1669928E-09
   19.14000      8.3368636E-09
   19.20000      9.4767945E-09
   19.26000      1.0539980E-08
   19.32000      1.1478867E-08
   19.38000      1.2246089E-08
   19.44000      1.2795707E-08
   19.50000      1.3085720E-08
   19.56000      1.3082238E-08
   19.62000      1.2764891E-08
   19.68000      1.2132332E-08
   19.74000      1.1206344E-08
   19.80000      1.0033134E-08
   19.86000      8.6809120E-09
   19.92000      7.2335937E-09
   19.98000      5.7812488E-09
   20.04000      4.4087241E-09
   20.10000      3.1843845E-09
   20.16000      2.1511872E-09
   20.22000      1.3220506E-09
   20.28000      6.8067851E-10
   20.34000      1.8775395E-10
   20.40000     -2.0894776E-10
   20.46000     -5.6298566E-10
   20.52000     -9.1893770E-10
   20.58000     -1.3054481E-09
   20.64000     -1.7325261E-09
   20.70000     -2.1926896E-09
   20.76000     -2.6646931E-09
   20.82000     -3.1184202E-09
   20.88000     -3.5199157E-09
   20.94000     -3.8361208E-09
   21.00000     -4.0392170E-09
   21.06000     -4.1104813E-09
   21.12000     -4.0433030E-09
   21.18000     -3.8448156E-09
   21.24000     -3.5357210E-09
   21.30000     -3.1482204E-09
   21.36000     -2.7224125E-09
   21.42000     -2.3017339E-09
   21.48000     -1.9279633E-09
   21.54000     -1.6361449E-09
   21.60000     -1.4497169E-09
   21.66000     -1.3763444E-09
   21.72000     -1.4053062E-09
   21.78000     -1.5074675E-09
   21.84000     -1.6385642E-09
   21.90000     -1.7456789E-09
   21.96000     -1.7757109E-09
   22.02000     -1.6838387E-09
   22.08000     -1.4399046E-09
   22.14000     -1.0313926E-09
   22.20000     -4.6289428E-10
   22.26000      2.4692060E-10
   22.32000      1.0692929E-09
   22.38000      1.9690201E-09
   22.44000      2.9071829E-09
   22.50000      3.8431236E-09
   22.56000      4.7362034E-09
   22.62000      5.5477689E-09
   22.68000      6.2433836E-09
   22.74000      6.7950965E-09
   22.80000      7.1834836E-09
   22.86000      7.3993731E-09
   22.92000      7.4452817E-09
   22.98000      7.3364266E-09
   23.04000      7.1007706E-09
   23.10000      6.7772299E-09
   23.16000      6.4112808E-09
   23.22000      6.0479848E-09
   23.28000      5.7236287E-09
   23.34000      5.4582743E-09
   23.40000      5.2517692E-09
   23.46000      5.0849831E-09
   23.52000      4.9263420E-09
   23.58000      4.7418411E-09
   23.64000      4.5055217E-09
   23.70000      4.2072963E-09
   23.76000      3.8560768E-09
   23.82000      3.4777905E-09
   23.88000      3.1093392E-09
   23.94000      2.7904206E-09
   24.00000      2.5552305E-09
   24.06000      2.4257545E-09
   24.12000      2.4078677E-09
   24.18000      2.4910192E-09
   24.24000      2.6516731E-09
   24.30000      2.8598124E-09
   24.36000      3.0867409E-09
   24.42000      3.3115728E-09
   24.48000      3.5238019E-09
   24.54000      3.7205257E-09
   24.60000      3.8990349E-09
   24.66000      4.0476715E-09
   24.72000      4.1389865E-09
   24.78000      4.1285579E-09
   24.84000      3.9605395E-09
   24.90000      3.5780996E-09
   24.96000      2.9348579E-09
   25.02000      2.0031876E-09
   25.08000      7.7691964E-10
   25.14000     -7.3143475E-10
   25.20000     -2.4966793E-09
   25.26000     -4.4872164E-09
   25.32000     -6.6695853E-09
   25.38000     -9.0109049E-09
   25.44000     -1.1480199E-08
   25.50000     -1.4049825E-08
   25.56000     -1.6697435E-08
   25.62000     -1.9407841E-08
   25.68000     -2.2173673E-08
   25.74000     -2.4994202E-08
   25.80000     -2.7872764E-08
   25.86000     -3.0814057E-08
   25.92000     -3.3822605E-08
   25.98000     -3.6902538E-08
   26.04000     -4.0057756E-08
   26.10000     -4.3290722E-08
   26.16000     -4.6598828E-08
   26.22000     -4.9968801E-08
   26.28000     -5.3371338E-08
   26.34000     -5.6758925E-08
   26.40000     -6.0069070E-08
   26.46000     -6.3233053E-08
   26.52000     -6.6188072E-08
   26.58000     -6.8889094E-08
   26.64000     -7.1316684E-08
   26.70000     -7.3478716E-08
   26.76000     -7.5405666E-08
   26.82000     -7.7141436E-08
   26.88000     -7.8732185E-08
   26.94000     -8.0215848E-08
   27.00000     -8.1614125E-08
   27.06000     -8.2928103E-08
   27.12000     -8.4138080E-08
   27.18000     -8.5207738E-08
   27.24000     -8.6092186E-08
   27.30000     -8.6748450E-08
   27.36000     -8.7146113E-08
   27.42000     -8.7274778E-08
   27.48000     -8.7146191E-08
   27.54000     -8.6789797E-08
   27.60000     -8.6243247E-08
   27.66000     -8.5541252E-08
   27.72000     -8.4706933E-08
   27.78000     -8.3748709E-08
   27.84000     -8.2663497E-08
   27.90000     -8.1444334E-08
   27.96000     -8.0088803E-08
   28.02000     -7.8604913E-08
   28.08000     -7.7012281E-08
   28.14000     -7.5338889E-08
   28.20000     -7.3615332E-08
   28.26000     -7.1868932E-08
   28.32000     -7.0119633E-08
   28.38000     -6.8378455E-08
   28.44000     -6.6648191E-08
   28.50000     -6.4925864E-08
   28.56000     -6.3206130E-08
   28.62000     -6.1485096E-08
   28.68000     -5.9763998E-08
   28.74000     -5.8051679E-08
   28.80000     -5.6365288E-08
   28.86000     -5.4728627E-08
   28.92000     -5.3168822E-08
   28.98000     -5.1712611E-08
   29.04000     -5.0383829E-08
   29.10000     -4.9202995E-08
   29.16000     -4.8188536E-08
   29.22000     -4.7358167E-08
   29.28000     -4.6728527E-08
   29.34000     -4.6312060E-08
   29.40000     -4.6111733E-08
   29.46000     -4.6115780E-08
   29.52000     -4.6295128E-08
   29.58000     -4.6605553E-08
   29.64000     -4.6994842E-08
   29.70000     -4.7413234E-08
   29.76000     -4.7824251E-08
   29.82000     -4.8212598E-08
   29.88000     -4.8586774E-08
   29.94000     -4.8975572E-08
   30.00000     -4.9419164E-08
   30.06000     -4.9956949E-08
   30.12000     -5.0615114E-08
   30.18000     -5.1397262E-08
   30.24000     -5.2280839E-08
   30.30000     -5.3221079E-08
   30.36000     -5.4161980E-08
   30.42000     -5.5051746E-08
   30.48000     -5.5858216E-08
   30.54000     -5.6579395E-08
   30.60000     -5.7245362E-08
   30.66000     -5.7910409E-08
   30.72000     -5.8637642E-08
   30.78000     -5.9480644E-08
   30.84000     -6.0467926E-08
   30.90000     -6.1594513E-08
   30.96000     -6.2822814E-08
   31.02000     -6.4091850E-08
   31.08000     -6.5331449E-08
   31.14000     -6.6477590E-08
   31.20000     -6.7484741E-08
   31.26000     -6.8332675E-08
   31.32000     -6.9026484E-08
   31.38000     -6.9590378E-08
   31.44000     -7.0056615E-08
   31.50000     -7.0452806E-08
   31.56000     -7.0790747E-08
   31.62000     -7.1060555E-08
   31.68000     -7.1231788E-08
   31.74000     -7.1261880E-08
   31.80000     -7.1108829E-08
   31.86000     -7.0743766E-08
   31.92000     -7.0158464E-08
   31.98000     -6.9365065E-08
   32.04000     -6.8388097E-08
   32.10000     -6.7252543E-08
   32.16000     -6.5973161E-08
   32.22000     -6.4550235E-08
   32.28000     -6.2973577E-08
   32.34000     -6.1233543E-08
   32.40000     -5.9334251E-08
   32.46000     -5.7303307E-08
   32.52000     -5.5193606E-08
   32.58000     -5.3075617E-08
   32.64000     -5.1022166E-08
   32.70000     -4.9090314E-08
   32.76000     -4.7305885E-08
   32.82000     -4.5655391E-08
   32.88000     -4.4087933E-08
   32.94000     -4.2527180E-08
   33.00000     -4.0890676E-08
   33.06000     -3.9112003E-08
   33.12000     -3.7160184E-08
   33.18000     -3.5050938E-08
   33.24000     -3.2846096E-08
   33.30000     -3.0640404E-08
   33.36000     -2.8538665E-08
   33.42000     -2.6629474E-08
   33.48000     -2.4963601E-08
   33.54000     -2.3544130E-08
   33.60000     -2.2331939E-08
   33.66000     -2.1264883E-08
   33.72000     -2.0283924E-08
   33.78000     -1.9356747E-08
   33.84000     -1.8490018E-08
   33.90000     -1.7725679E-08
   33.96000     -1.7122687E-08
   34.02000     -1.6731121E-08
   34.08000     -1.6568391E-08
   34.14000     -1.6606288E-08
   34.20000     -1.6773345E-08
   34.26000     -1.6971265E-08
   34.32000     -1.7099349E-08
   34.38000     -1.7078534E-08
   34.44000     -1.6867480E-08
   34.50000     -1.6466462E-08
   34.56000     -1.5908961E-08
   34.62000     -1.5244625E-08
   34.68000     -1.4519508E-08
   34.74000     -1.3759720E-08
   34.80000     -1.2963454E-08
   34.86000     -1.2103756E-08
   34.92000     -1.1141250E-08
   34.98000     -1.0043010E-08
   35.04000     -8.8014502E-09
   35.10000     -7.4465611E-09
   35.16000     -6.0464314E-09
   35.22000     -4.6945994E-09
   35.28000     -3.4873875E-09
   35.34000     -2.4983207E-09
   35.40000     -1.7583436E-09
   35.46000     -1.2489565E-09
   35.52000     -9.1096275E-10
   35.58000     -6.6589267E-10
   35.64000     -4.4259099E-10
   35.70000     -1.9973705E-10
   35.76000      6.3086786E-11
   35.82000      3.0864011E-10
   35.88000      4.7712012E-10
   35.94000      5.0671994E-10
   36.00000      3.5205563E-10
   36.06000     -5.3768322E-12
   36.12000     -5.5698912E-10
   36.18000     -1.2756057E-09
   36.24000     -2.1285820E-09
   36.30000     -3.0907614E-09
   36.36000     -4.1534500E-09
   36.42000     -5.3274296E-09
   36.48000     -6.6399073E-09
   36.54000     -8.1267357E-09
   36.60000     -9.8221280E-09
   36.66000     -1.1748577E-08
   36.72000     -1.3909762E-08
   36.78000     -1.6288741E-08
   36.84000     -1.8852443E-08
   36.90000     -2.1561547E-08
   36.96000     -2.4382768E-08
   37.02000     -2.7299166E-08
   37.08000     -3.0314411E-08
   37.14000     -3.3448806E-08
   37.20000     -3.6728046E-08
   37.26000     -4.0168544E-08
   37.32000     -4.3764651E-08
   37.38000     -4.7482310E-08
   37.44000     -5.1261047E-08
   37.50000     -5.5023040E-08
   37.56000     -5.8685458E-08
   37.62000     -6.2171750E-08
   37.68000     -6.5418689E-08
   37.74000     -6.8378320E-08
   37.80000     -7.1015968E-08
   37.86000     -7.3306467E-08
   37.92000     -7.5230716E-08
   37.98000     -7.6773617E-08
   38.04000     -7.7923353E-08
   38.10000     -7.8671889E-08
   38.16000     -7.9016132E-08
   38.22000     -7.8959708E-08
   38.28000     -7.8514908E-08
   38.34000     -7.7704364E-08
   38.40000     -7.6561037E-08
   38.46000     -7.5125712E-08
   38.52000     -7.3441548E-08
   38.58000     -7.1546872E-08
   38.64000     -6.9468243E-08
   38.70000     -6.7216483E-08
   38.76000     -6.4787280E-08
   38.82000     -6.2166556E-08
   38.88000     -5.9338948E-08
   38.94000     -5.6296852E-08
   39.00000     -5.3047412E-08
   39.06000     -4.9616105E-08
   39.12000     -4.6046726E-08
   39.18000     -4.2398554E-08
   39.24000     -3.8741806E-08
   39.30000     -3.5152144E-08
   39.36000     -3.1704570E-08
   39.42000     -2.8467014E-08
   39.48000     -2.5494344E-08
   39.54000     -2.2823890E-08
   39.60000     -2.0473761E-08
   39.66000     -1.8444581E-08
   39.72000     -1.6724131E-08
   39.78000     -1.5293196E-08
   39.84000     -1.4130268E-08
   39.90000     -1.3213356E-08
   39.96000     -1.2518452E-08
   40.02000     -1.2015985E-08
   40.08000     -1.1667849E-08
   40.14000     -1.1427604E-08
   40.20000     -1.1245259E-08
   40.26000     -1.1075986E-08
   40.32000     -1.0890131E-08
   40.38000     -1.0680856E-08
   40.44000     -1.0466159E-08
   40.50000     -1.0283728E-08
   40.56000     -1.0179584E-08
   40.62000     -1.0193610E-08
   40.68000     -1.0346255E-08
   40.74000     -1.0630454E-08
   40.80000     -1.1011234E-08
   40.86000     -1.1433211E-08
   40.92000     -1.1833968E-08
   40.98000     -1.2159720E-08
   41.04000     -1.2379108E-08
   41.10000     -1.2491523E-08
   41.16000     -1.2527687E-08
   41.22000     -1.2542182E-08
   41.28000     -1.2599624E-08
   41.34000     -1.2757908E-08
   41.40000     -1.3052923E-08
   41.46000     -1.3488998E-08
   41.52000     -1.4037929E-08
   41.58000     -1.4647112E-08
   41.64000     -1.5254532E-08
   41.70000     -1.5806165E-08
   41.76000     -1.6270574E-08
   41.82000     -1.6646403E-08
   41.88000     -1.6960946E-08
   41.94000     -1.7261037E-08
   42.00000     -1.7599886E-08
   42.06000     -1.8024522E-08
   42.12000     -1.8567599E-08
   42.18000     -1.9245142E-08
   42.24000     -2.0059485E-08
   42.30000     -2.1004917E-08
   42.36000     -2.2073253E-08
   42.42000     -2.3257286E-08
   42.48000     -2.4551589E-08
   42.54000     -2.5951188E-08
   42.60000     -2.7449330E-08
   42.66000     -2.9035389E-08
   42.72000     -3.0693709E-08
   42.78000     -3.2403673E-08
   42.84000     -3.4141106E-08
   42.90000     -3.5880806E-08
   42.96000     -3.7599584E-08
   43.02000     -3.9278767E-08
   43.08000     -4.0904968E-08
   43.14000     -4.2468308E-08
   43.20000     -4.3958465E-08
   43.26000     -4.5360320E-08
   43.32000     -4.6651813E-08
   43.38000     -4.7806179E-08
   43.44000     -4.8799151E-08
   43.50000     -4.9619103E-08
   43.56000     -5.0276050E-08
   43.62000     -5.0805198E-08
   43.68000     -5.1262131E-08
   43.74000     -5.1710117E-08
   43.80000     -5.2203294E-08
   43.86000     -5.2771565E-08
   43.92000     -5.3412798E-08
   43.98000     -5.4095366E-08
   44.04000     -5.4770418E-08
   44.10000     -5.5389656E-08
   44.16000     -5.5922477E-08
   44.22000     -5.6366510E-08
   44.28000     -5.6747716E-08
   44.34000     -5.7109887E-08
   44.40000     -5.7496489E-08
   44.46000     -5.7930723E-08
   44.52000     -5.8400278E-08
   44.58000     -5.8852216E-08
   44.64000     -5.9200545E-08
   44.70000     -5.9345080E-08
   44.76000     -5.9196523E-08
   44.82000     -5.8700156E-08
   44.88000     -5.7850613E-08
   44.94000     -5.6692610E-08
   45.00000     -5.5306941E-08
   45.06000     -5.3785936E-08
   45.12000     -5.2206016E-08
   45.18000     -5.0606154E-08
   45.24000     -4.8978887E-08
   45.30000     -4.7276469E-08
   45.36000     -4.5429672E-08
   45.42000     -4.3372964E-08
   45.48000     -4.1067963E-08
   45.54000     -3.8518117E-08
   45.60000     -3.5770547E-08
   45.66000     -3.2904964E-08
   45.72000     -3.0013354E-08
   45.78000     -2.7176544E-08
   45.84000     -2.4444354E-08
   45.90000     -2.1824823E-08
   45.96000     -1.9285196E-08
   46.02000     -1.6764073E-08
   46.08000     -1.4190911E-08
   46.14000     -1.1507129E-08
   46.20000     -8.6828029E-09
   46.26000     -5.7245417E-09
   46.32000     -2.6730036E-09
   46.38000      4.0831344E-10
   46.44000      3.4488974E-09
   46.50000      6.3866059E-09
   46.56000      9.1782404E-09
   46.62000      1.1802921E-08
   46.68000      1.4258335E-08
   46.74000      1.6552017E-08
   46.80000      1.8691031E-08
   46.86000      2.0673484E-08
   46.92000      2.2484421E-08
   46.98000      2.4097060E-08
   47.04000      2.5478727E-08
   47.10000      2.6599338E-08
   47.16000      2.7439564E-08
   47.22000      2.7995830E-08
   47.28000      2.8280319E-08
   47.34000      2.8315799E-08
   47.40000      2.8126852E-08
   47.46000      2.7730520E-08
   47.52000      2.7129834E-08
   47.58000      2.6312826E-08
   47.64000      2.5257860E-08
   47.70000      2.3943782E-08
   47.76000      2.2361501E-08
   47.82000      2.0522847E-08
   47.88000      1.8463343E-08
   47.94000      1.6237500E-08
   48.00000      1.3907764E-08
   48.06000      1.1530371E-08
   48.12000      9.1422221E-09
   48.18000      6.7524368E-09
   48.24000      4.3407122E-09
   48.30000      1.8626605E-09
   48.36000     -7.3945894E-10
   48.42000     -3.5233867E-09
   48.48000     -6.5342696E-09
   48.54000     -9.7961159E-09
   48.60000     -1.3309789E-08
   48.66000     -1.7058461E-08
   48.72000     -2.1019256E-08
   48.78000     -2.5177728E-08
   48.84000     -2.9540658E-08
   48.90000     -3.4143230E-08
   48.96000     -3.9048977E-08
   49.02000     -4.4343992E-08
   49.08000     -5.0129444E-08
   49.14000     -5.6516910E-08
   49.20000     -6.3629500E-08
   49.26000     -7.1608767E-08
   49.32000     -8.0625014E-08
   49.38000     -9.0887355E-08
   49.44000     -1.0265105E-07
   49.50000     -1.1622142E-07
   49.56000     -1.3195547E-07
   49.62000     -1.5026306E-07
   49.68000     -1.7160949E-07
   49.74000     -1.9652033E-07
   49.80000     -2.2558987E-07
   49.86000     -2.5949356E-07
   49.92000     -2.9900545E-07
   49.98000     -3.4502060E-07
   50.04000     -3.9858071E-07
   50.10000     -4.6089960E-07
   50.16000     -5.3338533E-07
   50.22000     -6.1765695E-07
   50.28000     -7.1555672E-07
   50.34000     -8.2916199E-07
   50.40000     -9.6080021E-07
   50.46000     -1.1130726E-06
   50.52000     -1.2888854E-06
   50.58000     -1.4914888E-06
   50.64000     -1.7245170E-06
   50.70000     -1.9920290E-06
   50.76000     -2.2985460E-06
   50.82000     -2.6490875E-06
   50.88000     -3.0492047E-06
   50.94000     -3.5050180E-06
   51.00000     -4.0232517E-06
   51.06000     -4.6112727E-06
   51.12000     -5.2771247E-06
   51.18000     -6.0295688E-06
   51.24000     -6.8781223E-06
   51.30000     -7.8330959E-06
   51.36000     -8.9056348E-06
   51.42000     -1.0107755E-05
   51.48000     -1.1452370E-05
   51.54000     -1.2953315E-05
   51.60000     -1.4625353E-05
   51.66000     -1.6484186E-05
   51.72000     -1.8546445E-05
   51.78000     -2.0829691E-05
   51.84000     -2.3352399E-05
   51.90000     -2.6133939E-05
   51.96000     -2.9194536E-05
   52.02000     -3.2555228E-05
   52.08000     -3.6237805E-05
   52.14000     -4.0264731E-05
   52.20000     -4.4659064E-05
   52.26000     -4.9444345E-05
   52.32000     -5.4644504E-05
   52.38000     -6.0283728E-05
   52.44000     -6.6386310E-05
   52.50000     -7.2976472E-05
   52.56000     -8.0078251E-05
   52.62000     -8.7715234E-05
   52.68000     -9.5910436E-05
   52.74000     -1.0468602E-04
   52.80000     -1.1406313E-04
   52.86000     -1.2406161E-04
   52.92000     -1.3469982E-04
   52.98000     -1.4599436E-04
   53.04000     -1.5795985E-04
   53.10000     -1.7060868E-04
   53.16000     -1.8395077E-04
   53.22000     -1.9799339E-04
   53.28000     -2.1274081E-04
   53.34000     -2.2819421E-04
   53.40000     -2.4435148E-04
   53.46000     -2.6120699E-04
   53.52000     -2.7875145E-04
   53.58000     -2.9697191E-04
   53.64000     -3.1585139E-04
   53.70000     -3.3536908E-04
   53.76000     -3.5550012E-04
   53.82000     -3.7621570E-04
   53.88000     -3.9748312E-04
   53.94000     -4.1926585E-04
   54.00000     -4.4152362E-04
   54.06000     -4.6421253E-04
   54.12000     -4.8728540E-04
   54.18000     -5.1069178E-04
   54.24000     -5.3437840E-04
   54.30000     -5.5828947E-04
   54.36000     -5.8236701E-04
   54.42000     -6.0655130E-04
   54.48000     -6.3078105E-04
   54.54000     -6.5499434E-04
   54.60000     -6.7912857E-04
   54.66000     -7.0312148E-04
   54.72000     -7.2691106E-04
   54.78000     -7.5043656E-04
   54.84000     -7.7363878E-04
   54.90000     -7.9646043E-04
   54.96000     -8.1884704E-04
   55.02000     -8.4074709E-04
   55.08000     -8.6211262E-04
   55.14000     -8.8289974E-04
   55.20000     -9.0306881E-04
   55.26000     -9.2258502E-04
   55.32000     -9.4141881E-04
   55.38000     -9.5954578E-04
   55.44000     -9.7694749E-04
   55.50000     -9.9361094E-04
   55.56000     -1.0095293E-03