 -0.750000000       0.00000000    
 -0.689999998       0.00000000    
 -0.629999995       0.00000000    
 -0.569999993       0.00000000    
 -0.509999990       0.00000000    
 -0.449999988       0.00000000    
 -0.389999986       0.00000000    
 -0.330000013       0.00000000    
 -0.270000011      -4.35264096E-27
 -0.209999993      -1.18429092E-26
 -0.150000006       1.65656587E-25
  -9.00000036E-02   1.57787298E-24
  -2.99999993E-02   7.25600098E-24
   2.99999993E-02   2.22370328E-23
   9.00000036E-02   4.87808234E-23
  0.150000006       7.15855741E-23
  0.209999993       2.83840673E-23
  0.270000011      -2.30857102E-22
  0.330000013      -9.59910890E-22
  0.389999986      -2.39226328E-21
  0.449999988      -4.27611139E-21
  0.509999990      -4.95923817E-21
  0.569999993      -4.62547948E-22
  0.629999995       1.50090145E-20
  0.689999998       4.50066968E-20
  0.750000000       8.24510047E-20
  0.810000002       1.00637294E-19
  0.870000005       5.32962970E-20
  0.930000007      -1.05095933E-19
  0.990000010      -3.77348629E-19
   1.04999995      -6.79726518E-19
   1.11000001      -8.35083806E-19
   1.16999996      -6.35308004E-19
   1.23000002       3.97416470E-20
   1.28999996       1.12192430E-18
   1.35000002       2.36877086E-18
   1.40999997       3.51066288E-18
   1.47000003       4.39456947E-18
   1.52999997       4.88335670E-18
   1.59000003       4.39458353E-18
   1.64999998       1.37083359E-18
   1.71000004      -6.56945602E-18
   1.76999998      -2.10361592E-17
   1.83000004      -3.98986366E-17
   1.88999999      -5.45431348E-17
   1.95000005      -5.01951096E-17
   2.00999999      -1.17075910E-17
   2.06999993       6.56483224E-17
   2.13000011       1.65194043E-16
   2.19000006       2.45525073E-16
   2.25000000       2.51425240E-16
   2.30999994       1.38854998E-16
   2.36999989      -9.55486649E-17
   2.43000007      -3.96349454E-16
   2.49000001      -6.56369431E-16
   2.54999995      -7.51500495E-16
   2.60999990      -5.91029786E-16
   2.67000008      -1.61803039E-16
   2.73000002       4.53294235E-16
   2.78999996       1.08982329E-15
   2.84999990       1.54280741E-15
   2.91000009       1.62148682E-15
   2.97000003       1.20736595E-15
   3.02999997       3.08251807E-16
   3.08999991      -9.04357490E-16
   3.15000010      -2.09991093E-15
   3.21000004      -2.86498285E-15
   3.26999998      -2.85622623E-15
   3.32999992      -1.98075118E-15
   3.39000010      -5.00541150E-16
   3.45000005       1.04376588E-15
   3.50999999       2.10853733E-15
   3.56999993       2.49432166E-15
   3.63000011       2.52348860E-15
   3.69000006       2.83995938E-15
   3.75000000       3.84169464E-15
   3.80999994       5.06465097E-15
   3.86999989       5.02160222E-15
   3.93000007       1.86028192E-15
   3.99000001      -5.27961057E-15
   4.05000019      -1.49230044E-14
   4.11000013      -2.29334323E-14
   4.17000008      -2.38759563E-14
   4.23000002      -1.38152166E-14
   4.28999996       6.75679241E-15
   4.34999990       3.16562606E-14
   4.40999985       5.06422602E-14
   4.46999979       5.36998018E-14
   4.53000021       3.60709218E-14
   4.59000015       1.35193478E-15
   4.65000010      -3.92904364E-14
   4.71000004      -7.17135972E-14
   4.76999998      -8.49318920E-14
   4.82999992      -7.54924552E-14
   4.88999987      -4.77189428E-14
   4.94999981      -9.90485939E-15
   5.01000023       3.09103735E-14
   5.07000017       7.19460570E-14
   5.13000011       1.13166475E-13
   5.19000006       1.51983569E-13
   5.25000000       1.77845220E-13
   5.30999994       1.71308646E-13
   5.36999989       1.10291882E-13
   5.42999983      -1.77409103E-14
   5.48999977      -2.02812891E-13
   5.55000019      -4.05554849E-13
   5.61000013      -5.61713165E-13
   5.67000008      -5.99051462E-13
   5.73000002      -4.62465352E-13
   5.78999996      -1.39207683E-13
   5.84999990       3.25037875E-13
   5.90999985       8.26555133E-13
   5.96999979       1.22337806E-12
   6.03000021       1.37171080E-12
   6.09000015       1.17065548E-12
   6.15000010       6.02788273E-13
   6.21000004      -2.43210318E-13
   6.26999998      -1.17903202E-12
   6.32999992      -1.95647318E-12
   6.38999987      -2.33419620E-12
   6.44999981      -2.15434788E-12
   6.51000023      -1.40445641E-12
   6.57000017      -2.40180299E-13
   6.63000011       1.04581112E-12
   6.69000006       2.10592871E-12
   6.75000000       2.64783486E-12
   6.80999994       2.53538336E-12
   6.86999989       1.84146578E-12
   6.92999983       8.28158505E-13
   6.98999977      -1.43913784E-13
   7.05000019      -7.46209518E-13
   7.11000013      -8.03446882E-13
   7.17000008      -3.57021623E-13
   7.23000002       3.55192980E-13
   7.28999996       9.93496735E-13
   7.34999990       1.24425047E-12
   7.40999985       9.26316315E-13
   7.46999979       3.36882621E-14
   7.53000021      -1.29545615E-12
   7.59000015      -2.85647265E-12
   7.65000010      -4.45460335E-12
   7.71000004      -5.93737559E-12
   7.76999998      -7.17042571E-12
   7.82999992      -7.98230492E-12
   7.88999987      -8.12848053E-12
   7.94999981      -7.32119313E-12
   8.01000023      -5.33970828E-12
   8.06999969      -2.19073089E-12
   8.13000011       1.74549188E-12
   8.18999958       5.65322051E-12
   8.25000000       8.34554734E-12
   8.31000042       8.44940177E-12
   8.36999989       4.65997987E-12
   8.43000031      -4.00970359E-12
   8.48999977      -1.80511838E-11
   8.55000019      -3.73910763E-11
   8.60999966      -6.14283624E-11
   8.67000008      -8.91494448E-11
   8.72999954      -1.19282167E-10
   8.78999996      -1.50455676E-10
   8.85000038      -1.81344537E-10
   8.90999985      -2.10785153E-10
   8.97000027      -2.37856956E-10
   9.02999973      -2.61924787E-10
   9.09000015      -2.82646823E-10
   9.14999962      -2.99963471E-10
   9.21000004      -3.14089366E-10
   9.27000046      -3.25524885E-10
   9.32999992      -3.35079520E-10
   9.39000034      -3.43870016E-10
   9.44999981      -3.53236079E-10
   9.51000023      -3.64528324E-10
   9.56999969      -3.78771930E-10
   9.63000011      -3.96281730E-10
   9.68999958      -4.16362667E-10
   9.75000000      -4.37240133E-10
   9.81000042      -4.56308269E-10
   9.86999989      -4.70673167E-10
   9.93000031      -4.77848372E-10
   9.98999977      -4.76385931E-10
   10.0500002      -4.66238159E-10
   10.1099997      -4.48738935E-10
   10.1700001      -4.26232216E-10
   10.2299995      -4.01493255E-10
   10.2900000      -3.77137654E-10
   10.3500004      -3.55174723E-10
   10.4099998      -3.36771194E-10
   10.4700003      -3.22197269E-10
   10.5299997      -3.10884152E-10
   10.5900002      -3.01540071E-10
   10.6499996      -2.92327440E-10
   10.7100000      -2.81145163E-10
   10.7700005      -2.66050515E-10
   10.8299999      -2.45787196E-10
   10.8900003      -2.20298529E-10
   10.9499998      -1.91050828E-10
   11.0100002      -1.61013938E-10
   11.0699997      -1.34246628E-10
   11.1300001      -1.15172392E-10
   11.1899996      -1.07743287E-10
   11.2500000      -1.14726041E-10
   11.3100004      -1.37289430E-10
   11.3699999      -1.74956272E-10
   11.4300003      -2.25861677E-10
   11.4899998      -2.87183194E-10
   11.5500002      -3.55601937E-10
   11.6099997      -4.27704150E-10
   11.6700001      -5.00303188E-10
   11.7299995      -5.70711145E-10
   11.7900000      -6.36994291E-10
   11.8500004      -6.98214209E-10
   11.9099998      -7.54607599E-10
   11.9700003      -8.07630185E-10
   12.0299997      -8.59802618E-10
   12.0900002      -9.14351650E-10
   12.1499996      -9.74715864E-10
   12.2100000      -1.04404285E-09
   12.2700005      -1.12481779E-09
   12.3299999      -1.21870269E-09
   12.3900003      -1.32656663E-09
   12.4499998      -1.44858348E-09
   12.5100002      -1.58422286E-09
   12.5699997      -1.73201453E-09
   12.6300001      -1.88910443E-09
   12.6899996      -2.05079864E-09
   12.7500000      -2.21040763E-09
   12.8100004      -2.35968867E-09
   12.8699999      -2.49000576E-09
   12.9300003      -2.59405430E-09
   12.9899998      -2.66772515E-09
   13.0500002      -2.71156120E-09
   13.1099997      -2.73132095E-09
   13.1700001      -2.73741629E-09
   13.2299995      -2.74331291E-09
   13.2900000      -2.76325007E-09
   13.3500004      -2.80978396E-09
   13.4099998      -2.89163538E-09
   13.4700003      -3.01221847E-09
   13.5299997      -3.16907833E-09
   13.5900002      -3.35434458E-09
   13.6499996      -3.55617980E-09
   13.7100000      -3.76105991E-09
   13.7700005      -3.95655420E-09
   13.8299999      -4.13408063E-09
   13.8900003      -4.29104530E-09
   13.9499998      -4.43181847E-09
   14.0100002      -4.56727767E-09
   14.0699997      -4.71301220E-09
   14.1300001      -4.88663954E-09
   14.1899996      -5.10490183E-09
   14.2500000      -5.38116751E-09
   14.3100004      -5.72376280E-09
   14.3699999      -6.13522566E-09
   14.4300003      -6.61234578E-09
   14.4899998      -7.14671966E-09
   14.5500002      -7.72561481E-09
   14.6099997      -8.33303826E-09
   14.6700001      -8.95099905E-09
   14.7299995      -9.56097512E-09
   14.7900000      -1.01454720E-08
   14.8500004      -1.06894804E-08
   14.9099998      -1.11815783E-08
   14.9700003      -1.16144676E-08
   15.0299997      -1.19849020E-08
   15.0900002      -1.22931114E-08
   15.1499996      -1.25419435E-08
   15.2100000      -1.27359412E-08
   15.2700005      -1.28804576E-08
   15.3299999      -1.29808155E-08
   15.3900003      -1.30414062E-08
   15.4499998      -1.30647066E-08
   15.5100002      -1.30502995E-08
   15.5699997      -1.29941808E-08
   15.6300001      -1.28887292E-08
   15.6899996      -1.27237083E-08
   15.7500000      -1.24884307E-08
   15.8100004      -1.21749109E-08
   15.8699999      -1.17814416E-08
   15.9300003      -1.13157812E-08
   15.9899998      -1.07970637E-08
   16.0499992      -1.02557065E-08
   16.1100006      -9.73103553E-09
   16.1700001      -9.26684951E-09
   16.2299995      -8.90567087E-09
   16.2900009      -8.68274164E-09
   16.3500004      -8.62094396E-09
   16.4099998      -8.72757155E-09
   16.4699993      -8.99347086E-09
   16.5300007      -9.39456335E-09
   16.5900002      -9.89529170E-09
   16.6499996      -1.04532170E-08
   16.7099991      -1.10239231E-08
   16.7700005      -1.15654748E-08
   16.8299999      -1.20419150E-08
   16.8899994      -1.24255664E-08
   16.9500008      -1.26980995E-08
   17.0100002      -1.28505082E-08
   17.0699997      -1.28821602E-08
   17.1299992      -1.27991289E-08
   17.1900005      -1.26120066E-08
   17.2500000      -1.23334356E-08
   17.3099995      -1.19756711E-08
   17.3700008      -1.15484884E-08
   17.4300003      -1.10577396E-08
   17.4899998      -1.05047846E-08
   17.5499992      -9.88690818E-09
   17.6100006      -9.19872800E-09
   17.6700001      -8.43445225E-09
   17.7299995      -7.59079644E-09
   17.7900009      -6.67012401E-09
   17.8500004      -5.68323077E-09
   17.9099998      -4.65094896E-09
   17.9699993      -3.60377106E-09
   18.0300007      -2.57895927E-09
   18.0900002      -1.61521951E-09
   18.1499996      -7.45789708E-10
   18.2099991       8.49167264E-12
   18.2700005       6.44282960E-10
   18.3299999       1.17738586E-09
   18.3899994       1.64012204E-09
   18.4500008       2.07470796E-09
   18.5100002       2.52397148E-09
   18.5699997       3.02148861E-09
   18.6299992       3.58346242E-09
   18.6900005       4.20432311E-09
   18.7500000       4.85724128E-09
   18.8099995       5.49960921E-09
   18.8700008       6.08233286E-09
   18.9300003       6.56074617E-09
   18.9899998       6.90439750E-09
   19.0499992       7.10311898E-09
   19.1100006       7.16772997E-09
   19.1700001       7.12517867E-09
   19.2299995       7.00961555E-09
   19.2900009       6.85207624E-09
   19.3500004       6.67190037E-09
   19.4099998       6.47240839E-09
   19.4699993       6.24200736E-09
   19.5300007       5.96020344E-09
   19.5900002       5.60651703E-09
   19.6499996       5.16945953E-09
   19.7099991       4.65273153E-09
   19.7700005       4.07661016E-09
   19.8299999       3.47379436E-09
   19.8899994       2.88052338E-09
   19.9500008       2.32516695E-09
   20.0100002       1.81736104E-09
   20.0699997       1.34093936E-09
   20.1299992       8.53190851E-10
   20.1900005       2.91458385E-10
   20.2500000      -4.13902135E-10
   20.3099995      -1.32312639E-09
   20.3700008      -2.47141529E-09
   20.4300003      -3.85839005E-09
   20.4899998      -5.44573719E-09
   20.5499992      -7.16391879E-09
   20.6100006      -8.92620378E-09
   20.6700001      -1.06461817E-08
   20.7299995      -1.22539383E-08
   20.7900009      -1.37066278E-08
   20.8500004      -1.49909969E-08
   20.9099998      -1.61178662E-08
   20.9699993      -1.71108834E-08
   21.0300007      -1.79933100E-08
   21.0900002      -1.87767561E-08
   21.1499996      -1.94548235E-08
   21.2099991      -2.00029806E-08
   21.2700005      -2.03840731E-08
   21.3299999      -2.05574686E-08
   21.3899994      -2.04890735E-08
   21.4500008      -2.01595078E-08
   21.5100002      -1.95684624E-08
   21.5699997      -1.87343474E-08
   21.6299992      -1.76898389E-08
   21.6900005      -1.64749139E-08
   21.7500000      -1.51297943E-08
   21.8099995      -1.36900686E-08
   21.8700008      -1.21854713E-08
   21.9300003      -1.06423572E-08
   21.9899998      -9.08839226E-09
   22.0499992      -7.55694263E-09
   22.1100006      -6.08864115E-09
   22.1700001      -4.72860329E-09
   22.2299995      -3.51960661E-09
   22.2900009      -2.49328824E-09
   22.3500004      -1.66249470E-09
   22.4099998      -1.01772391E-09
   22.4699993      -5.29286615E-10
   22.5300007      -1.54862345E-10
   22.5900002       1.49680879E-10
   22.6499996       4.19360630E-10
   22.7099991       6.72159994E-10
   22.7700005       9.06254238E-10
   22.8299999       1.10302045E-09
   22.8899994       1.23489063E-09
   22.9500008       1.27584487E-09
   23.0100002       1.21162602E-09
   23.0699997       1.04675191E-09
   23.1299992       8.06158806E-10
   23.1900005       5.30750277E-10
   23.2500000       2.67943029E-10
   23.3099995       5.99518907E-11
   23.3700008      -6.65743433E-11
   23.4300003      -1.06310169E-10
   23.4899998      -7.47061996E-11
   23.5499992      -1.66720880E-12
   23.6100006       7.79925222E-11
   23.6700001       1.33759531E-10
   23.7299995       1.45148976E-10
   23.7900009       1.02389631E-10
   23.8500004       2.57537373E-12
   23.9099998      -1.56523780E-10
   23.9699993      -3.82093746E-10
   24.0300007      -6.88888224E-10
   24.0900002      -1.09762543E-09
   24.1499996      -1.62952996E-09
   24.2099991      -2.29870190E-09
   24.2700005      -3.10470383E-09
   24.3299999      -4.02777856E-09
   24.3899994      -5.02845943E-09
   24.4500008      -6.05224137E-09
   24.5100002      -7.03864078E-09
   24.5699997      -7.93271759E-09
   24.6299992      -8.69626327E-09
   24.6900005      -9.31566024E-09
   24.7500000      -9.80406156E-09
   24.8099995      -1.01969322E-08
   24.8700008      -1.05418545E-08
   24.9300003      -1.08852243E-08
   24.9899998      -1.12595293E-08
   25.0499992      -1.16748993E-08
   25.1100006      -1.21174182E-08
   25.1700001      -1.25547048E-08
   25.2299995      -1.29470363E-08
   25.2900009      -1.32606495E-08
   25.3500004      -1.34792408E-08
   25.4099998      -1.36102933E-08
   25.4699993      -1.36844944E-08
   25.5300007      -1.37485250E-08
   25.5900002      -1.38533114E-08
   25.6499996      -1.40410101E-08
   25.7099991      -1.43341445E-08
   25.7700005      -1.47296717E-08
   25.8299999      -1.51994417E-08
   25.8899994      -1.56968678E-08
   25.9500008      -1.61680891E-08
   26.0100002      -1.65647371E-08
   26.0699997      -1.68548819E-08
   26.1299992      -1.70291816E-08
   26.1900005      -1.71005450E-08
   26.2500000      -1.70974044E-08
   26.3099995      -1.70528338E-08
   26.3700008      -1.69929475E-08
   26.4300003      -1.69284213E-08
   26.4899998      -1.68518390E-08
   26.5499992      -1.67415060E-08
   26.6100006      -1.65701355E-08
   26.6700001      -1.63151004E-08
   26.7299995      -1.59666911E-08
   26.7900009      -1.55317679E-08
   26.8500004      -1.50321586E-08
   26.9099998      -1.44990144E-08
   26.9699993      -1.39655638E-08
   27.0300007      -1.34607880E-08
   27.0900002      -1.30056836E-08
   27.1499996      -1.26125475E-08
   27.2099991      -1.22866624E-08
   27.2700005      -1.20291812E-08
   27.3299999      -1.18399770E-08
   27.3899994      -1.17195658E-08
   27.4500008      -1.16696350E-08
   27.5100002      -1.16922241E-08
   27.5699997      -1.17879706E-08
   27.6299992      -1.19541488E-08
   27.6900005      -1.21833583E-08
   27.7500000      -1.24635395E-08
   27.8099995      -1.27795099E-08
   27.8700008      -1.31157067E-08
   27.9300003      -1.34593483E-08
   27.9899998      -1.38031613E-08
   28.0499992      -1.41470906E-08
   28.1100006      -1.44987711E-08
   28.1700001      -1.48729313E-08
   28.2299995      -1.52898245E-08
   28.2900009      -1.57727111E-08
   28.3500004      -1.63442238E-08
   28.4099998      -1.70217493E-08
   28.4699993      -1.78124093E-08
   28.5300007      -1.87090254E-08
   28.5900002      -1.96887466E-08
   28.6499996      -2.07157775E-08
   28.7099991      -2.17484981E-08
   28.7700005      -2.27496866E-08
   28.8299999      -2.36969804E-08
   28.8899994      -2.45899656E-08
   28.9500008      -2.54508183E-08
   29.0100002      -2.63171760E-08
   29.0699997      -2.72286353E-08
   29.1299992      -2.82107973E-08
   29.1900005      -2.92622353E-08
   29.2500000      -3.03493124E-08
   29.3099995      -3.14114637E-08
   29.3700008      -3.23759686E-08
   29.4300003      -3.31777734E-08
   29.4899998      -3.37779120E-08
   29.5499992      -3.41742776E-08
   29.6100006      -3.44011895E-08
   29.6700001      -3.45178464E-08
   29.7299995      -3.45898634E-08
   29.7900009      -3.46700944E-08
   29.8500004      -3.47851774E-08
   29.9099998      -3.49320146E-08
   29.9699993      -3.50848914E-08
   30.0300007      -3.52103520E-08
   30.0900002      -3.52843408E-08
   30.1499996      -3.53055079E-08
   30.2099991      -3.52998839E-08
   30.2700005      -3.53151002E-08
   30.3299999      -3.54058756E-08
   30.3899994      -3.56157202E-08
   30.4500008      -3.59613139E-08
   30.5100002      -3.64254440E-08
   30.5699997      -3.69617403E-08
   30.6299992      -3.75103113E-08
   30.6900005      -3.80194933E-08
   30.7500000      -3.84661512E-08
   30.8099995      -3.88671815E-08
   30.8700008      -3.92774702E-08
   30.9300003      -3.97741502E-08
   30.9899998      -4.04319600E-08
   31.0499992      -4.12976888E-08
   31.1100006      -4.23723456E-08
   31.1700001      -4.36070238E-08
   31.2299995      -4.49138398E-08
   31.2900009      -4.61883509E-08
   31.3500004      -4.73360799E-08
   31.4099998      -4.82948685E-08
   31.4699993      -4.90464274E-08
   31.5300007      -4.96140089E-08
   31.5900002      -5.00476567E-08
   31.6499996      -5.04020967E-08
   31.7099991      -5.07142097E-08
   31.7700005      -5.09871505E-08
   31.8299999      -5.11859177E-08
   31.8899994      -5.12458982E-08
   31.9500008      -5.10920977E-08
   32.0099983      -5.06632354E-08
   32.0699997      -4.99334085E-08
   32.1300011      -4.89243881E-08
   32.1899986      -4.77043258E-08
   32.2500000      -4.63729108E-08
   32.3100014      -4.50373108E-08
   32.3699989      -4.37862973E-08
   32.4300003      -4.26706706E-08
   32.4900017      -4.16962038E-08
   32.5499992      -4.08313063E-08
   32.6100006      -4.00270714E-08
   32.6699982      -3.92433357E-08
   32.7299995      -3.84723968E-08
   32.7900009      -3.77523861E-08
   32.8499985      -3.71652931E-08
   32.9099998      -3.68190136E-08
   32.9700012      -3.68178839E-08
   33.0299988      -3.72298921E-08
   33.0900002      -3.80606622E-08
   33.1500015      -3.92426891E-08
   33.2099991      -4.06442275E-08
   33.2700005      -4.20964774E-08
   33.3300018      -4.34317116E-08
   33.3899994      -4.45215740E-08
   33.4500008      -4.53042617E-08
   33.5099983      -4.57924472E-08
   33.5699997      -4.60599132E-08
   33.6300011      -4.62113867E-08
   33.6899986      -4.63454768E-08
   33.7500000      -4.65227998E-08
   33.8100014      -4.67496335E-08
   33.8699989      -4.69821160E-08
   33.9300003      -4.71491859E-08
   33.9900017      -4.71858890E-08
   34.0499992      -4.70650825E-08
   34.1100006      -4.68160906E-08
   34.1699982      -4.65234713E-08
   34.2299995      -4.63058107E-08
   34.2900009      -4.62816026E-08
   34.3499985      -4.65335788E-08
   34.4099998      -4.70833790E-08
   34.4700012      -4.78847682E-08
   34.5299988      -4.88374887E-08
   34.5900002      -4.98171211E-08
   34.6500015      -5.07113604E-08
   34.7099991      -5.14513800E-08
   34.7700005      -5.20288062E-08
   34.8300018      -5.24933661E-08
   34.8899994      -5.29324353E-08
   34.9500008      -5.34392370E-08
   35.0099983      -5.40798624E-08
   35.0699997      -5.48697976E-08
   35.1300011      -5.57673374E-08
   35.1899986      -5.66859768E-08
   35.2500000      -5.75215857E-08
   35.3100014      -5.81853712E-08
   35.3699989      -5.86318905E-08
   35.4300003      -5.88730913E-08
   35.4900017      -5.89741909E-08
   35.5499992      -5.90330060E-08
   35.6100006      -5.91496239E-08
   35.6699982      -5.93960259E-08
   35.7299995      -5.97948997E-08
   35.7900009      -6.03138801E-08
   35.8499985      -6.08765802E-08
   35.9099998      -6.13867002E-08
   35.9700012      -6.17577882E-08
   36.0299988      -6.19391827E-08
   36.0900002      -6.19300877E-08
   36.1500015      -6.17771079E-08
   36.2099991      -6.15557170E-08
   36.2700005      -6.13418294E-08
   36.3300018      -6.11826749E-08
   36.3899994      -6.10770741E-08
   36.4500008      -6.09724466E-08
   36.5099983      -6.07799038E-08
   36.5699997      -6.04031243E-08
   36.6300011      -5.97714447E-08
   36.6899986      -5.88660427E-08
   36.7500000      -5.77300483E-08
   36.8100014      -5.64585818E-08
   36.8699989      -5.51712986E-08
   36.9300003      -5.39757714E-08
   36.9900017      -5.29334017E-08
   37.0499992      -5.20388070E-08
   37.1100006      -5.12197396E-08
   37.1699982      -5.03579578E-08
   37.2299995      -4.93249104E-08
   37.2900009      -4.80211462E-08
   37.3499985      -4.64072372E-08
   37.4099998      -4.45165078E-08
   37.4700012      -4.24458122E-08
   37.5299988      -4.03273752E-08
   37.5900002      -3.82906826E-08
   37.6500015      -3.64263109E-08
   37.7099991      -3.47626745E-08
   37.7700005      -3.32625270E-08
   37.8300018      -3.18396260E-08
   37.8899994      -3.03898595E-08
   37.9500008      -2.88266389E-08
   38.0099983      -2.71093050E-08
   38.0699997      -2.52557157E-08
   38.1300011      -2.33355770E-08
   38.1899986      -2.14475619E-08
   38.2500000      -1.96886045E-08
   38.3100014      -1.81263076E-08
   38.3699989      -1.67838223E-08
   38.4300003      -1.56417208E-08
   38.4900017      -1.46549750E-08
   38.5499992      -1.37775684E-08
   38.6100006      -1.29848017E-08
   38.6699982      -1.22847750E-08
   38.7299995      -1.17150707E-08
   38.7900009      -1.13265459E-08
   38.8499985      -1.11608571E-08
   38.9099998      -1.12303544E-08
   38.9700012      -1.15076046E-08
   39.0299988      -1.19280212E-08
   39.0900002      -1.24043389E-08
   39.1500015      -1.28478241E-08
   39.2099991      -1.31892701E-08
   39.2700005      -1.33934659E-08
   39.3300018      -1.34634117E-08
   39.3899994      -1.34340841E-08
   39.4500008      -1.33588589E-08
   39.5099983      -1.32936675E-08
   39.5699997      -1.32841436E-08
   39.6300011      -1.33593625E-08
   39.6899986      -1.35330120E-08
   39.7500000      -1.38099985E-08
   39.8100014      -1.41945904E-08
   39.8699989      -1.46959911E-08
   39.9300003      -1.53286130E-08
   39.9900017      -1.61068829E-08
   40.0499992      -1.70368359E-08
   40.1100006      -1.81082846E-08
   40.1699982      -1.92912708E-08
   40.2299995      -2.05389092E-08
   40.2900009      -2.17962981E-08
   40.3499985      -2.30128734E-08
   40.4099998      -2.41542288E-08
   40.4700012      -2.52095731E-08
   40.5299988      -2.61924331E-08
   40.5900002      -2.71345577E-08
   40.6500015      -2.80750836E-08
   40.7099991      -2.90486213E-08
   40.7700005      -3.00760199E-08
   40.8300018      -3.11605497E-08
   40.8899994      -3.22903446E-08
   40.9500008      -3.34457688E-08
   41.0099983      -3.46087603E-08
   41.0699997      -3.57705758E-08
   41.1300011      -3.69348392E-08
   41.1899986      -3.81145036E-08
   41.2500000      -3.93234458E-08
   41.3100014      -4.05654212E-08
   41.3699989      -4.18244319E-08
   41.4300003      -4.30604601E-08
   41.4900017      -4.42132162E-08
   41.5499992      -4.52140512E-08
   41.6100006      -4.60031835E-08
   41.6699982      -4.65473988E-08
   41.7299995      -4.68521648E-08
   41.7900009      -4.69635175E-08
   41.8499985      -4.69578723E-08
   41.9099998      -4.69219330E-08
   41.9700012      -4.69284913E-08
   42.0299988      -4.70157993E-08
   42.0900002      -4.71774477E-08
   42.1500015      -4.73664556E-08
   42.2099991      -4.75124189E-08
   42.2700005      -4.75460062E-08
   42.3300018      -4.74223931E-08
   42.3899994      -4.71357282E-08
   42.4500008      -4.67199399E-08
   42.5099983      -4.62361811E-08
   42.5699997      -4.57518894E-08
   42.6300011      -4.53193074E-08
   42.6899986      -4.49609843E-08
   42.7500000      -4.46669830E-08
   42.8100014      -4.44040751E-08
   42.8699989      -4.41327757E-08
   42.9300003      -4.38255547E-08
   42.9900017      -4.34793144E-08
   43.0499992      -4.31176446E-08
   43.1100006      -4.27821050E-08
   43.1699982      -4.25160849E-08
   43.2299995      -4.23473594E-08
   43.2900009      -4.22763264E-08
   43.3499985      -4.22746176E-08
   43.4099998      -4.22952411E-08
   43.4700012      -4.22909388E-08
   43.5299988      -4.22342374E-08
   43.5900002      -4.21317168E-08
   43.6500015      -4.20268620E-08
   43.7099991      -4.19897610E-08
   43.7700005      -4.20965343E-08
   43.8300018      -4.24051656E-08
   43.8899994      -4.29355609E-08
   43.9500008      -4.36605596E-08
   44.0099983      -4.45108377E-08
   44.0699997      -4.53921665E-08
   44.1300011      -4.62096779E-08
   44.1899986      -4.68915928E-08
   44.2500000      -4.74053721E-08
   44.3100014      -4.77618478E-08
   44.3699989      -4.80066618E-08
   44.4300003      -4.82022671E-08
   44.4900017      -4.84063953E-08
   44.5499992      -4.86535967E-08
   44.6100006      -4.89451786E-08
   44.6699982      -4.92501755E-08
   44.7299995      -4.95164407E-08
   44.7900009      -4.96881327E-08
   44.8499985      -4.97238872E-08
   44.9099998      -4.96100085E-08
   44.9700012      -4.93643384E-08
   45.0299988      -4.90293957E-08
   45.0900002      -4.86565561E-08
   45.1500015      -4.82861822E-08
   45.2099991      -4.79302145E-08
   45.2700005      -4.75636810E-08
   45.3300018      -4.71289709E-08
   45.3899994      -4.65529588E-08
   45.4500008      -4.57723921E-08
   45.5099983      -4.47595347E-08
   45.5699997      -4.35391811E-08
   45.6300011      -4.21901625E-08
   45.6899986      -4.08293417E-08
   45.7500000      -3.95819022E-08
   45.8100014      -3.85468688E-08
   45.8699989      -3.77687464E-08
   45.9300003      -3.72247300E-08
   45.9900017      -3.68319775E-08
   46.0499992      -3.64729722E-08
   46.1100006      -3.60312278E-08
   46.1699982      -3.54262077E-08
   46.2299995      -3.46369617E-08
   46.2900009      -3.37076820E-08
   46.3499985      -3.27342740E-08
   46.4099998      -3.18366880E-08
   46.4700012      -3.11258574E-08
   46.5299988      -3.06750678E-08
   46.5900002      -3.05035961E-08
   46.6500015      -3.05763592E-08
   46.7099991      -3.08183772E-08
   46.7700005      -3.11386579E-08
   46.8300018      -3.14557909E-08
   46.8899994      -3.17176578E-08
   46.9500008      -3.19101900E-08
   47.0099983      -3.20536166E-08
   47.0699997      -3.21888614E-08
   47.1300011      -3.23592317E-08
   47.1899986      -3.25937428E-08
   47.2500000      -3.28970557E-08
   47.3100014      -3.32485861E-08
   47.3699989      -3.36100463E-08
   47.4300003      -3.39382922E-08
   47.4900017      -3.41990045E-08
   47.5499992      -3.43770878E-08
   47.6100006      -3.44811149E-08
   47.6699982      -3.45411451E-08
   47.7299995      -3.46011610E-08
   47.7900009      -3.47086200E-08
   47.8499985      -3.49040015E-08
   47.9099998      -3.52129348E-08
   47.9700012      -3.56423655E-08
   48.0299988      -3.61811558E-08
   48.0900002      -3.68043231E-08
   48.1500015      -3.74793920E-08
   48.2099991      -3.81731766E-08
   48.2700005      -3.88574932E-08
   48.3300018      -3.95127948E-08
   48.3899994      -4.01294216E-08
   48.4500008      -4.07066345E-08
   48.5099983      -4.12499759E-08
   48.5699997      -4.17677484E-08
   48.6300011      -4.22675761E-08
   48.6899986      -4.27538112E-08
   48.7500000      -4.32264748E-08
   48.8100014      -4.36818262E-08
   48.8699989      -4.41142554E-08
   48.9300003      -4.45189414E-08
   48.9900017      -4.48943602E-08
   49.0499992      -4.52441213E-08
   49.1100006      -4.55777034E-08
   49.1699982      -4.59100207E-08
   49.2299995      -4.62598848E-08
   49.2900009      -4.66475854E-08
   49.3499985      -4.70919268E-08
   49.4099998      -4.76074788E-08
   49.4700012      -4.82028888E-08
   49.5299988      -4.88813505E-08
   49.5900002      -4.96437629E-08
   49.6500015      -5.04946307E-08
   49.7099991      -5.14495717E-08
   49.7700005      -5.25426103E-08
   49.8300018      -5.38311689E-08
   49.8899994      -5.53969173E-08
   49.9500008      -5.73421204E-08
   50.0099983      -5.97824368E-08
   50.0699997      -6.28389074E-08
   50.1300011      -6.66326585E-08
   50.1899986      -7.12855552E-08
   50.2500000      -7.69285435E-08
   50.3100014      -8.37167420E-08
   50.3699989      -9.18478946E-08
   50.4300003      -1.01579033E-07
   50.4900017      -1.13236702E-07
   50.5499992      -1.27218129E-07
   50.6100006      -1.43984551E-07