  -2.400000      0.0000000E+00
  -2.340000      0.0000000E+00
  -2.280000      0.0000000E+00
  -2.220000      0.0000000E+00
  -2.160000      0.0000000E+00
  -2.100000      0.0000000E+00
  -2.040000      0.0000000E+00
  -1.980000      0.0000000E+00
  -1.920000     -2.7289370E-26
  -1.860000     -3.8943366E-25
  -1.800000     -2.5662174E-24
  -1.740000     -1.0098833E-23
  -1.680000     -2.4375799E-23
  -1.620000     -2.5266451E-23
  -1.560000      6.2718228E-23
  -1.500000      3.7121050E-22
  -1.440000      9.4536243E-22
  -1.380000      1.3786947E-21
  -1.320000      4.2224294E-22
  -1.260000     -3.7505205E-21
  -1.200000     -1.1739002E-20
  -1.140000     -1.9604570E-20
  -1.080000     -1.6464124E-20
  -1.020000      1.2156315E-20
 -0.9600000      7.1221427E-20
 -0.9000000      1.3667513E-19
 -0.8400000      1.4507980E-19
 -0.7800000      1.5679199E-20
 -0.7200000     -2.8264480E-19
 -0.6600000     -6.4310821E-19
 -0.6000000     -7.8152283E-19
 -0.5400000     -3.3328800E-19
 -0.4800000      8.7964444E-19
 -0.4200000      2.5109922E-18
 -0.3600000      3.5280237E-18
 -0.3000000      2.5098420E-18
 -0.2400000     -1.4912491E-18
 -0.1800000     -7.8174466E-18
 -0.1200000     -1.3511186E-17
 -5.9999999E-02 -1.3885515E-17
  0.0000000E+00 -4.7411106E-18
  5.9999999E-02  1.4366413E-17
  0.1200000      3.7480397E-17
  0.1800000      5.2350550E-17
  0.2400000      4.4674741E-17
  0.3000000      5.8581043E-18
  0.3600000     -5.8811635E-17
  0.4200000     -1.2629972E-16
  0.4800000     -1.6046542E-16
  0.5400000     -1.2623756E-16
  0.6000000     -9.4091695E-18
  0.6600000      1.6649896E-16
  0.7200000      3.3659901E-16
  0.7800000      4.1145652E-16
  0.8400000      3.1362882E-16
  0.9000000      2.2577999E-17
  0.9600000     -3.9219102E-16
   1.020000     -7.7168963E-16
   1.080000     -9.1463899E-16
   1.140000     -6.6475019E-16
   1.200000     -7.6317983E-18
   1.260000      8.7034848E-16
   1.320000      1.6070358E-15
   1.380000      1.7910958E-15
   1.440000      1.1590284E-15
   1.500000     -2.1915846E-16
   1.560000     -1.8707282E-15
   1.620000     -3.0445331E-15
   1.680000     -3.0236876E-15
   1.740000     -1.5134872E-15
   1.800000      1.0872279E-15
   1.860000      3.7158721E-15
   1.920000      5.0446229E-15
   1.980000      4.1237109E-15
   2.040000      9.7200768E-16
   2.100000     -3.2285857E-15
   2.160000     -6.5335891E-15
   2.220000     -7.1314999E-15
   2.280000     -4.3259345E-15
   2.340000      9.3683062E-16
   2.400000      6.3701587E-15
   2.460000      9.4279434E-15
   2.520000      8.6381555E-15
   2.580000      4.4307806E-15
   2.640000     -1.0929501E-15
   2.700000     -5.4104793E-15
   2.760000     -7.1428256E-15
   2.820000     -6.9209432E-15
   2.880000     -6.8588476E-15
   2.940000     -8.7909348E-15
   3.000000     -1.2339506E-14
   3.060000     -1.4231246E-14
   3.120000     -9.7217724E-15
   3.180000      4.2953058E-15
   3.240000      2.6203281E-14
   3.300000      4.8729162E-14
   3.360000      6.1377308E-14
   3.420000      5.5522193E-14
   3.480000      2.9574996E-14
   3.540000     -8.9676225E-15
   3.600000     -4.6475810E-14
   3.660000     -7.0251334E-14
   3.720000     -7.6046096E-14
   3.780000     -7.1332317E-14
   3.840000     -7.1288448E-14
   3.900000     -8.8346709E-14
   3.960000     -1.2035505E-13
   4.020000     -1.4450011E-13
   4.080000     -1.2250471E-13
   4.140000     -1.7483319E-14
   4.200000      1.8356944E-13
   4.260000      4.5208040E-13
   4.320000      7.1513460E-13
   4.380000      8.7226813E-13
   4.440000      8.2783796E-13
   4.500000      5.2728454E-13
   4.560000     -1.7215848E-14
   4.620000     -7.2237436E-13
   4.680000     -1.4523531E-12
   4.740000     -2.0520833E-12
   4.800000     -2.3814557E-12
   4.860000     -2.3380189E-12
   4.920000     -1.8638051E-12
   4.980000     -9.4198846E-13
   5.040000      4.0468768E-13
   5.100000      2.1034311E-12
   5.160000      4.0081714E-12
   5.220000      5.8753419E-12
   5.280000      7.3587386E-12
   5.340000      8.0415266E-12
   5.400000      7.5101002E-12
   5.460000      5.4548080E-12
   5.520000      1.7658430E-12
   5.580000     -3.4118743E-12
   5.640000     -9.6888331E-12
   5.700000     -1.6504999E-11
   5.760000     -2.3239266E-11
   5.820000     -2.9309593E-11
   5.880000     -3.4223711E-11
   5.940000     -3.7565877E-11
   6.000000     -3.8940955E-11
   6.060000     -3.7925468E-11
   6.120000     -3.4080416E-11
   6.180000     -2.7055826E-11
   6.240000     -1.6771952E-11
   6.300000     -3.6174262E-12
   6.360000      1.1416626E-11
   6.420000      2.6732363E-11
   6.480000      4.0270075E-11
   6.540000      4.9765657E-11
   6.600000      5.3047098E-11
   6.660000      4.8295201E-11
   6.720000      3.4227097E-11
   6.780000      1.0205570E-11
   6.840000     -2.3694021E-11
   6.900000     -6.6633407E-11
   6.960000     -1.1698514E-10
   7.020000     -1.7237620E-10
   7.080000     -2.2985625E-10
   7.140000     -2.8621253E-10
   7.200000     -3.3839032E-10
   7.260000     -3.8391781E-10
   7.320000     -4.2121290E-10
   7.380000     -4.4968304E-10
   7.440000     -4.6960397E-10
   7.500000     -4.8184301E-10
   7.560000     -4.8753734E-10
   7.620000     -4.8782917E-10
   7.680000     -4.8371041E-10
   7.740000     -4.7596782E-10
   7.800000     -4.6517837E-10
   7.860000     -4.5170498E-10
   7.920000     -4.3566820E-10
   7.980000     -4.1690909E-10
   8.040000     -3.9498516E-10
   8.100000     -3.6923792E-10
   8.160000     -3.3895131E-10
   8.220000     -3.0358396E-10
   8.280000     -2.6302446E-10
   8.340000     -2.1780072E-10
   8.400000     -1.6917816E-10
   8.460000     -1.1910707E-10
   8.520000     -7.0024000E-11
   8.580000     -2.4553805E-11
   8.640000      1.4813047E-11
   8.700000      4.5996700E-11
   8.760000      6.7512523E-11
   8.820000      7.8554205E-11
   8.880000      7.8989412E-11
   8.940000      6.9287465E-11
   9.000000      5.0392194E-11
   9.060000      2.3553487E-11
   9.120000     -9.8571741E-12
   9.180000     -4.8503201E-11
   9.240000     -9.1167789E-11
   9.300000     -1.3675326E-10
   9.360000     -1.8423216E-10
   9.420000     -2.3262642E-10
   9.480000     -2.8108463E-10
   9.540000     -3.2906813E-10
   9.600000     -3.7657691E-10
   9.660000     -4.2430076E-10
   9.720000     -4.7360321E-10
   9.780000     -5.2632959E-10
   9.840000     -5.8452027E-10
   9.900000     -6.5014166E-10
   9.960000     -7.2490786E-10
   10.02000     -8.1017149E-10
   10.08000     -9.0679730E-10
   10.14000     -1.0149437E-09
   10.20000     -1.1337654E-09
   10.26000     -1.2611621E-09
   10.32000     -1.3937456E-09
   10.38000     -1.5271483E-09
   10.44000     -1.6566524E-09
   10.50000     -1.7779821E-09
   10.56000     -1.8880202E-09
   10.62000     -1.9852426E-09
   10.68000     -2.0697764E-09
   10.74000     -2.1431197E-09
   10.80000     -2.2076478E-09
   10.86000     -2.2660451E-09
   10.92000     -2.3207665E-09
   10.98000     -2.3735702E-09
   11.04000     -2.4251414E-09
   11.10000     -2.4748237E-09
   11.16000     -2.5205231E-09
   11.22000     -2.5588658E-09
   11.28000     -2.5856799E-09
   11.34000     -2.5967881E-09
   11.40000     -2.5889768E-09
   11.46000     -2.5608788E-09
   11.52000     -2.5134705E-09
   11.58000     -2.4499729E-09
   11.64000     -2.3751663E-09
   11.70000     -2.2943747E-09
   11.76000     -2.2125541E-09
   11.82000     -2.1338866E-09
   11.88000     -2.0620394E-09
   11.94000     -2.0009130E-09
   12.00000     -1.9554254E-09
   12.06000     -1.9318380E-09
   12.12000     -1.9373507E-09
   12.18000     -1.9790474E-09
   12.24000     -2.0625974E-09
   12.30000     -2.1911877E-09
   12.36000     -2.3650093E-09
   12.42000     -2.5813018E-09
   12.48000     -2.8347036E-09
   12.54000     -3.1176091E-09
   12.60000     -3.4203973E-09
   12.66000     -3.7316363E-09
   12.72000     -4.0385082E-09
   12.78000     -4.3276236E-09
   12.84000     -4.5861395E-09
   12.90000     -4.8028235E-09
   12.96000     -4.9686357E-09
   13.02000     -5.0765898E-09
   13.08000     -5.1210245E-09
   13.14000     -5.0967737E-09
   13.20000     -4.9987623E-09
   13.26000     -4.8222915E-09
   13.32000     -4.5638093E-09
   13.38000     -4.2215542E-09
   13.44000     -3.7954742E-09
   13.50000     -3.2862235E-09
   13.56000     -2.6937008E-09
   13.62000     -2.0160826E-09
   13.68000     -1.2503100E-09
   13.74000     -3.9444001E-10
   13.80000      5.4861399E-10
   13.86000      1.5671419E-09
   13.92000      2.6378983E-09
   13.98000      3.7255394E-09
   14.04000      4.7844027E-09
   14.10000      5.7620380E-09
   14.16000      6.6035448E-09
   14.22000      7.2559110E-09
   14.28000      7.6719653E-09
   14.34000      7.8139282E-09
   14.40000      7.6566540E-09
   14.46000      7.1905055E-09
   14.52000      6.4235417E-09
   14.58000      5.3826197E-09
   14.64000      4.1130686E-09
   14.70000      2.6768183E-09
   14.76000      1.1490257E-09
   14.82000     -3.8670495E-10
   14.88000     -1.8443853E-09
   14.94000     -3.1427616E-09
   15.00000     -4.2129558E-09
   15.06000     -5.0056861E-09
   15.12000     -5.4968208E-09
   15.18000     -5.6900755E-09
   15.24000     -5.6161249E-09
   15.30000     -5.3282383E-09
   15.36000     -4.8953530E-09
   15.42000     -4.3940518E-09
   15.48000     -3.9009080E-09
   15.54000     -3.4862075E-09
   15.60000     -3.2093221E-09
   15.66000     -3.1153826E-09
   15.72000     -3.2326328E-09
   15.78000     -3.5700924E-09
   15.84000     -4.1157175E-09
   15.90000     -4.8358619E-09
   15.96000     -5.6770801E-09
   16.02000     -6.5709935E-09
   16.08000     -7.4420861E-09
   16.14000     -8.2172837E-09
   16.20000     -8.8354488E-09
   16.26000     -9.2547898E-09
   16.32000     -9.4568451E-09
   16.38000     -9.4466825E-09
   16.44000     -9.2500629E-09
   16.50000     -8.9088710E-09
   16.56000     -8.4762064E-09
   16.62000     -8.0119937E-09
   16.68000     -7.5793283E-09
   16.74000     -7.2411521E-09
   16.80000     -7.0566384E-09
   16.86000     -7.0768071E-09
   16.92000     -7.3394490E-09
   16.98000     -7.8640792E-09
   17.04000     -8.6481817E-09
   17.10000     -9.6661363E-09
   17.16000     -1.0871732E-08
   17.22000     -1.2204209E-08
   17.28000     -1.3596622E-08
   17.34000     -1.4984506E-08
   17.40000     -1.6312777E-08
   17.46000     -1.7539548E-08
   17.52000     -1.8636829E-08
   17.58000     -1.9589255E-08
   17.64000     -2.0392479E-08
   17.70000     -2.1052523E-08
   17.76000     -2.1586372E-08
   17.82000     -2.2022913E-08
   17.88000     -2.2402746E-08
   17.94000     -2.2775312E-08
   18.00000     -2.3192673E-08
   18.06000     -2.3700501E-08
   18.12000     -2.4328097E-08
   18.18000     -2.5080217E-08
   18.24000     -2.5933453E-08
   18.30000     -2.6839095E-08
   18.36000     -2.7732455E-08
   18.42000     -2.8546420E-08
   18.48000     -2.9225328E-08
   18.54000     -2.9734851E-08
   18.60000     -3.0064950E-08
   18.66000     -3.0225657E-08
   18.72000     -3.0238144E-08
   18.78000     -3.0125221E-08
   18.84000     -2.9904999E-08
   18.90000     -2.9589630E-08
   18.96000     -2.9188284E-08
   19.02000     -2.8711860E-08
   19.08000     -2.8176419E-08
   19.14000     -2.7603415E-08
   19.20000     -2.7016439E-08
   19.26000     -2.6435682E-08
   19.32000     -2.5872028E-08
   19.38000     -2.5322768E-08
   19.44000     -2.4770539E-08
   19.50000     -2.4186313E-08
   19.56000     -2.3536359E-08
   19.62000     -2.2791658E-08
   19.68000     -2.1937232E-08
   19.74000     -2.0978147E-08
   19.80000     -1.9939922E-08
   19.86000     -1.8863028E-08
   19.92000     -1.7793738E-08
   19.98000     -1.6775127E-08
   20.04000     -1.5841893E-08
   20.10000     -1.5020433E-08
   20.16000     -1.4332810E-08
   20.22000     -1.3801012E-08
   20.28000     -1.3447775E-08
   20.34000     -1.3292153E-08
   20.40000     -1.3340908E-08
   20.46000     -1.3579326E-08
   20.52000     -1.3965823E-08
   20.58000     -1.4433585E-08
   20.64000     -1.4899930E-08
   20.70000     -1.5281307E-08
   20.76000     -1.5509684E-08
   20.82000     -1.5545483E-08
   20.88000     -1.5383140E-08
   20.94000     -1.5047682E-08
   21.00000     -1.4583708E-08
   21.06000     -1.4040842E-08
   21.12000     -1.3460889E-08
   21.18000     -1.2871176E-08
   21.24000     -1.2285766E-08
   21.30000     -1.1712727E-08
   21.36000     -1.1162930E-08
   21.42000     -1.0655349E-08
   21.48000     -1.0215749E-08
   21.54000     -9.8691331E-09
   21.60000     -9.6295203E-09
   21.66000     -9.4920978E-09
   21.72000     -9.4317771E-09
   21.78000     -9.4093995E-09
   21.84000     -9.3835641E-09
   21.90000     -9.3237791E-09
   21.96000     -9.2201580E-09
   22.02000     -9.0862553E-09
   22.08000     -8.9540908E-09
   22.14000     -8.8632337E-09
   22.20000     -8.8478664E-09
   22.26000     -8.9265351E-09
   22.32000     -9.0983852E-09
   22.38000     -9.3472234E-09
   22.44000     -9.6516253E-09
   22.50000     -9.9965405E-09
   22.56000     -1.0380967E-08
   22.62000     -1.0817618E-08
   22.68000     -1.1324031E-08
   22.74000     -1.1908614E-08
   22.80000     -1.2557894E-08
   22.86000     -1.3231438E-08
   22.92000     -1.3868031E-08
   22.98000     -1.4402144E-08
   23.04000     -1.4785170E-08
   23.10000     -1.5003449E-08
   23.16000     -1.5085892E-08
   23.22000     -1.5097545E-08
   23.28000     -1.5120749E-08
   23.34000     -1.5230217E-08
   23.40000     -1.5470688E-08
   23.46000     -1.5845021E-08
   23.52000     -1.6316589E-08
   23.58000     -1.6824496E-08
   23.64000     -1.7305410E-08
   23.70000     -1.7713621E-08
   23.76000     -1.8032095E-08
   23.82000     -1.8271303E-08
   23.88000     -1.8457563E-08
   23.94000     -1.8616554E-08
   24.00000     -1.8758987E-08
   24.06000     -1.8873921E-08
   24.12000     -1.8931718E-08
   24.18000     -1.8894916E-08
   24.24000     -1.8732527E-08
   24.30000     -1.8432486E-08
   24.36000     -1.8007999E-08
   24.42000     -1.7495763E-08
   24.48000     -1.6946789E-08
   24.54000     -1.6412777E-08
   24.60000     -1.5932430E-08
   24.66000     -1.5521890E-08
   24.72000     -1.5172130E-08
   24.78000     -1.4853769E-08
   24.84000     -1.4527283E-08
   24.90000     -1.4155134E-08
   24.96000     -1.3712057E-08
   25.02000     -1.3191026E-08
   25.08000     -1.2604104E-08
   25.14000     -1.1979031E-08
   25.20000     -1.1353008E-08
   25.26000     -1.0765095E-08
   25.32000     -1.0248161E-08
   25.38000     -9.8212256E-09
   25.44000     -9.4834318E-09
   25.50000     -9.2113774E-09
   25.56000     -8.9616350E-09
   25.62000     -8.6793550E-09
   25.68000     -8.3119520E-09
   25.74000     -7.8246991E-09
   25.80000     -7.2135280E-09
   25.86000     -6.5103460E-09
   25.92000     -5.7779359E-09
   25.98000     -5.0947366E-09
   26.04000     -4.5333377E-09
   26.10000     -4.1391668E-09
   26.16000     -3.9164836E-09
   26.22000     -3.8269401E-09
   26.28000     -3.8020200E-09
   26.34000     -3.7658765E-09
   26.40000     -3.6611614E-09
   26.46000     -3.4689500E-09
   26.52000     -3.2155798E-09
   26.58000     -2.9637033E-09
   26.64000     -2.7905520E-09
   26.70000     -2.7611731E-09
   26.76000     -2.9064049E-09
   26.82000     -3.2137193E-09
   26.88000     -3.6343601E-09
   26.94000     -4.1041162E-09
   27.00000     -4.5699085E-09
   27.06000     -5.0120814E-09
   27.12000     -5.4537699E-09
   27.18000     -5.9535128E-09
   27.24000     -6.5835888E-09
   27.30000     -7.4020305E-09
   27.36000     -8.4288176E-09
   27.42000     -9.6353316E-09
   27.48000     -1.0951353E-08
   27.54000     -1.2287455E-08
   27.60000     -1.3565083E-08
   27.66000     -1.4743902E-08
   27.72000     -1.5837077E-08
   27.78000     -1.6909393E-08
   27.84000     -1.8058889E-08
   27.90000     -1.9388034E-08
   27.96000     -2.0973411E-08
   28.02000     -2.2843050E-08
   28.08000     -2.4967770E-08
   28.14000     -2.7268351E-08
   28.20000     -2.9635666E-08
   28.26000     -3.1957132E-08
   28.32000     -3.4141511E-08
   28.38000     -3.6135184E-08
   28.44000     -3.7926192E-08
   28.50000     -3.9536410E-08
   28.56000     -4.1005794E-08
   28.62000     -4.2374527E-08
   28.68000     -4.3668607E-08
   28.74000     -4.4892687E-08
   28.80000     -4.6031072E-08
   28.86000     -4.7055444E-08
   28.92000     -4.7936147E-08
   28.98000     -4.8653288E-08
   29.04000     -4.9204179E-08
   29.10000     -4.9604783E-08
   29.16000     -4.9884353E-08
   29.22000     -5.0074625E-08
   29.28000     -5.0196878E-08
   29.34000     -5.0251483E-08
   29.40000     -5.0214307E-08
   29.46000     -5.0042360E-08
   29.52000     -4.9687674E-08
   29.58000     -4.9115041E-08
   29.64000     -4.8317016E-08
   29.70000     -4.7320235E-08
   29.76000     -4.6179728E-08
   29.82000     -4.4962526E-08
   29.88000     -4.3725720E-08
   29.94000     -4.2496623E-08
   30.00000     -4.1261949E-08
   30.06000     -3.9970210E-08
   30.12000     -3.8546887E-08
   30.18000     -3.6917676E-08
   30.24000     -3.5032294E-08
   30.30000     -3.2880664E-08
   30.36000     -3.0495794E-08
   30.42000     -2.7941732E-08
   30.48000     -2.5290317E-08
   30.54000     -2.2594577E-08
   30.60000     -1.9868390E-08
   30.66000     -1.7080280E-08
   30.72000     -1.4164303E-08
   30.78000     -1.1044790E-08
   30.84000     -7.6663058E-09
   30.90000     -4.0181347E-09
   30.96000     -1.4468031E-10
   31.02000      3.8614210E-09
   31.08000      7.8801357E-09
   31.14000      1.1790541E-08
   31.20000      1.5493326E-08
   31.26000      1.8921984E-08
   31.32000      2.2040430E-08
   31.38000      2.4830038E-08
   31.44000      2.7272712E-08
   31.50000      2.9337324E-08
   31.56000      3.0974761E-08
   31.62000      3.2123083E-08
   31.68000      3.2720493E-08
   31.74000      3.2721168E-08
   31.80000      3.2108318E-08
   31.86000      3.0900402E-08
   31.92000      2.9148959E-08
   31.98000      2.6929625E-08
   32.04000      2.4329816E-08
   32.10000      2.1437117E-08
   32.16000      1.8331237E-08
   32.22000      1.5080316E-08
   32.28000      1.1740498E-08
   32.34000      8.3568583E-09
   32.40000      4.9641580E-09
   32.46000      1.5871422E-09
   32.52000     -1.7588589E-09
   32.58000     -5.0660129E-09
   32.64000     -8.3304990E-09
   32.70000     -1.1548430E-08
   32.76000     -1.4712969E-08
   32.82000     -1.7814292E-08
   32.88000     -2.0842799E-08
   32.94000     -2.3794421E-08
   33.00000     -2.6675581E-08
   33.06000     -2.9505227E-08
   33.12000     -3.2312354E-08
   33.18000     -3.5129215E-08
   33.24000     -3.7982229E-08
   33.30000     -4.0883727E-08
   33.36000     -4.3827637E-08
   33.42000     -4.6790937E-08
   33.48000     -4.9740610E-08
   33.54000     -5.2643713E-08
   33.60000     -5.5476796E-08
   33.66000     -5.8231088E-08
   33.72000     -6.0911397E-08
   33.78000     -6.3529257E-08
   33.84000     -6.6093385E-08
   33.90000     -6.8601310E-08
   33.96000     -7.1035736E-08
   34.02000     -7.3366571E-08
   34.08000     -7.5557189E-08
   34.14000     -7.7571386E-08
   34.20000     -7.9377870E-08
   34.26000     -8.0950365E-08
   34.32000     -8.2264251E-08
   34.38000     -8.3292448E-08
   34.44000     -8.4003851E-08
   34.50000     -8.4366192E-08
   34.56000     -8.4353218E-08
   34.62000     -8.3953530E-08
   34.68000     -8.3177660E-08
   34.74000     -8.2060012E-08
   34.80000     -8.0654623E-08
   34.86000     -7.9025625E-08
   34.92000     -7.7235548E-08
   34.98000     -7.5335109E-08
   35.04000     -7.3357818E-08
   35.10000     -7.1320486E-08
   35.16000     -6.9229003E-08
   35.22000     -6.7086546E-08
   35.28000     -6.4901279E-08
   35.34000     -6.2690788E-08
   35.40000     -6.0482229E-08
   35.46000     -5.8308913E-08
   35.52000     -5.6204961E-08
   35.58000     -5.4200278E-08
   35.64000     -5.2317201E-08
   35.70000     -5.0569600E-08
   35.76000     -4.8963912E-08
   35.82000     -4.7501370E-08
   35.88000     -4.6180400E-08
   35.94000     -4.4998405E-08
   36.00000     -4.3952529E-08
   36.06000     -4.3039304E-08
   36.12000     -4.2253308E-08
   36.18000     -4.1585384E-08
   36.24000     -4.1020979E-08
   36.30000     -4.0539376E-08
   36.36000     -4.0114291E-08
   36.42000     -3.9716070E-08
   36.48000     -3.9315150E-08
   36.54000     -3.8886213E-08
   36.60000     -3.8412068E-08
   36.66000     -3.7886299E-08
   36.72000     -3.7313779E-08
   36.78000     -3.6708450E-08
   36.84000     -3.6088405E-08
   36.90000     -3.5469245E-08
   36.96000     -3.4857656E-08
   37.02000     -3.4247655E-08
   37.08000     -3.3621724E-08
   37.14000     -3.2957544E-08
   37.20000     -3.2238809E-08
   37.26000     -3.1466527E-08
   37.32000     -3.0666222E-08
   37.38000     -2.9887264E-08
   37.44000     -2.9193357E-08
   37.50000     -2.8646545E-08
   37.56000     -2.8289804E-08
   37.62000     -2.8134385E-08
   37.68000     -2.8156414E-08
   37.74000     -2.8304232E-08
   37.80000     -2.8514259E-08
   37.86000     -2.8730337E-08
   37.92000     -2.8920423E-08
   37.98000     -2.9085490E-08
   38.04000     -2.9257917E-08
   38.10000     -2.9489922E-08
   38.16000     -2.9835753E-08
   38.22000     -3.0333268E-08
   38.28000     -3.0990854E-08
   38.34000     -3.1783994E-08
   38.40000     -3.2662445E-08
   38.46000     -3.3565417E-08
   38.52000     -3.4439253E-08
   38.58000     -3.5251407E-08
   38.64000     -3.5996212E-08
   38.70000     -3.6691084E-08
   38.76000     -3.7365613E-08
   38.82000     -3.8048178E-08
   38.88000     -3.8755122E-08
   38.94000     -3.9485951E-08
   39.00000     -4.0225409E-08
   39.06000     -4.0951093E-08
   39.12000     -4.1643371E-08
   39.18000     -4.2294374E-08
   39.24000     -4.2913008E-08
   39.30000     -4.3524341E-08
   39.36000     -4.4163169E-08
   39.42000     -4.4863352E-08
   39.48000     -4.5646154E-08
   39.54000     -4.6511406E-08
   39.60000     -4.7434884E-08
   39.66000     -4.8373391E-08
   39.72000     -4.9276309E-08
   39.78000     -5.0099942E-08
   39.84000     -5.0819857E-08
   39.90000     -5.1437027E-08
   39.96000     -5.1975860E-08
   40.02000     -5.2475066E-08
   40.08000     -5.2974734E-08
   40.14000     -5.3503953E-08
   40.20000     -5.4072817E-08
   40.26000     -5.4670735E-08
   40.32000     -5.5270707E-08
   40.38000     -5.5837376E-08
   40.44000     -5.6335619E-08
   40.50000     -5.6736948E-08
   40.56000     -5.7022305E-08
   40.62000     -5.7181502E-08
   40.68000     -5.7211018E-08
   40.74000     -5.7112072E-08
   40.80000     -5.6890325E-08
   40.86000     -5.6557187E-08
   40.92000     -5.6131508E-08
   40.98000     -5.5639980E-08
   41.04000     -5.5115017E-08
   41.10000     -5.4589840E-08
   41.16000     -5.4091753E-08
   41.22000     -5.3635343E-08
   41.28000     -5.3217676E-08
   41.34000     -5.2817356E-08
   41.40000     -5.2398477E-08
   41.46000     -5.1919287E-08
   41.52000     -5.1343701E-08
   41.58000     -5.0652307E-08
   41.64000     -4.9848886E-08
   41.70000     -4.8959357E-08
   41.76000     -4.8022709E-08
   41.82000     -4.7076732E-08
   41.88000     -4.6143896E-08
   41.94000     -4.5223054E-08
   42.00000     -4.4290477E-08
   42.06000     -4.3309868E-08
   42.12000     -4.2247414E-08
   42.18000     -4.1086349E-08
   42.24000     -3.9836152E-08
   42.30000     -3.8534090E-08
   42.36000     -3.7239442E-08
   42.42000     -3.6022556E-08
   42.48000     -3.4951341E-08
   42.54000     -3.4077811E-08
   42.60000     -3.3427138E-08
   42.66000     -3.2991956E-08
   42.72000     -3.2734313E-08
   42.78000     -3.2596041E-08
   42.84000     -3.2515718E-08
   42.90000     -3.2447300E-08
   42.96000     -3.2373965E-08
   43.02000     -3.2311810E-08
   43.08000     -3.2301696E-08
   43.14000     -3.2392254E-08
   43.20000     -3.2620630E-08
   43.26000     -3.2998091E-08
   43.32000     -3.3505430E-08
   43.38000     -3.4098708E-08
   43.44000     -3.4722145E-08
   43.50000     -3.5322703E-08
   43.56000     -3.5861369E-08
   43.62000     -3.6318212E-08
   43.68000     -3.6690974E-08
   43.74000     -3.6989206E-08
   43.80000     -3.7226783E-08
   43.86000     -3.7415738E-08
   43.92000     -3.7563140E-08
   43.98000     -3.7671558E-08
   44.04000     -3.7742314E-08
   44.10000     -3.7779753E-08
   44.16000     -3.7794717E-08
   44.22000     -3.7805563E-08
   44.28000     -3.7836053E-08
   44.34000     -3.7910620E-08
   44.40000     -3.8048380E-08
   44.46000     -3.8257831E-08
   44.52000     -3.8534200E-08
   44.58000     -3.8860815E-08
   44.64000     -3.9214626E-08
   44.70000     -3.9574573E-08
   44.76000     -3.9930075E-08
   44.82000     -4.0286235E-08
   44.88000     -4.0663110E-08
   44.94000     -4.1088494E-08
   45.00000     -4.1586645E-08
   45.06000     -4.2167638E-08
   45.12000     -4.2822357E-08
   45.18000     -4.3526043E-08
   45.24000     -4.4249280E-08
   45.30000     -4.4971635E-08
   45.36000     -4.5691525E-08
   45.42000     -4.6427424E-08
   45.48000     -4.7209426E-08
   45.54000     -4.8064638E-08
   45.60000     -4.9002196E-08
   45.66000     -5.0003734E-08
   45.72000     -5.1022514E-08
   45.78000     -5.1991069E-08
   45.84000     -5.2834960E-08
   45.90000     -5.3489110E-08
   45.96000     -5.3913130E-08
   46.02000     -5.4102294E-08
   46.08000     -5.4091124E-08
   46.14000     -5.3947304E-08
   46.20000     -5.3756011E-08
   46.26000     -5.3597930E-08
   46.32000     -5.3527383E-08
   46.38000     -5.3558210E-08
   46.44000     -5.3662632E-08
   46.50000     -5.3783506E-08
   46.56000     -5.3854986E-08
   46.62000     -5.3823321E-08
   46.68000     -5.3660578E-08
   46.74000     -5.3367788E-08
   46.80000     -5.2969146E-08
   46.86000     -5.2501957E-08
   46.92000     -5.2007557E-08
   46.98000     -5.1526243E-08
   47.04000     -5.1096752E-08
   47.10000     -5.0758967E-08
   47.16000     -5.0557961E-08
   47.22000     -5.0547790E-08
   47.28000     -5.0793897E-08
   47.34000     -5.1373235E-08
   47.40000     -5.2371959E-08
   47.46000     -5.3881550E-08
   47.52000     -5.5995571E-08
   47.58000     -5.8809579E-08
   47.64000     -6.2426061E-08
   47.70000     -6.6964098E-08
   47.76000     -7.2571652E-08
   47.82000     -7.9437775E-08
   47.88000     -8.7802349E-08
   47.94000     -9.7962634E-08
   48.00000     -1.1027677E-07
   48.06000     -1.2516436E-07
   48.12000     -1.4310413E-07
   48.18000     -1.6462981E-07
   48.24000     -1.9032645E-07
   48.30000     -2.2083172E-07
   48.36000     -2.5684668E-07
   48.42000     -2.9915770E-07
   48.48000     -3.4866679E-07
   48.54000     -4.0642377E-07
   48.60000     -4.7365364E-07
   48.66000     -5.5177424E-07
   48.72000     -6.4240527E-07
   48.78000     -7.4737267E-07
   48.84000     -8.6871398E-07
   48.90000     -1.0086894E-06
   48.96000     -1.1697992E-06
   49.02000     -1.3548068E-06
   49.08000     -1.5667664E-06
   49.14000     -1.8090554E-06
   49.20000     -2.0854095E-06
   49.26000     -2.3999571E-06
   49.32000     -2.7572476E-06
   49.38000     -3.1622744E-06
   49.44000     -3.6204879E-06
   49.50000     -4.1378080E-06
   49.56000     -4.7206345E-06
   49.62000     -5.3758667E-06
   49.68000     -6.1109263E-06
   49.74000     -6.9337889E-06
   49.80000     -7.8530120E-06
   49.86000     -8.8777579E-06
   49.92000     -1.0017809E-05
   49.98000     -1.1283556E-05
   50.04000     -1.2685997E-05
   50.10000     -1.4236702E-05
   50.16000     -1.5947800E-05
   50.22000     -1.7831931E-05
   50.28000     -1.9902225E-05
   50.34000     -2.2172244E-05
   50.40000     -2.4655956E-05
   50.46000     -2.7367681E-05
   50.52000     -3.0322031E-05
   50.58000     -3.3533845E-05
   50.64000     -3.7018111E-05
   50.70000     -4.0789851E-05
   50.76000     -4.4864024E-05
   50.82000     -4.9255348E-05
   50.88000     -5.3978216E-05
   50.94000     -5.9046506E-05
   51.00000     -6.4473432E-05
   51.06000     -7.0271417E-05
   51.12000     -7.6451935E-05
   51.18000     -8.3025370E-05
   51.24000     -9.0000882E-05
   51.30000     -9.7386204E-05
   51.36000     -1.0518753E-04
   51.42000     -1.1340930E-04
   51.48000     -1.2205402E-04
   51.54000     -1.3112216E-04
   51.60000     -1.4061187E-04
   51.66000     -1.5051902E-04
   51.72000     -1.6083689E-04
   51.78000     -1.7155622E-04
   51.84000     -1.8266504E-04
   51.90000     -1.9414870E-04
   51.96000     -2.0598971E-04
   52.02000     -2.1816781E-04
   52.08000     -2.3065986E-04
   52.14000     -2.4343998E-04
   52.20000     -2.5647954E-04
   52.26000     -2.6974725E-04
   52.32000     -2.8320943E-04
   52.38000     -2.9683017E-04
   52.44000     -3.1057125E-04
   52.50000     -3.2439260E-04
   52.56000     -3.3825231E-04
   52.62000     -3.5210713E-04
   52.68000     -3.6591254E-04
   52.74000     -3.7962347E-04
   52.80000     -3.9319429E-04
   52.86000     -4.0657938E-04
   52.92000     -4.1973338E-04
   52.98000     -4.3261165E-04
   53.04000     -4.4517056E-04
   53.10000     -4.5736798E-04
   53.16000     -4.6916361E-04
   53.22000     -4.8051943E-04
   53.28000     -4.9140002E-04
   53.34000     -5.0177320E-04
   53.40000     -5.1161007E-04
   53.46000     -5.2088517E-04
   53.52000     -5.2957720E-04
   53.58000     -5.3766876E-04
   53.64000     -5.4514717E-04
   53.70000     -5.5200426E-04
   53.76000     -5.5823661E-04
   53.82000     -5.6384568E-04
   53.88000     -5.6883763E-04
   53.94000     -5.7322322E-04
   54.00000     -5.7701784E-04
   54.06000     -5.8024121E-04
   54.12000     -5.8291765E-04
   54.18000     -5.8507564E-04
   54.24000     -5.8674777E-04
   54.30000     -5.8796979E-04
   54.36000     -5.8878068E-04
   54.42000     -5.8922183E-04
   54.48000     -5.8933708E-04
   54.54000     -5.8917206E-04
   54.60000     -5.8877375E-04
   54.66000     -5.8819010E-04
   54.72000     -5.8746908E-04
   54.78000     -5.8665819E-04
   54.84000     -5.8580394E-04
   54.90000     -5.8495125E-04
   54.96000     -5.8414321E-04
   55.02000     -5.8342068E-04
   55.08000     -5.8282161E-04
   55.14000     -5.8238080E-04
   55.20000     -5.8212888E-04
   55.26000     -5.8209221E-04
   55.32000     -5.8229244E-04
   55.38000     -5.8274670E-04
   55.44000     -5.8346736E-04
   55.50000     -5.8446173E-04
   55.56000     -5.8573240E-04