  -2.400000      0.0000000E+00
  -2.340000      0.0000000E+00
  -2.280000      0.0000000E+00
  -2.220000      0.0000000E+00
  -2.160000      0.0000000E+00
  -2.100000      0.0000000E+00
  -2.040000      0.0000000E+00
  -1.980000      0.0000000E+00
  -1.920000     -1.6763194E-26
  -1.860000     -1.4875730E-25
  -1.800000     -5.6315764E-25
  -1.740000     -8.5608014E-25
  -1.680000      1.7382487E-24
  -1.620000      1.3808546E-23
  -1.560000      4.1356535E-23
  -1.500000      7.2429150E-23
  -1.440000      4.8867084E-23
  -1.380000     -1.4749524E-22
  -1.320000     -6.4360609E-22
  -1.260000     -1.4109826E-21
  -1.200000     -2.0052320E-21
  -1.140000     -1.3629615E-21
  -1.080000      2.0351666E-21
  -1.020000      9.3029869E-21
 -0.9600000      1.9566578E-20
 -0.9000000      2.8333521E-20
 -0.8400000      2.7166679E-20
 -0.7800000      5.8143499E-21
 -0.7200000     -4.3706314E-20
 -0.6600000     -1.2357397E-19
 -0.6000000     -2.2878942E-19
 -0.5400000     -3.4321954E-19
 -0.4800000     -4.2050685E-19
 -0.4200000     -3.4218298E-19
 -0.3600000      1.2107683E-19
 -0.3000000      1.2625985E-18
 -0.2400000      3.1969590E-18
 -0.1800000      5.3987295E-18
 -0.1200000      6.2524448E-18
 -5.9999999E-02  3.1588197E-18
  0.0000000E+00 -6.1842525E-18
  5.9999999E-02 -2.1246781E-17
  0.1200000     -3.6028924E-17
  0.1800000     -3.8790704E-17
  0.2400000     -1.6740926E-17
  0.3000000      3.4052630E-17
  0.3600000      9.7945762E-17
  0.4200000      1.3712716E-16
  0.4800000      1.0603163E-16
  0.5400000     -1.6588310E-17
  0.6000000     -1.9242147E-16
  0.6600000     -3.1325110E-16
  0.7200000     -2.4240802E-16
  0.7800000      9.0272543E-17
  0.8400000      5.8223885E-16
  0.9000000      9.2093932E-16
  0.9600000      6.9212936E-16
   1.020000     -3.5752787E-16
   1.080000     -2.0115321E-15
   1.140000     -3.4378005E-15
   1.200000     -3.4142767E-15
   1.260000     -9.7419504E-16
   1.320000      3.7628740E-15
   1.380000      9.0658301E-15
   1.440000      1.1896829E-14
   1.500000      9.2456831E-15
   1.560000      7.7643666E-17
   1.620000     -1.3126648E-14
   1.680000     -2.4429315E-14
   1.740000     -2.6717062E-14
   1.800000     -1.5620424E-14
   1.860000      6.8128829E-15
   1.920000      3.1124869E-14
   1.980000      4.3736238E-14
   2.040000      3.3953448E-14
   2.100000      1.5712259E-15
   2.160000     -3.9493406E-14
   2.220000     -6.5141421E-14
   2.280000     -5.2690186E-14
   2.340000      4.4723564E-15
   2.400000      8.7093750E-14
   2.460000      1.5255692E-13
   2.520000      1.5204198E-13
   2.580000      5.6825194E-14
   2.640000     -1.1863812E-13
   2.700000     -3.1072367E-13
   2.760000     -4.2566412E-13
   2.820000     -3.7969785E-13
   2.880000     -1.4408315E-13
   2.940000      2.2744916E-13
   3.000000      6.0654568E-13
   3.060000      8.3603540E-13
   3.120000      7.9710788E-13
   3.180000      4.6757520E-13
   3.240000     -5.8936986E-14
   3.300000     -6.0685056E-13
   3.360000     -9.9355778E-13
   3.420000     -1.1102413E-12
   3.480000     -9.6621116E-13
   3.540000     -6.6964186E-13
   3.600000     -3.5048673E-13
   3.660000     -6.6331706E-14
   3.720000      2.5048252E-13
   3.780000      7.5940935E-13
   3.840000      1.5896706E-12
   3.900000      2.6817062E-12
   3.960000      3.6818031E-12
   4.020000      3.9758713E-12
   4.080000      2.8959205E-12
   4.140000      4.9009557E-14
   4.200000     -4.3594676E-12
   4.260000     -9.3672839E-12
   4.320000     -1.3380597E-11
   4.380000     -1.4597915E-11
   4.440000     -1.1620145E-11
   4.500000     -4.0388587E-12
   4.560000      7.2209951E-12
   4.620000      1.9950930E-11
   4.680000      3.1108179E-11
   4.740000      3.7527596E-11
   4.800000      3.6675246E-11
   4.860000      2.7233027E-11
   4.920000      9.3969043E-12
   4.980000     -1.5103845E-11
   5.040000     -4.3169954E-11
   5.100000     -7.0573158E-11
   5.160000     -9.2242353E-11
   5.220000     -1.0266619E-10
   5.280000     -9.6545730E-11
   5.340000     -6.9793414E-11
   5.400000     -2.0827718E-11
   5.460000      4.8092221E-11
   5.520000      1.2991724E-10
   5.580000      2.1270855E-10
   5.640000      2.8070959E-10
   5.700000      3.1660952E-10
   5.760000      3.0464831E-10
   5.820000      2.3390898E-10
   5.880000      1.0101833E-10
   5.940000     -8.8409738E-11
   6.000000     -3.1993108E-10
   6.060000     -5.7195021E-10
   6.120000     -8.1846607E-10
   6.180000     -1.0322251E-09
   6.240000     -1.1876514E-09
   6.300000     -1.2631488E-09
   6.360000     -1.2426928E-09
   6.420000     -1.1168868E-09
   6.480000     -8.8376084E-10
   6.540000     -5.4948118E-10
   6.600000     -1.2889277E-10
   6.660000      3.5443809E-10
   6.720000      8.6913698E-10
   6.780000      1.3782396E-09
   6.840000      1.8427452E-09
   6.900000      2.2261037E-09
   6.960000      2.4988744E-09
   7.020000      2.6426272E-09
   7.080000      2.6523119E-09
   7.140000      2.5366818E-09
   7.200000      2.3168574E-09
   7.260000      2.0235185E-09
   7.320000      1.6933893E-09
   7.380000      1.3656194E-09
   7.440000      1.0783916E-09
   7.500000      8.6581287E-10
   7.560000      7.5499929E-10
   7.620000      7.6334883E-10
   7.680000      8.9624486E-10
   7.740000      1.1457019E-09
   7.800000      1.4905557E-09
   7.860000      1.8985933E-09
   7.920000      2.3305367E-09
   7.980000      2.7452070E-09
   8.040000      3.1047633E-09
   8.100000      3.3788252E-09
   8.160000      3.5466485E-09
   8.220000      3.5971706E-09
   8.280000      3.5274488E-09
   8.340000      3.3404712E-09
   8.400000      3.0433505E-09
   8.460000      2.6465179E-09
   8.520000      2.1638937E-09
   8.580000      1.6134238E-09
   8.640000      1.0170805E-09
   8.700000      3.9959586E-10
   8.760000     -2.1426592E-10
   8.820000     -8.0337997E-10
   8.880000     -1.3537946E-09
   8.940000     -1.8608763E-09
   9.000000     -2.3291458E-09
   9.060000     -2.7696241E-09
   9.120000     -3.1953755E-09
   9.180000     -3.6165990E-09
   9.240000     -4.0367985E-09
   9.300000     -4.4511892E-09
   9.360000     -4.8476978E-09
   9.420000     -5.2099987E-09
   9.480000     -5.5213989E-09
   9.540000     -5.7682152E-09
   9.600000     -5.9416618E-09
   9.660000     -6.0379524E-09
   9.720000     -6.0570220E-09
   9.780000     -6.0006879E-09
   9.840000     -5.8710552E-09
   9.900000     -5.6696301E-09
   9.960000     -5.3971165E-09
   10.02000     -5.0535380E-09
   10.08000     -4.6382751E-09
   10.14000     -4.1498227E-09
   10.20000     -3.5854357E-09
   10.26000     -2.9410463E-09
   10.32000     -2.2118147E-09
   10.38000     -1.3933784E-09
   10.44000     -4.8344756E-10
   10.50000      5.1690319E-10
   10.56000      1.6028905E-09
   10.62000      2.7669267E-09
   10.68000      4.0005141E-09
   10.74000      5.2963776E-09
   10.80000      6.6498793E-09
   10.86000      8.0590121E-09
   10.92000      9.5228270E-09
   10.98000      1.1038876E-08
   11.04000      1.2600721E-08
   11.10000      1.4196627E-08
   11.16000      1.5810164E-08
   11.22000      1.7422712E-08
   11.28000      1.9017074E-08
   11.34000      2.0580968E-08
   11.40000      2.2109054E-08
   11.46000      2.3602752E-08
   11.52000      2.5067775E-08
   11.58000      2.6510344E-08
   11.64000      2.7933497E-08
   11.70000      2.9335089E-08
   11.76000      3.0708399E-08
   11.82000      3.2045289E-08
   11.88000      3.3340701E-08
   11.94000      3.4596333E-08
   12.00000      3.5821603E-08
   12.06000      3.7030521E-08
   12.12000      3.8234937E-08
   12.18000      3.9436117E-08
   12.24000      4.0617888E-08
   12.30000      4.1744361E-08
   12.36000      4.2764249E-08
   12.42000      4.3621394E-08
   12.48000      4.4268802E-08
   12.54000      4.4681926E-08
   12.60000      4.4866550E-08
   12.66000      4.4858194E-08
   12.72000      4.4712486E-08
   12.78000      4.4488928E-08
   12.84000      4.4232976E-08
   12.90000      4.3961982E-08
   12.96000      4.3659757E-08
   13.02000      4.3281840E-08
   13.08000      4.2770228E-08
   13.14000      4.2073427E-08
   13.20000      4.1165702E-08
   13.26000      4.0059554E-08
   13.32000      3.8807261E-08
   13.38000      3.7490562E-08
   13.44000      3.6201133E-08
   13.50000      3.5017376E-08
   13.56000      3.3984318E-08
   13.62000      3.3102676E-08
   13.68000      3.2330263E-08
   13.74000      3.1595320E-08
   13.80000      3.0817432E-08
   13.86000      2.9929552E-08
   13.92000      2.8894343E-08
   13.98000      2.7710273E-08
   14.04000      2.6406394E-08
   14.10000      2.5028541E-08
   14.16000      2.3622308E-08
   14.22000      2.2218778E-08
   14.28000      2.0827352E-08
   14.34000      1.9437177E-08
   14.40000      1.8025506E-08
   14.46000      1.6569057E-08
   14.52000      1.5053963E-08
   14.58000      1.3480896E-08
   14.64000      1.1864056E-08
   14.70000      1.0225099E-08
   14.76000      8.5846770E-09
   14.82000      6.9549633E-09
   14.88000      5.3359659E-09
   14.94000      3.7170493E-09
   15.00000      2.0832569E-09
   15.06000      4.2435880E-10
   15.12000     -1.2565109E-09
   15.18000     -2.9378620E-09
   15.24000     -4.5807362E-09
   15.30000     -6.1358523E-09
   15.36000     -7.5551903E-09
   15.42000     -8.8043981E-09
   15.48000     -9.8717514E-09
   15.54000     -1.0770258E-08
   15.60000     -1.1531760E-08
   15.66000     -1.2194806E-08
   15.72000     -1.2790584E-08
   15.78000     -1.3332325E-08
   15.84000     -1.3812726E-08
   15.90000     -1.4211238E-08
   15.96000     -1.4509421E-08
   16.02000     -1.4709298E-08
   16.08000     -1.4847926E-08
   16.14000     -1.5002099E-08
   16.20000     -1.5280003E-08
   16.26000     -1.5800968E-08
   16.32000     -1.6668652E-08
   16.38000     -1.7945620E-08
   16.44000     -1.9637316E-08
   16.50000     -2.1690791E-08
   16.56000     -2.4009090E-08
   16.62000     -2.6477245E-08
   16.68000     -2.8992353E-08
   16.74000     -3.1488934E-08
   16.80000     -3.3952457E-08
   16.86000     -3.6417564E-08
   16.92000     -3.8952287E-08
   16.98000     -4.1633417E-08
   17.04000     -4.4520498E-08
   17.10000     -4.7635723E-08
   17.16000     -5.0954746E-08
   17.22000     -5.4409853E-08
   17.28000     -5.7903272E-08
   17.34000     -6.1325728E-08
   17.40000     -6.4574493E-08
   17.46000     -6.7566027E-08
   17.52000     -7.0240866E-08
   17.58000     -7.2561072E-08
   17.64000     -7.4503006E-08
   17.70000     -7.6049588E-08
   17.76000     -7.7185412E-08
   17.82000     -7.7897127E-08
   17.88000     -7.8178786E-08
   17.94000     -7.8040323E-08
   18.00000     -7.7515814E-08
   18.06000     -7.6667831E-08
   18.12000     -7.5585341E-08
   18.18000     -7.4374071E-08
   18.24000     -7.3140519E-08
   18.30000     -7.1972913E-08
   18.36000     -7.0923655E-08
   18.42000     -6.9998137E-08
   18.48000     -6.9153380E-08
   18.54000     -6.8307713E-08
   18.60000     -6.7359601E-08
   18.66000     -6.6211221E-08
   18.72000     -6.4791067E-08
   18.78000     -6.3069962E-08
   18.84000     -6.1067070E-08
   18.90000     -5.8845036E-08
   18.96000     -5.6496287E-08
   19.02000     -5.4124744E-08
   19.08000     -5.1827655E-08
   19.14000     -4.9681734E-08
   19.20000     -4.7735863E-08
   19.26000     -4.6010616E-08
   19.32000     -4.4502727E-08
   19.38000     -4.3191857E-08
   19.44000     -4.2046818E-08
   19.50000     -4.1029597E-08
   19.56000     -4.0096715E-08
   19.62000     -3.9199101E-08
   19.68000     -3.8282138E-08
   19.74000     -3.7287627E-08
   19.80000     -3.6158600E-08
   19.86000     -3.4846810E-08
   19.92000     -3.3321559E-08
   19.98000     -3.1577649E-08
   20.04000     -2.9640113E-08
   20.10000     -2.7563615E-08
   20.16000     -2.5425555E-08
   20.22000     -2.3313373E-08
   20.28000     -2.1308285E-08
   20.34000     -1.9469109E-08
   20.40000     -1.7820218E-08
   20.46000     -1.6347053E-08
   20.52000     -1.5000641E-08
   20.58000     -1.3710067E-08
   20.64000     -1.2399623E-08
   20.70000     -1.1006062E-08
   20.76000     -9.4916279E-09
   20.82000     -7.8500229E-09
   20.88000     -6.1046981E-09
   20.94000     -4.3009178E-09
   21.00000     -2.4945004E-09
   21.06000     -7.4053502E-10
   21.12000      9.1511621E-10
   21.18000      2.4399143E-09
   21.24000      3.8142338E-09
   21.30000      5.0277995E-09
   21.36000      6.0752785E-09
   21.42000      6.9534791E-09
   21.48000      7.6617566E-09
   21.54000      8.2056211E-09
   21.60000      8.6018304E-09
   21.66000      8.8820951E-09
   21.72000      9.0926804E-09
   21.78000      9.2884838E-09
   21.84000      9.5223278E-09
   21.90000      9.8321218E-09
   21.96000      1.0229662E-08
   22.02000      1.0694685E-08
   22.08000      1.1176487E-08
   22.14000      1.1603510E-08
   22.20000      1.1899244E-08
   22.26000      1.2000959E-08
   22.32000      1.1876699E-08
   22.38000      1.1535839E-08
   22.44000      1.1029691E-08
   22.50000      1.0441116E-08
   22.56000      9.8653619E-09
   22.62000      9.3872421E-09
   22.68000      9.0612478E-09
   22.74000      8.9004306E-09
   22.80000      8.8770555E-09
   22.86000      8.9341983E-09
   22.92000      9.0040775E-09
   22.98000      9.0271683E-09
   23.04000      8.9664853E-09
   23.10000      8.8134087E-09
   23.16000      8.5842071E-09
   23.22000      8.3090823E-09
   23.28000      8.0175306E-09
   23.34000      7.7247826E-09
   23.40000      7.4238091E-09
   23.46000      7.0858697E-09
   23.52000      6.6699299E-09
   23.58000      6.1381815E-09
   23.64000      5.4723706E-09
   23.70000      4.6847428E-09
   23.76000      3.8188230E-09
   23.82000      2.9385996E-09
   23.88000      2.1088624E-09
   23.94000      1.3728352E-09
   24.00000      7.3454781E-10
   24.06000      1.5217330E-10
   24.12000     -4.5478751E-10
   24.18000     -1.1858690E-09
   24.24000     -2.1328468E-09
   24.30000     -3.3534293E-09
   24.36000     -4.8532005E-09
   24.42000     -6.5813621E-09
   24.48000     -8.4418144E-09
   24.54000     -1.0316438E-08
   24.60000     -1.2093579E-08
   24.66000     -1.3693050E-08
   24.72000     -1.5080206E-08
   24.78000     -1.6265345E-08
   24.84000     -1.7289793E-08
   24.90000     -1.8204307E-08
   24.96000     -1.9047738E-08
   25.02000     -1.9833166E-08
   25.08000     -2.0545691E-08
   25.14000     -2.1151685E-08
   25.20000     -2.1615387E-08
   25.26000     -2.1916250E-08
   25.32000     -2.2060295E-08
   25.38000     -2.2080847E-08
   25.44000     -2.2027741E-08
   25.50000     -2.1948347E-08
   25.56000     -2.1867196E-08
   25.62000     -2.1772246E-08
   25.68000     -2.1614101E-08
   25.74000     -2.1320226E-08
   25.80000     -2.0820666E-08
   25.86000     -2.0076957E-08
   25.92000     -1.9104014E-08
   25.98000     -1.7976582E-08
   26.04000     -1.6816745E-08
   26.10000     -1.5765488E-08
   26.16000     -1.4946611E-08
   26.22000     -1.4434045E-08
   26.28000     -1.4232477E-08
   26.34000     -1.4277242E-08
   26.40000     -1.4453679E-08
   26.46000     -1.4630513E-08
   26.52000     -1.4697852E-08
   26.58000     -1.4598942E-08
   26.64000     -1.4346379E-08
   26.70000     -1.4017751E-08
   26.76000     -1.3731563E-08
   26.82000     -1.3610447E-08
   26.88000     -1.3742894E-08
   26.94000     -1.4155859E-08
   27.00000     -1.4807457E-08
   27.06000     -1.5602728E-08
   27.12000     -1.6427645E-08
   27.18000     -1.7190214E-08
   27.24000     -1.7854674E-08
   27.30000     -1.8456884E-08
   27.36000     -1.9095079E-08
   27.42000     -1.9898675E-08
   27.48000     -2.0985174E-08
   27.54000     -2.2419675E-08
   27.60000     -2.4190697E-08
   27.66000     -2.6210968E-08
   27.72000     -2.8343397E-08
   27.78000     -3.0444152E-08
   27.84000     -3.2408703E-08
   27.90000     -3.4205495E-08
   27.96000     -3.5885666E-08
   28.02000     -3.7565130E-08
   28.08000     -3.9384368E-08
   28.14000     -4.1458840E-08
   28.20000     -4.3836128E-08
   28.26000     -4.6473787E-08
   28.32000     -4.9245163E-08
   28.38000     -5.1971377E-08
   28.44000     -5.4469410E-08
   28.50000     -5.6601120E-08
   28.56000     -5.8308061E-08
   28.62000     -5.9621620E-08
   28.68000     -6.0646059E-08
   28.74000     -6.1520595E-08
   28.80000     -6.2373346E-08
   28.86000     -6.3282535E-08
   28.92000     -6.4257534E-08
   28.98000     -6.5245757E-08
   29.04000     -6.6162343E-08
   29.10000     -6.6931513E-08
   29.16000     -6.7524326E-08
   29.22000     -6.7978654E-08
   29.28000     -6.8393568E-08
   29.34000     -6.8899560E-08
   29.40000     -6.9614792E-08
   29.46000     -7.0602681E-08
   29.52000     -7.1845882E-08
   29.58000     -7.3245651E-08
   29.64000     -7.4647282E-08
   29.70000     -7.5883101E-08
   29.76000     -7.6819013E-08
   29.82000     -7.7389657E-08
   29.88000     -7.7611048E-08
   29.94000     -7.7567151E-08
   30.00000     -7.7374786E-08
   30.06000     -7.7138459E-08
   30.12000     -7.6909586E-08
   30.18000     -7.6663426E-08
   30.24000     -7.6301681E-08
   30.30000     -7.5680504E-08
   30.36000     -7.4655574E-08
   30.42000     -7.3130003E-08
   30.48000     -7.1089609E-08
   30.54000     -6.8614234E-08
   30.60000     -6.5861251E-08
   30.66000     -6.3027088E-08
   30.72000     -6.0299413E-08
   30.78000     -5.7815395E-08
   30.84000     -5.5638694E-08
   30.90000     -5.3760523E-08
   30.96000     -5.2121866E-08
   31.02000     -5.0647099E-08
   31.08000     -4.9276625E-08
   31.14000     -4.7988010E-08
   31.20000     -4.6800242E-08
   31.26000     -4.5762071E-08
   31.32000     -4.4930268E-08
   31.38000     -4.4346130E-08
   31.44000     -4.4017959E-08
   31.50000     -4.3914447E-08
   31.56000     -4.3970118E-08
   31.62000     -4.4100265E-08
   31.68000     -4.4220300E-08
   31.74000     -4.4263558E-08
   31.80000     -4.4192401E-08
   31.86000     -4.4000142E-08
   31.92000     -4.3704325E-08
   31.98000     -4.3334950E-08
   32.04000     -4.2922807E-08
   32.10000     -4.2492630E-08
   32.16000     -4.2063455E-08
   32.22000     -4.1655312E-08
   32.28000     -4.1298403E-08
   32.34000     -4.1039630E-08
   32.40000     -4.0942471E-08
   32.46000     -4.1078813E-08
   32.52000     -4.1515040E-08
   32.58000     -4.2297120E-08
   32.64000     -4.3440085E-08
   32.70000     -4.4925418E-08
   32.76000     -4.6706884E-08
   32.82000     -4.8722015E-08
   32.88000     -5.0904749E-08
   32.94000     -5.3194860E-08
   33.00000     -5.5541729E-08
   33.06000     -5.7902692E-08
   33.12000     -6.0237937E-08
   33.18000     -6.2504974E-08
   33.24000     -6.4655055E-08
   33.30000     -6.6632801E-08
   33.36000     -6.8379300E-08
   33.42000     -6.9838201E-08
   33.48000     -7.0963736E-08
   33.54000     -7.1728863E-08
   33.60000     -7.2131527E-08
   33.66000     -7.2196023E-08
   33.72000     -7.1967854E-08
   33.78000     -7.1501837E-08
   33.84000     -7.0846404E-08
   33.90000     -7.0028939E-08
   33.96000     -6.9047857E-08
   34.02000     -6.7874872E-08
   34.08000     -6.6467621E-08
   34.14000     -6.4788125E-08
   34.20000     -6.2820497E-08
   34.26000     -6.0581051E-08
   34.32000     -5.8117145E-08
   34.38000     -5.5495320E-08
   34.44000     -5.2783111E-08
   34.50000     -5.0031165E-08
   34.56000     -4.7261690E-08
   34.62000     -4.4466567E-08
   34.68000     -4.1615145E-08
   34.74000     -3.8668503E-08
   34.80000     -3.5595246E-08
   34.86000     -3.2384182E-08
   34.92000     -2.9050337E-08
   34.98000     -2.5633639E-08
   35.04000     -2.2191591E-08
   35.10000     -1.8789189E-08
   35.16000     -1.5489766E-08
   35.22000     -1.2349586E-08
   35.28000     -9.4172030E-09
   35.34000     -6.7363390E-09
   35.40000     -4.3493773E-09
   35.46000     -2.2981064E-09
   35.52000     -6.1962424E-10
   35.58000      6.6223116E-10
   35.64000      1.5467833E-09
   35.70000      2.0629631E-09
   35.76000      2.2679632E-09
   35.82000      2.2364834E-09
   35.88000      2.0429438E-09
   35.94000      1.7425327E-09
   36.00000      1.3582242E-09
   36.06000      8.7911656E-10
   36.12000      2.7123898E-10
   36.18000     -5.0285609E-10
   36.24000     -1.4627850E-09
   36.30000     -2.5949158E-09
   36.36000     -3.8481160E-09
   36.42000     -5.1418891E-09
   36.48000     -6.3840617E-09
   36.54000     -7.4923943E-09
   36.60000     -8.4136351E-09
   36.66000     -9.1344274E-09
   36.72000     -9.6806758E-09
   36.78000     -1.0105084E-08
   36.84000     -1.0466007E-08
   36.90000     -1.0803858E-08
   36.96000     -1.1122848E-08
   37.02000     -1.1384949E-08
   37.08000     -1.1519248E-08
   37.14000     -1.1444333E-08
   37.20000     -1.1096190E-08
   37.26000     -1.0451570E-08
   37.32000     -9.5383861E-09
   37.38000     -8.4296561E-09
   37.44000     -7.2238970E-09
   37.50000     -6.0195924E-09
   37.56000     -4.8926836E-09
   37.62000     -3.8837711E-09
   37.68000     -2.9973610E-09
   37.74000     -2.2112654E-09
   37.80000     -1.4916951E-09
   37.86000     -8.0911650E-10
   37.92000     -1.5091572E-10
   37.98000      4.7158705E-10
   38.04000      1.0227285E-09
   38.10000      1.4482068E-09
   38.16000      1.6849830E-09
   38.22000      1.6722506E-09
   38.28000      1.3600030E-09
   38.34000      7.1273776E-10
   38.40000     -2.9190431E-10
   38.46000     -1.6672320E-09
   38.52000     -3.4205734E-09
   38.58000     -5.5522409E-09
   38.64000     -8.0499181E-09
   38.70000     -1.0881243E-08
   38.76000     -1.3989384E-08
   38.82000     -1.7295971E-08
   38.88000     -2.0712710E-08
   38.94000     -2.4158910E-08
   39.00000     -2.7578853E-08
   39.06000     -3.0952151E-08
   39.12000     -3.4292476E-08
   39.18000     -3.7634397E-08
   39.24000     -4.1012729E-08
   39.30000     -4.4441734E-08
   39.36000     -4.7901686E-08
   39.42000     -5.1337608E-08
   39.48000     -5.4670405E-08
   39.54000     -5.7816255E-08
   39.60000     -6.0707386E-08
   39.66000     -6.3307233E-08
   39.72000     -6.5615254E-08
   39.78000     -6.7660601E-08
   39.84000     -6.9487072E-08
   39.90000     -7.1134529E-08
   39.96000     -7.2622441E-08
   40.02000     -7.3940306E-08
   40.08000     -7.5047815E-08
   40.14000     -7.5885289E-08
   40.20000     -7.6391856E-08
   40.26000     -7.6526753E-08
   40.32000     -7.6287293E-08
   40.38000     -7.5717367E-08
   40.44000     -7.4902545E-08
   40.50000     -7.3952457E-08
   40.56000     -7.2975631E-08
   40.62000     -7.2055371E-08
   40.68000     -7.1235100E-08
   40.74000     -7.0517743E-08
   40.80000     -6.9878261E-08
   40.86000     -6.9283082E-08
   40.92000     -6.8707877E-08
   40.98000     -6.8146910E-08
   41.04000     -6.7611616E-08
   41.10000     -6.7120588E-08
   41.16000     -6.6686745E-08
   41.22000     -6.6307287E-08
   41.28000     -6.5959782E-08
   41.34000     -6.5605036E-08
   41.40000     -6.5194662E-08
   41.46000     -6.4680648E-08
   41.52000     -6.4024526E-08
   41.58000     -6.3204183E-08
   41.64000     -6.2217353E-08
   41.70000     -6.1080996E-08
   41.76000     -5.9826363E-08
   41.82000     -5.8490876E-08
   41.88000     -5.7108721E-08
   41.94000     -5.5703154E-08
   42.00000     -5.4283131E-08
   42.06000     -5.2845543E-08
   42.12000     -5.1382223E-08
   42.18000     -4.9889024E-08
   42.24000     -4.8373582E-08
   42.30000     -4.6858844E-08
   42.36000     -4.5381267E-08
   42.42000     -4.3984631E-08
   42.48000     -4.2711729E-08
   42.54000     -4.1596756E-08
   42.60000     -4.0660346E-08
   42.66000     -3.9907931E-08
   42.72000     -3.9330747E-08
   42.78000     -3.8908226E-08
   42.84000     -3.8610626E-08
   42.90000     -3.8401623E-08
   42.96000     -3.8241204E-08
   43.02000     -3.8089610E-08
   43.08000     -3.7912454E-08
   43.14000     -3.7686160E-08
   43.20000     -3.7402216E-08
   43.26000     -3.7068546E-08
   43.32000     -3.6707025E-08
   43.38000     -3.6347718E-08
   43.44000     -3.6021589E-08
   43.50000     -3.5754070E-08
   43.56000     -3.5561460E-08
   43.62000     -3.5451105E-08
   43.68000     -3.5424701E-08
   43.74000     -3.5483122E-08
   43.80000     -3.5630610E-08
   43.86000     -3.5876486E-08
   43.92000     -3.6233484E-08
   43.98000     -3.6713022E-08
   44.04000     -3.7319023E-08
   44.10000     -3.8042757E-08
   44.16000     -3.8861252E-08
   44.22000     -3.9740709E-08
   44.28000     -4.0644608E-08
   44.34000     -4.1543917E-08
   44.40000     -4.2425469E-08
   44.46000     -4.3294662E-08
   44.52000     -4.4170406E-08
   44.58000     -4.5073651E-08
   44.64000     -4.6013607E-08
   44.70000     -4.6977618E-08
   44.76000     -4.7929472E-08
   44.82000     -4.8817999E-08
   44.88000     -4.9593318E-08
   44.94000     -5.0225069E-08
   45.00000     -5.0715563E-08
   45.06000     -5.1102834E-08
   45.12000     -5.1452176E-08
   45.18000     -5.1838864E-08
   45.24000     -5.2327533E-08
   45.30000     -5.2954288E-08
   45.36000     -5.3716217E-08
   45.42000     -5.4570652E-08
   45.48000     -5.5444122E-08
   45.54000     -5.6249132E-08
   45.60000     -5.6905300E-08
   45.66000     -5.7360307E-08
   45.72000     -5.7605046E-08
   45.78000     -5.7677784E-08
   45.84000     -5.7654191E-08
   45.90000     -5.7624451E-08
   45.96000     -5.7663723E-08
   46.02000     -5.7805664E-08
   46.08000     -5.8029105E-08
   46.14000     -5.8263581E-08
   46.20000     -5.8412564E-08
   46.26000     -5.8386210E-08
   46.32000     -5.8131821E-08
   46.38000     -5.7651263E-08
   46.44000     -5.6999927E-08
   46.50000     -5.6268842E-08
   46.56000     -5.5557248E-08
   46.62000     -5.4945193E-08
   46.68000     -5.4474462E-08
   46.74000     -5.4142145E-08
   46.80000     -5.3906863E-08
   46.86000     -5.3704241E-08
   46.92000     -5.3466419E-08
   46.98000     -5.3140340E-08
   47.04000     -5.2700443E-08
   47.10000     -5.2152981E-08
   47.16000     -5.1531050E-08
   47.22000     -5.0881482E-08
   47.28000     -5.0246822E-08
   47.34000     -4.9647568E-08
   47.40000     -4.9070550E-08
   47.46000     -4.8468600E-08
   47.52000     -4.7773582E-08
   47.58000     -4.6920359E-08
   47.64000     -4.5874426E-08
   47.70000     -4.4653440E-08
   47.76000     -4.3333969E-08
   47.82000     -4.2040050E-08
   47.88000     -4.0917357E-08
   47.94000     -4.0102833E-08
   48.00000     -3.9701220E-08
   48.06000     -3.9776584E-08
   48.12000     -4.0360170E-08
   48.18000     -4.1469381E-08
   48.24000     -4.3129702E-08
   48.30000     -4.5392603E-08
   48.36000     -4.8346241E-08
   48.42000     -5.2119532E-08
   48.48000     -5.6881433E-08
   48.54000     -6.2837103E-08
   48.60000     -7.0221688E-08
   48.66000     -7.9293315E-08
   48.72000     -9.0328719E-08
   48.78000     -1.0362624E-07
   48.84000     -1.1951957E-07
   48.90000     -1.3840163E-07
   48.96000     -1.6075280E-07
   49.02000     -1.8716538E-07
   49.08000     -2.1835761E-07
   49.14000     -2.5517610E-07
   49.20000     -2.9859123E-07
   49.26000     -3.4969315E-07
   49.32000     -4.0969593E-07
   49.38000     -4.7995195E-07
   49.44000     -5.6197655E-07
   49.50000     -6.5747889E-07
   49.56000     -7.6839660E-07
   49.62000     -8.9693140E-07
   49.68000     -1.0455843E-06
   49.74000     -1.2171882E-06
   49.80000     -1.4149368E-06
   49.86000     -1.6424100E-06
   49.92000     -1.9035949E-06
   49.98000     -2.2029124E-06
   50.04000     -2.5452455E-06
   50.10000     -2.9359792E-06
   50.16000     -3.3810429E-06
   50.22000     -3.8869562E-06
   50.28000     -4.4608737E-06
   50.34000     -5.1106226E-06
   50.40000     -5.8447404E-06
   50.46000     -6.6725056E-06
   50.52000     -7.6039719E-06
   50.58000     -8.6499967E-06
   50.64000     -9.8222754E-06
   50.70000     -1.1133373E-05
   50.76000     -1.2596752E-05
   50.82000     -1.4226795E-05
   50.88000     -1.6038817E-05
   50.94000     -1.8049062E-05
   51.00000     -2.0274683E-05
   51.06000     -2.2733710E-05
   51.12000     -2.5445010E-05
   51.18000     -2.8428260E-05
   51.24000     -3.1703901E-05
   51.30000     -3.5293109E-05
   51.36000     -3.9217713E-05
   51.42000     -4.3500124E-05
   51.48000     -4.8163223E-05
   51.54000     -5.3230222E-05
   51.60000     -5.8724523E-05
   51.66000     -6.4669548E-05
   51.72000     -7.1088587E-05
   51.78000     -7.8004610E-05
   51.84000     -8.5440057E-05
   51.90000     -9.3416718E-05
   51.96000     -1.0195544E-04
   52.02000     -1.1107596E-04
   52.08000     -1.2079669E-04
   52.14000     -1.3113441E-04
   52.20000     -1.4210412E-04
   52.26000     -1.5371872E-04
   52.32000     -1.6598869E-04
   52.38000     -1.7892191E-04
   52.44000     -1.9252337E-04
   52.50000     -2.0679497E-04
   52.56000     -2.2173538E-04
   52.62000     -2.3733974E-04
   52.68000     -2.5359957E-04
   52.74000     -2.7050258E-04
   52.80000     -2.8803249E-04
   52.86000     -3.0616901E-04
   52.92000     -3.2488772E-04
   52.98000     -3.4415998E-04
   53.04000     -3.6395306E-04
   53.10000     -3.8423011E-04
   53.16000     -4.0495017E-04
   53.22000     -4.2606858E-04
   53.28000     -4.4753682E-04
   53.34000     -4.6930296E-04
   53.40000     -4.9131195E-04
   53.46000     -5.1350577E-04
   53.52000     -5.3582405E-04
   53.58000     -5.5820413E-04
   53.64000     -5.8058172E-04
   53.70000     -6.0289120E-04
   53.76000     -6.2506628E-04
   53.82000     -6.4704043E-04
   53.88000     -6.6874735E-04
   53.94000     -6.9012196E-04
   54.00000     -7.1110064E-04
   54.06000     -7.3162164E-04
   54.12000     -7.5162615E-04
   54.18000     -7.7105843E-04
   54.24000     -7.8986638E-04
   54.30000     -8.0800219E-04
   54.36000     -8.2542287E-04
   54.42000     -8.4209064E-04
   54.48000     -8.5797341E-04
   54.54000     -8.7304530E-04
   54.60000     -8.8728662E-04
   54.66000     -9.0068416E-04
   54.72000     -9.1323152E-04
   54.78000     -9.2492893E-04
   54.84000     -9.3578361E-04
   54.90000     -9.4580965E-04
   54.96000     -9.5502782E-04
   55.02000     -9.6346578E-04
   55.08000     -9.7115728E-04
   55.14000     -9.7814237E-04
   55.20000     -9.8446652E-04
   55.26000     -9.9018053E-04
   55.32000     -9.9534006E-04
   55.38000     -1.0000047E-03
   55.44000     -1.0042381E-03
   55.50000     -1.0081063E-03
   55.56000     -1.0116772E-03