  -2.400000      0.0000000E+00
  -2.340000      0.0000000E+00
  -2.280000      0.0000000E+00
  -2.220000      0.0000000E+00
  -2.160000      0.0000000E+00
  -2.100000      0.0000000E+00
  -2.040000      0.0000000E+00
  -1.980000      0.0000000E+00
  -1.920000     -2.6230924E-25
  -1.860000     -4.0021052E-24
  -1.800000     -2.7934038E-23
  -1.740000     -1.1686593E-22
  -1.680000     -3.0774777E-22
  -1.620000     -4.1239275E-22
  -1.560000      4.3719318E-22
  -1.500000      4.0088529E-21
  -1.440000      1.1554230E-20
  -1.380000      1.9202702E-20
  -1.320000      1.1469604E-20
  -1.260000     -3.9050576E-20
  -1.200000     -1.5173138E-19
  -1.140000     -2.9013197E-19
  -1.080000     -3.0875028E-19
  -1.020000      3.8073527E-20
 -0.9600000      9.3903870E-19
 -0.9000000      2.2052050E-18
 -0.8400000      2.9551232E-18
 -0.7800000      1.6850876E-18
 -0.7200000     -2.8816505E-18
 -0.6600000     -1.0186781E-17
 -0.6000000     -1.6325710E-17
 -0.5400000     -1.4277397E-17
 -0.4800000      2.5984903E-18
 -0.4200000      3.4005196E-17
 -0.3600000      6.6383249E-17
 -0.3000000      7.2760878E-17
 -0.2400000      2.4181745E-17
 -0.1800000     -8.7618378E-17
 -0.1200000     -2.2640841E-16
 -5.9999999E-02 -3.0514076E-16
  0.0000000E+00 -2.1500157E-16
  5.9999999E-02  1.0773405E-16
  0.1200000      6.0209685E-16
  0.1800000      1.0409534E-15
  0.2400000      1.0822709E-15
  0.3000000      4.3368338E-16
  0.3600000     -9.1753055E-16
  0.4200000     -2.5299726E-15
  0.4800000     -3.5388653E-15
  0.5400000     -2.9831594E-15
  0.6000000     -3.6945738E-16
  0.6600000      3.7742124E-15
  0.7200000      7.7187165E-15
  0.7800000      9.0271952E-15
  0.8400000      5.7296544E-15
  0.9000000     -2.2456893E-15
  0.9600000     -1.2168145E-14
   1.020000     -1.8932657E-14
   1.080000     -1.7144994E-14
   1.140000     -4.2928079E-15
   1.200000      1.6490381E-14
   1.260000      3.5937707E-14
   1.320000      4.1677545E-14
   1.380000      2.4366946E-14
   1.440000     -1.5531337E-14
   1.500000     -6.4127685E-14
   1.560000     -9.6977005E-14
   1.620000     -8.9137722E-14
   1.680000     -2.9118143E-14
   1.740000      6.9999772E-14
   1.800000      1.6955565E-13
   1.860000      2.1821748E-13
   1.920000      1.7578613E-13
   1.980000      3.7778340E-14
   2.040000     -1.5266168E-13
   2.100000     -3.1550863E-13
   2.160000     -3.6713200E-13
   2.220000     -2.6328478E-13
   2.280000     -3.0387893E-14
   2.340000      2.3484502E-13
   2.400000      4.0424351E-13
   2.460000      3.8218861E-13
   2.520000      1.6434434E-13
   2.580000     -1.4309031E-13
   2.640000     -3.6301786E-13
   2.700000     -3.3632553E-13
   2.760000     -2.0416330E-14
   2.820000      4.5640239E-13
   2.880000      8.2560234E-13
   2.940000      7.9679091E-13
   3.000000      2.1857102E-13
   3.060000     -7.9615671E-13
   3.120000     -1.8558234E-12
   3.180000     -2.4187698E-12
   3.240000     -2.0286552E-12
   3.300000     -5.5934960E-13
   3.360000      1.6494472E-12
   3.420000      3.8493948E-12
   3.480000      5.1354966E-12
   3.540000      4.8025108E-12
   3.600000      2.6572221E-12
   3.660000     -8.5381339E-13
   3.720000     -4.7655747E-12
   3.780000     -7.9188245E-12
   3.840000     -9.3488264E-12
   3.900000     -8.5730416E-12
   3.960000     -5.6666772E-12
   4.020000     -1.1254173E-12
   4.080000      4.3753946E-12
   4.140000      1.0166096E-11
   4.200000      1.5595188E-11
   4.260000      1.9868577E-11
   4.320000      2.1848240E-11
   4.380000      2.0017250E-11
   4.440000      1.2781500E-11
   4.500000     -8.6929162E-13
   4.560000     -2.0519510E-11
   4.620000     -4.3643623E-11
   4.680000     -6.5454378E-11
   4.740000     -7.9529494E-11
   4.800000     -7.9206447E-11
   4.860000     -5.9443013E-11
   4.920000     -1.8630658E-11
   4.980000      4.0193050E-11
   5.040000      1.0913642E-10
   5.100000      1.7636567E-10
   5.160000      2.2793632E-10
   5.220000      2.5011110E-10
   5.280000      2.3166134E-10
   5.340000      1.6574131E-10
   5.400000      5.1121898E-11
   5.460000     -1.0722803E-10
   5.520000     -2.9810587E-10
   5.580000     -5.0447979E-10
   5.640000     -7.0432649E-10
   5.700000     -8.7200935E-10
   5.760000     -9.8034181E-10
   5.820000     -1.0033850E-09
   5.880000     -9.1979274E-10
   5.940000     -7.1622797E-10
   6.000000     -3.9015541E-10
   6.060000      4.8721804E-11
   6.120000      5.7889116E-10
   6.180000      1.1694001E-09
   6.240000      1.7837299E-09
   6.300000      2.3843307E-09
   6.360000      2.9368519E-09
   6.420000      3.4133045E-09
   6.480000      3.7938590E-09
   6.540000      4.0674935E-09
   6.600000      4.2320334E-09
   6.660000      4.2941219E-09
   6.720000      4.2693111E-09
   6.780000      4.1819703E-09
   6.840000      4.0643435E-09
   6.900000      3.9540833E-09
   6.960000      3.8900323E-09
   7.020000      3.9067380E-09
   7.080000      4.0288803E-09
   7.140000      4.2670969E-09
   7.200000      4.6164237E-09
   7.260000      5.0577884E-09
   7.320000      5.5619922E-09
   7.380000      6.0948597E-09
   7.440000      6.6219727E-09
   7.500000      7.1118378E-09
   7.560000      7.5371505E-09
   7.620000      7.8747249E-09
   7.680000      8.1051592E-09
   7.740000      8.2132363E-09
   7.800000      8.1894118E-09
   7.860000      8.0319547E-09
   7.920000      7.7486098E-09
   7.980000      7.3566144E-09
   8.040000      6.8803745E-09
   8.100000      6.3470487E-09
   8.160000      5.7812146E-09
   8.220000      5.2003073E-09
   8.280000      4.6123612E-09
   8.340000      4.0168251E-09
   8.400000      3.4080871E-09
   8.460000      2.7803644E-09
   8.520000      2.1321378E-09
   8.580000      1.4685725E-09
   8.640000      8.0125229E-10
   8.700000      1.4567356E-10
   8.760000     -4.8215099E-10
   8.820000     -1.0683622E-09
   8.880000     -1.6020444E-09
   8.940000     -2.0739797E-09
   9.000000     -2.4742834E-09
   9.060000     -2.7904870E-09
   9.120000     -3.0075216E-09
   9.180000     -3.1102378E-09
   9.240000     -3.0878784E-09
   9.300000     -2.9388649E-09
   9.360000     -2.6738787E-09
   9.420000     -2.3156774E-09
   9.480000     -1.8952688E-09
   9.540000     -1.4454694E-09
   9.600000     -9.9390451E-10
   9.660000     -5.5774801E-10
   9.720000     -1.4181595E-10
   9.780000      2.5966676E-10
   9.840000      6.5867167E-10
   9.900000      1.0682535E-09
   9.960000      1.4986444E-09
   10.02000      1.9557087E-09
   10.08000      2.4417137E-09
   10.14000      2.9573557E-09
   10.20000      3.5035588E-09
   10.26000      4.0819375E-09
   10.32000      4.6936943E-09
   10.38000      5.3377076E-09
   10.44000      6.0090661E-09
   10.50000      6.6991706E-09
   10.56000      7.3977509E-09
   10.62000      8.0961460E-09
   10.68000      8.7904812E-09
   10.74000      9.4832364E-09
   10.80000      1.0182213E-08
   10.86000      1.0896935E-08
   10.92000      1.1633525E-08
   10.98000      1.2389844E-08
   11.04000      1.3152752E-08
   11.10000      1.3898832E-08
   11.16000      1.4598799E-08
   11.22000      1.5224659E-08
   11.28000      1.5757664E-08
   11.34000      1.6194679E-08
   11.40000      1.6550963E-08
   11.46000      1.6858319E-08
   11.52000      1.7159037E-08
   11.58000      1.7497182E-08
   11.64000      1.7909576E-08
   11.70000      1.8418586E-08
   11.76000      1.9028187E-08
   11.82000      1.9723601E-08
   11.88000      2.0474063E-08
   11.94000      2.1237762E-08
   12.00000      2.1968027E-08
   12.06000      2.2620062E-08
   12.12000      2.3157449E-08
   12.18000      2.3557526E-08
   12.24000      2.3814376E-08
   12.30000      2.3938279E-08
   12.36000      2.3951037E-08
   12.42000      2.3877892E-08
   12.48000      2.3738126E-08
   12.54000      2.3537277E-08
   12.60000      2.3263899E-08
   12.66000      2.2892303E-08
   12.72000      2.2390713E-08
   12.78000      2.1732237E-08
   12.84000      2.0904890E-08
   12.90000      1.9917348E-08
   12.96000      1.8798572E-08
   13.02000      1.7591818E-08
   13.08000      1.6345375E-08
   13.14000      1.5103263E-08
   13.20000      1.3898703E-08
   13.26000      1.2751694E-08
   13.32000      1.1670299E-08
   13.38000      1.0653987E-08
   13.44000      9.6969872E-09
   13.50000      8.7902103E-09
   13.56000      7.9214528E-09
   13.62000      7.0747297E-09
   13.68000      6.2301662E-09
   13.74000      5.3657190E-09
   13.80000      4.4611190E-09
   13.86000      3.5032606E-09
   13.92000      2.4913442E-09
   13.98000      1.4397706E-09
   14.04000      3.7735778E-10
   14.10000     -6.5737804E-10
   14.16000     -1.6237338E-09
   14.22000     -2.4869504E-09
   14.28000     -3.2245620E-09
   14.34000     -3.8292147E-09
   14.40000     -4.3074704E-09
   14.46000     -4.6754645E-09
   14.52000     -4.9531939E-09
   14.58000     -5.1593689E-09
   14.64000     -5.3082720E-09
   14.70000     -5.4091323E-09
   14.76000     -5.4676721E-09
   14.82000     -5.4888609E-09
   14.88000     -5.4797265E-09
   14.94000     -5.4511724E-09
   15.00000     -5.4181046E-09
   15.06000     -5.3976570E-09
   15.12000     -5.4058806E-09
   15.18000     -5.4537899E-09
   15.24000     -5.5439968E-09
   15.30000     -5.6690794E-09
   15.36000     -5.8123280E-09
   15.42000     -5.9507292E-09
   15.48000     -6.0593046E-09
   15.54000     -6.1155818E-09
   15.60000     -6.1031633E-09
   15.66000     -6.0139156E-09
   15.72000     -5.8488854E-09
   15.78000     -5.6183196E-09
   15.84000     -5.3410134E-09
   15.90000     -5.0428621E-09
   15.96000     -4.7542672E-09
   16.02000     -4.5062265E-09
   16.08000     -4.3254742E-09
   16.14000     -4.2296038E-09
   16.20000     -4.2233448E-09
   16.26000     -4.2968433E-09
   16.32000     -4.4260822E-09
   16.38000     -4.5748649E-09
   16.44000     -4.6974975E-09
   16.50000     -4.7415827E-09
   16.56000     -4.6510098E-09
   16.62000     -4.3697788E-09
   16.68000     -3.8473673E-09
   16.74000     -3.0456959E-09
   16.80000     -1.9467274E-09
   16.86000     -5.5875443E-10
   16.92000      1.0808873E-09
   16.98000      2.9083811E-09
   17.04000      4.8416005E-09
   17.10000      6.7925003E-09
   17.16000      8.6809173E-09
   17.22000      1.0446335E-08
   17.28000      1.2054683E-08
   17.34000      1.3498656E-08
   17.40000      1.4792013E-08
   17.46000      1.5960088E-08
   17.52000      1.7029594E-08
   17.58000      1.8020645E-08
   17.64000      1.8942639E-08
   17.70000      1.9793939E-08
   17.76000      2.0563967E-08
   17.82000      2.1235756E-08
   17.88000      2.1787514E-08
   17.94000      2.2192861E-08
   18.00000      2.2420448E-08
   18.06000      2.2434149E-08
   18.12000      2.2194801E-08
   18.18000      2.1663570E-08
   18.24000      2.0806448E-08
   18.30000      1.9598845E-08
   18.36000      1.8029601E-08
   18.42000      1.6103945E-08
   18.48000      1.3845306E-08
   18.54000      1.1295766E-08
   18.60000      8.5147542E-09
   18.66000      5.5754668E-09
   18.72000      2.5588742E-09
   18.78000     -4.5407608E-10
   18.84000     -3.3905529E-09
   18.90000     -6.1922836E-09
   18.96000     -8.8186374E-09
   19.02000     -1.1245605E-08
   19.08000     -1.3461257E-08
   19.14000     -1.5459308E-08
   19.20000     -1.7232939E-08
   19.26000     -1.8770656E-08
   19.32000     -2.0055209E-08
   19.38000     -2.1065487E-08
   19.44000     -2.1780600E-08
   19.50000     -2.2184938E-08
   19.56000     -2.2273007E-08
   19.62000     -2.2053204E-08
   19.68000     -2.1549969E-08
   19.74000     -2.0804015E-08
   19.80000     -1.9870464E-08
   19.86000     -1.8814841E-08
   19.92000     -1.7707062E-08
   19.98000     -1.6614118E-08
   20.04000     -1.5592617E-08
   20.10000     -1.4682890E-08
   20.16000     -1.3906241E-08
   20.22000     -1.3266259E-08
   20.28000     -1.2753860E-08
   20.34000     -1.2354431E-08
   20.40000     -1.2054689E-08
   20.46000     -1.1847021E-08
   20.52000     -1.1730182E-08
   20.58000     -1.1706679E-08
   20.64000     -1.1778425E-08
   20.70000     -1.1942606E-08
   20.76000     -1.2189178E-08
   20.82000     -1.2500475E-08
   20.88000     -1.2852484E-08
   20.94000     -1.3217040E-08
   21.00000     -1.3564458E-08
   21.06000     -1.3866380E-08
   21.12000     -1.4098746E-08
   21.18000     -1.4244433E-08
   21.24000     -1.4294557E-08
   21.30000     -1.4247481E-08
   21.36000     -1.4105232E-08
   21.42000     -1.3868434E-08
   21.48000     -1.3532027E-08
   21.54000     -1.3084300E-08
   21.60000     -1.2510571E-08
   21.66000     -1.1800558E-08
   21.72000     -1.0956358E-08
   21.78000     -9.9971000E-09
   21.84000     -8.9575067E-09
   21.90000     -7.8803692E-09
   21.96000     -6.8058359E-09
   22.02000     -5.7620602E-09
   22.08000     -4.7610058E-09
   22.14000     -3.8005914E-09
   22.20000     -2.8712432E-09
   22.26000     -1.9629742E-09
   22.32000     -1.0694247E-09
   22.38000     -1.8752921E-10
   22.44000      6.8568751E-10
   22.50000      1.5559637E-09
   22.56000      2.4314151E-09
   22.62000      3.3181768E-09
   22.68000      4.2140043E-09
   22.74000      5.1033746E-09
   22.80000      5.9572893E-09
   22.86000      6.7388868E-09
   22.92000      7.4132700E-09
   22.98000      7.9580440E-09
   23.04000      8.3707619E-09
   23.10000      8.6707805E-09
   23.16000      8.8952037E-09
   23.22000      9.0904990E-09
   23.28000      9.3024788E-09
   23.34000      9.5673434E-09
   23.40000      9.9057607E-09
   23.46000      1.0320940E-08
   23.52000      1.0800648E-08
   23.58000      1.1322299E-08
   23.64000      1.1859569E-08
   23.70000      1.2388690E-08
   23.76000      1.2892560E-08
   23.82000      1.3361527E-08
   23.88000      1.3790824E-08
   23.94000      1.4176014E-08
   24.00000      1.4508784E-08
   24.06000      1.4775557E-08
   24.12000      1.4960337E-08
   24.18000      1.5051382E-08
   24.24000      1.5049322E-08
   24.30000      1.4973189E-08
   24.36000      1.4861081E-08
   24.42000      1.4763991E-08
   24.48000      1.4733988E-08
   24.54000      1.4810465E-08
   24.60000      1.5009238E-08
   24.66000      1.5318639E-08
   24.72000      1.5704163E-08
   24.78000      1.6120193E-08
   24.84000      1.6524519E-08
   24.90000      1.6890539E-08
   24.96000      1.7212944E-08
   25.02000      1.7505293E-08
   25.08000      1.7790940E-08
   25.14000      1.8091130E-08
   25.20000      1.8414786E-08
   25.26000      1.8753541E-08
   25.32000      1.9083322E-08
   25.38000      1.9371186E-08
   25.44000      1.9584306E-08
   25.50000      1.9697445E-08
   25.56000      1.9696314E-08
   25.62000      1.9576195E-08
   25.68000      1.9337390E-08
   25.74000      1.8980476E-08
   25.80000      1.8504364E-08
   25.86000      1.7908915E-08
   25.92000      1.7201542E-08
   25.98000      1.6405226E-08
   26.04000      1.5564252E-08
   26.10000      1.4744299E-08
   26.16000      1.4025420E-08
   26.22000      1.3489034E-08
   26.28000      1.3202361E-08
   26.34000      1.3205060E-08
   26.40000      1.3502330E-08
   26.46000      1.4066843E-08
   26.52000      1.4848927E-08
   26.58000      1.5791718E-08
   26.64000      1.6846332E-08
   26.70000      1.7982266E-08
   26.76000      1.9190020E-08
   26.82000      2.0475918E-08
   26.88000      2.1851816E-08
   26.94000      2.3324082E-08
   27.00000      2.4885889E-08
   27.06000      2.6515186E-08
   27.12000      2.8178006E-08
   27.18000      2.9834716E-08
   27.24000      3.1445989E-08
   27.30000      3.2976214E-08
   27.36000      3.4393643E-08
   27.42000      3.5668755E-08
   27.48000      3.6772814E-08
   27.54000      3.7678451E-08
   27.60000      3.8362508E-08
   27.66000      3.8809734E-08
   27.72000      3.9015219E-08
   27.78000      3.8983767E-08
   27.84000      3.8725954E-08
   27.90000      3.8252484E-08
   27.96000      3.7569784E-08
   28.02000      3.6679520E-08
   28.08000      3.5583437E-08
   28.14000      3.4292146E-08
   28.20000      3.2834432E-08
   28.26000      3.1262470E-08
   28.32000      2.9649414E-08
   28.38000      2.8078595E-08
   28.44000      2.6627122E-08
   28.50000      2.5349458E-08
   28.56000      2.4267235E-08
   28.62000      2.3369545E-08
   28.68000      2.2623901E-08
   28.74000      2.1993694E-08
   28.80000      2.1455064E-08
   28.86000      2.1006297E-08
   28.92000      2.0665935E-08
   28.98000      2.0460583E-08
   29.04000      2.0407994E-08
   29.10000      2.0503016E-08
   29.16000      2.0712791E-08
   29.22000      2.0983647E-08
   29.28000      2.1257055E-08
   29.34000      2.1488258E-08
   29.40000      2.1660062E-08
   29.46000      2.1786450E-08
   29.52000      2.1904944E-08
   29.58000      2.2061128E-08
   29.64000      2.2291603E-08
   29.70000      2.2611800E-08
   29.76000      2.3012554E-08
   29.82000      2.3465647E-08
   29.88000      2.3935108E-08
   29.94000      2.4389369E-08
   30.00000      2.4809907E-08
   30.06000      2.5193971E-08
   30.12000      2.5551529E-08
   30.18000      2.5898371E-08
   30.24000      2.6247989E-08
   30.30000      2.6604443E-08
   30.36000      2.6957819E-08
   30.42000      2.7283114E-08
   30.48000      2.7543020E-08
   30.54000      2.7694538E-08
   30.60000      2.7698457E-08
   30.66000      2.7529493E-08
   30.72000      2.7184001E-08
   30.78000      2.6681972E-08
   30.84000      2.6061736E-08
   30.90000      2.5368216E-08
   30.96000      2.4638453E-08
   31.02000      2.3889564E-08
   31.08000      2.3113790E-08
   31.14000      2.2282517E-08
   31.20000      2.1357733E-08
   31.26000      2.0306373E-08
   31.32000      1.9112157E-08
   31.38000      1.7780907E-08
   31.44000      1.6338195E-08
   31.50000      1.4821171E-08
   31.56000      1.3268408E-08
   31.62000      1.1711559E-08
   31.68000      1.0171440E-08
   31.74000      8.6590894E-09
   31.80000      7.1806827E-09
   31.86000      5.7441571E-09
   31.92000      4.3652610E-09
   31.98000      3.0711074E-09
   32.04000      1.9000941E-09
   32.10000      8.9799346E-10
   32.16000      1.1114551E-10
   32.22000     -4.2129969E-10
   32.28000     -6.7358030E-10
   32.34000     -6.3580025E-10
   32.40000     -3.1184244E-10
   32.46000      2.8616931E-10
   32.52000      1.1440671E-09
   32.58000      2.2491955E-09
   32.64000      3.5891627E-09
   32.70000      5.1460649E-09
   32.76000      6.8890444E-09
   32.82000      8.7694358E-09
   32.88000      1.0722026E-08
   32.94000      1.2673302E-08
   33.00000      1.4554116E-08
   33.06000      1.6311791E-08
   33.12000      1.7916484E-08
   33.18000      1.9359131E-08
   33.24000      2.0642069E-08
   33.30000      2.1766949E-08
   33.36000      2.2725818E-08
   33.42000      2.3499570E-08
   33.48000      2.4064237E-08
   33.54000      2.4401569E-08
   33.60000      2.4508196E-08
   33.66000      2.4398377E-08
   33.72000      2.4098751E-08
   33.78000      2.3637659E-08
   33.84000      2.3034527E-08
   33.90000      2.2294993E-08
   33.96000      2.1414495E-08
   34.02000      2.0388963E-08
   34.08000      1.9227556E-08
   34.14000      1.7961366E-08
   34.20000      1.6643860E-08
   34.26000      1.5342650E-08
   34.32000      1.4126131E-08
   34.38000      1.3050565E-08
   34.44000      1.2152551E-08
   34.50000      1.1449008E-08
   34.56000      1.0943142E-08
   34.62000      1.0632411E-08
   34.68000      1.0514150E-08
   34.74000      1.0586310E-08
   34.80000      1.0843721E-08
   34.86000      1.1272679E-08
   34.92000      1.1847483E-08
   34.98000      1.2531445E-08
   35.04000      1.3282451E-08
   35.10000      1.4060872E-08
   35.16000      1.4836405E-08
   35.22000      1.5591020E-08
   35.28000      1.6317040E-08
   35.34000      1.7011594E-08
   35.40000      1.7670120E-08
   35.46000      1.8281746E-08
   35.52000      1.8828260E-08
   35.58000      1.9286695E-08
   35.64000      1.9634221E-08
   35.70000      1.9853324E-08
   35.76000      1.9935587E-08
   35.82000      1.9883101E-08
   35.88000      1.9707489E-08
   35.94000      1.9427199E-08
   36.00000      1.9064109E-08
   36.06000      1.8640502E-08
   36.12000      1.8177106E-08
   36.18000      1.7692349E-08
   36.24000      1.7202227E-08
   36.30000      1.6719859E-08
   36.36000      1.6253860E-08
   36.42000      1.5805595E-08
   36.48000      1.5366517E-08
   36.54000      1.4917630E-08
   36.60000      1.4432815E-08
   36.66000      1.3886227E-08
   36.72000      1.3261567E-08
   36.78000      1.2559315E-08
   36.84000      1.1797895E-08
   36.90000      1.1006891E-08
   36.96000      1.0214069E-08
   37.02000      9.4312780E-09
   37.08000      8.6455021E-09
   37.14000      7.8194962E-09
   37.20000      6.9022286E-09
   37.26000      5.8446750E-09
   37.32000      4.6139230E-09
   37.38000      3.1993588E-09
   37.44000      1.6086705E-09
   37.50000     -1.4341002E-10
   37.56000     -2.0470585E-09
   37.62000     -4.1032040E-09
   37.68000     -6.3198540E-09
   37.74000     -8.7007281E-09
   37.80000     -1.1232396E-08
   37.86000     -1.3877267E-08
   37.92000     -1.6577108E-08
   37.98000     -1.9266530E-08
   38.04000     -2.1890859E-08
   38.10000     -2.4420407E-08
   38.16000     -2.6854666E-08
   38.22000     -2.9214576E-08
   38.28000     -3.1526362E-08
   38.34000     -3.3804195E-08
   38.40000     -3.6039086E-08
   38.46000     -3.8198451E-08
   38.52000     -4.0236021E-08
   38.58000     -4.2107313E-08
   38.64000     -4.3784194E-08
   38.70000     -4.5262698E-08
   38.76000     -4.6561805E-08
   38.82000     -4.7714465E-08
   38.88000     -4.8755268E-08
   38.94000     -4.9709943E-08
   39.00000     -5.0590533E-08
   39.06000     -5.1397404E-08
   39.12000     -5.2126286E-08
   39.18000     -5.2776446E-08
   39.24000     -5.3355933E-08
   39.30000     -5.3881255E-08
   39.36000     -5.4371355E-08
   39.42000     -5.4838448E-08
   39.48000     -5.5279742E-08
   39.54000     -5.5673933E-08
   39.60000     -5.5984540E-08
   39.66000     -5.6169345E-08
   39.72000     -5.6192668E-08
   39.78000     -5.6036008E-08
   39.84000     -5.5703222E-08
   39.90000     -5.5218596E-08
   39.96000     -5.4619147E-08
   40.02000     -5.3944603E-08
   40.08000     -5.3229115E-08
   40.14000     -5.2497441E-08
   40.20000     -5.1765788E-08
   40.26000     -5.1045390E-08
   40.32000     -5.0345658E-08
   40.38000     -4.9674902E-08
   40.44000     -4.9038569E-08
   40.50000     -4.8436995E-08
   40.56000     -4.7865377E-08
   40.62000     -4.7317297E-08
   40.68000     -4.6790753E-08
   40.74000     -4.6293597E-08
   40.80000     -4.5844818E-08
   40.86000     -4.5470028E-08
   40.92000     -4.5192518E-08
   40.98000     -4.5023917E-08
   41.04000     -4.4958970E-08
   41.10000     -4.4977053E-08
   41.16000     -4.5049674E-08
   41.22000     -4.5150106E-08
   41.28000     -4.5260506E-08
   41.34000     -4.5373387E-08
   41.40000     -4.5487290E-08
   41.46000     -4.5599446E-08
   41.52000     -4.5699263E-08
   41.58000     -4.5765770E-08
   41.64000     -4.5769763E-08
   41.70000     -4.5679375E-08
   41.76000     -4.5466642E-08
   41.82000     -4.5112870E-08
   41.88000     -4.4611433E-08
   41.94000     -4.3967926E-08
   42.00000     -4.3198021E-08
   42.06000     -4.2323791E-08
   42.12000     -4.1369439E-08
   42.18000     -4.0357552E-08
   42.24000     -3.9307171E-08
   42.30000     -3.8234539E-08
   42.36000     -3.7156212E-08
   42.42000     -3.6093002E-08
   42.48000     -3.5072169E-08
   42.54000     -3.4125751E-08
   42.60000     -3.3284554E-08
   42.66000     -3.2569613E-08
   42.72000     -3.1984911E-08
   42.78000     -3.1514983E-08
   42.84000     -3.1129300E-08
   42.90000     -3.0792059E-08
   42.96000     -3.0473409E-08
   43.02000     -3.0157079E-08
   43.08000     -2.9841075E-08
   43.14000     -2.9531456E-08
   43.20000     -2.9232618E-08
   43.26000     -2.8939525E-08
   43.32000     -2.8636245E-08
   43.38000     -2.8301983E-08
   43.44000     -2.7921708E-08
   43.50000     -2.7495689E-08
   43.56000     -2.7042372E-08
   43.62000     -2.6591989E-08
   43.68000     -2.6173131E-08
   43.74000     -2.5798254E-08
   43.80000     -2.5455455E-08
   43.86000     -2.5111259E-08
   43.92000     -2.4724216E-08
   43.98000     -2.4263846E-08
   44.04000     -2.3726496E-08
   44.10000     -2.3140823E-08
   44.16000     -2.2560036E-08
   44.22000     -2.2044095E-08
   44.28000     -2.1639547E-08
   44.34000     -2.1365540E-08
   44.40000     -2.1211557E-08
   44.46000     -2.1146858E-08
   44.52000     -2.1136504E-08
   44.58000     -2.1156339E-08
   44.64000     -2.1200645E-08
   44.70000     -2.1280140E-08
   44.76000     -2.1412625E-08
   44.82000     -2.1611411E-08
   44.88000     -2.1876819E-08
   44.94000     -2.2193603E-08
   45.00000     -2.2534074E-08
   45.06000     -2.2864453E-08
   45.12000     -2.3151557E-08
   45.18000     -2.3367893E-08
   45.24000     -2.3494714E-08
   45.30000     -2.3523427E-08
   45.36000     -2.3455570E-08
   45.42000     -2.3301189E-08
   45.48000     -2.3075412E-08
   45.54000     -2.2793751E-08
   45.60000     -2.2467800E-08
   45.66000     -2.2103501E-08
   45.72000     -2.1703313E-08
   45.78000     -2.1271665E-08
   45.84000     -2.0821002E-08
   45.90000     -2.0374857E-08
   45.96000     -1.9965553E-08
   46.02000     -1.9626818E-08
   46.08000     -1.9384327E-08
   46.14000     -1.9248546E-08
   46.20000     -1.9213315E-08
   46.26000     -1.9260938E-08
   46.32000     -1.9371482E-08
   46.38000     -1.9532202E-08
   46.44000     -1.9743014E-08
   46.50000     -2.0015952E-08
   46.56000     -2.0369024E-08
   46.62000     -2.0817236E-08
   46.68000     -2.1364437E-08
   46.74000     -2.1999112E-08
   46.80000     -2.2695613E-08
   46.86000     -2.3419968E-08
   46.92000     -2.4137700E-08
   46.98000     -2.4820080E-08
   47.04000     -2.5446170E-08
   47.10000     -2.5999778E-08
   47.16000     -2.6462894E-08
   47.22000     -2.6808589E-08
   47.28000     -2.6996457E-08
   47.34000     -2.6971843E-08
   47.40000     -2.6668017E-08
   47.46000     -2.6008781E-08
   47.52000     -2.4909074E-08
   47.58000     -2.3272463E-08
   47.64000     -2.0986183E-08
   47.70000     -1.7915379E-08
   47.76000     -1.3897852E-08
   47.82000     -8.7393479E-09
   47.88000     -2.2084048E-09
   47.94000      5.9706324E-09
   48.00000      1.6127075E-08
   48.06000      2.8655439E-08
   48.12000      4.4028056E-08
   48.18000      6.2807715E-08
   48.24000      8.5659821E-08
   48.30000      1.1336432E-07
   48.36000      1.4682820E-07
   48.42000      1.8710031E-07
   48.48000      2.3539040E-07
   48.54000      2.9309481E-07
   48.60000      3.6183036E-07
   48.66000      4.4347573E-07
   48.72000      5.4021780E-07
   48.78000      6.5459841E-07
   48.84000      7.8955753E-07
   48.90000      9.4847297E-07
   48.96000      1.1351996E-06
   49.02000      1.3541168E-06
   49.08000      1.6101885E-06
   49.14000      1.9090414E-06
   49.20000      2.2570553E-06
   49.26000      2.6614625E-06
   49.32000      3.1304469E-06
   49.38000      3.6732376E-06
   49.44000      4.3002019E-06
   49.50000      5.0229405E-06
   49.56000      5.8543942E-06
   49.62000      6.8089630E-06
   49.68000      7.9026431E-06
   49.74000      9.1531710E-06
   49.80000      1.0580175E-05
   49.86000      1.2205316E-05
   49.92000      1.4052431E-05
   49.98000      1.6147662E-05
   50.04000      1.8519588E-05
   50.10000      2.1199352E-05
   50.16000      2.4220790E-05
   50.22000      2.7620552E-05
   50.28000      3.1438223E-05
   50.34000      3.5716450E-05
   50.40000      4.0501007E-05
   50.46000      4.5840909E-05
   50.52000      5.1788451E-05
   50.58000      5.8399251E-05
   50.64000      6.5732238E-05
   50.70000      7.3849631E-05
   50.76000      8.2816892E-05
   50.82000      9.2702598E-05
   50.88000      1.0357828E-04
   50.94000      1.1551830E-04
   51.00000      1.2859957E-04
   51.06000      1.4290135E-04
   51.12000      1.5850490E-04
   51.18000      1.7549313E-04
   51.24000      1.9395014E-04
   51.30000      2.1396071E-04
   51.36000      2.3560978E-04
   51.42000      2.5898186E-04
   51.48000      2.8416031E-04
   51.54000      3.1122682E-04
   51.60000      3.4026051E-04
   51.66000      3.7133746E-04
   51.72000      4.0452954E-04
   51.78000      4.3990382E-04
   51.84000      4.7752162E-04
   51.90000      5.1743753E-04
   51.96000      5.5969856E-04
   52.02000      6.0434337E-04
   52.08000      6.5140135E-04
   52.14000      7.0089166E-04
   52.20000      7.5282238E-04
   52.26000      8.0719031E-04
   52.32000      8.6397975E-04
   52.38000      9.2316169E-04
   52.44000      9.8469388E-04
   52.50000      1.0485197E-03
   52.56000      1.1145688E-03
   52.62000      1.1827552E-03
   52.68000      1.2529792E-03
   52.74000      1.3251259E-03
   52.80000      1.3990665E-03
   52.86000      1.4746571E-03
   52.92000      1.5517406E-03
   52.98000      1.6301468E-03
   53.04000      1.7096932E-03
   53.10000      1.7901867E-03
   53.16000      1.8714233E-03
   53.22000      1.9531902E-03
   53.28000      2.0352672E-03
   53.34000      2.1174271E-03
   53.40000      2.1994391E-03
   53.46000      2.2810691E-03
   53.52000      2.3620820E-03
   53.58000      2.4422435E-03
   53.64000      2.5213228E-03
   53.70000      2.5990929E-03
   53.76000      2.6753331E-03
   53.82000      2.7498312E-03
   53.88000      2.8223854E-03
   53.94000      2.8928057E-03
   54.00000      2.9609166E-03
   54.06000      3.0265579E-03
   54.12000      3.0895851E-03
   54.18000      3.1498733E-03
   54.24000      3.2073155E-03
   54.30000      3.2618246E-03
   54.36000      3.3133351E-03
   54.42000      3.3618028E-03
   54.48000      3.4072048E-03
   54.54000      3.4495411E-03
   54.60000      3.4888322E-03
   54.66000      3.5251200E-03
   54.72000      3.5584669E-03
   54.78000      3.5889540E-03
   54.84000      3.6166820E-03
   54.90000      3.6417677E-03
   54.96000      3.6643441E-03
   55.02000      3.6845577E-03
   55.08000      3.7025686E-03
   55.14000      3.7185459E-03
   55.20000      3.7326666E-03
   55.26000      3.7451135E-03
   55.32000      3.7560724E-03
   55.38000      3.7657302E-03
   55.44000      3.7742734E-03
   55.50000      3.7818840E-03
   55.56000      3.7887387E-03