 -0.750000000       0.00000000    
 -0.689999998       0.00000000    
 -0.629999995       0.00000000    
 -0.569999993       0.00000000    
 -0.509999990       0.00000000    
 -0.449999988       0.00000000    
 -0.389999986       0.00000000    
 -0.330000013       0.00000000    
 -0.270000011      -2.29791022E-26
 -0.209999993      -2.81422899E-25
 -0.150000006      -1.67896875E-24
  -9.00000036E-02  -6.29011141E-24
  -2.99999993E-02  -1.55505295E-23
   2.99999993E-02  -2.18206215E-23
   9.00000036E-02   7.74121749E-24
  0.150000006       1.40704879E-22
  0.209999993       4.45188616E-22
  0.270000011       8.73314208E-22
  0.330000013       1.08461695E-21
  0.389999986       3.58359845E-22
  0.449999988      -2.15666564E-21
  0.509999990      -6.70666933E-21
  0.569999993      -1.19711727E-20
  0.629999995      -1.46800939E-20
  0.689999998      -1.07806974E-20
  0.750000000       1.67551380E-21
  0.810000002       1.95814524E-20
  0.870000005       3.52268176E-20
  0.930000007       4.33527685E-20
  0.990000010       5.36760181E-20
   1.04999995       9.95559301E-20
   1.11000001       2.25848095E-19
   1.16999996       4.40675508E-19
   1.23000002       6.36020982E-19
   1.28999996       5.21541874E-19
   1.35000002      -3.42566795E-19
   1.40999997      -2.32252670E-18
   1.47000003      -5.28080582E-18
   1.52999997      -8.08838213E-18
   1.59000003      -8.42919792E-18
   1.64999998      -3.33990716E-18
   1.71000004       9.25491690E-18
   1.76999998       2.82873866E-17
   1.83000004       4.75882929E-17
   1.88999999       5.57879126E-17
   1.95000005       3.94624345E-17
   2.00999999      -1.03010373E-17
   2.06999993      -8.97884570E-17
   2.13000011      -1.76865204E-16
   2.19000006      -2.32099627E-16
   2.25000000      -2.09820874E-16
   2.30999994      -7.81435473E-17
   2.36999989       1.58215008E-16
   2.43000007       4.42684115E-16
   2.49000001       6.70160980E-16
   2.54999995       7.15325359E-16
   2.60999990       4.82717777E-16
   2.67000008      -3.67827631E-17
   2.73000002      -7.28148538E-16
   2.78999996      -1.35941694E-15
   2.84999990      -1.64843739E-15
   2.91000009      -1.37867625E-15
   2.97000003      -5.22956553E-16
   3.02999997       6.87354531E-16
   3.08999991       1.80507062E-15
   3.15000010       2.33798754E-15
   3.21000004       1.99555287E-15
   3.26999998       8.94365890E-16
   3.32999992      -4.13120627E-16
   3.39000010      -1.16332119E-15
   3.45000005      -8.06293945E-16
   3.50999999       5.67413766E-16
   3.56999993       2.06716930E-15
   3.63000011       2.30443360E-15
   3.69000006       1.27477294E-16
   3.75000000      -4.52007274E-15
   3.80999994      -1.01016980E-14
   3.86999989      -1.37670730E-14
   3.93000007      -1.24829075E-14
   3.99000001      -4.61550582E-15
   4.05000019       8.78983708E-15
   4.11000013       2.37849105E-14
   4.17000008       3.46735004E-14
   4.23000002       3.61907837E-14
   4.28999996       2.57780078E-14
   4.34999990       4.89174529E-15
   4.40999985      -2.12887654E-14
   4.46999979      -4.56176506E-14
   4.53000021      -6.13638914E-14
   4.59000015      -6.41540992E-14
   4.65000010      -5.27773659E-14
   4.71000004      -2.88606521E-14
   4.76999998       3.98936975E-15
   4.82999992       4.08908645E-14
   4.88999987       7.59818640E-14
   4.94999981       1.02647810E-13
   5.01000023       1.14292460E-13
   5.07000017       1.05924255E-13
   5.13000011       7.60673940E-14
   5.19000006       2.78864625E-14
   5.25000000      -3.14847703E-14
   5.30999994      -9.34495062E-14
   5.36999989      -1.50985520E-13
   5.42999983      -2.00119042E-13
   5.48999977      -2.38274840E-13
   5.55000019      -2.59848702E-13
   5.61000013      -2.51706831E-13
   5.67000008      -1.92638996E-13
   5.73000002      -5.98251578E-14
   5.78999996       1.57984587E-13
   5.84999990       4.45271641E-13
   5.90999985       7.50294087E-13
   5.96999979       9.88703043E-13
   6.03000021       1.06298455E-12
   6.09000015       8.93352124E-13
   6.15000010       4.49381472E-13
   6.21000004      -2.30371467E-13
   6.26999998      -1.03958378E-12
   6.32999992      -1.82646346E-12
   6.38999987      -2.42829216E-12
   6.44999981      -2.70455251E-12
   6.51000023      -2.55736231E-12
   6.57000017      -1.93645187E-12
   6.63000011      -8.35845173E-13
   6.69000006       7.05378789E-13
   6.75000000       2.58927125E-12
   6.80999994       4.63430943E-12
   6.86999989       6.55480314E-12
   6.92999983       7.96607311E-12
   6.98999977       8.43157922E-12
   7.05000019       7.55124782E-12
   7.11000013       5.06876398E-12
   7.17000008       9.60657769E-13
   7.23000002      -4.52923419E-12
   7.28999996      -1.09277960E-11
   7.34999990      -1.76313755E-11
   7.40999985      -2.40263972E-11
   7.46999979      -2.95823539E-11
   7.53000021      -3.38805095E-11
   7.59000015      -3.65743165E-11
   7.65000010      -3.73149150E-11
   7.71000004      -3.56990722E-11
   7.76999998      -3.12933672E-11
   7.82999992      -2.37560891E-11
   7.88999987      -1.30305870E-11
   7.94999981       4.56536881E-13
   8.01000023       1.56721858E-11
   8.06999969       3.09854226E-11
   8.13000011       4.43169737E-11
   8.18999958       5.33887136E-11
   8.25000000       5.60054850E-11
   8.31000042       5.03068594E-11
   8.36999989       3.49603818E-11
   8.43000031       9.30258995E-12
   8.48999977      -2.65516879E-11
   8.55000019      -7.16279328E-11
   8.60999966      -1.24066465E-10
   8.67000008      -1.81207813E-10
   8.72999954      -2.39830933E-10
   8.78999996      -2.96539626E-10
   8.85000038      -3.48227031E-10
   8.90999985      -3.92500504E-10
   8.97000027      -4.27950342E-10
   9.02999973      -4.54197624E-10
   9.09000015      -4.71733985E-10
   9.14999962      -4.81635176E-10
   9.21000004      -4.85252061E-10
   9.27000046      -4.83958429E-10
   9.32999992      -4.78982409E-10
   9.39000034      -4.71301997E-10
   9.44999981      -4.61566285E-10
   9.51000023      -4.50022297E-10
   9.56999969      -4.36457537E-10
   9.63000011      -4.20195989E-10
   9.68999958      -4.00185385E-10
   9.75000000      -3.75192322E-10
   9.81000042      -3.44087203E-10
   9.86999989      -3.06168396E-10
   9.93000031      -2.61455496E-10
   9.98999977      -2.10880993E-10
   10.0500002      -1.56325966E-10
   10.1099997      -1.00479403E-10
   10.1700001      -4.65421486E-11
   10.2299995       2.16665249E-12
   10.2900000       4.26201435E-11
   10.3500004       7.24352731E-11
   10.4099998       9.01129796E-11
   10.4700003       9.51456691E-11
   10.5299997       8.79945977E-11
   10.5900002       6.99506217E-11
   10.6499996       4.28985562E-11
   10.7100000       9.01786892E-12
   10.7700005      -2.95267491E-11
   10.8299999      -7.08375164E-11
   10.8900003      -1.13422528E-10
   10.9499998      -1.56212474E-10
   11.0100002      -1.98504921E-10
   11.0699997      -2.39920750E-10
   11.1300001      -2.80438200E-10
   11.1899996      -3.20499238E-10
   11.2500000      -3.61104174E-10
   11.3100004      -4.03785810E-10
   11.3699999      -4.50408766E-10
   11.4300003      -5.02845987E-10
   11.4899998      -5.62674740E-10
   11.5500002      -6.31030950E-10
   11.6099997      -7.08664183E-10
   11.6700001      -7.96091693E-10
   11.7299995      -8.93666585E-10
   11.7900000      -1.00141684E-09
   11.8500004      -1.11866383E-09
   11.9099998      -1.24360844E-09
   11.9700003      -1.37315626E-09
   12.0299997      -1.50317792E-09
   12.0900002      -1.62920488E-09
   12.1499996      -1.74733539E-09
   12.2100000      -1.85501525E-09
   12.2700005      -1.95140770E-09
   12.3299999      -2.03724615E-09
   12.3900003      -2.11428497E-09
   12.4499998      -2.18459806E-09
   12.5100002      -2.24997865E-09
   12.5699997      -2.31158404E-09
   12.6300001      -2.36982123E-09
   12.6899996      -2.42435538E-09
   12.7500000      -2.47411935E-09
   12.8100004      -2.51727972E-09
   12.8699999      -2.55122634E-09
   12.9300003      -2.57272914E-09
   12.9899998      -2.57838462E-09
   13.0500002      -2.56535770E-09
   13.1099997      -2.53224175E-09
   13.1700001      -2.47973908E-09
   13.2299995      -2.41084908E-09
   13.2900000      -2.33042718E-09
   13.3500004      -2.24424834E-09
   13.4099998      -2.15795493E-09
   13.4700003      -2.07636397E-09
   13.5299997      -2.00344807E-09
   13.5900002      -1.94296179E-09
   13.6499996      -1.89933735E-09
   13.7100000      -1.87829663E-09
   13.7700005      -1.88674432E-09
   13.8299999      -1.93185534E-09
   13.8900003      -2.01967398E-09
   13.9499998      -2.15376317E-09
   14.0100002      -2.33438935E-09
   14.0699997      -2.55841748E-09
   14.1300001      -2.81975088E-09
   14.1899996      -3.10996584E-09
   14.2500000      -3.41884809E-09
   14.3100004      -3.73478581E-09
   14.3699999      -4.04518996E-09
   14.4300003      -4.33714709E-09
   14.4899998      -4.59833238E-09
   14.5500002      -4.81794160E-09
   14.6099997      -4.98724617E-09
   14.6700001      -5.09950304E-09
   14.7299995      -5.14925880E-09
   14.7900000      -5.13146325E-09
   14.8500004      -5.04092146E-09
   14.9099998      -4.87243623E-09
   14.9700003      -4.62154803E-09
   15.0299997      -4.28536229E-09
   15.0900002      -3.86284071E-09
   15.1499996      -3.35422756E-09
   15.2100000      -2.75985124E-09
   15.2700005      -2.07906448E-09
   15.3299999      -1.31025379E-09
   15.3900003      -4.52508919E-10
   15.4499998       4.91193475E-10
   15.5100002       1.51016710E-09
   15.5699997       2.58284216E-09
   15.6300001       3.67538777E-09
   15.6899996       4.74271022E-09
   15.7500000       5.73163605E-09
   15.8100004       6.58554056E-09
   15.8699999       7.24945703E-09
   15.9300003       7.67489361E-09
   15.9899998       7.82390330E-09
   16.0499992       7.67229302E-09
   16.1100006       7.21196125E-09
   16.1700001       6.45238440E-09
   16.2299995       5.42113954E-09
   16.2900009       4.16333323E-09
   16.3500004       2.73980705E-09
   16.4099998       1.22403898E-09
   16.4699993      -3.02287251E-10
   16.5300007      -1.75498949E-09
   16.5900002      -3.05416759E-09
   16.6499996      -4.13155377E-09
   16.7099991      -4.93756280E-09
   16.7700005      -5.44687051E-09
   16.8299999      -5.66132785E-09
   16.8899994      -5.60944891E-09
   16.9500008      -5.34244027E-09
   17.0100002      -4.92761743E-09
   17.0699997      -4.44062076E-09
   17.1299992      -3.95788069E-09
   17.1900005      -3.55031271E-09
   17.2500000      -3.27846106E-09
   17.3099995      -3.18873061E-09
   17.3700008      -3.31019612E-09
   17.4300003      -3.65184882E-09
   17.4899998      -4.20073443E-09
   17.5499992      -4.92186647E-09
   17.6100006      -5.76077408E-09
   17.6700001      -6.64898359E-09
   17.7299995      -7.51192353E-09
   17.7900009      -8.27801649E-09
   17.8500004      -8.88736551E-09
   17.9099998      -9.29857524E-09
   17.9699993      -9.49274970E-09
   18.0300007      -9.47431911E-09
   18.0900002      -9.26900690E-09
   18.1499996      -8.91968543E-09
   18.2099991      -8.48118198E-09
   18.2700005      -8.01505706E-09
   18.3299999      -7.58505259E-09
   18.3899994      -7.25339300E-09
   18.4500008      -7.07747772E-09
   18.5100002      -7.10628711E-09
   18.5699997      -7.37608774E-09
   18.6299992      -7.90575694E-09
   18.6900005      -8.69292371E-09
   18.7500000      -9.71253211E-09
   18.8099995      -1.09190497E-08
   18.8700008      -1.22523955E-08
   18.9300003      -1.36463152E-08
   18.9899998      -1.50369850E-08
   19.0499992      -1.63697287E-08
   19.1100006      -1.76026109E-08
   19.1700001      -1.87070999E-08
   19.2299995      -1.96669863E-08
   19.2900009      -2.04770991E-08
   19.3500004      -2.11428475E-08
   19.4099998      -2.16807283E-08
   19.4699993      -2.21190088E-08
   19.5300007      -2.24973178E-08
   19.5900002      -2.28639401E-08
   19.6499996      -2.32700934E-08
   19.7099991      -2.37615101E-08
   19.7700005      -2.43687239E-08
   19.8299999      -2.50986218E-08
   19.8899994      -2.59301078E-08
   19.9500008      -2.68161955E-08
   20.0100002      -2.76928827E-08
   20.0699997      -2.84928152E-08
   20.1299992      -2.91596489E-08
   20.1900005      -2.96584393E-08
   20.2500000      -2.99788923E-08
   20.3099995      -3.01310727E-08
   20.3700008      -3.01362455E-08
   20.4300003      -3.00171266E-08
   20.4899998      -2.97914511E-08
   20.5499992      -2.94707974E-08
   20.6100006      -2.90637345E-08
   20.6700001      -2.85807626E-08
   20.7299995      -2.80379577E-08
   20.7900009      -2.74574194E-08
   20.8500004      -2.68640825E-08
   20.9099998      -2.62800217E-08
   20.9699993      -2.57180695E-08
   21.0300007      -2.51769148E-08
   21.0900002      -2.46394549E-08
   21.1499996      -2.40756179E-08
   21.2099991      -2.34495658E-08
   21.2700005      -2.27297949E-08
   21.3299999      -2.18991225E-08
   21.3899994      -2.09611830E-08
   21.4500008      -1.99409040E-08
   21.5100002      -1.88787990E-08
   21.5699997      -1.78214830E-08
   21.6299992      -1.68124430E-08
   21.6900005      -1.58867373E-08
   21.7500000      -1.50711017E-08
   21.8099995      -1.43879095E-08
   21.8700008      -1.38594300E-08
   21.9300003      -1.35086209E-08
   21.9899998      -1.33546747E-08
   22.0499992      -1.34044162E-08
   22.1100006      -1.36430884E-08
   22.1700001      -1.40289176E-08
   22.2299995      -1.44946846E-08
   22.2900009      -1.49571040E-08
   22.3500004      -1.53319348E-08
   22.4099998      -1.55506168E-08
   22.4699993      -1.55734625E-08
   22.5300007      -1.53953597E-08
   22.5900002      -1.50422963E-08
   22.6499996      -1.45600785E-08
   22.7099991      -1.39993999E-08
   22.7700005      -1.34026710E-08
   22.8299999      -1.27972157E-08
   22.8899994      -1.21966339E-08
   22.9500008      -1.16084689E-08
   23.0100002      -1.10435119E-08
   23.0699997      -1.05214495E-08
   23.1299992      -1.00695203E-08
   23.1900005      -9.71442926E-09
   23.2500000      -9.47128420E-09
   23.3099995      -9.33496835E-09
   23.3700008      -9.27846155E-09
   23.4300003      -9.25962951E-09
   23.4899998      -9.23429599E-09
   23.5499992      -9.17076637E-09
   23.6100006      -9.06034092E-09
   23.6700001      -8.91989504E-09
   23.7299995      -8.78563888E-09
   23.7900009      -8.70045014E-09
   23.8500004      -8.69950334E-09
   23.9099998      -8.79957796E-09
   23.9699993      -8.99597641E-09
   24.0300007      -9.26808941E-09
   24.0900002      -9.59110391E-09
   24.1499996      -9.94871385E-09
   24.2099991      -1.03409903E-08
   24.2700005      -1.07834142E-08
   24.3299999      -1.12968257E-08
   24.3899994      -1.18922321E-08
   24.4500008      -1.25572051E-08
   24.5100002      -1.32505313E-08
   24.5699997      -1.39088066E-08
   24.6299992      -1.44637822E-08
   24.6900005      -1.48646055E-08
   24.7500000      -1.50965853E-08
   24.8099995      -1.51889630E-08
   24.8700008      -1.52080428E-08
   24.9300003      -1.52375268E-08
   24.9899998      -1.53527928E-08
   25.0499992      -1.55981930E-08
   25.1100006      -1.59753366E-08
   25.1700001      -1.64461333E-08
   25.2299995      -1.69487713E-08
   25.2900009      -1.74200796E-08
   25.3500004      -1.78156121E-08
   25.4099998      -1.81202573E-08
   25.4699993      -1.83463484E-08
   25.5300007      -1.85212823E-08
   25.5900002      -1.86706615E-08
   25.6499996      -1.88040588E-08
   25.7099991      -1.89089171E-08
   25.7700005      -1.89543403E-08
   25.8299999      -1.89027034E-08
   25.8899994      -1.87242222E-08
   25.9500008      -1.84090840E-08
   26.0100002      -1.79729174E-08
   26.0699997      -1.74540009E-08
   26.1299992      -1.69033427E-08
   26.1900005      -1.63709792E-08
   26.2500000      -1.58928426E-08
   26.3099995      -1.54821755E-08
   26.3700008      -1.51278936E-08
   26.4300003      -1.47999311E-08
   26.4899998      -1.44594816E-08
   26.5499992      -1.40706558E-08
   26.6100006      -1.36101281E-08
   26.6700001      -1.30725208E-08
   26.7299995      -1.24709683E-08
   26.7900009      -1.18337065E-08
   26.8500004      -1.11981091E-08
   26.9099998      -1.06033742E-08
   26.9699993      -1.00826618E-08
   27.0300007      -9.65539826E-09
   27.0900002      -9.32098221E-09
   27.1499996      -9.05575614E-09
   27.2099991      -8.81527207E-09
   27.2700005      -8.54293436E-09
   27.3299999      -8.18408630E-09
   27.3899994      -7.70226904E-09
   27.4500008      -7.09269132E-09
   27.5100002      -6.38792041E-09
   27.5699997      -5.65270053E-09
   27.6299992      -4.96817343E-09
   27.6900005      -4.40953229E-09
   27.7500000      -4.02390388E-09
   27.8099995      -3.81584764E-09
   27.8700008      -3.74592002E-09
   27.9300003      -3.74357700E-09
   27.9899998      -3.73073927E-09
   28.0499992      -3.64829877E-09
   28.1100006      -3.47640539E-09
   28.1700001      -3.24123328E-09
   28.2299995      -3.00564906E-09
   28.2900009      -2.84703328E-09
   28.3500004      -2.83030777E-09
   28.4099998      -2.98602187E-09
   28.4699993      -3.30151328E-09
   28.5300007      -3.72829634E-09
   28.5900002      -4.20282165E-09
   28.6499996      -4.67278705E-09
   28.7099991      -5.11908649E-09
   28.7700005      -5.56501778E-09
   28.8299999      -6.06901507E-09
   28.8899994      -6.70322686E-09
   28.9500008      -7.52566720E-09
   29.0100002      -8.55629256E-09
   29.0699997      -9.76623316E-09
   29.1299992      -1.10846941E-08
   29.1900005      -1.24216193E-08
   29.2500000      -1.36982576E-08
   29.3099995      -1.48748507E-08
   29.3700008      -1.59657283E-08
   29.4300003      -1.70367027E-08
   29.4899998      -1.81858741E-08
   29.5499992      -1.95144825E-08
   29.6100006      -2.10971596E-08
   29.6700001      -2.29604673E-08
   29.7299995      -2.50752841E-08
   29.7900009      -2.73641909E-08
   29.8500004      -2.97206935E-08
   29.9099998      -3.20342224E-08
   29.9699993      -3.42138620E-08
   30.0300007      -3.62045967E-08
   30.0900002      -3.79923115E-08
   30.1499996      -3.95972286E-08
   30.2099991      -4.10587582E-08
   30.2700005      -4.24173017E-08
   30.3299999      -4.36989644E-08
   30.3899994      -4.49077859E-08
   30.4500008      -4.60270897E-08
   30.5100002      -4.70282444E-08
   30.5699997      -4.78829705E-08
   30.6299992      -4.85745417E-08
   30.6900005      -4.91041554E-08
   30.7500000      -4.94907120E-08
   30.8099995      -4.97642070E-08
   30.8700008      -4.99549095E-08
   30.9300003      -5.00814465E-08
   30.9899998      -5.01418107E-08
   31.0499992      -5.01105575E-08
   31.1100006      -4.99443189E-08
   31.1700001      -4.95948989E-08
   31.2299995      -4.90263510E-08
   31.2900009      -4.82300635E-08
   31.3500004      -4.72317510E-08
   31.4099998      -4.60865728E-08
   31.4699993      -4.48629365E-08
   31.5300007      -4.36200764E-08
   31.5900002      -4.23873452E-08
   31.6499996      -4.11528802E-08
   31.7099991      -3.98660198E-08
   31.7700005      -3.84529102E-08
   31.8299999      -3.68400173E-08
   31.8899994      -3.49775426E-08
   31.9500008      -3.28548460E-08
   32.0099983      -3.05026546E-08
   32.0699997      -2.79812014E-08
   32.1300011      -2.53580730E-08
   32.1899986      -2.26831514E-08
   32.2500000      -1.99693702E-08
   32.3100014      -1.71865082E-08
   32.3699989      -1.42710368E-08
   32.4300003      -1.11494121E-08
   32.4900017      -7.76706965E-09
   32.5499992      -4.11296508E-09
   32.6100006      -2.30853600E-10
   32.6699982       3.78656528E-09
   32.7299995       7.81803422E-09
   32.7900009       1.17406849E-08
   32.8499985       1.54535229E-08
   32.9099998       1.88895530E-08
   32.9700012       2.20136087E-08
   33.0299988       2.48088430E-08
   33.0900002       2.72587943E-08
   33.1500015       2.93329840E-08
   33.2099991       3.09817629E-08
   33.2700005       3.21419726E-08
   33.3300018       3.27507408E-08
   33.3899994       3.27619709E-08
   33.4500008       3.21595124E-08
   33.5099983       3.09628163E-08
   33.5699997       2.92240205E-08
   33.6300011       2.70183484E-08
   33.6899986       2.44318556E-08
   33.7500000       2.15504663E-08
   33.8100014       1.84528286E-08
   33.8699989       1.52072648E-08
   33.9300003       1.18713137E-08
   33.9900017       8.49197779E-09
   34.0499992       5.10552578E-09
   34.1100006       1.73715942E-09
   34.1699982      -1.59830138E-09
   34.2299995      -4.89378582E-09
   34.2900009      -8.14565126E-09
   34.3499985      -1.13492504E-08
   34.4099998      -1.44965000E-08
   34.4700012      -1.75768307E-08
   34.5299988      -2.05813215E-08
   34.5900002      -2.35081856E-08
   34.6500015      -2.63669584E-08
   34.7099991      -2.91792350E-08
   34.7700005      -3.19750875E-08
   34.8300018      -3.47860087E-08
   34.8899994      -3.76364788E-08
   34.9500008      -4.05367935E-08
   35.0099983      -4.34795844E-08
   35.0699997      -4.64413716E-08
   35.1300011      -4.93890582E-08
   35.1899986      -5.22893799E-08
   35.2500000      -5.51182460E-08
   35.3100014      -5.78663801E-08
   35.3699989      -6.05389374E-08
   35.4300003      -6.31490451E-08
   35.4900017      -6.57078871E-08
   35.5499992      -6.82154138E-08
   35.6100006      -7.06557088E-08
   35.6699982      -7.29985814E-08
   35.7299995      -7.52061453E-08
   35.7900009      -7.72406068E-08
   35.8499985      -7.90695154E-08
   35.9099998      -8.06661902E-08
   35.9700012      -8.20061032E-08
   36.0299988      -8.30622255E-08
   36.0900002      -8.38031298E-08
   36.1500015      -8.41958112E-08
   36.2099991      -8.42131627E-08
   36.2700005      -8.38432115E-08
   36.3300018      -8.30963245E-08
   36.3899994      -8.20072188E-08
   36.4500008      -8.06305991E-08
   36.5099983      -7.90315511E-08
   36.5699997      -7.72736399E-08
   36.6300011      -7.54085434E-08
   36.6899986      -7.34700549E-08
   36.7500000      -7.14741972E-08
   36.8100014      -6.94246793E-08
   36.8699989      -6.73214728E-08
   36.9300003      -6.51694307E-08
   36.9900017      -6.29837302E-08
   37.0499992      -6.07909030E-08
   37.1100006      -5.86254245E-08
   37.1699982      -5.65237208E-08
   37.2299995      -5.45181074E-08
   37.2900009      -5.26325685E-08
   37.3499985      -5.08814715E-08
   37.4099998      -4.92707990E-08
   37.4700012      -4.78008886E-08
   37.5299988      -4.64693848E-08
   37.5900002      -4.52734099E-08
   37.6500015      -4.42105232E-08
   37.7099991      -4.32783160E-08
   37.7700005      -4.24729372E-08
   37.8300018      -4.17868797E-08
   37.8899994      -4.12068459E-08
   37.9500008      -4.07125142E-08
   38.0099983      -4.02770013E-08
   38.0699997      -3.98693594E-08
   38.1300011      -3.94588007E-08
   38.1899986      -3.90196426E-08
   38.2500000      -3.85356174E-08
   38.3100014      -3.80022911E-08
   38.3699989      -3.74267515E-08
   38.4300003      -3.68243960E-08
   38.4900017      -3.62133648E-08
   38.5499992      -3.56078580E-08
   38.6100006      -3.50122029E-08
   38.6699982      -3.44179192E-08
   38.7299995      -3.38054669E-08
   38.7900009      -3.31512915E-08
   38.8499985      -3.24386242E-08
   38.9099998      -3.16686091E-08
   38.9700012      -3.08672199E-08
   39.0299988      -3.00844256E-08
   39.0900002      -2.93845410E-08
   39.1500015      -2.88301436E-08
   39.2099991      -2.84648056E-08
   39.2700005      -2.83006116E-08
   39.3300018      -2.83149486E-08
   39.3899994      -2.84577339E-08
   39.4500008      -2.86667721E-08
   39.5099983      -2.88862694E-08
   39.5699997      -2.90829050E-08
   39.6300011      -2.92547142E-08
   39.6899986      -2.94303977E-08
   39.7500000      -2.96592688E-08
   39.8100014      -2.99947551E-08
   39.8699989      -3.04763539E-08
   39.9300003      -3.11156221E-08
   39.9900017      -3.18910161E-08
   40.0499992      -3.27534906E-08
   40.1100006      -3.36412107E-08
   40.1699982      -3.44981181E-08
   40.2299995      -3.52896059E-08
   40.2900009      -3.60096841E-08
   40.3499985      -3.66774700E-08
   40.4099998      -3.73253108E-08
   40.4700012      -3.79838205E-08
   40.5299988      -3.86699668E-08
   40.5900002      -3.93822468E-08
   40.6500015      -4.01038136E-08
   40.7099991      -4.08113081E-08
   40.7700005      -4.14854711E-08
   40.8300018      -4.21198081E-08
   40.8899994      -4.27246896E-08
   40.9500008      -4.33258762E-08
   41.0099983      -4.39579253E-08
   41.0699997      -4.46541186E-08
   41.1300011      -4.54355735E-08
   41.1899986      -4.63027554E-08
   41.2500000      -4.72324722E-08
   41.3100014      -4.81820130E-08
   41.3699989      -4.90998744E-08
   41.4300003      -4.99399775E-08
   41.4900017      -5.06746787E-08
   41.5499992      -5.13020915E-08
   41.6100006      -5.18451557E-08
   41.6699982      -5.23429300E-08
   41.7299995      -5.28372937E-08
   41.7900009      -5.33597451E-08
   41.8499985      -5.39224985E-08
   41.9099998      -5.45162386E-08
   41.9700012      -5.51143700E-08
   42.0299988      -5.56813653E-08
   42.0900002      -5.61818645E-08
   42.1500015      -5.65873890E-08
   42.2099991      -5.68791094E-08
   42.2700005      -5.70469858E-08
   42.3300018      -5.70870604E-08
   42.3899994      -5.69992942E-08
   42.4500008      -5.67874672E-08
   42.5099983      -5.64611291E-08
   42.5699997      -5.60381928E-08
   42.6300011      -5.55459359E-08
   42.6899986      -5.50186776E-08
   42.7500000      -5.44920553E-08
   42.8100014      -5.39951444E-08
   42.8699989      -5.35429230E-08
   42.9300003      -5.31316289E-08
   42.9900017      -5.27387307E-08
   43.0499992      -5.23279446E-08
   43.1100006      -5.18583718E-08
   43.1699982      -5.12954834E-08
   43.2299995      -5.06209652E-08
   43.2900009      -4.98382171E-08
   43.3499985      -4.89711738E-08
   43.4099998      -4.80561688E-08
   43.4700012      -4.71290633E-08
   43.5299988      -4.62120582E-08
   43.5900002      -4.53052564E-08
   43.6500015      -4.43865567E-08
   43.7099991      -4.34202185E-08
   43.7700005      -4.23712549E-08
   43.8300018      -4.12203924E-08
   43.8899994      -3.99746831E-08
   43.9500008      -3.86704357E-08
   44.0099983      -3.73681175E-08
   44.0699997      -3.61409711E-08
   44.1300011      -3.50602214E-08
   44.1899986      -3.41803030E-08
   44.2500000      -3.35271970E-08
   44.3100014      -3.30928067E-08
   44.3699989      -3.28375798E-08
   44.4300003      -3.27016494E-08
   44.4900017      -3.26223315E-08
   44.5499992      -3.25528795E-08
   44.6100006      -3.24761729E-08
   44.6699982      -3.24083089E-08
   44.7299995      -3.23904210E-08
   44.7900009      -3.24717782E-08
   44.8499985      -3.26905223E-08
   44.9099998      -3.30591554E-08
   44.9700012      -3.35595409E-08
   45.0299988      -3.41482362E-08
   45.0900002      -3.47690907E-08
   45.1500015      -3.53679184E-08
   45.2099991      -3.59042467E-08
   45.2700005      -3.63570152E-08
   45.3300018      -3.67237050E-08
   45.3899994      -3.70144484E-08
   45.4500008      -3.72441242E-08
   45.5099983      -3.74254583E-08
   45.5699997      -3.75653713E-08
   45.6300011      -3.76654903E-08
   45.6899986      -3.77259930E-08
   45.7500000      -3.77507980E-08
   45.8100014      -3.77515121E-08
   45.8699989      -3.77483147E-08
   45.9300003      -3.77671263E-08
   45.9900017      -3.78339031E-08
   46.0499992      -3.79681602E-08
   46.1100006      -3.81777845E-08
   46.1699982      -3.84570846E-08
   46.2299995      -3.87888761E-08
   46.2900009      -3.91503008E-08
   46.3499985      -3.95209092E-08
   46.4099998      -3.98904589E-08
   46.4700012      -4.02635543E-08
   46.5299988      -4.06588043E-08
   46.5900002      -4.11021261E-08
   46.6500015      -4.16163246E-08
   46.7099991      -4.22111910E-08
   46.7700005      -4.28787565E-08
   46.8300018      -4.35963265E-08
   46.8899994      -4.43364456E-08
   46.9500008      -4.50794637E-08
   47.0099983      -4.58228264E-08
   47.0699997      -4.65826311E-08
   47.1300011      -4.73863722E-08
   47.1899986      -4.82596505E-08
   47.2500000      -4.92120122E-08
   47.3100014      -5.02270687E-08
   47.3699989      -5.12602689E-08
   47.4300003      -5.22449994E-08
   47.4900017      -5.31055271E-08
   47.5499992      -5.37738885E-08
   47.6100006      -5.42068044E-08
   47.6699982      -5.43982814E-08
   47.7299995      -5.43837757E-08
   47.7900009      -5.42333325E-08
   47.8499985      -5.40343024E-08
   47.9099998      -5.38680673E-08
   47.9700012      -5.37880673E-08
   48.0299988      -5.38067368E-08
   48.0900002      -5.38958105E-08
   48.1500015      -5.39992762E-08
   48.2099991      -5.40534835E-08
   48.2700005      -5.40066338E-08
   48.3300018      -5.38313181E-08
   48.3899994      -5.35274793E-08
   48.4500008      -5.31174393E-08
   48.5099983      -5.26370485E-08
   48.5699997      -5.21272803E-08
   48.6300011      -5.16289340E-08
   48.6899986      -5.11812992E-08
   48.7500000      -5.08240809E-08
   48.8100014      -5.06014253E-08
   48.8699989      -5.05663778E-08
   48.9300003      -5.07842373E-08
   48.9900017      -5.13332239E-08
   49.0499992      -5.23019530E-08
   49.1100006      -5.37847349E-08
   49.1699982      -5.58772513E-08
   49.2299995      -5.86758091E-08
   49.2900009      -6.22821261E-08
   49.3499985      -6.68135982E-08
   49.4099998      -7.24164622E-08
   49.4700012      -7.92787986E-08
   49.5299988      -8.76405579E-08
   49.5900002      -9.77997416E-08
   49.6500015      -1.10115153E-07
   49.7099991      -1.25006238E-07
   49.7700005      -1.42950782E-07
   49.8300018      -1.64481293E-07
   49.8899994      -1.90182021E-07
   49.9500008      -2.20690865E-07
   50.0099983      -2.56709683E-07
   50.0699997      -2.99025771E-07
   50.1300011      -3.48541448E-07
   50.1899986      -4.06306867E-07
   50.2500000      -4.73547317E-07
   50.3100014      -5.51681296E-07
   50.3699989      -6.42328985E-07
   50.4300003      -7.47315994E-07
   50.4900017      -8.68678683E-07
   50.5499992      -1.00867533E-06
   50.6100006      -1.16980414E-06