  -2.400000      0.0000000E+00
  -2.340000      0.0000000E+00
  -2.280000      0.0000000E+00
  -2.220000      0.0000000E+00
  -2.160000      0.0000000E+00
  -2.100000      0.0000000E+00
  -2.040000      0.0000000E+00
  -1.980000      0.0000000E+00
  -1.920000     -4.4225541E-27
  -1.860000     -5.4971198E-27
  -1.800000      2.4864883E-25
  -1.740000      2.0999185E-24
  -1.680000      9.4148127E-24
  -1.620000      2.8753895E-23
  -1.560000      6.3403035E-23
  -1.500000      9.3409607E-23
  -1.440000      3.3199227E-23
  -1.380000     -3.2956630E-22
  -1.320000     -1.3571344E-21
  -1.260000     -3.3700429E-21
  -1.200000     -5.9468615E-21
  -1.140000     -6.5855803E-21
  -1.080000      5.6577548E-22
  -1.020000      2.3726761E-20
 -0.9600000      6.7185380E-20
 -0.9000000      1.1875466E-19
 -0.8400000      1.3689997E-19
 -0.7800000      5.2402102E-20
 -0.7200000     -1.9835212E-19
 -0.6600000     -6.0660106E-19
 -0.6000000     -1.0228439E-18
 -0.5400000     -1.1510024E-18
 -0.4800000     -6.6278302E-19
 -0.4200000      5.8147985E-19
 -0.3600000      2.3311451E-18
 -0.3000000      3.9518839E-18
 -0.2400000      4.7404931E-18
 -0.1800000      4.3913195E-18
 -0.1200000      3.1934635E-18
 -5.9999999E-02  1.5535116E-18
  0.0000000E+00 -1.0700120E-18
  5.9999999E-02 -6.9400933E-18
  0.1200000     -1.9170117E-17
  0.1800000     -3.8454366E-17
  0.2400000     -5.8521076E-17
  0.3000000     -6.3684966E-17
  0.3600000     -3.2672258E-17
  0.4200000      4.9445145E-17
  0.4800000      1.7477106E-16
  0.5400000      3.0093508E-16
  0.6000000      3.5553080E-16
  0.6600000      2.6256828E-16
  0.7200000     -1.5010638E-17
  0.7800000     -4.3549963E-16
  0.8400000     -8.6560203E-16
  0.9000000     -1.1115504E-15
  0.9600000     -9.9181894E-16
   1.020000     -4.2637111E-16
   1.080000      4.9693242E-16
   1.140000      1.5154711E-15
   1.200000      2.2609169E-15
   1.260000      2.3899030E-15
   1.320000      1.7324072E-15
   1.380000      3.9655909E-16
   1.440000     -1.2279407E-15
   1.500000     -2.5959527E-15
   1.560000     -3.2361122E-15
   1.620000     -2.9914902E-15
   1.680000     -2.1363742E-15
   1.740000     -1.2531888E-15
   1.800000     -8.6075149E-16
   1.860000     -9.5459734E-16
   1.920000     -7.6204113E-16
   1.980000      9.9275279E-16
   2.040000      5.2493283E-15
   2.100000      1.1528463E-14
   2.160000      1.7284751E-14
   2.220000      1.8391630E-14
   2.280000      1.0986563E-14
   2.340000     -5.9283891E-15
   2.400000     -2.8493656E-14
   2.460000     -4.8105840E-14
   2.520000     -5.4339227E-14
   2.580000     -3.9869078E-14
   2.640000     -5.1409369E-15
   2.700000      3.9916966E-14
   2.760000      7.8750977E-14
   2.820000      9.4925383E-14
   2.880000      7.9738909E-14
   2.940000      3.6764269E-14
   3.000000     -1.9382845E-14
   3.060000     -6.9735572E-14
   3.120000     -9.9676493E-14
   3.180000     -1.0482680E-13
   3.240000     -9.0749077E-14
   3.300000     -6.6740450E-14
   3.360000     -3.7788176E-14
   3.420000     -3.1618464E-16
   3.480000      5.4564040E-14
   3.540000      1.3117290E-13
   3.600000      2.1834703E-13
   3.660000      2.8504532E-13
   3.720000      2.8769521E-13
   3.780000      1.8867087E-13
   3.840000     -2.1167274E-14
   3.900000     -3.0662042E-13
   3.960000     -5.8845545E-13
   4.020000     -7.6331481E-13
   4.080000     -7.3842348E-13
   4.140000     -4.6934684E-13
   4.200000      1.3592283E-14
   4.260000      6.0180593E-13
   4.320000      1.1320869E-12
   4.380000      1.4323655E-12
   4.440000      1.3764093E-12
   4.500000      9.3004369E-13
   4.560000      1.7262610E-13
   4.620000     -7.1588964E-13
   4.680000     -1.5015177E-12
   4.740000     -1.9642927E-12
   4.800000     -1.9670847E-12
   4.860000     -1.5019676E-12
   4.920000     -6.9635172E-13
   4.980000      2.2632043E-13
   5.040000      1.0204345E-12
   5.100000      1.5017595E-12
   5.160000      1.6098406E-12
   5.220000      1.4239842E-12
   5.280000      1.1241282E-12
   5.340000      9.0991060E-13
   5.400000      9.0989434E-13
   5.460000      1.1194670E-12
   5.520000      1.3959499E-12
   5.580000      1.5156058E-12
   5.640000      1.2693055E-12
   5.700000      5.5454659E-13
   5.760000     -5.7854313E-13
   5.820000     -1.9490054E-12
   5.880000     -3.3238464E-12
   5.940000     -4.5141738E-12
   6.000000     -5.4390234E-12
   6.060000     -6.1227421E-12
   6.120000     -6.6264294E-12
   6.180000     -6.9509589E-12
   6.240000     -6.9692290E-12
   6.300000     -6.4365826E-12
   6.360000     -5.0934305E-12
   6.420000     -2.8285321E-12
   6.480000      1.6241835E-13
   6.540000      3.2935842E-12
   6.600000      5.6250256E-12
   6.660000      6.0145131E-12
   6.720000      3.3358689E-12
   6.780000     -3.3094679E-12
   6.840000     -1.4453171E-11
   6.900000     -3.0224111E-11
   6.960000     -5.0402897E-11
   7.020000     -7.4520827E-11
   7.080000     -1.0194831E-10
   7.140000     -1.3193588E-10
   7.200000     -1.6360432E-10
   7.260000     -1.9591269E-10
   7.320000     -2.2765165E-10
   7.380000     -2.5750393E-10
   7.440000     -2.8418995E-10
   7.500000     -3.0668140E-10
   7.560000     -3.2443456E-10
   7.620000     -3.3757416E-10
   7.680000     -3.4695988E-10
   7.740000     -3.5408809E-10
   7.800000     -3.6082115E-10
   7.860000     -3.6898606E-10
   7.920000     -3.7993006E-10
   7.980000     -3.9414769E-10
   8.040000     -4.1108927E-10
   8.100000     -4.2921966E-10
   8.160000     -4.4632673E-10
   8.220000     -4.6000342E-10
   8.280000     -4.6817117E-10
   8.340000     -4.6950022E-10
   8.400000     -4.6361998E-10
   8.460000     -4.5108436E-10
   8.520000     -4.3313794E-10
   8.580000     -4.1138243E-10
   8.640000     -3.8745340E-10
   8.700000     -3.6278264E-10
   8.760000     -3.3846731E-10
   8.820000     -3.1521849E-10
   8.880000     -2.9334615E-10
   8.940000     -2.7275662E-10
   9.000000     -2.5297722E-10
   9.060000     -2.3325289E-10
   9.120000     -2.1275799E-10
   9.180000     -1.9092590E-10
   9.240000     -1.6783373E-10
   9.300000     -1.4452206E-10
   9.360000     -1.2311113E-10
   9.420000     -1.0661545E-10
   9.480000     -9.8452052E-11
   9.540000     -1.0175091E-10
   9.600000     -1.1866404E-10
   9.660000     -1.4988819E-10
   9.720000     -1.9455219E-10
   9.780000     -2.5049054E-10
   9.840000     -3.1478561E-10
   9.900000     -3.8436967E-10
   9.960000     -4.5647966E-10
   10.02000     -5.2885335E-10
   10.08000     -5.9969585E-10
   10.14000     -6.6756151E-10
   10.20000     -7.3132889E-10
   10.26000     -7.9036927E-10
   10.32000     -8.4487323E-10
   10.38000     -8.9616964E-10
   10.44000     -9.4682995E-10
   10.50000     -1.0004262E-09
   10.56000     -1.0609688E-09
   10.62000     -1.1322017E-09
   10.68000     -1.2170072E-09
   10.74000     -1.3170923E-09
   10.80000     -1.4329694E-09
   10.86000     -1.5640667E-09
   10.92000     -1.7087373E-09
   10.98000     -1.8640276E-09
   11.04000     -2.0252797E-09
   11.10000     -2.1858630E-09
   11.16000     -2.3374207E-09
   11.22000     -2.4708924E-09
   11.28000     -2.5782658E-09
   11.34000     -2.6546554E-09
   11.40000     -2.7000693E-09
   11.46000     -2.7202252E-09
   11.52000     -2.7260543E-09
   11.58000     -2.7319171E-09
   11.64000     -2.7529594E-09
   11.70000     -2.8022518E-09
   11.76000     -2.8883771E-09
   11.82000     -3.0139560E-09
   11.88000     -3.1753598E-09
   11.94000     -3.3636138E-09
   12.00000     -3.5662902E-09
   12.06000     -3.7700461E-09
   12.12000     -3.9633594E-09
   12.18000     -4.1389576E-09
   12.24000     -4.2954715E-09
   12.30000     -4.4379815E-09
   12.36000     -4.5773576E-09
   12.42000     -4.7285575E-09
   12.48000     -4.9082822E-09
   12.54000     -5.1324553E-09
   12.60000     -5.4139839E-09
   12.66000     -5.7610912E-09
   12.72000     -6.1763581E-09
   12.78000     -6.6564696E-09
   12.84000     -7.1925985E-09
   12.90000     -7.7713365E-09
   12.96000     -8.3760590E-09
   13.02000     -8.9885930E-09
   13.08000     -9.5909671E-09
   13.14000     -1.0167015E-08
   13.20000     -1.0703587E-08
   13.26000     -1.1191183E-08
   13.32000     -1.1623969E-08
   13.38000     -1.1999297E-08
   13.44000     -1.2316931E-08
   13.50000     -1.2578282E-08
   13.56000     -1.2785789E-08
   13.62000     -1.2942560E-08
   13.68000     -1.3052076E-08
   13.74000     -1.3117788E-08
   13.80000     -1.3142361E-08
   13.86000     -1.3126585E-08
   13.92000     -1.3068203E-08
   13.98000     -1.2961194E-08
   14.04000     -1.2796142E-08
   14.10000     -1.2562098E-08
   14.16000     -1.2249928E-08
   14.22000     -1.1856531E-08
   14.28000     -1.1388817E-08
   14.34000     -1.0866180E-08
   14.40000     -1.0320463E-08
   14.46000     -9.7930597E-09
   14.52000     -9.3296038E-09
   14.58000     -8.9733918E-09
   14.64000     -8.7589855E-09
   14.70000     -8.7073309E-09
   14.76000     -8.8232088E-09
   14.82000     -9.0952463E-09
   14.88000     -9.4981143E-09
   14.94000     -9.9962376E-09
   15.00000     -1.0548209E-08
   15.06000     -1.1111224E-08
   15.12000     -1.1644997E-08
   15.18000     -1.2114845E-08
   15.24000     -1.2493783E-08
   15.30000     -1.2763598E-08
   15.36000     -1.2914970E-08
   15.42000     -1.2946724E-08
   15.48000     -1.2864361E-08
   15.54000     -1.2678003E-08
   15.60000     -1.2399990E-08
   15.66000     -1.2042435E-08
   15.72000     -1.1615065E-08
   15.78000     -1.1123741E-08
   15.84000     -1.0569878E-08
   15.90000     -9.9509050E-09
   15.96000     -9.2617070E-09
   16.02000     -8.4969063E-09
   16.08000     -7.6537132E-09
   16.14000     -6.7349526E-09
   16.20000     -5.7516951E-09
   16.26000     -4.7247282E-09
   16.32000     -3.6841143E-09
   16.38000     -2.6663194E-09
   16.44000     -1.7090045E-09
   16.50000     -8.4434082E-10
   16.56000     -9.2371312E-11
   16.62000      5.4378246E-10
   16.68000      1.0793599E-09
   16.74000      1.5453288E-09
   16.80000      1.9820103E-09
   16.86000      2.4302627E-09
   16.92000      2.9221769E-09
   16.98000      3.4734191E-09
   17.04000      4.0790424E-09
   17.10000      4.7138791E-09
   17.16000      5.3375921E-09
   17.22000      5.9033596E-09
   17.28000      6.3681562E-09
   17.34000      6.7020913E-09
   17.40000      6.8943620E-09
   17.46000      6.9542505E-09
   17.52000      6.9069448E-09
   17.58000      6.7854362E-09
   17.64000      6.6208581E-09
   17.70000      6.4340475E-09
   17.76000      6.2307071E-09
   17.82000      6.0014775E-09
   17.88000      5.7268386E-09
   17.94000      5.3853522E-09
   18.00000      4.9627698E-09
   18.06000      4.4591570E-09
   18.12000      3.8915768E-09
   18.18000      3.2910294E-09
   18.24000      2.6939795E-09
   18.30000      2.1305651E-09
   18.36000      1.6128526E-09
   18.42000      1.1268756E-09
   18.48000      6.3139394E-10
   18.54000      6.4514796E-11
   18.60000     -6.4299749E-10
   18.66000     -1.5509662E-09
   18.72000     -2.6940532E-09
   18.78000     -4.0713508E-09
   18.84000     -5.6442748E-09
   18.90000     -7.3434134E-09
   18.96000     -9.0825116E-09
   19.02000     -1.0775770E-08
   19.08000     -1.2353819E-08
   19.14000     -1.3774188E-08
   19.20000     -1.5023886E-08
   19.26000     -1.6114026E-08
   19.32000     -1.7068718E-08
   19.38000     -1.7911940E-08
   19.44000     -1.8656298E-08
   19.50000     -1.9296653E-08
   19.56000     -1.9809894E-08
   19.62000     -2.0160222E-08
   19.68000     -2.0307972E-08
   19.74000     -2.0219252E-08
   19.80000     -1.9873852E-08
   19.86000     -1.9269619E-08
   19.92000     -1.8422565E-08
   19.98000     -1.7363114E-08
   20.04000     -1.6129952E-08
   20.10000     -1.4763538E-08
   20.16000     -1.3301307E-08
   20.22000     -1.1775996E-08
   20.28000     -1.0217265E-08
   20.34000     -8.6553920E-09
   20.40000     -7.1248456E-09
   20.46000     -5.6654637E-09
   20.52000     -4.3198294E-09
   20.58000     -3.1271361E-09
   20.64000     -2.1153990E-09
   20.70000     -1.2948626E-09
   20.76000     -6.5520761E-10
   20.82000     -1.6792637E-10
   20.88000      2.0654833E-10
   20.94000      5.0896565E-10
   21.00000      7.7147722E-10
   21.06000      1.0106926E-09
   21.12000      1.2254017E-09
   21.18000      1.3994621E-09
   21.24000      1.5089793E-09
   21.30000      1.5317868E-09
   21.36000      1.4565968E-09
   21.42000      1.2891755E-09
   21.48000      1.0535902E-09
   21.54000      7.8792811E-10
   21.60000      5.3555965E-10
   21.66000      3.3452285E-10
   21.72000      2.0832912E-10
   21.78000      1.6107771E-10
   21.84000      1.7827322E-10
   21.90000      2.3271807E-10
   21.96000      2.9307778E-10
   22.02000      3.3192027E-10
   22.08000      3.3049258E-10
   22.14000      2.7897804E-10
   22.20000      1.7283555E-10
   22.26000      7.2902361E-12
   22.32000     -2.2738803E-10
   22.38000     -5.4764732E-10
   22.44000     -9.7449948E-10
   22.50000     -1.5279574E-09
   22.56000     -2.2197717E-09
   22.62000     -3.0467695E-09
   22.68000     -3.9869956E-09
   22.74000     -5.0001248E-09
   22.80000     -6.0325265E-09
   22.86000     -7.0261321E-09
   22.92000     -7.9292146E-09
   22.98000     -8.7065226E-09
   23.04000     -9.3461390E-09
   23.10000     -9.8610595E-09
   23.16000     -1.0284743E-08
   23.22000     -1.0661486E-08
   23.28000     -1.1034051E-08
   23.34000     -1.1431942E-08
   23.40000     -1.1863713E-08
   23.46000     -1.2315623E-08
   23.52000     -1.2757050E-08
   23.58000     -1.3151038E-08
   23.64000     -1.3466764E-08
   23.70000     -1.3690165E-08
   23.76000     -1.3829660E-08
   23.82000     -1.3915351E-08
   23.88000     -1.3992073E-08
   23.94000     -1.4108311E-08
   24.00000     -1.4303964E-08
   24.06000     -1.4600177E-08
   24.12000     -1.4993745E-08
   24.18000     -1.5457484E-08
   24.24000     -1.5946446E-08
   24.30000     -1.6408466E-08
   24.36000     -1.6796399E-08
   24.42000     -1.7078801E-08
   24.48000     -1.7246153E-08
   24.54000     -1.7310798E-08
   24.60000     -1.7300600E-08
   24.66000     -1.7248244E-08
   24.72000     -1.7179682E-08
   24.78000     -1.7105545E-08
   24.84000     -1.7018397E-08
   24.90000     -1.6896594E-08
   24.96000     -1.6713123E-08
   25.02000     -1.6446011E-08
   25.08000     -1.6086544E-08
   25.14000     -1.5642579E-08
   25.20000     -1.5136420E-08
   25.26000     -1.4598716E-08
   25.32000     -1.4061121E-08
   25.38000     -1.3550380E-08
   25.44000     -1.3085437E-08
   25.50000     -1.2677682E-08
   25.56000     -1.2333307E-08
   25.62000     -1.2056243E-08
   25.68000     -1.1850367E-08
   25.74000     -1.1720253E-08
   25.80000     -1.1670410E-08
   25.86000     -1.1703464E-08
   25.92000     -1.1818086E-08
   25.98000     -1.2007536E-08
   26.04000     -1.2259540E-08
   26.10000     -1.2557765E-08
   26.16000     -1.2884611E-08
   26.22000     -1.3224518E-08
   26.28000     -1.3566839E-08
   26.34000     -1.3907547E-08
   26.40000     -1.4249654E-08
   26.46000     -1.4602647E-08
   26.52000     -1.4981454E-08
   26.58000     -1.5405128E-08
   26.64000     -1.5895028E-08
   26.70000     -1.6471999E-08
   26.76000     -1.7152308E-08
   26.82000     -1.7942853E-08
   26.88000     -1.8836978E-08
   26.94000     -1.9812816E-08
   27.00000     -2.0835616E-08
   27.06000     -2.1864558E-08
   27.12000     -2.2862782E-08
   27.18000     -2.3807834E-08
   27.24000     -2.4698936E-08
   27.30000     -2.5557906E-08
   27.36000     -2.6422301E-08
   27.42000     -2.7331998E-08
   27.48000     -2.8313071E-08
   27.54000     -2.9364404E-08
   27.60000     -3.0452163E-08
   27.66000     -3.1514951E-08
   27.72000     -3.2478749E-08
   27.78000     -3.3277118E-08
   27.84000     -3.3870030E-08
   27.90000     -3.4254850E-08
   27.96000     -3.4465845E-08
   28.02000     -3.4562532E-08
   28.08000     -3.4611080E-08
   28.14000     -3.4665138E-08
   28.20000     -3.4752471E-08
   28.26000     -3.4871420E-08
   28.32000     -3.4997793E-08
   28.38000     -3.5099312E-08
   28.44000     -3.5152294E-08
   28.50000     -3.5154748E-08
   28.56000     -3.5131162E-08
   28.62000     -3.5127151E-08
   28.68000     -3.5195598E-08
   28.74000     -3.5378907E-08
   28.80000     -3.5693727E-08
   28.86000     -3.6123929E-08
   28.92000     -3.6625067E-08
   28.98000     -3.7139547E-08
   29.04000     -3.7617770E-08
   29.10000     -3.8037964E-08
   29.16000     -3.8417394E-08
   29.22000     -3.8810313E-08
   29.28000     -3.9292548E-08
   29.34000     -3.9937323E-08
   29.40000     -4.0790180E-08
   29.46000     -4.1851468E-08
   29.52000     -4.3072301E-08
   29.58000     -4.4365450E-08
   29.64000     -4.5627512E-08
   29.70000     -4.6765294E-08
   29.76000     -4.7717858E-08
   29.82000     -4.8467772E-08
   29.88000     -4.9038572E-08
   29.94000     -4.9479965E-08
   30.00000     -4.9845877E-08
   30.06000     -5.0172360E-08
   30.12000     -5.0462116E-08
   30.18000     -5.0680281E-08
   30.24000     -5.0762829E-08
   30.30000     -5.0635247E-08
   30.36000     -5.0236128E-08
   30.42000     -4.9538606E-08
   30.48000     -4.8562868E-08
   30.54000     -4.7375512E-08
   30.60000     -4.6075396E-08
   30.66000     -4.4770001E-08
   30.72000     -4.3549491E-08
   30.78000     -4.2466578E-08
   30.84000     -4.1528754E-08
   30.90000     -4.0705402E-08
   30.96000     -3.9947643E-08
   31.02000     -3.9214619E-08
   31.08000     -3.8497600E-08
   31.14000     -3.7833786E-08
   31.20000     -3.7304506E-08
   31.26000     -3.7017188E-08
   31.32000     -3.7075566E-08
   31.38000     -3.7546560E-08
   31.44000     -3.8434056E-08
   31.50000     -3.9668215E-08
   31.56000     -4.1114824E-08
   31.62000     -4.2603101E-08
   31.68000     -4.3964533E-08
   31.74000     -4.5071580E-08
   31.80000     -4.5864763E-08
   31.86000     -4.6360125E-08
   31.92000     -4.6634998E-08
   31.98000     -4.6796945E-08
   32.04000     -4.6946017E-08
   32.10000     -4.7142603E-08
   32.16000     -4.7391236E-08
   32.22000     -4.7645358E-08
   32.28000     -4.7830966E-08
   32.34000     -4.7880608E-08
   32.40000     -4.7765603E-08
   32.46000     -4.7514870E-08
   32.52000     -4.7213451E-08
   32.58000     -4.6980894E-08
   32.64000     -4.6936638E-08
   32.70000     -4.7164043E-08
   32.76000     -4.7685035E-08
   32.82000     -4.8453582E-08
   32.88000     -4.9369902E-08
   32.94000     -5.0310515E-08
   33.00000     -5.1164449E-08
   33.06000     -5.1864312E-08
   33.12000     -5.2402807E-08
   33.18000     -5.2830075E-08
   33.24000     -5.3233148E-08
   33.30000     -5.3704298E-08
   33.36000     -5.4308426E-08
   33.42000     -5.5059971E-08
   33.48000     -5.5916651E-08
   33.54000     -5.6792111E-08
   33.60000     -5.7583140E-08
   33.66000     -5.8202577E-08
   33.72000     -5.8607007E-08
   33.78000     -5.8810407E-08
   33.84000     -5.8879511E-08
   33.90000     -5.8912807E-08
   33.96000     -5.9010087E-08
   34.02000     -5.9242261E-08
   34.08000     -5.9630622E-08
   34.14000     -6.0141545E-08
   34.20000     -6.0697786E-08
   34.26000     -6.1202719E-08
   34.32000     -6.1569807E-08
   34.38000     -6.1748281E-08
   34.44000     -6.1737047E-08
   34.50000     -6.1582227E-08
   34.56000     -6.1358911E-08
   34.62000     -6.1142970E-08
   34.68000     -6.0982202E-08
   34.74000     -6.0876545E-08
   34.80000     -6.0774774E-08
   34.86000     -6.0589237E-08
   34.92000     -6.0224330E-08
   34.98000     -5.9609327E-08
   35.04000     -5.8724552E-08
   35.10000     -5.7611615E-08
   35.16000     -5.6363692E-08
   35.22000     -5.5098326E-08
   35.28000     -5.3921170E-08
   35.34000     -5.2892123E-08
   35.40000     -5.2005081E-08
   35.46000     -5.1188053E-08
   35.52000     -5.0324143E-08
   35.58000     -4.9287102E-08
   35.64000     -4.7980340E-08
   35.70000     -4.6367244E-08
   35.76000     -4.4483219E-08
   35.82000     -4.2425857E-08
   35.88000     -4.0326537E-08
   35.94000     -3.8312443E-08
   36.00000     -3.6470990E-08
   36.06000     -3.4827405E-08
   36.12000     -3.3342019E-08
   36.18000     -3.1927517E-08
   36.24000     -3.0480116E-08
   36.30000     -2.8914627E-08
   36.36000     -2.7192257E-08
   36.42000     -2.5332568E-08
   36.48000     -2.3406445E-08
   36.54000     -2.1513106E-08
   36.60000     -1.9749574E-08
   36.66000     -1.8183329E-08
   36.72000     -1.6837390E-08
   36.78000     -1.5692288E-08
   36.84000     -1.4702975E-08
   36.90000     -1.3823353E-08
   36.96000     -1.3028476E-08
   37.02000     -1.2325973E-08
   37.08000     -1.1752764E-08
   37.14000     -1.1358981E-08
   37.20000     -1.1185742E-08
   37.26000     -1.1245319E-08
   37.32000     -1.1510895E-08
   37.38000     -1.1919181E-08
   37.44000     -1.2384602E-08
   37.50000     -1.2819954E-08
   37.56000     -1.3156826E-08
   37.62000     -1.3359736E-08
   37.68000     -1.3430462E-08
   37.74000     -1.3402334E-08
   37.80000     -1.3327360E-08
   37.86000     -1.3260901E-08
   37.92000     -1.3248879E-08
   37.98000     -1.3321118E-08
   38.04000     -1.3491898E-08
   38.10000     -1.3766113E-08
   38.16000     -1.4147399E-08
   38.22000     -1.4644136E-08
   38.28000     -1.5270386E-08
   38.34000     -1.6041181E-08
   38.40000     -1.6964179E-08
   38.46000     -1.8031397E-08
   38.52000     -1.9214943E-08
   38.58000     -2.0469157E-08
   38.64000     -2.1739117E-08
   38.70000     -2.2972971E-08
   38.76000     -2.4134076E-08
   38.82000     -2.5208955E-08
   38.88000     -2.6208543E-08
   38.94000     -2.7162571E-08
   39.00000     -2.8109124E-08
   39.06000     -2.9082946E-08
   39.12000     -3.0106179E-08
   39.18000     -3.1184278E-08
   39.24000     -3.2307877E-08
   39.30000     -3.3459528E-08
   39.36000     -3.4622520E-08
   39.42000     -3.5788347E-08
   39.48000     -3.6959925E-08
   39.54000     -3.8149000E-08
   39.60000     -3.9368238E-08
   39.66000     -4.0620574E-08
   39.72000     -4.1889692E-08
   39.78000     -4.3135618E-08
   39.84000     -4.4298186E-08
   39.90000     -4.5308738E-08
   39.96000     -4.6107363E-08
   40.02000     -4.6660769E-08
   40.08000     -4.6974712E-08
   40.14000     -4.7096083E-08
   40.20000     -4.7102674E-08
   40.26000     -4.7082693E-08
   40.32000     -4.7109967E-08
   40.38000     -4.7222713E-08
   40.44000     -4.7413213E-08
   40.50000     -4.7632138E-08
   40.56000     -4.7806417E-08
   40.62000     -4.7864589E-08
   40.68000     -4.7760924E-08
   40.74000     -4.7490047E-08
   40.80000     -4.7087347E-08
   40.86000     -4.6615710E-08
   40.92000     -4.6143953E-08
   40.98000     -4.5724899E-08
   41.04000     -4.5380879E-08
   41.10000     -4.5101107E-08
   41.16000     -4.4851081E-08
   41.22000     -4.4589768E-08
   41.28000     -4.4287972E-08
   41.34000     -4.3941082E-08
   41.40000     -4.3571657E-08
   41.46000     -4.3221053E-08
   41.52000     -4.2933372E-08
   41.58000     -4.2737824E-08
   41.64000     -4.2636465E-08
   41.70000     -4.2602320E-08
   41.76000     -4.2589324E-08
   41.82000     -4.2550774E-08
   41.88000     -4.2459689E-08
   41.94000     -4.2323308E-08
   42.00000     -4.2185853E-08
   42.06000     -4.2117982E-08
   42.12000     -4.2195865E-08
   42.18000     -4.2476834E-08
   42.24000     -4.2979615E-08
   42.30000     -4.3675616E-08
   42.36000     -4.4494161E-08
   42.42000     -4.5340027E-08
   42.48000     -4.6117833E-08
   42.54000     -4.6755979E-08
   42.60000     -4.7223004E-08
   42.66000     -4.7531781E-08
   42.72000     -4.7730779E-08
   42.78000     -4.7885482E-08
   42.84000     -4.8056013E-08
   42.90000     -4.8277904E-08
   42.96000     -4.8551712E-08
   43.02000     -4.8844221E-08
   43.08000     -4.9100311E-08
   43.14000     -4.9261335E-08
   43.20000     -4.9284012E-08
   43.26000     -4.9153940E-08
   43.32000     -4.8889412E-08
   43.38000     -4.8534247E-08
   43.44000     -4.8141601E-08
   43.50000     -4.7753712E-08
   43.56000     -4.7384201E-08
   43.62000     -4.7009269E-08
   43.68000     -4.6571870E-08
   43.74000     -4.5998817E-08
   43.80000     -4.5226301E-08
   43.86000     -4.4225722E-08
   43.92000     -4.3020808E-08
   43.98000     -4.1689226E-08
   44.04000     -4.0346563E-08
   44.10000     -3.9116788E-08
   44.16000     -3.8097941E-08
   44.22000     -3.7334008E-08
   44.28000     -3.6802202E-08
   44.34000     -3.6420179E-08
   44.40000     -3.6071153E-08
   44.46000     -3.5639321E-08
   44.52000     -3.5044664E-08
   44.58000     -3.4266613E-08
   44.64000     -3.3349771E-08
   44.70000     -3.2390506E-08
   44.76000     -3.1509298E-08
   44.82000     -3.0817468E-08
   44.88000     -3.0388396E-08
   44.94000     -3.0241079E-08
   45.00000     -3.0339820E-08
   45.06000     -3.0608820E-08
   45.12000     -3.0956208E-08
   45.18000     -3.1299809E-08
   45.24000     -3.1587074E-08
   45.30000     -3.1803953E-08
   45.36000     -3.1971233E-08
   45.42000     -3.2130728E-08
   45.48000     -3.2326600E-08
   45.54000     -3.2588222E-08
   45.60000     -3.2919854E-08
   45.66000     -3.3299802E-08
   45.72000     -3.3688409E-08
   45.78000     -3.4041321E-08
   45.84000     -3.4323442E-08
   45.90000     -3.4519232E-08
   45.96000     -3.4636848E-08
   46.02000     -3.4705799E-08
   46.08000     -3.4769560E-08
   46.14000     -3.4875608E-08
   46.20000     -3.5065362E-08
   46.26000     -3.5366252E-08
   46.32000     -3.5787348E-08
   46.38000     -3.6319218E-08
   46.44000     -3.6937710E-08
   46.50000     -3.7610469E-08
   46.56000     -3.8304258E-08
   46.62000     -3.8991104E-08
   46.68000     -3.9651908E-08
   46.74000     -4.0277076E-08
   46.80000     -4.0864901E-08
   46.86000     -4.1418833E-08
   46.92000     -4.1944745E-08
   46.98000     -4.2448637E-08
   47.04000     -4.2935017E-08
   47.10000     -4.3405830E-08
   47.16000     -4.3860108E-08
   47.22000     -4.4294723E-08
   47.28000     -4.4706191E-08
   47.34000     -4.5093195E-08
   47.40000     -4.5458830E-08
   47.46000     -4.5811689E-08
   47.52000     -4.6165333E-08
   47.58000     -4.6536467E-08
   47.64000     -4.6942521E-08
   47.70000     -4.7399407E-08
   47.76000     -4.7919936E-08
   47.82000     -4.8512980E-08
   47.88000     -4.9183832E-08
   47.94000     -4.9936371E-08
   48.00000     -5.0777672E-08
   48.06000     -5.1724840E-08
   48.12000     -5.2812545E-08
   48.18000     -5.4098706E-08
   48.24000     -5.5665655E-08
   48.30000     -5.7616003E-08
   48.36000     -6.0064536E-08
   48.42000     -6.3129860E-08
   48.48000     -6.6929921E-08
   48.54000     -7.1584225E-08
   48.60000     -7.7223397E-08
   48.66000     -8.4004064E-08
   48.72000     -9.2125696E-08
   48.78000     -1.0184556E-07
   48.84000     -1.1348839E-07
   48.90000     -1.2744898E-07
   48.96000     -1.4418771E-07
   49.02000     -1.6422177E-07
   49.08000     -1.8811734E-07
   49.14000     -2.1648918E-07
   49.20000     -2.5001270E-07
   49.26000     -2.8944976E-07
   49.32000     -3.3568398E-07
   49.38000     -3.8975773E-07
   49.44000     -4.5290219E-07
   49.50000     -5.2655508E-07
   49.56000     -6.1236619E-07
   49.62000     -7.1219614E-07
   49.68000     -8.2811522E-07
   49.74000     -9.6240956E-07
   49.80000     -1.1175983E-06
   49.86000     -1.2964628E-06
   49.92000     -1.5020850E-06
   49.98000     -1.7378928E-06
   50.04000     -2.0077080E-06
   50.10000     -2.3157872E-06
   50.16000     -2.6668556E-06
   50.22000     -3.0661265E-06
   50.28000     -3.5193127E-06
   50.34000     -4.0326349E-06
   50.40000     -4.6128362E-06
   50.46000     -5.2672108E-06
   50.52000     -6.0036496E-06
   50.58000     -6.8306877E-06
   50.64000     -7.7575569E-06
   50.70000     -8.7942190E-06
   50.76000     -9.9513945E-06
   50.82000     -1.1240562E-05
   50.88000     -1.2673946E-05
   50.94000     -1.4264498E-05
   51.00000     -1.6025859E-05
   51.06000     -1.7972328E-05
   51.12000     -2.0118827E-05
   51.18000     -2.2480875E-05
   51.24000     -2.5074585E-05
   51.30000     -2.7916636E-05
   51.36000     -3.1024250E-05
   51.42000     -3.4415127E-05
   51.48000     -3.8107366E-05
   51.54000     -4.2119347E-05
   51.60000     -4.6469599E-05
   51.66000     -5.1176667E-05
   51.72000     -5.6258970E-05
   51.78000     -6.1734638E-05
   51.84000     -6.7621368E-05
   51.90000     -7.3936244E-05
   51.96000     -8.0695630E-05
   52.02000     -8.7914894E-05
   52.08000     -9.5608331E-05
   52.14000     -1.0378892E-04
   52.20000     -1.1246812E-04
   52.26000     -1.2165571E-04
   52.32000     -1.3135950E-04
   52.38000     -1.4158514E-04
   52.44000     -1.5233601E-04
   52.50000     -1.6361295E-04
   52.56000     -1.7541411E-04
   52.62000     -1.8773483E-04
   52.68000     -2.0056742E-04
   52.74000     -2.1390115E-04
   52.80000     -2.2772198E-04
   52.86000     -2.4201252E-04
   52.92000     -2.5675201E-04
   52.98000     -2.7191616E-04
   53.04000     -2.8747728E-04
   53.10000     -3.0340423E-04
   53.16000     -3.1966245E-04
   53.22000     -3.3621420E-04
   53.28000     -3.5301861E-04
   53.34000     -3.7003198E-04
   53.40000     -3.8720775E-04
   53.46000     -4.0449697E-04
   53.52000     -4.2184850E-04
   53.58000     -4.3920914E-04
   53.64000     -4.5652414E-04
   53.70000     -4.7373763E-04
   53.76000     -4.9079274E-04
   53.82000     -5.0763250E-04
   53.88000     -5.2419980E-04
   53.94000     -5.4043805E-04
   54.00000     -5.5629155E-04
   54.06000     -5.7170616E-04
   54.12000     -5.8662950E-04
   54.18000     -6.0101162E-04
   54.24000     -6.1480509E-04
   54.30000     -6.2796584E-04
   54.36000     -6.4045348E-04
   54.42000     -6.5223180E-04
   54.48000     -6.6326908E-04
   54.54000     -6.7353813E-04
   54.60000     -6.8301678E-04
   54.66000     -6.9168792E-04
   54.72000     -6.9953990E-04
   54.78000     -7.0656644E-04
   54.84000     -7.1276689E-04
   54.90000     -7.1814633E-04
   54.96000     -7.2271517E-04
   55.02000     -7.2648952E-04
   55.08000     -7.2949100E-04
   55.14000     -7.3174608E-04
   55.20000     -7.3328626E-04
   55.26000     -7.3414785E-04
   55.32000     -7.3437102E-04
   55.38000     -7.3399988E-04
   55.44000     -7.3308195E-04
   55.50000     -7.3166756E-04
   55.56000     -7.2980957E-04