  -2.400000      0.0000000E+00
  -2.340000      0.0000000E+00
  -2.280000      0.0000000E+00
  -2.220000      0.0000000E+00
  -2.160000      0.0000000E+00
  -2.100000      0.0000000E+00
  -2.040000      0.0000000E+00
  -1.980000      0.0000000E+00
  -1.920000      1.3834476E-25
  -1.860000      1.2006330E-24
  -1.800000      4.2359369E-24
  -1.740000      4.2310610E-24
  -1.680000     -2.5419039E-23
  -1.620000     -1.3609818E-22
  -1.560000     -3.2644400E-22
  -1.500000     -3.1601016E-22
  -1.440000      7.1736390E-22
  -1.380000      3.9199370E-21
  -1.320000      9.2376599E-21
  -1.260000      1.2313482E-20
  -1.200000      1.6718402E-21
  -1.140000     -3.8759977E-20
  -1.080000     -1.1541873E-19
  -1.020000     -1.9804396E-19
 -0.9600000     -1.9345224E-19
 -0.9000000      4.6685909E-20
 -0.8400000      6.4328932E-19
 -0.7800000      1.5199349E-18
 -0.7200000      2.2102731E-18
 -0.6600000      1.8103571E-18
 -0.6000000     -7.0486542E-19
 -0.5400000     -5.6890153E-18
 -0.4800000     -1.1773071E-17
 -0.4200000     -1.5234255E-17
 -0.3600000     -1.0753942E-17
 -0.3000000      5.7756633E-18
 -0.2400000      3.2908597E-17
 -0.1800000      6.0026234E-17
 -0.1200000      6.7982997E-17
 -5.9999999E-02  3.6891534E-17
  0.0000000E+00 -3.9642025E-17
  5.9999999E-02 -1.4018858E-16
  0.1200000     -2.1205390E-16
  0.1800000     -1.8880685E-16
  0.2400000     -2.9424078E-17
  0.3000000      2.3638051E-16
  0.3600000      4.8642042E-16
  0.4200000      5.3815465E-16
  0.4800000      2.4297574E-16
  0.5400000     -3.8969199E-16
  0.6000000     -1.1103754E-15
  0.6600000     -1.4702670E-15
  0.7200000     -1.0209753E-15
  0.7800000      3.8276537E-16
  0.8400000      2.3319965E-15
  0.9000000      3.8573880E-15
  0.9600000      3.7865287E-15
   1.020000      1.3954769E-15
   1.080000     -2.9371636E-15
   1.140000     -7.4897660E-15
   1.200000     -9.6924261E-15
   1.260000     -7.3417250E-15
   1.320000     -6.5217447E-17
   1.380000      9.7638885E-15
   1.440000      1.7415612E-14
   1.500000      1.7728774E-14
   1.560000      7.9697669E-15
   1.620000     -9.7312193E-15
   1.680000     -2.7918292E-14
   1.740000     -3.6230076E-14
   1.800000     -2.6250945E-14
   1.860000      3.1604167E-15
   1.920000      4.2856953E-14
   1.980000      7.5021986E-14
   2.040000      7.9872408E-14
   2.100000      4.5303913E-14
   2.160000     -2.4761258E-14
   2.220000     -1.0792364E-13
   2.280000     -1.6938905E-13
   2.340000     -1.7546201E-13
   2.400000     -1.0936829E-13
   2.460000      1.7810469E-14
   2.520000      1.6716557E-13
   2.580000      2.8461107E-13
   2.640000      3.2186024E-13
   2.700000      2.5679404E-13
   2.760000      1.0358865E-13
   2.820000     -9.2850322E-14
   2.880000     -2.7607563E-13
   2.940000     -4.0156284E-13
   3.000000     -4.5209165E-13
   3.060000     -4.3621178E-13
   3.120000     -3.7005639E-13
   3.180000     -2.5317912E-13
   3.240000     -5.5105527E-14
   3.300000      2.7337312E-13
   3.360000      7.6179156E-13
   3.420000      1.3682286E-12
   3.480000      1.9407126E-12
   3.540000      2.2204489E-12
   3.600000      1.9034223E-12
   3.660000      7.5369311E-13
   3.720000     -1.2640026E-12
   3.780000     -3.8818493E-12
   3.840000     -6.5061181E-12
   3.900000     -8.3036598E-12
   3.960000     -8.3938221E-12
   4.020000     -6.1054512E-12
   4.080000     -1.2321285E-12
   4.140000      5.7886218E-12
   4.200000      1.3832051E-11
   4.260000      2.1207492E-11
   4.320000      2.5934213E-11
   4.380000      2.6126559E-11
   4.440000      2.0419513E-11
   4.500000      8.3573400E-12
   4.560000     -9.3263730E-12
   4.620000     -3.0593656E-11
   4.680000     -5.2188257E-11
   4.740000     -6.9937757E-11
   4.800000     -7.9264921E-11
   4.860000     -7.5878206E-11
   4.920000     -5.6584081E-11
   4.980000     -2.0130883E-11
   5.040000      3.2040315E-11
   5.100000      9.5291247E-11
   5.160000      1.6168984E-10
   5.220000      2.2045693E-10
   5.280000      2.5902092E-10
   5.340000      2.6463265E-10
   5.400000      2.2635724E-10
   5.460000      1.3713435E-10
   5.520000     -4.4749868E-12
   5.580000     -1.9322544E-10
   5.640000     -4.1707196E-10
   5.700000     -6.5807881E-10
   5.760000     -8.9421409E-10
   5.820000     -1.1017062E-09
   5.880000     -1.2575416E-09
   5.940000     -1.3417055E-09
   6.000000     -1.3388894E-09
   6.060000     -1.2395716E-09
   6.120000     -1.0405354E-09
   6.180000     -7.4498180E-10
   6.240000     -3.6237241E-10
   6.300000      9.1946922E-11
   6.360000      5.9741123E-10
   6.420000      1.1293159E-09
   6.480000      1.6604009E-09
   6.540000      2.1629054E-09
   6.600000      2.6108777E-09
   6.660000      2.9824112E-09
   6.720000      3.2614325E-09
   6.780000      3.4387906E-09
   6.840000      3.5125756E-09
   6.900000      3.4877938E-09
   6.960000      3.3756469E-09
   7.020000      3.1926337E-09
   7.080000      2.9595757E-09
   7.140000      2.7004889E-09
   7.200000      2.4411166E-09
   7.260000      2.2069635E-09
   7.320000      2.0208279E-09
   7.380000      1.9000790E-09
   7.440000      1.8541298E-09
   7.500000      1.8826551E-09
   7.560000      1.9749904E-09
   7.620000      2.1109150E-09
   7.680000      2.2627005E-09
   7.740000      2.3980571E-09
   7.800000      2.4834830E-09
   7.860000      2.4875841E-09
   7.920000      2.3840685E-09
   7.980000      2.1543012E-09
   8.040000      1.7893845E-09
   8.100000      1.2916925E-09
   8.160000      6.7567713E-10
   8.220000     -3.2374835E-11
   8.280000     -7.9596069E-10
   8.340000     -1.5715497E-09
   8.400000     -2.3132150E-09
   8.460000     -2.9781930E-09
   8.520000     -3.5324910E-09
   8.580000     -3.9554662E-09
   8.640000     -4.2423478E-09
   8.700000     -4.4040016E-09
   8.760000     -4.4637813E-09
   8.820000     -4.4519628E-09
   8.880000     -4.3988564E-09
   8.940000     -4.3280779E-09
   9.000000     -4.2514752E-09
   9.060000     -4.1668438E-09
   9.120000     -4.0588839E-09
   9.180000     -3.9029895E-09
   9.240000     -3.6707855E-09
   9.300000     -3.3359209E-09
   9.360000     -2.8787459E-09
   9.420000     -2.2889881E-09
   9.480000     -1.5662545E-09
   9.540000     -7.1878342E-10
   9.600000      2.3880814E-10
   9.660000      1.2881055E-09
   9.720000      2.4094240E-09
   9.780000      3.5842007E-09
   9.840000      4.7972586E-09
   9.900000      6.0387753E-09
   9.960000      7.3055020E-09
   10.02000      8.6006056E-09
   10.08000      9.9317052E-09
   10.14000      1.1307258E-08
   10.20000      1.2732176E-08
   10.26000      1.4204122E-08
   10.32000      1.5711949E-08
   10.38000      1.7237124E-08
   10.44000      1.8757909E-08
   10.50000      2.0254936E-08
   10.56000      2.1716229E-08
   10.62000      2.3139735E-08
   10.68000      2.4532385E-08
   10.74000      2.5905893E-08
   10.80000      2.7270795E-08
   10.86000      2.8630810E-08
   10.92000      2.9979521E-08
   10.98000      3.1300562E-08
   11.04000      3.2571240E-08
   11.10000      3.3768387E-08
   11.16000      3.4874581E-08
   11.22000      3.5882824E-08
   11.28000      3.6798422E-08
   11.34000      3.7637715E-08
   11.40000      3.8424371E-08
   11.46000      3.9184442E-08
   11.52000      3.9941693E-08
   11.58000      4.0714241E-08
   11.64000      4.1512926E-08
   11.70000      4.2341071E-08
   11.76000      4.3194898E-08
   11.82000      4.4063722E-08
   11.88000      4.4929521E-08
   11.94000      4.5766122E-08
   12.00000      4.6538982E-08
   12.06000      4.7206758E-08
   12.12000      4.7725592E-08
   12.18000      4.8056165E-08
   12.24000      4.8172026E-08
   12.30000      4.8066891E-08
   12.36000      4.7758054E-08
   12.42000      4.7283880E-08
   12.48000      4.6695149E-08
   12.54000      4.6042175E-08
   12.60000      4.5361510E-08
   12.66000      4.4666571E-08
   12.72000      4.3945715E-08
   12.78000      4.3168829E-08
   12.84000      4.2300702E-08
   12.90000      4.1316792E-08
   12.96000      4.0216008E-08
   13.02000      3.9025679E-08
   13.08000      3.7796461E-08
   13.14000      3.6588251E-08
   13.20000      3.5451276E-08
   13.26000      3.4408416E-08
   13.32000      3.3444721E-08
   13.38000      3.2507895E-08
   13.44000      3.1520145E-08
   13.50000      3.0398361E-08
   13.56000      2.9076789E-08
   13.62000      2.7525816E-08
   13.68000      2.5761443E-08
   13.74000      2.3842814E-08
   13.80000      2.1858524E-08
   13.86000      1.9905519E-08
   13.92000      1.8066338E-08
   13.98000      1.6390780E-08
   14.04000      1.4886666E-08
   14.10000      1.3521715E-08
   14.16000      1.2235341E-08
   14.22000      1.0956502E-08
   14.28000      9.6223518E-09
   14.34000      8.1926537E-09
   14.40000      6.6567605E-09
   14.46000      5.0324309E-09
   14.52000      3.3581091E-09
   14.58000      1.6817595E-09
   14.64000      4.9583490E-11
   14.70000     -1.5027819E-09
   14.76000     -2.9551894E-09
   14.82000     -4.3038741E-09
   14.88000     -5.5590821E-09
   14.94000     -6.7407520E-09
   15.00000     -7.8737274E-09
   15.06000     -8.9837977E-09
   15.12000     -1.0095286E-08
   15.18000     -1.1230178E-08
   15.24000     -1.2408012E-08
   15.30000     -1.3645393E-08
   15.36000     -1.4954194E-08
   15.42000     -1.6338248E-08
   15.48000     -1.7789260E-08
   15.54000     -1.9283462E-08
   15.60000     -2.0780544E-08
   15.66000     -2.2225967E-08
   15.72000     -2.3556815E-08
   15.78000     -2.4710298E-08
   15.84000     -2.5633316E-08
   15.90000     -2.6291209E-08
   15.96000     -2.6673927E-08
   16.02000     -2.6798459E-08
   16.08000     -2.6707232E-08
   16.14000     -2.6463162E-08
   16.20000     -2.6142791E-08
   16.26000     -2.5829358E-08
   16.32000     -2.5607253E-08
   16.38000     -2.5558460E-08
   16.44000     -2.5760491E-08
   16.50000     -2.6284416E-08
   16.56000     -2.7191549E-08
   16.62000     -2.8527872E-08
   16.68000     -3.0316578E-08
   16.74000     -3.2550322E-08
   16.80000     -3.5185678E-08
   16.86000     -3.8142421E-08
   16.92000     -4.1309452E-08
   16.98000     -4.4557662E-08
   17.04000     -4.7758192E-08
   17.10000     -5.0802647E-08
   17.16000     -5.3620727E-08
   17.22000     -5.6190565E-08
   17.28000     -5.8538490E-08
   17.34000     -6.0727274E-08
   17.40000     -6.2834971E-08
   17.46000     -6.4929189E-08
   17.52000     -6.7042990E-08
   17.58000     -6.9158510E-08
   17.64000     -7.1202663E-08
   17.70000     -7.3055880E-08
   17.76000     -7.4572142E-08
   17.82000     -7.5605321E-08
   17.88000     -7.6035853E-08
   17.94000     -7.5791675E-08
   18.00000     -7.4859308E-08
   18.06000     -7.3283388E-08
   18.12000     -7.1155917E-08
   18.18000     -6.8598865E-08
   18.24000     -6.5744828E-08
   18.30000     -6.2719970E-08
   18.36000     -5.9632590E-08
   18.42000     -5.6567874E-08
   18.48000     -5.3588089E-08
   18.54000     -5.0735931E-08
   18.60000     -4.8038469E-08
   18.66000     -4.5509715E-08
   18.72000     -4.3151168E-08
   18.78000     -4.0950713E-08
   18.84000     -3.8881605E-08
   18.90000     -3.6903238E-08
   18.96000     -3.4965325E-08
   19.02000     -3.3015652E-08
   19.08000     -3.1010426E-08
   19.14000     -2.8924621E-08
   19.20000     -2.6759505E-08
   19.26000     -2.4544679E-08
   19.32000     -2.2333493E-08
   19.38000     -2.0192532E-08
   19.44000     -1.8187617E-08
   19.50000     -1.6369773E-08
   19.56000     -1.4764681E-08
   19.62000     -1.3368005E-08
   19.68000     -1.2147504E-08
   19.74000     -1.1051027E-08
   19.80000     -1.0018138E-08
   19.86000     -8.9923873E-09
   19.92000     -7.9312423E-09
   19.98000     -6.8114501E-09
   20.04000     -5.6288498E-09
   20.10000     -4.3932613E-09
   20.16000     -3.1204961E-09
   20.22000     -1.8244153E-09
   20.28000     -5.1185750E-10
   20.34000      8.1785551E-10
   20.40000      2.1689621E-09
   20.46000      3.5428211E-09
   20.52000      4.9320490E-09
   20.58000      6.3181087E-09
   20.64000      7.6738349E-09
   20.70000      8.9703276E-09
   20.76000      1.0185831E-08
   20.82000      1.1313345E-08
   20.88000      1.2364096E-08
   20.94000      1.3365386E-08
   21.00000      1.4353213E-08
   21.06000      1.5361683E-08
   21.12000      1.6412343E-08
   21.18000      1.7506601E-08
   21.24000      1.8623721E-08
   21.30000      1.9725224E-08
   21.36000      2.0764633E-08
   21.42000      2.1699677E-08
   21.48000      2.2503082E-08
   21.54000      2.3168441E-08
   21.60000      2.3709275E-08
   21.66000      2.4151822E-08
   21.72000      2.4524379E-08
   21.78000      2.4846994E-08
   21.84000      2.5125086E-08
   21.90000      2.5348911E-08
   21.96000      2.5498673E-08
   22.02000      2.5553385E-08
   22.08000      2.5500507E-08
   22.14000      2.5343326E-08
   22.20000      2.5103652E-08
   22.26000      2.4818595E-08
   22.32000      2.4531733E-08
   22.38000      2.4280792E-08
   22.44000      2.4085354E-08
   22.50000      2.3938602E-08
   22.56000      2.3806296E-08
   22.62000      2.3633905E-08
   22.68000      2.3360190E-08
   22.74000      2.2933172E-08
   22.80000      2.2323741E-08
   22.86000      2.1532996E-08
   22.92000      2.0591532E-08
   22.98000      1.9551402E-08
   23.04000      1.8473386E-08
   23.10000      1.7413132E-08
   23.16000      1.6409762E-08
   23.22000      1.5479561E-08
   23.28000      1.4615934E-08
   23.34000      1.3795062E-08
   23.40000      1.2984954E-08
   23.46000      1.2154720E-08
   23.52000      1.1281053E-08
   23.58000      1.0350333E-08
   23.64000      9.3568575E-09
   23.70000      8.2994012E-09
   23.76000      7.1787833E-09
   23.82000      5.9981335E-09
   23.88000      4.7656785E-09
   23.94000      3.4982179E-09
   24.00000      2.2228714E-09
   24.06000      9.7539499E-10
   24.12000     -2.0508542E-10
   24.18000     -1.2835876E-09
   24.24000     -2.2368674E-09
   24.30000     -3.0589506E-09
   24.36000     -3.7631018E-09
   24.42000     -4.3796717E-09
   24.48000     -4.9502775E-09
   24.54000     -5.5196927E-09
   24.60000     -6.1275256E-09
   24.66000     -6.8018795E-09
   24.72000     -7.5565580E-09
   24.78000     -8.3920701E-09
   24.84000     -9.2992405E-09
   24.90000     -1.0263406E-08
   24.96000     -1.1267378E-08
   25.02000     -1.2292536E-08
   25.08000     -1.3318788E-08
   25.14000     -1.4324847E-08
   25.20000     -1.5289944E-08
   25.26000     -1.6197026E-08
   25.32000     -1.7036353E-08
   25.38000     -1.7808039E-08
   25.44000     -1.8522584E-08
   25.50000     -1.9199355E-08
   25.56000     -1.9863760E-08
   25.62000     -2.0543997E-08
   25.68000     -2.1267839E-08
   25.74000     -2.2059536E-08
   25.80000     -2.2936776E-08
   25.86000     -2.3907917E-08
   25.92000     -2.4970131E-08
   25.98000     -2.6109127E-08
   26.04000     -2.7300839E-08
   26.10000     -2.8514886E-08
   26.16000     -2.9719100E-08
   26.22000     -3.0884337E-08
   26.28000     -3.1988762E-08
   26.34000     -3.3021077E-08
   26.40000     -3.3982143E-08
   26.46000     -3.4884643E-08
   26.52000     -3.5750521E-08
   26.58000     -3.6606519E-08
   26.64000     -3.7478564E-08
   26.70000     -3.8386350E-08
   26.76000     -3.9339263E-08
   26.82000     -4.0334626E-08
   26.88000     -4.1358469E-08
   26.94000     -4.2388624E-08
   27.00000     -4.3399567E-08
   27.06000     -4.4368260E-08
   27.12000     -4.5280053E-08
   27.18000     -4.6133398E-08
   27.24000     -4.6942230E-08
   27.30000     -4.7735064E-08
   27.36000     -4.8550849E-08
   27.42000     -4.9432501E-08
   27.48000     -5.0419953E-08
   27.54000     -5.1544429E-08
   27.60000     -5.2825204E-08
   27.66000     -5.4268934E-08
   27.72000     -5.5871020E-08
   27.78000     -5.7618070E-08
   27.84000     -5.9490876E-08
   27.90000     -6.1467389E-08
   27.96000     -6.3525384E-08
   28.02000     -6.5644080E-08
   28.08000     -6.7804152E-08
   28.14000     -6.9985447E-08
   28.20000     -7.2162983E-08
   28.26000     -7.4302662E-08
   28.32000     -7.6358553E-08
   28.38000     -7.8273452E-08
   28.44000     -7.9983067E-08
   28.50000     -8.1422584E-08
   28.56000     -8.2533738E-08
   28.62000     -8.3270137E-08
   28.68000     -8.3599851E-08
   28.74000     -8.3505448E-08
   28.80000     -8.2982567E-08
   28.86000     -8.2038220E-08
   28.92000     -8.0689659E-08
   28.98000     -7.8963794E-08
   29.04000     -7.6896498E-08
   29.10000     -7.4531322E-08
   29.16000     -7.1917135E-08
   29.22000     -6.9104999E-08
   29.28000     -6.6144644E-08
   29.34000     -6.3081615E-08
   29.40000     -5.9955894E-08
   29.46000     -5.6802516E-08
   29.52000     -5.3654460E-08
   29.58000     -5.0546962E-08
   29.64000     -4.7521887E-08
   29.70000     -4.4630337E-08
   29.76000     -4.1931877E-08
   29.82000     -3.9489723E-08
   29.88000     -3.7362600E-08
   29.94000     -3.5595210E-08
   30.00000     -3.4210174E-08
   30.06000     -3.3203968E-08
   30.12000     -3.2548598E-08
   30.18000     -3.2199008E-08
   30.24000     -3.2104538E-08
   30.30000     -3.2221195E-08
   30.36000     -3.2521129E-08
   30.42000     -3.2996056E-08
   30.48000     -3.3653407E-08
   30.54000     -3.4506265E-08
   30.60000     -3.5560550E-08
   30.66000     -3.6803929E-08
   30.72000     -3.8200255E-08
   30.78000     -3.9691216E-08
   30.84000     -4.1203883E-08
   30.90000     -4.2660869E-08
   30.96000     -4.3989321E-08
   31.02000     -4.5126122E-08
   31.08000     -4.6019149E-08
   31.14000     -4.6626361E-08
   31.20000     -4.6915183E-08
   31.26000     -4.6864077E-08
   31.32000     -4.6466504E-08
   31.38000     -4.5735739E-08
   31.44000     -4.4708397E-08
   31.50000     -4.3444434E-08
   31.56000     -4.2022577E-08
   31.62000     -4.0531422E-08
   31.68000     -3.9057703E-08
   31.74000     -3.7674329E-08
   31.80000     -3.6431175E-08
   31.86000     -3.5351331E-08
   31.92000     -3.4434454E-08
   31.98000     -3.3666716E-08
   32.04000     -3.3034574E-08
   32.10000     -3.2537834E-08
   32.16000     -3.2197111E-08
   32.22000     -3.2052466E-08
   32.28000     -3.2152933E-08
   32.34000     -3.2540168E-08
   32.40000     -3.3231846E-08
   32.46000     -3.4210892E-08
   32.52000     -3.5424538E-08
   32.58000     -3.6793878E-08
   32.64000     -3.8230809E-08
   32.70000     -3.9656584E-08
   32.76000     -4.1016087E-08
   32.82000     -4.2283393E-08
   32.88000     -4.3457707E-08
   32.94000     -4.4551932E-08
   33.00000     -4.5578652E-08
   33.06000     -4.6538606E-08
   33.12000     -4.7415561E-08
   33.18000     -4.8178855E-08
   33.24000     -4.8792312E-08
   33.30000     -4.9226255E-08
   33.36000     -4.9468678E-08
   33.42000     -4.9532126E-08
   33.48000     -4.9454052E-08
   33.54000     -4.9290247E-08
   33.60000     -4.9102511E-08
   33.66000     -4.8943456E-08
   33.72000     -4.8842125E-08
   33.78000     -4.8794526E-08
   33.84000     -4.8762193E-08
   33.90000     -4.8679986E-08
   33.96000     -4.8471748E-08
   34.02000     -4.8069950E-08
   34.08000     -4.7433982E-08
   34.14000     -4.6561887E-08
   34.20000     -4.5492090E-08
   34.26000     -4.4294570E-08
   34.32000     -4.3053770E-08
   34.38000     -4.1847930E-08
   34.44000     -4.0730139E-08
   34.50000     -3.9715982E-08
   34.56000     -3.8780804E-08
   34.62000     -3.7867107E-08
   34.68000     -3.6900168E-08
   34.74000     -3.5807922E-08
   34.80000     -3.4540008E-08
   34.86000     -3.3080976E-08
   34.92000     -3.1454196E-08
   34.98000     -2.9715258E-08
   35.04000     -2.7936739E-08
   35.10000     -2.6188612E-08
   35.16000     -2.4520075E-08
   35.22000     -2.2948171E-08
   35.28000     -2.1456437E-08
   35.34000     -2.0003679E-08
   35.40000     -1.8539764E-08
   35.46000     -1.7023297E-08
   35.52000     -1.5435807E-08
   35.58000     -1.3788737E-08
   35.64000     -1.2122054E-08
   35.70000     -1.0495825E-08
   35.76000     -8.9775885E-09
   35.82000     -7.6287403E-09
   35.88000     -6.4925807E-09
   35.94000     -5.5860454E-09
   36.00000     -4.8965227E-09
   36.06000     -4.3847046E-09
   36.12000     -3.9935379E-09
   36.18000     -3.6618795E-09
   36.24000     -3.3396808E-09
   36.30000     -3.0002922E-09
   36.36000     -2.6456821E-09
   36.42000     -2.3023912E-09
   36.48000     -2.0093058E-09
   36.54000     -1.8015022E-09
   36.60000     -1.6960526E-09
   36.66000     -1.6849806E-09
   36.72000     -1.7378154E-09
   36.78000     -1.8126194E-09
   36.84000     -1.8714128E-09
   36.90000     -1.8946702E-09
   36.96000     -1.8902262E-09
   37.02000     -1.8939692E-09
   37.08000     -1.9622479E-09
   37.14000     -2.1581386E-09
   37.20000     -2.5351710E-09
   37.26000     -3.1226135E-09
   37.32000     -3.9160435E-09
   37.38000     -4.8757394E-09
   37.44000     -5.9336305E-09
   37.50000     -7.0074453E-09
   37.56000     -8.0187448E-09
   37.62000     -8.9103320E-09
   37.68000     -9.6584785E-09
   37.74000     -1.0276655E-08
   37.80000     -1.0809709E-08
   37.86000     -1.1320088E-08
   37.92000     -1.1870003E-08
   37.98000     -1.2504608E-08
   38.04000     -1.3241076E-08
   38.10000     -1.4066650E-08
   38.16000     -1.4946098E-08
   38.22000     -1.5836005E-08
   38.28000     -1.6701133E-08
   38.34000     -1.7527334E-08
   38.40000     -1.8326627E-08
   38.46000     -1.9132653E-08
   38.52000     -1.9988057E-08
   38.58000     -2.0928173E-08
   38.64000     -2.1966587E-08
   38.70000     -2.3087530E-08
   38.76000     -2.4247562E-08
   38.82000     -2.5385825E-08
   38.88000     -2.6439466E-08
   38.94000     -2.7359263E-08
   39.00000     -2.8120835E-08
   39.06000     -2.8728335E-08
   39.12000     -2.9209911E-08
   39.18000     -2.9606454E-08
   39.24000     -2.9957057E-08
   39.30000     -3.0285516E-08
   39.36000     -3.0592112E-08
   39.42000     -3.0853769E-08
   39.48000     -3.1033267E-08
   39.54000     -3.1095279E-08
   39.60000     -3.1024349E-08
   39.66000     -3.0838613E-08
   39.72000     -3.0593856E-08
   39.78000     -3.0375485E-08
   39.84000     -3.0280226E-08
   39.90000     -3.0392844E-08
   39.96000     -3.0765200E-08
   40.02000     -3.1403967E-08
   40.08000     -3.2270414E-08
   40.14000     -3.3291805E-08
   40.20000     -3.4380520E-08
   40.26000     -3.5455219E-08
   40.32000     -3.6458335E-08
   40.38000     -3.7365563E-08
   40.44000     -3.8185522E-08
   40.50000     -3.8950212E-08
   40.56000     -3.9699398E-08
   40.62000     -4.0463636E-08
   40.68000     -4.1250928E-08
   40.74000     -4.2041147E-08
   40.80000     -4.2789807E-08
   40.86000     -4.3440195E-08
   40.92000     -4.3940059E-08
   40.98000     -4.4257877E-08
   41.04000     -4.4393843E-08
   41.10000     -4.4382414E-08
   41.16000     -4.4285656E-08
   41.22000     -4.4179306E-08
   41.28000     -4.4135387E-08
   41.34000     -4.4206246E-08
   41.40000     -4.4414307E-08
   41.46000     -4.4750252E-08
   41.52000     -4.5179736E-08
   41.58000     -4.5656083E-08
   41.64000     -4.6134915E-08
   41.70000     -4.6586457E-08
   41.76000     -4.7002533E-08
   41.82000     -4.7397389E-08
   41.88000     -4.7803212E-08
   41.94000     -4.8262223E-08
   42.00000     -4.8817096E-08
   42.06000     -4.9501253E-08
   42.12000     -5.0330396E-08
   42.18000     -5.1296997E-08
   42.24000     -5.2369518E-08
   42.30000     -5.3497565E-08
   42.36000     -5.4622387E-08
   42.42000     -5.5689892E-08
   42.48000     -5.6661772E-08
   42.54000     -5.7520619E-08
   42.60000     -5.8267137E-08
   42.66000     -5.8910896E-08
   42.72000     -5.9458873E-08
   42.78000     -5.9907080E-08
   42.84000     -6.0238833E-08
   42.90000     -6.0430601E-08
   42.96000     -6.0462774E-08
   43.02000     -6.0331310E-08
   43.08000     -6.0055726E-08
   43.14000     -5.9680737E-08
   43.20000     -5.9270658E-08
   43.26000     -5.8898003E-08
   43.32000     -5.8628842E-08
   43.38000     -5.8508594E-08
   43.44000     -5.8551720E-08
   43.50000     -5.8738468E-08
   43.56000     -5.9020071E-08
   43.62000     -5.9331683E-08
   43.68000     -5.9609761E-08
   43.74000     -5.9808983E-08
   43.80000     -5.9913340E-08
   43.86000     -5.9937989E-08
   43.92000     -5.9921376E-08
   43.98000     -5.9910668E-08
   44.04000     -5.9945727E-08
   44.10000     -6.0047142E-08
   44.16000     -6.0211946E-08
   44.22000     -6.0417484E-08
   44.28000     -6.0630931E-08
   44.34000     -6.0820092E-08
   44.40000     -6.0961298E-08
   44.46000     -6.1042151E-08
   44.52000     -6.1059239E-08
   44.58000     -6.1013189E-08
   44.64000     -6.0904284E-08
   44.70000     -6.0731146E-08
   44.76000     -6.0493129E-08
   44.82000     -6.0194900E-08
   44.88000     -5.9850379E-08
   44.94000     -5.9483114E-08
   45.00000     -5.9121977E-08
   45.06000     -5.8793010E-08
   45.12000     -5.8510651E-08
   45.18000     -5.8271908E-08
   45.24000     -5.8056223E-08
   45.30000     -5.7831400E-08
   45.36000     -5.7563469E-08
   45.42000     -5.7226842E-08
   45.48000     -5.6811182E-08
   45.54000     -5.6322872E-08
   45.60000     -5.5780959E-08
   45.66000     -5.5209167E-08
   45.72000     -5.4626465E-08
   45.78000     -5.4038800E-08
   45.84000     -5.3434452E-08
   45.90000     -5.2784806E-08
   45.96000     -5.2051409E-08
   46.02000     -5.1198171E-08
   46.08000     -5.0205564E-08
   46.14000     -4.9081688E-08
   46.20000     -4.7865221E-08
   46.26000     -4.6617540E-08
   46.32000     -4.5405574E-08
   46.38000     -4.4281094E-08
   46.44000     -4.3264276E-08
   46.50000     -4.2338097E-08
   46.56000     -4.1455966E-08
   46.62000     -4.0559872E-08
   46.68000     -3.9602849E-08
   46.74000     -3.8568341E-08
   46.80000     -3.7480905E-08
   46.86000     -3.6405606E-08
   46.92000     -3.5436557E-08
   46.98000     -3.4677566E-08
   47.04000     -3.4219703E-08
   47.10000     -3.4121982E-08
   47.16000     -3.4401566E-08
   47.22000     -3.5038422E-08
   47.28000     -3.5995374E-08
   47.34000     -3.7249208E-08
   47.40000     -3.8823686E-08
   47.46000     -4.0813553E-08
   47.52000     -4.3391218E-08
   47.58000     -4.6793843E-08
   47.64000     -5.1295768E-08
   47.70000     -5.7176450E-08
   47.76000     -6.4695392E-08
   47.82000     -7.4083005E-08
   47.88000     -8.5551164E-08
   47.94000     -9.9321682E-08
   48.00000     -1.1566601E-07
   48.06000     -1.3494729E-07
   48.12000     -1.5765492E-07
   48.18000     -1.8442442E-07
   48.24000     -2.1603893E-07
   48.30000     -2.5341495E-07
   48.36000     -2.9757970E-07
   48.42000     -3.4965083E-07
   48.48000     -4.1082956E-07
   48.54000     -4.8241304E-07
   48.60000     -5.6582780E-07
   48.66000     -6.6267756E-07
   48.72000     -7.7479837E-07
   48.78000     -9.0430922E-07
   48.84000     -1.0536514E-06
   48.90000     -1.2256122E-06
   48.96000     -1.4233337E-06
   49.02000     -1.6503142E-06
   49.08000     -1.9104093E-06
   49.14000     -2.2078443E-06
   49.20000     -2.5472432E-06
   49.26000     -2.9336729E-06
   49.32000     -3.3727008E-06
   49.38000     -3.8704525E-06
   49.44000     -4.4336589E-06
   49.50000     -5.0696967E-06
   49.56000     -5.7866059E-06
   49.62000     -6.5931022E-06
   49.68000     -7.4985883E-06
   49.74000     -8.5131614E-06
   49.80000     -9.6476278E-06
   49.86000     -1.0913517E-05
   49.92000     -1.2323108E-05
   49.98000     -1.3889447E-05
   50.04000     -1.5626369E-05
   50.10000     -1.7548502E-05
   50.16000     -1.9671266E-05
   50.22000     -2.2010847E-05
   50.28000     -2.4584138E-05
   50.34000     -2.7408687E-05
   50.40000     -3.0502608E-05
   50.46000     -3.3884509E-05
   50.52000     -3.7573394E-05
   50.58000     -4.1588606E-05
   50.64000     -4.5949739E-05
   50.70000     -5.0676525E-05
   50.76000     -5.5788762E-05
   50.82000     -6.1306157E-05
   50.88000     -6.7248184E-05
   50.94000     -7.3633884E-05
   51.00000     -8.0481695E-05
   51.06000     -8.7809247E-05
   51.12000     -9.5633164E-05
   51.18000     -1.0396884E-04
   51.24000     -1.1283029E-04
   51.30000     -1.2222993E-04
   51.36000     -1.3217836E-04
   51.42000     -1.4268421E-04
   51.48000     -1.5375388E-04
   51.54000     -1.6539131E-04
   51.60000     -1.7759787E-04
   51.66000     -1.9037216E-04
   51.72000     -2.0370977E-04
   51.78000     -2.1760333E-04
   51.84000     -2.3204221E-04
   51.90000     -2.4701247E-04
   51.96000     -2.6249688E-04
   52.02000     -2.7847462E-04
   52.08000     -2.9492160E-04
   52.14000     -3.1181020E-04
   52.20000     -3.2910937E-04
   52.26000     -3.4678489E-04
   52.32000     -3.6479926E-04
   52.38000     -3.8311208E-04
   52.44000     -4.0168018E-04
   52.50000     -4.2045789E-04
   52.56000     -4.3939726E-04
   52.62000     -4.5844840E-04
   52.68000     -4.7755978E-04
   52.74000     -4.9667852E-04
   52.80000     -5.1575090E-04
   52.86000     -5.3472270E-04
   52.92000     -5.5353978E-04
   52.98000     -5.7214836E-04
   53.04000     -5.9049559E-04
   53.10000     -6.0853013E-04
   53.16000     -6.2620267E-04
   53.22000     -6.4346619E-04
   53.28000     -6.6027662E-04
   53.34000     -6.7659310E-04
   53.40000     -6.9237850E-04
   53.46000     -7.0759980E-04
   53.52000     -7.2222820E-04
   53.58000     -7.3624001E-04
   53.64000     -7.4961642E-04
   53.70000     -7.6234393E-04
   53.76000     -7.7441474E-04
   53.82000     -7.8582647E-04
   53.88000     -7.9658249E-04
   53.94000     -8.0669188E-04
   54.00000     -8.1616937E-04
   54.06000     -8.2503533E-04
   54.12000     -8.3331537E-04
   54.18000     -8.4104022E-04
   54.24000     -8.4824552E-04
   54.30000     -8.5497135E-04
   54.36000     -8.6126191E-04
   54.42000     -8.6716493E-04
   54.48000     -8.7273156E-04
   54.54000     -8.7801547E-04
   54.60000     -8.8307238E-04
   54.66000     -8.8795944E-04
   54.72000     -8.9273439E-04
   54.78000     -8.9745520E-04
   54.84000     -9.0217945E-04
   54.90000     -9.0696372E-04
   54.96000     -9.1186294E-04
   55.02000     -9.1692962E-04
   55.08000     -9.2221348E-04
   55.14000     -9.2776038E-04
   55.20000     -9.3361229E-04
   55.26000     -9.3980634E-04
   55.32000     -9.4637508E-04
   55.38000     -9.5334573E-04
   55.44000     -9.6073997E-04
   55.50000     -9.6857361E-04
   55.56000     -9.7685633E-04