 -0.750000000       0.00000000    
 -0.689999998       0.00000000    
 -0.629999995       0.00000000    
 -0.569999993       0.00000000    
 -0.509999990       0.00000000    
 -0.449999988       1.62070774E-21
 -0.389999986       2.45534832E-20
 -0.330000013       1.37353871E-19
 -0.270000011       4.01534071E-19
 -0.209999993       5.28742585E-19
 -0.150000006      -7.15000911E-19
  -9.00000036E-02  -5.54668731E-18
  -2.99999993E-02  -1.51230056E-17
   2.99999993E-02  -2.47774706E-17
   9.00000036E-02  -1.93982192E-17
  0.150000006       2.39168537E-17
  0.209999993       1.19060116E-16
  0.270000011       2.42940034E-16
  0.330000013       3.16260583E-16
  0.389999986       2.23094264E-16
  0.449999988      -1.15939011E-16
  0.509999990      -6.47191829E-16
  0.569999993      -1.14335398E-15
  0.629999995      -1.29931233E-15
  0.689999998      -9.61476204E-16
  0.750000000      -3.44946783E-16
  0.810000002       1.19927468E-18
  0.870000005      -3.66281610E-16
  0.930000007      -1.09296240E-15
  0.990000010      -6.09895803E-16
   1.04999995       3.35408022E-15
   1.11000001       1.20748612E-14
   1.16999996       2.35863050E-14
   1.23000002       3.14236518E-14
   1.28999996       2.60601341E-14
   1.35000002      -3.63134168E-16
   1.40999997      -4.75526634E-14
   1.47000003      -1.02401994E-13
   1.52999997      -1.40135502E-13
   1.59000003      -1.33058278E-13
   1.64999998      -6.45073323E-14
   1.71000004       5.84807945E-14
   1.76999998       2.01491127E-13
   1.83000004       3.12499701E-13
   1.88999999       3.42756124E-13
   1.95000005       2.69532199E-13
   2.00999999       1.08733552E-13
   2.06999993      -9.07198511E-14
   2.13000011      -2.69465196E-13
   2.19000006      -3.85925287E-13
   2.25000000      -4.34247392E-13
   2.30999994      -4.40361154E-13
   2.36999989      -4.36589241E-13
   2.43000007      -4.28755528E-13
   2.49000001      -3.76783159E-13
   2.54999995      -2.05195642E-13
   2.60999990       1.55268010E-13
   2.67000008       7.12239404E-13
   2.73000002       1.37158048E-12
   2.78999996       1.93910057E-12
   2.84999990       2.17350313E-12
   2.91000009       1.87538483E-12
   2.97000003       9.77163988E-13
   3.02999997      -4.06014090E-13
   3.08999991      -1.99042475E-12
   3.15000010      -3.40186841E-12
   3.21000004      -4.28862761E-12
   3.26999998      -4.42461822E-12
   3.32999992      -3.76271670E-12
   3.39000010      -2.42134719E-12
   3.45000005      -6.18139220E-13
   3.50999999       1.41192863E-12
   3.56999993       3.47167304E-12
   3.63000011       5.40457306E-12
   3.69000006       7.04987110E-12
   3.75000000       8.18279472E-12
   3.80999994       8.48464528E-12
   3.86999989       7.57594681E-12
   3.93000007       5.11565183E-12
   3.99000001       9.35557513E-13
   4.05000019      -4.84132656E-12
   4.11000013      -1.17456357E-11
   4.17000008      -1.89902746E-11
   4.23000002      -2.55676071E-11
   4.28999996      -3.03742344E-11
   4.34999990      -3.23196157E-11
   4.40999985      -3.03953980E-11
   4.46999979      -2.37146847E-11
   4.53000021      -1.15529348E-11
   4.59000015       6.57763427E-12
   4.65000010       3.08139972E-11
   4.71000004       6.08180312E-11
   4.76999998       9.56977692E-11
   4.82999992       1.34028719E-10
   4.88999987       1.73999204E-10
   4.94999981       2.13657397E-10
   5.01000023       2.51198673E-10
   5.07000017       2.85219903E-10
   5.13000011       3.14884230E-10
   5.19000006       3.39980821E-10
   5.25000000       3.60899199E-10
   5.30999994       3.78559073E-10
   5.36999989       3.94327876E-10
   5.42999983       4.09933393E-10
   5.48999977       4.27353153E-10
   5.55000019       4.48649312E-10
   5.61000013       4.75725903E-10
   5.67000008       5.10015308E-10
   5.73000002       5.52133061E-10
   5.78999996       6.01572125E-10
   5.84999990       6.56518839E-10
   5.90999985       7.13865411E-10
   5.96999979       7.69459052E-10
   6.03000021       8.18575541E-10
   6.09000015       8.56549720E-10
   6.15000010       8.79444184E-10
   6.21000004       8.84625428E-10
   6.26999998       8.71131001E-10
   6.32999992       8.39766368E-10
   6.38999987       7.92935495E-10
   6.44999981       7.34267536E-10
   6.51000023       6.68131495E-10
   6.57000017       5.99128247E-10
   6.63000011       5.31624855E-10
   6.69000006       4.69357941E-10
   6.75000000       4.15109280E-10
   6.80999994       3.70448949E-10
   6.86999989       3.35553946E-10
   6.92999983       3.09132830E-10
   6.98999977       2.88516766E-10
   7.05000019       2.69971184E-10
   7.11000013       2.49259086E-10
   7.17000008       2.22419916E-10
   7.23000002       1.86642812E-10
   7.28999996       1.41057582E-10
   7.34999990       8.72426228E-11
   7.40999985       2.92980362E-11
   7.46999979      -2.65859331E-11
   7.53000021      -7.30382560E-11
   7.59000015      -1.02789360E-10
   7.65000010      -1.10164849E-10
   7.71000004      -9.25819213E-11
   7.76999998      -5.17889204E-11
   7.82999992       5.43654054E-12
   7.88999987       6.73704356E-11
   7.94999981       1.18297844E-10
   8.01000023       1.40183587E-10
   8.06999969       1.14651622E-10
   8.13000011       2.47367283E-11
   8.18999958      -1.44032952E-10
   8.25000000      -4.03405087E-10
   8.31000042      -7.62835350E-10
   8.36999989      -1.23017985E-09
   8.43000031      -1.81221826E-09
   8.48999977      -2.51476440E-09
   8.55000019      -3.34239569E-09
   8.60999966      -4.29798819E-09
   8.67000008      -5.38226708E-09
   8.72999954      -6.59346044E-09
   8.78999996      -7.92702348E-09
   8.85000038      -9.37536360E-09
   8.90999985      -1.09275549E-08
   8.97000027      -1.25691137E-08
   9.02999973      -1.42819001E-08
   9.09000015      -1.60441278E-08
   9.14999962      -1.78303754E-08
   9.21000004      -1.96114343E-08
   9.27000046      -2.13540456E-08
   9.32999992      -2.30206716E-08
   9.39000034      -2.45697347E-08
   9.44999981      -2.59566235E-08
   9.51000023      -2.71356768E-08
   9.56999969      -2.80629830E-08
   9.63000011      -2.86996453E-08
   9.68999958      -2.90150339E-08
   9.75000000      -2.89895379E-08
   9.81000042      -2.86165172E-08
   9.86999989      -2.79031163E-08
   9.93000031      -2.68698805E-08
   9.98999977      -2.55491539E-08
   10.0500002      -2.39825404E-08
   10.1099997      -2.22178382E-08
   10.1700001      -2.03060502E-08
   10.2299995      -1.82988611E-08
   10.2900000      -1.62468048E-08
   10.3500004      -1.41979042E-08
   10.4099998      -1.21965131E-08
   10.4700003      -1.02820366E-08
   10.5299997      -8.48754755E-09
   10.5900002      -6.83859724E-09
   10.6499996      -5.35265876E-09
   10.7100000      -4.03955580E-09
   10.7700005      -2.90284574E-09
   10.8299999      -1.94176764E-09
   10.8900003      -1.15310961E-09
   10.9499998      -5.32383138E-10
   11.0100002      -7.39860118E-11
   11.0699997       2.29578148E-10
   11.1300001       3.89004134E-10
   11.1899996       4.19445645E-10
   11.2500000       3.41228074E-10
   11.3100004       1.79730245E-10
   11.3699999      -3.55865268E-11
   11.4300003      -2.72832035E-10
   11.4899998      -4.99774500E-10
   11.5500002      -6.86129487E-10
   11.6099997      -8.05859601E-10
   11.6700001      -8.39297187E-10
   11.7299995      -7.74845355E-10
   11.7900000      -6.09950923E-10
   11.8500004      -3.51037616E-10
   11.9099998      -1.22188414E-11
   11.9700003       3.87145066E-10
   12.0299997       8.25693847E-10
   12.0900002       1.28354904E-09
   12.1499996       1.74540737E-09
   12.2100000       2.20273488E-09
   12.2700005       2.65477484E-09
   12.3299999       3.10831139E-09
   12.3900003       3.57632346E-09
   12.4499998       4.07577438E-09
   12.5100002       4.62486272E-09
   12.5699997       5.24010701E-09
   12.6300001       5.93366245E-09
   12.6899996       6.71121381E-09
   12.7500000       7.57070850E-09
   12.8100004       8.50200621E-09
   12.8699999       9.48742240E-09
   12.9300003       1.05030500E-08
   12.9899998       1.15207364E-08
   13.0500002       1.25106112E-08
   13.1099997       1.34439393E-08
   13.1700001       1.42960106E-08
   13.2299995       1.50485899E-08
   13.2900000       1.56914570E-08
   13.3500004       1.62227387E-08
   13.4099998       1.66480341E-08
   13.4700003       1.69786691E-08
   13.5299997       1.72296328E-08
   13.5900002       1.74177437E-08
   13.6499996       1.75603247E-08
   13.7100000       1.76744628E-08
   13.7700005       1.77766459E-08
   13.8299999       1.78825221E-08
   13.8900003       1.80065562E-08
   13.9499998       1.81614208E-08
   14.0100002       1.83570421E-08
   14.0699997       1.85993585E-08
   14.1300001       1.88888549E-08
   14.1899996       1.92192413E-08
   14.2500000       1.95766408E-08
   14.3100004       1.99396766E-08
   14.3699999       2.02807033E-08
   14.4300003       2.05680095E-08
   14.4899998       2.07686170E-08
   14.5500002       2.08510453E-08
   14.6099997       2.07876703E-08
   14.6700001       2.05564898E-08
   14.7299995       2.01424779E-08
   14.7900000       1.95387102E-08
   14.8500004       1.87473059E-08
   14.9099998       1.77799055E-08
   14.9700003       1.66571450E-08
   15.0299997       1.54068118E-08
   15.0900002       1.40606495E-08
   15.1499996       1.26503510E-08
   15.2100000       1.12036096E-08
   15.2700005       9.74106751E-09
   15.3299999       8.27468938E-09
   15.3900003       6.80766288E-09
   15.4499998       5.33559641E-09
   15.5100002       3.84868670E-09
   15.5699997       2.33456010E-09
   15.6300001       7.81508802E-10
   15.6899996      -8.18307200E-10
   15.7500000      -2.46628740E-09
   15.8100004      -4.15611368E-09
   15.8699999      -5.87419713E-09
   15.9300003      -7.60179653E-09
   15.9899998      -9.31824040E-09
   16.0499992      -1.10044152E-08
   16.1100006      -1.26458053E-08
   16.1700001      -1.42347245E-08
   16.2299995      -1.57716986E-08
   16.2900009      -1.72660126E-08
   16.3500004      -1.87351894E-08
   16.4099998      -2.02030019E-08
   16.4699993      -2.16957314E-08
   16.5300007      -2.32369946E-08
   16.5900002      -2.48422243E-08
   16.6499996      -2.65143765E-08
   16.7099991      -2.82423169E-08
   16.7700005      -3.00023864E-08
   16.8299999      -3.17626068E-08
   16.8899994      -3.34880070E-08
   16.9500008      -3.51455114E-08
   17.0100002      -3.67071173E-08
   17.0699997      -3.81511143E-08
   17.1299992      -3.94616144E-08
   17.1900005      -4.06272243E-08
   17.2500000      -4.16395558E-08
   17.3099995      -4.24923243E-08
   17.3700008      -4.31814371E-08
   17.4300003      -4.37063328E-08
   17.4899998      -4.40722303E-08
   17.5499992      -4.42924630E-08
   17.6100006      -4.43895125E-08
   17.6700001      -4.43935306E-08
   17.7299995      -4.43379982E-08
   17.7900009      -4.42532126E-08
   17.8500004      -4.41596306E-08
   17.9099998      -4.40631318E-08
   17.9699993      -4.39537402E-08
   18.0300007      -4.38080754E-08
   18.0900002      -4.35945040E-08
   18.1499996      -4.32793712E-08
   18.2099991      -4.28329017E-08
   18.2700005      -4.22339426E-08
   18.3299999      -4.14731396E-08
   18.3899994      -4.05544327E-08
   18.4500008      -3.94944522E-08
   18.5100002      -3.83197190E-08
   18.5699997      -3.70617421E-08
   18.6299992      -3.57511141E-08
   18.6900005      -3.44121176E-08
   18.7500000      -3.30595249E-08
   18.8099995      -3.16984483E-08
   18.8700008      -3.03270333E-08
   18.9300003      -2.89408284E-08
   18.9899998      -2.75373839E-08
   19.0499992      -2.61198316E-08
   19.1100006      -2.46987888E-08
   19.1700001      -2.32923725E-08
   19.2299995      -2.19242686E-08
   19.2900009      -2.06200212E-08
   19.3500004      -1.94019236E-08
   19.4099998      -1.82835951E-08
   19.4699993      -1.72657053E-08
   19.5300007      -1.63344502E-08
   19.5900002      -1.54636091E-08
   19.6499996      -1.46198609E-08
   19.7099991      -1.37697969E-08
   19.7700005      -1.28865292E-08
   19.8299999      -1.19541443E-08
   19.8899994      -1.09692602E-08
   19.9500008      -9.94010296E-09
   20.0100002      -8.88423557E-09
   20.0699997      -7.82612641E-09
   20.1299992      -6.79528567E-09
   20.1900005      -5.82504756E-09
   20.2500000      -4.95159513E-09
   20.3099995      -4.21258317E-09
   20.3700008      -3.64477781E-09
   20.4300003      -3.28040728E-09
   20.4899998      -3.14237014E-09
   20.5499992      -3.23905236E-09
   20.6100006      -3.56004914E-09
   20.6700001      -4.07434175E-09
   20.7299995      -4.73214401E-09
   20.7900009      -5.47072121E-09
   20.8500004      -6.22325436E-09
   20.9099998      -6.92875846E-09
   20.9699993      -7.54069607E-09
   21.0300007      -8.03234279E-09
   21.0900002      -8.39804759E-09
   21.1499996      -8.65067395E-09
   21.2099991      -8.81645423E-09
   21.2700005      -8.92878127E-09
   21.3299999      -9.02231978E-09
   21.3899994      -9.12844822E-09
   21.4500008      -9.27246280E-09
   21.5100002      -9.47255518E-09
   21.5699997      -9.74011005E-09
   21.6299992      -1.00805577E-08
   21.6900005      -1.04939293E-08
   21.7500000      -1.09745244E-08
   21.8099995      -1.15096119E-08
   21.8700008      -1.20777885E-08
   21.9300003      -1.26480399E-08
   21.9899998      -1.31806157E-08
   22.0499992      -1.36303395E-08
   22.1100006      -1.39521710E-08
   22.1700001      -1.41080836E-08
   22.2299995      -1.40737511E-08
   22.2900009      -1.38434473E-08
   22.3500004      -1.34318787E-08
   22.4099998      -1.28723547E-08
   22.4699993      -1.22115118E-08
   22.5300007      -1.15016539E-08
   22.5900002      -1.07923830E-08
   22.6499996      -1.01233129E-08
   22.7099991      -9.51933021E-09
   22.7700005      -8.98907171E-09
   22.8299999      -8.52637072E-09
   22.8899994      -8.11382783E-09
   22.9500008      -7.72744180E-09
   23.0100002      -7.34145722E-09
   23.0699997      -6.93294977E-09
   23.1299992      -6.48586207E-09
   23.1900005      -5.99411143E-09
   23.2500000      -5.46323653E-09
   23.3099995      -4.91004082E-09
   23.3700008      -4.36007852E-09
   23.4300003      -3.84348642E-09
   23.4899998      -3.39026185E-09
   23.5499992      -3.02626191E-09
   23.6100006      -2.77076495E-09
   23.6700001      -2.63568878E-09
   23.7299995      -2.62587907E-09
   23.7900009      -2.73964407E-09
   23.8500004      -2.96902303E-09
   23.9099998      -3.29982686E-09
   23.9699993      -3.71189768E-09
   24.0300007      -4.18002877E-09
   24.0900002      -4.67561545E-09
   24.1499996      -5.16868015E-09
   24.2099991      -5.62976421E-09
   24.2700005      -6.03138917E-09
   24.3299999      -6.34921227E-09
   24.3899994      -6.56325438E-09
   24.4500008      -6.65946009E-09
   24.5100002      -6.63138211E-09
   24.5699997      -6.48128129E-09
   24.6299992      -6.21980023E-09
   24.6900005      -5.86377791E-09
   24.7500000      -5.43255529E-09
   24.8099995      -4.94389019E-09
   24.8700008      -4.41085168E-09
   24.9300003      -3.84066867E-09
   24.9899998      -3.23560689E-09
   25.0499992      -2.59505040E-09
   25.1100006      -1.91755811E-09
   25.1700001      -1.20196131E-09
   25.2299995      -4.47372445E-10
   25.2900009       3.47208817E-10
   25.3500004       1.18268584E-09
   25.4099998       2.05843631E-09
   25.4699993       2.96993208E-09
   25.5300007       3.90652000E-09
   25.5900002       4.85075358E-09
   25.6499996       5.78016035E-09
   25.7099991       6.67127109E-09
   25.7700005       7.50468221E-09
   25.8299999       8.26942692E-09
   25.8899994       8.96522589E-09
   25.9500008       9.60205337E-09
   26.0100002       1.01974633E-08
   26.0699997       1.07727089E-08
   26.1299992       1.13487300E-08
   26.1900005       1.19426939E-08
   26.2500000       1.25653408E-08
   26.3099995       1.32192275E-08
   26.3700008       1.38980241E-08
   26.4300003       1.45871661E-08
   26.4899998       1.52660622E-08
   26.5499992       1.59116453E-08
   26.6100006       1.65024190E-08
   26.6700001       1.70218097E-08
   26.7299995       1.74597705E-08
   26.7900009       1.78122406E-08
   26.8500004       1.80789819E-08
   26.9099998       1.82609075E-08
   26.9699993       1.83580084E-08
   27.0300007       1.83683557E-08
   27.0900002       1.82879347E-08
   27.1499996       1.81105371E-08
   27.2099991       1.78271584E-08
   27.2700005       1.74250303E-08
   27.3299999       1.68871939E-08
   27.3899994       1.61936295E-08
   27.4500008       1.53244564E-08
   27.5100002       1.42645593E-08
   27.5699997       1.30079689E-08
   27.6299992       1.15601271E-08
   27.6900005       9.93685845E-09
   27.7500000       8.16024315E-09
   27.8099995       6.25294261E-09
   27.8700008       4.23304369E-09
   27.9300003       2.11111084E-09
   27.9899998      -1.09954434E-10
   28.0499992      -2.43273801E-09
   28.1100006      -4.86186336E-09
   28.1700001      -7.40026440E-09
   28.2299995      -1.00457962E-08
   28.2900009      -1.27885800E-08
   28.3500004      -1.56095741E-08
   28.4099998      -1.84811348E-08
   28.4699993      -2.13702052E-08
   28.5300007      -2.42440219E-08
   28.5900002      -2.70770624E-08
   28.6499996      -2.98568601E-08
   28.7099991      -3.25861684E-08
   28.7700005      -3.52800278E-08
   28.8299999      -3.79582801E-08
   28.8899994      -4.06359142E-08
   28.9500008      -4.33147633E-08
   29.0100002      -4.59794727E-08
   29.0699997      -4.85990661E-08
   29.1299992      -5.11334441E-08
   29.1900005      -5.35423865E-08
   29.2500000      -5.57943558E-08
   29.3099995      -5.78724446E-08
   29.3700008      -5.97762480E-08
   29.4300003      -6.15194011E-08
   29.4899998      -6.31235793E-08
   29.5499992      -6.46106315E-08
   29.6100006      -6.59950459E-08
   29.6700001      -6.72788758E-08
   29.7299995      -6.84510155E-08
   29.7900009      -6.94912714E-08
   29.8500004      -7.03784053E-08
   29.9099998      -7.10994641E-08
   29.9699993      -7.16572472E-08
   30.0300007      -7.20730071E-08
   30.0900002      -7.23827753E-08
   30.1499996      -7.26282394E-08
   30.2099991      -7.28446423E-08
   30.2700005      -7.30497121E-08
   30.3299999      -7.32372385E-08
   30.3899994      -7.33776275E-08
   30.4500008      -7.34254257E-08
   30.5100002      -7.33317336E-08
   30.5699997      -7.30576133E-08
   30.6299992      -7.25845339E-08
   30.6900005      -7.19186346E-08
   30.7500000      -7.10878822E-08
   30.8099995      -7.01333320E-08
   30.8700008      -6.90975384E-08
   30.9300003      -6.80137404E-08
   30.9899998      -6.68989983E-08
   31.0499992      -6.57528787E-08
   31.1100006      -6.45616538E-08
   31.1700001      -6.33064019E-08
   31.2299995      -6.19724148E-08
   31.2900009      -6.05572978E-08
   31.3500004      -5.90750808E-08
   31.4099998      -5.75553223E-08
   31.4699993      -5.60369848E-08
   31.5300007      -5.45589494E-08
   31.5900002      -5.31501136E-08
   31.6499996      -5.18226209E-08
   31.7099991      -5.05707511E-08
   31.7700005      -4.93762400E-08
   31.8299999      -4.82182578E-08
   31.8899994      -4.70845691E-08
   31.9500008      -4.59796929E-08
   32.0099983      -4.49269812E-08
   32.0699997      -4.39636487E-08
   32.1300011      -4.31299796E-08
   32.1899986      -4.24560511E-08
   32.2500000      -4.19497255E-08
   32.3100014      -4.15898072E-08
   32.3699989      -4.13266577E-08
   32.4300003      -4.10911198E-08
   32.4900017      -4.08100433E-08
   32.5499992      -4.04248901E-08
   32.6100006      -3.99081834E-08
   32.6699982      -3.92726491E-08
   32.7299995      -3.85694818E-08
   32.7900009      -3.78754130E-08
   32.8499985      -3.72720876E-08
   32.9099998      -3.68239554E-08
   32.9700012      -3.65617900E-08
   33.0299988      -3.64769157E-08
   33.0900002      -3.65277621E-08
   33.1500015      -3.66560116E-08
   33.2099991      -3.68067319E-08
   33.2700005      -3.69459059E-08
   33.3300018      -3.70700661E-08
   33.3899994      -3.72056448E-08
   33.4500008      -3.73989337E-08
   33.5099983      -3.77002962E-08
   33.5699997      -3.81476539E-08
   33.6300011      -3.87541590E-08
   33.6899986      -3.95034796E-08
   33.7500000      -4.03538003E-08
   33.8100014      -4.12489207E-08
   33.8699989      -4.21329602E-08
   33.9300003      -4.29641531E-08
   33.9900017      -4.37236558E-08
   34.0499992      -4.44171206E-08
   34.1100006      -4.50689051E-08
   34.1699982      -4.57112073E-08
   34.2299995      -4.63717065E-08
   34.2900009      -4.70635761E-08
   34.3499985      -4.77806843E-08
   34.4099998      -4.84990963E-08
   34.4700012      -4.91839351E-08
   34.5299988      -4.97990413E-08
   34.5900002      -5.03163875E-08
   34.6500015      -5.07223490E-08
   34.7099991      -5.10194553E-08
   34.7700005      -5.12235196E-08
   34.8300018      -5.13577554E-08
   34.8899994      -5.14458840E-08
   34.9500008      -5.15062197E-08
   35.0099983      -5.15480600E-08
   35.0699997      -5.15706446E-08
   35.1300011      -5.15644487E-08
   35.1899986      -5.15138936E-08
   35.2500000      -5.14007787E-08
   35.3100014      -5.12075680E-08
   35.3699989      -5.09199474E-08
   35.4300003      -5.05282678E-08
   35.4900017      -5.00278290E-08
   35.5499992      -4.94182650E-08
   35.6100006      -4.87025247E-08
   35.6699982      -4.78860223E-08
   35.7299995      -4.69760586E-08
   35.7900009      -4.59814551E-08
   35.8499985      -4.49117934E-08
   35.9099998      -4.37759660E-08
   35.9700012      -4.25799485E-08
   36.0299988      -4.13243768E-08
   36.0900002      -4.00026288E-08
   36.1500015      -3.86002945E-08
   36.2099991      -3.70964628E-08
   36.2700005      -3.54666163E-08
   36.3300018      -3.36867565E-08
   36.3899994      -3.17377840E-08
   36.4500008      -2.96093390E-08
   36.5099983      -2.73023666E-08
   36.5699997      -2.48299177E-08
   36.6300011      -2.22161045E-08
   36.6899986      -1.94936103E-08
   36.7500000      -1.67003993E-08
   36.8100014      -1.38763809E-08
   36.8699989      -1.10605916E-08
   36.9300003      -8.28887980E-09
   36.9900017      -5.59184210E-09
   37.0499992      -2.99267655E-09
   37.1100006      -5.05071207E-10
   37.1699982       1.86818672E-09
   37.2299995       4.13484624E-09
   37.2900009       6.31028918E-09
   37.3499985       8.41214032E-09
   37.4099998       1.04535118E-08
   37.4700012       1.24367663E-08
   37.5299988       1.43497205E-08
   37.5900002       1.61654814E-08
   37.6500015       1.78459274E-08
   37.7099991       1.93477536E-08
   37.7700005       2.06294537E-08
   37.8300018       2.16575451E-08
   37.8899994       2.24109122E-08
   37.9500008       2.28827339E-08
   38.0099983       2.30799948E-08
   38.0699997       2.30210233E-08
   38.1300011       2.27317081E-08
   38.1899986       2.22411956E-08
   38.2500000       2.15778666E-08
   38.3100014       2.07661977E-08
   38.3699989       1.98247072E-08
   38.4300003       1.87647657E-08
   38.4900017       1.75897075E-08
   38.5499992       1.62938125E-08
   38.6100006       1.48612953E-08
   38.6699982       1.32659697E-08
   38.7299995       1.14728120E-08
   38.7900009       9.44231893E-09
   38.8499985       7.13760784E-09
   38.9099998       4.53292559E-09
   38.9700012       1.62115754E-09
   39.0299988      -1.58223923E-09
   39.0900002      -5.04050757E-09
   39.1500015      -8.70200889E-09
   39.2099991      -1.25099735E-08
   39.2700005      -1.64127307E-08
   39.3300018      -2.03716120E-08
   39.3899994      -2.43647147E-08
   39.4500008      -2.83861556E-08
   39.5099983      -3.24415339E-08
   39.5699997      -3.65411381E-08
   39.6300011      -4.06923952E-08
   39.6899986      -4.48930741E-08
   39.7500000      -4.91265020E-08
   39.8100014      -5.33596918E-08
   39.8699989      -5.75449164E-08
   39.9300003      -6.16242417E-08
   39.9900017      -6.55359074E-08
   40.0499992      -6.92206328E-08
   40.1100006      -7.26261860E-08
   40.1699982      -7.57094014E-08
   40.2299995      -7.84356189E-08
   40.2900009      -8.07769069E-08
   40.3499985      -8.27103861E-08
   40.4099998      -8.42176178E-08
   40.4700012      -8.52855351E-08
   40.5299988      -8.59082547E-08
   40.5900002      -8.60891873E-08
   40.6500015      -8.58423519E-08
   40.7099991      -8.51925464E-08
   40.7700005      -8.41739123E-08
   40.8300018      -8.28271354E-08
   40.8899994      -8.11959708E-08
   40.9500008      -7.93237049E-08
   41.0099983      -7.72506610E-08
   41.0699997      -7.50132756E-08
   41.1300011      -7.26447880E-08
   41.1899986      -7.01767746E-08
   41.2500000      -6.76407623E-08
   41.3100014      -6.50690737E-08
   41.3699989      -6.24945713E-08
   41.4300003      -5.99495493E-08
   41.4900017      -5.74640069E-08
   41.5499992      -5.50636123E-08
   41.6100006      -5.27673159E-08
   41.6699982      -5.05849975E-08
   41.7299995      -4.85157585E-08
   41.7900009      -4.65480134E-08
   41.8499985      -4.46620767E-08
   41.9099998      -4.28352323E-08
   41.9700012      -4.10478620E-08
   42.0299988      -3.92883770E-08
   42.0900002      -3.75551537E-08
   42.1500015      -3.58547041E-08
   42.2099991      -3.41972921E-08
   42.2700005      -3.25921903E-08
   42.3300018      -3.10447312E-08
   42.3899994      -2.95560092E-08
   42.4500008      -2.81245853E-08
   42.5099983      -2.67486602E-08
   42.5699997      -2.54273491E-08
   42.6300011      -2.41607268E-08
   42.6899986      -2.29493047E-08
   42.7500000      -2.17939089E-08
   42.8100014      -2.06963424E-08
   42.8699989      -1.96602876E-08
   42.9300003      -1.86912992E-08
   42.9900017      -1.77950739E-08
   43.0499992      -1.69741732E-08
   43.1100006      -1.62245470E-08
   43.1699982      -1.55337290E-08
   43.2299995      -1.48821373E-08
   43.2900009      -1.42477177E-08
   43.3499985      -1.36127776E-08
   43.4099998      -1.29709399E-08
   43.4700012      -1.23320616E-08
   43.5299988      -1.17236487E-08
   43.5900002      -1.11883578E-08
   43.6500015      -1.07781872E-08
   43.7099991      -1.05466809E-08
   43.7700005      -1.05406865E-08
   43.8300018      -1.07931619E-08
   43.8899994      -1.13182876E-08
   43.9500008      -1.21098171E-08
   44.0099983      -1.31431772E-08
   44.0699997      -1.43812313E-08
   44.1300011      -1.57828204E-08
   44.1899986      -1.73122849E-08
   44.2500000      -1.89475848E-08
   44.3100014      -2.06846043E-08
   44.3699989      -2.25360868E-08
   44.4300003      -2.45252441E-08
   44.4900017      -2.66758757E-08
   44.5499992      -2.90020914E-08
   44.6100006      -3.15010098E-08
   44.6699982      -3.41506876E-08
   44.7299995      -3.69137290E-08
   44.7900009      -3.97450712E-08
   44.8499985      -4.26011653E-08
   44.9099998      -4.54476918E-08
   44.9700012      -4.82636402E-08
   45.0299988      -5.10410025E-08
   45.0900002      -5.37806208E-08
   45.1500015      -5.64856073E-08
   45.2099991      -5.91542637E-08
   45.2700005      -6.17744718E-08
   45.3300018      -6.43211422E-08
   45.3899994      -6.67578490E-08
   45.4500008      -6.90426560E-08
   45.5099983      -7.11369381E-08
   45.5699997      -7.30149381E-08
   45.6300011      -7.46709219E-08
   45.6899986      -7.61212320E-08
   45.7500000      -7.73997755E-08
   45.8100014      -7.85474725E-08
   45.8699989      -7.95986779E-08
   45.9300003      -8.05686824E-08
   45.9900017      -8.14465793E-08
   46.0499992      -8.21963013E-08
   46.1100006      -8.27659434E-08
   46.1699982      -8.31025631E-08
   46.2299995      -8.31679046E-08
   46.2900009      -8.29500308E-08
   46.3499985      -8.24673307E-08
   46.4099998      -8.17640000E-08
   46.4700012      -8.08987224E-08
   46.5299988      -7.99304587E-08
   46.5900002      -7.89054511E-08
   46.6500015      -7.78489380E-08
   46.7099991      -7.67633352E-08
   46.7700005      -7.56325704E-08
   46.8300018      -7.44310498E-08
   46.8899994      -7.31344514E-08
   46.9500008      -7.17293176E-08
   47.0099983      -7.02185403E-08
   47.0699997      -6.86207997E-08
   47.1300011      -6.69636719E-08
   47.1899986      -6.52723386E-08
   47.2500000      -6.35577777E-08
   47.3100014      -6.18090965E-08
   47.3699989      -5.99937522E-08
   47.4300003      -5.80666430E-08
   47.4900017      -5.59853461E-08
   47.5499992      -5.37263425E-08
   47.6100006      -5.12961904E-08
   47.6699982      -4.87335505E-08
   47.7299995      -4.61014125E-08
   47.7900009      -4.34724541E-08
   47.8499985      -4.09124858E-08
   47.9099998      -3.84670003E-08
   47.9700012      -3.61539492E-08
   48.0299988      -3.39635449E-08
   48.0900002      -3.18640367E-08
   48.1500015      -2.98113605E-08
   48.2099991      -2.77605086E-08
   48.2700005      -2.56765436E-08
   48.3300018      -2.35432118E-08
   48.3899994      -2.13672777E-08
   48.4500008      -1.91772020E-08
   48.5099983      -1.70161503E-08
   48.5699997      -1.49310520E-08
   48.6300011      -1.29608972E-08
   48.6899986      -1.11278924E-08
   48.7500000      -9.43419121E-09
   48.8100014      -7.86485277E-09
   48.8699989      -6.39552766E-09
   48.9300003      -5.00190911E-09
   48.9900017      -3.66778208E-09
   49.0499992      -2.38944686E-09
   49.1100006      -1.17586130E-09
   49.1699982      -4.53424832E-11
   49.2299995       9.79465398E-10
   49.2900009       1.87650206E-09
   49.3499985       2.62771871E-09
   49.4099998       3.22047278E-09
   49.4700012       3.64711950E-09
   49.5299988       3.90354549E-09
   49.5900002       3.98752453E-09
   49.6500015       3.89760135E-09
   49.7099991       3.63286512E-09
   49.7700005       3.19363758E-09
   49.8300018       2.58284638E-09
   49.8899994       1.80766990E-09
   49.9500008       8.80846784E-10
   50.0099983      -1.79103093E-10
   50.0699997      -1.34950440E-09
   50.1300011      -2.60743183E-09
   50.1899986      -3.93562027E-09
   50.2500000      -5.32924282E-09
   50.3100014      -6.80177248E-09
   50.3699989      -8.38809999E-09
   50.4300003      -1.01437783E-08
   50.4900017      -1.21404575E-08
   50.5499992      -1.44587835E-08
   50.6100006      -1.71808239E-08