 -0.750000000       0.00000000    
 -0.689999998       0.00000000    
 -0.629999995       0.00000000    
 -0.569999993       0.00000000    
 -0.509999990       0.00000000    
 -0.449999988       0.00000000    
 -0.389999986       0.00000000    
 -0.330000013       0.00000000    
 -0.270000011      -2.43048563E-25
 -0.209999993      -3.70901651E-24
 -0.150000006      -2.59833538E-23
  -9.00000036E-02  -1.09573083E-22
  -2.99999993E-02  -2.93488846E-22
   2.99999993E-02  -4.16625666E-22
   9.00000036E-02   3.07424522E-22
  0.150000006       3.53510660E-21
  0.209999993       1.05844311E-20
  0.270000011       1.82775993E-20
  0.330000013       1.28055499E-20
  0.389999986      -3.12731883E-20
  0.449999988      -1.33915345E-19
  0.509999990      -2.66345307E-19
  0.569999993      -3.00054184E-19
  0.629999995      -8.44081189E-21
  0.689999998       7.97710390E-19
  0.750000000       1.97804320E-18
  0.810000002       2.75671236E-18
  0.870000005       1.74680507E-18
  0.930000007      -2.31264521E-18
  0.990000010      -9.07542036E-18
   1.04999995      -1.50966467E-17
   1.11000001      -1.38492195E-17
   1.16999996       1.22367982E-18
   1.23000002       3.05851851E-17
   1.28999996       6.22601443E-17
   1.35000002       7.08606720E-17
   1.40999997       2.75373753E-17
   1.47000003      -7.85676792E-17
   1.52999997      -2.16144359E-16
   1.59000003      -3.02593097E-16
   1.64999998      -2.28668482E-16
   1.71000004       7.78338708E-17
   1.76999998       5.70748323E-16
   1.83000004       1.03570223E-15
   1.88999999       1.12921573E-15
   1.95000005       5.35084901E-16
   2.00999999      -8.00761920E-16
   2.06999993      -2.47421056E-15
   2.13000011      -3.62306527E-15
   2.19000006      -3.23320989E-15
   2.25000000      -7.12028177E-16
   2.30999994       3.51010242E-15
   2.36999989       7.73128476E-15
   2.43000007       9.42180921E-15
   2.49000001       6.41199155E-15
   2.54999995      -1.58372831E-15
   2.60999990      -1.19237319E-14
   2.67000008      -1.93616756E-14
   2.73000002      -1.81451229E-14
   2.78999996      -5.35378186E-15
   2.84999990       1.60750777E-14
   2.91000009       3.66493436E-14
   2.97000003       4.33542193E-14
   3.02999997       2.60755400E-14
   3.08999991      -1.51422454E-14
   3.15000010      -6.60576940E-14
   3.21000004      -1.01047466E-13
   3.26999998      -9.36284267E-14
   3.32999992      -3.12606860E-14
   3.39000010       7.26929774E-14
   3.45000005       1.77674580E-13
   3.50999999       2.29438755E-13
   3.56999993       1.85242663E-13
   3.63000011       3.99924370E-14
   3.69000006      -1.60971700E-13
   3.75000000      -3.33117513E-13
   3.80999994      -3.87901733E-13
   3.86999989      -2.78309141E-13
   3.93000007      -3.20322145E-14
   3.99000001       2.48857087E-13
   4.05000019       4.28922360E-13
   4.11000013       4.06958131E-13
   4.17000008       1.77952556E-13
   4.23000002      -1.46659540E-13
   4.28999996      -3.80786629E-13
   4.34999990      -3.57155874E-13
   4.40999985      -3.06441172E-14
   4.46999979       4.65038706E-13
   4.53000021       8.49967774E-13
   4.59000015       8.22102857E-13
   4.65000010       2.25032287E-13
   4.71000004      -8.22448880E-13
   4.76999998      -1.91316559E-12
   4.82999992      -2.48703922E-12
   4.88999987      -2.07615695E-12
   4.94999981      -5.57180495E-13
   5.01000023       1.71207449E-12
   5.07000017       3.95683139E-12
   5.13000011       5.24956771E-12
   5.19000006       4.87802680E-12
   5.25000000       2.66231568E-12
   5.30999994      -9.22389335E-13
   5.36999989      -4.88017396E-12
   5.42999983      -8.03338646E-12
   5.48999977      -9.42028140E-12
   5.55000019      -8.58091723E-12
   5.61000013      -5.62084537E-12
   5.67000008      -1.05801240E-12
   5.73000002       4.42937527E-12
   5.78999996       1.01886208E-11
   5.84999990       1.55940399E-11
   5.90999985       1.98696927E-11
   5.96999979       2.18753557E-11
   6.03000021       2.00705494E-11
   6.09000015       1.28286843E-11
   6.15000010      -8.81773658E-13
   6.21000004      -2.06380416E-11
   6.26999998      -4.38749002E-11
   6.32999992      -6.57461238E-11
   6.38999987      -7.97772681E-11
   6.44999981      -7.92877569E-11
   6.51000023      -5.92666402E-11
   6.57000017      -1.81805196E-11
   6.63000011       4.08396650E-11
   6.69000006       1.09826266E-10
   6.75000000       1.76917536E-10
   6.80999994       2.28200542E-10
   6.86999989       2.50016507E-10
   6.92999983       2.31230202E-10
   6.98999977       1.65067085E-10
   7.05000019       5.03218751E-11
   7.11000013      -1.08061719E-10
   7.17000008      -2.98931435E-10
   7.23000002      -5.05292419E-10
   7.28999996      -7.05109027E-10
   7.34999990      -8.72668660E-10
   7.40999985      -9.80659665E-10
   7.46999979      -1.00301034E-09
   7.53000021      -9.18284837E-10
   7.59000015      -7.13143877E-10
   7.65000010      -3.85154630E-10
   7.71000004       5.57853000E-11
   7.76999998       5.87914439E-10
   7.82999992       1.18002441E-09
   7.88999987       1.79537385E-09
   7.94999981       2.39624698E-09
   8.01000023       2.94818570E-09
   8.06999969       3.42313822E-09
   8.13000011       3.80123755E-09
   8.18999958       4.07142853E-09
   8.25000000       4.23150848E-09
   8.31000042       4.28811031E-09
   8.36999989       4.25682689E-09
   8.43000031       4.16217105E-09
   8.48999977       4.03667855E-09
   8.55000019       3.91847799E-09
   8.60999966       3.84706889E-09
   8.67000008       3.85779275E-09
   8.72999954       3.97617406E-09
   8.78999996       4.21362811E-09
   8.85000038       4.56577842E-09
   8.90999985       5.01384578E-09
   8.97000027       5.52856871E-09
   9.02999973       6.07534201E-09
   9.09000015       6.61898891E-09
   9.14999962       7.12700654E-09
   9.21000004       7.57093233E-09
   9.27000046       7.92638755E-09
   9.32999992       8.17284196E-09
   9.39000034       8.29408187E-09
   9.44999981       8.27976088E-09
   9.51000023       8.12755996E-09
   9.56999969       7.84487941E-09
   9.63000011       7.44889261E-09
   9.68999958       6.96426561E-09
   9.75000000       6.41877751E-09
   9.81000042       5.83797988E-09
   9.86999989       5.24055466E-09
   9.93000031       4.63590011E-09
   9.98999977       4.02473432E-09
   10.0500002       3.40241568E-09
   10.1099997       2.76369438E-09
   10.1700001       2.10711626E-09
   10.2299995       1.43752343E-09
   10.2900000       7.65934149E-10
   10.3500004       1.07200374E-10
   10.4099998      -5.23262100E-10
   10.4700003      -1.11206389E-09
   10.5299997      -1.64859348E-09
   10.5900002      -2.12376339E-09
   10.6499996      -2.52765631E-09
   10.7100000      -2.84764901E-09
   10.7700005      -3.06847525E-09
   10.8299999      -3.17485038E-09
   10.8900003      -3.15602966E-09
   10.9499998      -3.01062397E-09
   11.0100002      -2.74961742E-09
   11.0699997      -2.39603715E-09
   11.1300001      -1.98095473E-09
   11.1899996      -1.53691981E-09
   11.2500000      -1.09093434E-09
   11.3100004      -6.59277910E-10
   11.3699999      -2.45769682E-10
   11.4300003       1.56267388E-10
   11.4899998       5.59432112E-10
   11.5500002       9.77004255E-10
   11.6099997       1.41897938E-09
   11.6700001       1.89053950E-09
   11.7299995       2.39291853E-09
   11.7900000       2.92559066E-09
   11.8500004       3.48825568E-09
   11.9099998       4.08146361E-09
   11.9700003       4.70559991E-09
   12.0299997       5.35897327E-09
   12.0900002       6.03630745E-09
   12.1499996       6.72881972E-09
   12.2100000       7.42627204E-09
   12.2700005       8.12034084E-09
   12.3299999       8.80785667E-09
   12.3900003       9.49231271E-09
   12.4499998       1.01826334E-08
   12.5100002       1.08892895E-08
   12.5699997       1.16189369E-08
   12.6300001       1.23694992E-08
   12.6899996       1.31275817E-08
   12.7500000       1.38694602E-08
   12.8100004       1.45657300E-08
   12.8699999       1.51885295E-08
   12.9300003       1.57193227E-08
   12.9899998       1.61550027E-08
   13.0500002       1.65104392E-08
   13.1099997       1.68166174E-08
   13.1700001       1.71147807E-08
   13.2299995       1.74480626E-08
   13.2900000       1.78527575E-08
   13.3500004       1.83512512E-08
   13.4099998       1.89480058E-08
   13.4700003       1.96290557E-08
   13.5299997       2.03645811E-08
   13.5900002       2.11137667E-08
   13.6499996       2.18310099E-08
   13.7100000       2.24726389E-08
   13.7700005       2.30033770E-08
   13.8299999       2.34015332E-08
   13.8900003       2.36617996E-08
   13.9499998       2.37945166E-08
   14.0100002       2.38209967E-08
   14.0699997       2.37655868E-08
   14.1300001       2.36465354E-08
   14.1899996       2.34684965E-08
   14.2500000       2.32194139E-08
   14.3100004       2.28732375E-08
   14.3699999       2.23978898E-08
   14.4300003       2.17660254E-08
   14.4899998       2.09649773E-08
   14.5500002       2.00025809E-08
   14.6099997       1.89070501E-08
   14.6700001       1.77212396E-08
   14.7299995       1.64935035E-08
   14.7900000       1.52682684E-08
   14.8500004       1.40791814E-08
   14.9099998       1.29463258E-08
   14.9700003       1.18773178E-08
   15.0299997       1.08707212E-08
   15.0900002       9.91974058E-09
   15.1499996       9.01456687E-09
   15.2100000       8.14287571E-09
   15.2700005       7.28921057E-09
   15.3299999       6.43469411E-09
   15.3900003       5.55846169E-09
   15.4499998       4.64135619E-09
   15.5100002       3.67119291E-09
   15.5699997       2.64785083E-09
   15.6300001       1.58613278E-09
   15.6899996       5.14904730E-10
   15.7500000      -5.27702437E-10
   15.8100004      -1.50178014E-09
   15.8699999      -2.37358089E-09
   15.9300003      -3.12153636E-09
   15.9899998      -3.73874354E-09
   16.0499992      -4.23159063E-09
   16.1100006      -4.61547822E-09
   16.1700001      -4.90935159E-09
   16.2299995      -5.13083709E-09
   16.2900009      -5.29325295E-09
   16.3500004      -5.40498934E-09
   16.4099998      -5.47097434E-09
   16.4699993      -5.49543744E-09
   16.5300007      -5.48488854E-09
   16.5900002      -5.45022960E-09
   16.6499996      -5.40713163E-09
   16.7099991      -5.37427525E-09
   16.7700005      -5.36974021E-09
   16.8299999      -5.40651657E-09
   16.8899994      -5.48857848E-09
   16.9500008      -5.60891733E-09
   17.0100002      -5.75031223E-09
   17.0699997      -5.88868732E-09
   17.1299992      -5.99797856E-09
   17.1900005      -6.05508399E-09
   17.2500000      -6.04365447E-09
   17.3099995      -5.95620220E-09
   17.3700008      -5.79469939E-09
   17.4300003      -5.57021362E-09
   17.4899998      -5.30197175E-09
   17.5499992      -5.01581932E-09
   17.6100006      -4.74173101E-09
   17.6700001      -4.51008253E-09
   17.7299995      -4.34693925E-09
   17.7900009      -4.26921432E-09
   17.8500004      -4.28088764E-09
   17.9099998      -4.37122827E-09
   17.9699993      -4.51525484E-09
   18.0300007      -4.67589167E-09
   18.0900002      -4.80690110E-09
   18.1499996      -4.85588281E-09
   18.2099991      -4.76733408E-09
   18.2700005      -4.48638771E-09
   18.3299999      -3.96397315E-09
   18.3899994      -3.16355075E-09
   18.4500008      -2.06848338E-09
   18.5100002      -6.88100077E-10
   18.5699997       9.39839984E-10
   18.6299992       2.75194667E-09
   18.6900005       4.66747352E-09
   18.7500000       6.60055433E-09
   18.8099995       8.47353565E-09
   18.8700008       1.02280842E-08
   18.9300003       1.18313892E-08
   18.9899998       1.32762485E-08
   19.0499992       1.45755905E-08
   19.1100006       1.57535585E-08
   19.1700001       1.68359211E-08
   19.2299995       1.78424351E-08
   19.2900009       1.87826199E-08
   19.3500004       1.96550545E-08
   19.4099998       2.04490380E-08
   19.4699993       2.11469562E-08
   19.5300007       2.17260023E-08
   19.5900002       2.21587371E-08
   19.6499996       2.24130030E-08
   19.7099991       2.24521663E-08
   19.7700005       2.22366392E-08
   19.8299999       2.17269811E-08
   19.8899994       2.08882085E-08
   19.9500008       1.96945003E-08
   20.0100002       1.81335018E-08
   20.0699997       1.62096736E-08
   20.1299992       1.39463809E-08
   20.1900005       1.13864260E-08
   20.2500000       8.59059845E-09
   20.3099995       5.63381830E-09
   20.3700008       2.59880384E-09
   20.4300003      -4.32016423E-10
   20.4899998      -3.38482331E-09
   20.5499992      -6.20091578E-09
   20.6100006      -8.83969165E-09
   20.6700001      -1.12773941E-08
   20.7299995      -1.35022669E-08
   20.7900009      -1.55079292E-08
   20.8500004      -1.72872046E-08
   20.9099998      -1.88282172E-08
   20.9699993      -2.01136903E-08
   21.0300007      -2.11231317E-08
   21.0900002      -2.18369696E-08
   21.1499996      -2.22413181E-08
   21.2099991      -2.23322800E-08
   21.2700005      -2.21191652E-08
   21.3299999      -2.16262830E-08
   21.3899994      -2.08931930E-08
   21.4500008      -1.99732231E-08
   21.5100002      -1.89300202E-08
   21.5699997      -1.78321127E-08
   21.6299992      -1.67458971E-08
   21.6900005      -1.57281868E-08
   21.7500000      -1.48200101E-08
   21.8099995      -1.40434286E-08
   21.8700008      -1.34024747E-08
   21.9300003      -1.28880222E-08
   21.9899998      -1.24849953E-08
   22.0499992      -1.21794761E-08
   22.1100006      -1.19633450E-08
   22.1700001      -1.18351817E-08
   22.2299995      -1.17977148E-08
   22.2900009      -1.18534196E-08
   22.3500004      -1.20002328E-08
   22.4099998      -1.22289192E-08
   22.4699993      -1.25225288E-08
   22.5300007      -1.28575630E-08
   22.5900002      -1.32061153E-08
   22.6499996      -1.35385116E-08
   22.7099991      -1.38262859E-08
   22.7700005      -1.40453693E-08
   22.8299999      -1.41788972E-08
   22.8899994      -1.42185383E-08
   22.9500008      -1.41632670E-08
   23.0100002      -1.40153791E-08
   23.0699997      -1.37750389E-08
   23.1299992      -1.34359315E-08
   23.1900005      -1.29846294E-08
   23.2500000      -1.24049420E-08
   23.3099995      -1.16859571E-08
   23.3700008      -1.08303544E-08
   23.4300003      -9.85884885E-09
   23.4899998      -8.80808582E-09
   23.5499992      -7.72232056E-09
   23.6100006      -6.64217303E-09
   23.6700001      -5.59520563E-09
   23.7299995      -4.59209826E-09
   23.7900009      -3.62937747E-09
   23.8500004      -2.69646172E-09
   23.9099998      -1.78298987E-09
   23.9699993      -8.82841744E-10
   24.0300007       6.36687231E-12
   24.0900002       8.86701712E-10
   24.1499996       1.76294435E-09
   24.2099991       2.64234901E-09
   24.2700005       3.53039598E-09
   24.3299999       4.42446257E-09
   24.3899994       5.30894440E-09
   24.4500008       6.15502449E-09
   24.5100002       6.92622315E-09
   24.5699997       7.58818786E-09
   24.6299992       8.11919776E-09
   24.6900005       8.51756798E-09
   24.7500000       8.80341577E-09
   24.8099995       9.01445940E-09
   24.8700008       9.19748810E-09
   24.9300003       9.39827594E-09
   24.9899998       9.65264402E-09
   25.0499992       9.98061100E-09
   25.1100006       1.03845172E-08
   25.1700001       1.08510463E-08
   25.2299995       1.13563550E-08
   25.2900009       1.18729231E-08
   25.3500004       1.23762733E-08
   25.4099998       1.28496085E-08
   25.4699993       1.32848665E-08
   25.5300007       1.36799168E-08
   25.5900002       1.40331933E-08
   25.6499996       1.43384389E-08
   25.7099991       1.45825663E-08
   25.7700005       1.47485046E-08
   25.8299999       1.48226809E-08
   25.8899994       1.48043124E-08
   25.9500008       1.47122829E-08
   26.0100002       1.45858365E-08
   26.0699997       1.44776235E-08
   26.1299992       1.44408059E-08
   26.1900005       1.45145869E-08
   26.2500000       1.47134491E-08
   26.3099995       1.50240780E-08
   26.3700008       1.54110165E-08
   26.4300003       1.58289168E-08
   26.4899998       1.62368607E-08
   26.5499992       1.66097838E-08
   26.6100006       1.69433338E-08
   26.6700001       1.72510628E-08
   26.7299995       1.75555055E-08
   26.7900009       1.78767401E-08
   26.8500004       1.82226092E-08
   26.9099998       1.85838935E-08
   26.9699993       1.89357916E-08
   27.0300007       1.92446876E-08
   27.0900002       1.94772021E-08
   27.1499996       1.96079117E-08
   27.2099991       1.96228278E-08
   27.2700005       1.95178806E-08
   27.3299999       1.92939442E-08
   27.3899994       1.89516669E-08
   27.4500008       1.84894535E-08
   27.5100002       1.79064354E-08
   27.5699997       1.72097518E-08
   27.6299992       1.64230709E-08
   27.6900005       1.55922653E-08
   27.7500000       1.47848347E-08
   27.8099995       1.40818885E-08
   27.8700008       1.35643683E-08
   27.9300003       1.32974538E-08
   27.9899998       1.33179450E-08
   28.0499992       1.36286076E-08
   28.1100006       1.42011860E-08
   28.1700001       1.49870498E-08
   28.2299995       1.59319260E-08
   28.2900009       1.69900414E-08
   28.3500004       1.81333046E-08
   28.4099998       1.93531360E-08
   28.4699993       2.06551505E-08
   28.5300007       2.20494201E-08
   28.5900002       2.35403324E-08
   28.6499996       2.51197338E-08
   28.7099991       2.67652975E-08
   28.7700005       2.84436883E-08
   28.8299999       3.01162153E-08
   28.8899994       3.17440971E-08
   28.9500008       3.32912968E-08
   29.0100002       3.47246605E-08
   29.0699997       3.60126435E-08
   29.1299992       3.71245790E-08
   29.1900005       3.80319705E-08
   29.2500000       3.87117289E-08
   29.3099995       3.91498460E-08
   29.3700008       3.93433801E-08
   29.4300003       3.92990920E-08
   29.4899998       3.90288655E-08
   29.5499992       3.85436465E-08
   29.6100006       3.78490697E-08
   29.6700001       3.69454298E-08
   29.7299995       3.58331604E-08
   29.7900009       3.45222482E-08
   29.8500004       3.30418466E-08
   29.9099998       3.14453992E-08
   29.9699993       2.98077296E-08
   30.0300007       2.82136199E-08
   30.0900002       2.67409046E-08
   30.1499996       2.54438994E-08
   30.2099991       2.43434908E-08
   30.2700005       2.34278961E-08
   30.3299999       2.26640910E-08
   30.3899994       2.20154330E-08
   30.4500008       2.14584368E-08
   30.5100002       2.09918518E-08
   30.5699997       2.06344772E-08
   30.6299992       2.04128998E-08
   30.6900005       2.03446842E-08
   30.7500000       2.04245545E-08
   30.8099995       2.06197903E-08
   30.8700008       2.08772022E-08
   30.9300003       2.11390283E-08
   30.9899998       2.13614246E-08
   31.0499992       2.15280966E-08
   31.1100006       2.16537508E-08
   31.1700001       2.17762413E-08
   31.2299995       2.19408847E-08
   31.2900009       2.21832792E-08
   31.3500004       2.25171775E-08
   31.4099998       2.29313954E-08
   31.4699993       2.33958932E-08
   31.5300007       2.38736142E-08
   31.5900002       2.43329445E-08
   31.6499996       2.47562326E-08
   31.7099991       2.51420023E-08
   31.7700005       2.55012544E-08
   31.8299999       2.58500990E-08
   31.8899994       2.62015227E-08
   31.9500008       2.65586166E-08
   32.0099983       2.69105911E-08
   32.0699997       2.72321614E-08
   32.1300011       2.74865570E-08
   32.1899986       2.76319554E-08
   32.2500000       2.76305769E-08
   32.3100014       2.74583982E-08
   32.3699989       2.71125362E-08
   32.4300003       2.66131828E-08
   32.4900017       2.59983697E-08
   32.5499992       2.53123922E-08
   32.6100006       2.45915359E-08
   32.6699982       2.38522713E-08
   32.7299995       2.30864821E-08
   32.7900009       2.22656471E-08
   32.8499985       2.13522107E-08
   32.9099998       2.03136779E-08
   32.9700012       1.91340206E-08
   33.0299988       1.78186141E-08
   33.0900002       1.63917715E-08
   33.1500015       1.48889194E-08
   33.2099991       1.33470621E-08
   33.2700005       1.17971384E-08
   33.3300018       1.02604618E-08
   33.3899994       8.74958594E-09
   33.4500008       7.27255278E-09
   33.5099983       5.83870419E-09
   33.5699997       4.46418369E-09
   33.6300011       3.17547721E-09
   33.6899986       2.00981387E-09
   33.7500000       1.01194464E-09
   33.8100014       2.27855901E-10
   33.8699989      -3.02873365E-10
   33.9300003      -5.53557478E-10
   33.9900017      -5.13356468E-10
   34.0499992      -1.85576943E-10
   34.1100006       4.17723522E-10
   34.1699982       1.28204036E-09
   34.2299995       2.39420728E-09
   34.2900009       3.74134679E-09
   34.3499985       5.30518163E-09
   34.4099998       7.05457870E-09
   34.4700012       8.94063579E-09
   34.5299988       1.08978755E-08
   34.5900002       1.28524684E-08
   34.6500015       1.47348951E-08
   34.7099991       1.64920486E-08
   34.7700005       1.80936404E-08
   34.8300018       1.95301606E-08
   34.8899994       2.08035456E-08
   34.9500008       2.19151310E-08
   35.0099983       2.28567618E-08
   35.0699997       2.36093278E-08
   35.1300011       2.41491644E-08
   35.1899986       2.44587515E-08
   35.2500000       2.45359040E-08
   35.3100014       2.43964013E-08
   35.3699989       2.40683544E-08
   35.4300003       2.35811157E-08
   35.4900017       2.29543371E-08
   35.5499992       2.21930403E-08
   35.6100006       2.12915321E-08
   35.6699982       2.02446540E-08
   35.7299995       1.90610940E-08
   35.7900009       1.77724058E-08
   35.8499985       1.64333560E-08
   35.9099998       1.51132920E-08
   35.9700012       1.38822376E-08
   36.0299988       1.27974920E-08
   36.0900002       1.18958896E-08
   36.1500015       1.11937917E-08
   36.2099991       1.06932898E-08
   36.2700005       1.03905364E-08
   36.3300018       1.02817639E-08
   36.3899994       1.03643778E-08
   36.4500008       1.06333911E-08
   36.5099983       1.10759197E-08
   36.5699997       1.16673453E-08
   36.6300011       1.23717623E-08
   36.6899986       1.31470790E-08
   36.7500000       1.39527812E-08
   36.8100014       1.47571155E-08
   36.8699989       1.55407012E-08
   36.9300003       1.62952887E-08
   36.9900017       1.70185057E-08
   37.0499992       1.77070785E-08
   37.1100006       1.83514537E-08
   37.1699982       1.89339211E-08
   37.2299995       1.94307326E-08
   37.2900009       1.98171417E-08
   37.3499985       2.00733066E-08
   37.4099998       2.01889758E-08
   37.4700012       2.01655350E-08
   37.5299988       2.00150865E-08
   37.5900002       1.97572447E-08
   37.6500015       1.94149745E-08
   37.7099991       1.90109191E-08
   37.7700005       1.85652649E-08
   37.8300018       1.80952462E-08
   37.8899994       1.76155979E-08
   37.9500008       1.71386354E-08
   38.0099983       1.66729208E-08
   38.0699997       1.62204401E-08
   38.1300011       1.57736473E-08
   38.1899986       1.53145372E-08
   38.2500000       1.48177222E-08
   38.3100014       1.42576750E-08
   38.3699989       1.36180516E-08
   38.4300003       1.28990072E-08
   38.4900017       1.21185284E-08
   38.5499992       1.13058505E-08
   38.6100006       1.04887299E-08
   38.6699982       9.67956204E-09
   38.7299995       8.86651375E-09
   38.7900009       8.01397704E-09
   38.8499985       7.07252301E-09
   38.9099998       5.99406480E-09
   38.9700012       4.74548134E-09
   39.0299988       3.31472916E-09
   39.0900002       1.70736636E-09
   39.1500015      -6.37915762E-11
   39.2099991      -1.98969974E-09
   39.2700005      -4.07049727E-09
   39.3300018      -6.31216013E-09
   39.3899994      -8.71611672E-09
   39.4500008      -1.12675336E-08
   39.5099983      -1.39289966E-08
   39.5699997      -1.66438650E-08
   39.6300011      -1.93487928E-08
   39.6899986      -2.19903473E-08
   39.7500000      -2.45384548E-08
   39.8100014      -2.69906941E-08
   39.8699989      -2.93655251E-08
   39.9300003      -3.16874633E-08
   39.9900017      -3.39706219E-08
   40.0499992      -3.62075916E-08
   40.1100006      -3.83680465E-08
   40.1699982      -4.04072971E-08
   40.2299995      -4.22809272E-08
   40.2900009      -4.39593535E-08
   40.3499985      -4.54367211E-08
   40.4099998      -4.67309604E-08
   40.4700012      -4.78757087E-08
   40.5299988      -4.89078715E-08
   40.5900002      -4.98560233E-08
   40.6500015      -5.07341582E-08
   40.7099991      -5.15426777E-08
   40.7700005      -5.22754213E-08
   40.8300018      -5.29288009E-08
   40.8899994      -5.35085007E-08
   40.9500008      -5.40302025E-08
   41.0099983      -5.45138761E-08
   41.0699997      -5.49739099E-08
   41.1300011      -5.54096466E-08
   41.1899986      -5.58008217E-08
   41.2500000      -5.61104478E-08
   41.3100014      -5.62946099E-08
   41.3699989      -5.63156313E-08
   41.4300003      -5.61536950E-08
   41.4900017      -5.58125137E-08
   41.5499992      -5.53173720E-08
   41.6100006      -5.47068524E-08
   41.6699982      -5.40219744E-08
   41.7299995      -5.32972777E-08
   41.7900009      -5.25567110E-08
   41.8499985      -5.18147658E-08
   41.9099998      -5.10806153E-08
   41.9700012      -5.03620541E-08
   42.0299988      -4.96668697E-08
   42.0900002      -4.90013115E-08
   42.1500015      -4.83676814E-08
   42.2099991      -4.77636881E-08
   42.2700005      -4.71851997E-08
   42.3300018      -4.66317118E-08
   42.3899994      -4.61115270E-08
   42.4500008      -4.56432758E-08
   42.5099983      -4.52519302E-08
   42.5699997      -4.49604087E-08
   42.6300011      -4.47805348E-08
   42.6899986      -4.47076651E-08
   42.7500000      -4.47217730E-08
   42.8100014      -4.47943904E-08
   42.8699989      -4.48980124E-08
   42.9300003      -4.50133797E-08
   42.9900017      -4.51314826E-08
   43.0499992      -4.52498767E-08
   43.1100006      -4.53658053E-08
   43.1699982      -4.54697364E-08
   43.2299995      -4.55423823E-08
   43.2900009      -4.55561704E-08
   43.3499985      -4.54801423E-08
   43.4099998      -4.52861890E-08
   43.4700012      -4.49543940E-08
   43.5299988      -4.44763195E-08
   43.5900002      -4.38558097E-08
   43.6500015      -4.31074803E-08
   43.7099991      -4.22533546E-08
   43.7700005      -4.13184651E-08
   43.8300018      -4.03265830E-08
   43.8899994      -3.92975466E-08
   43.9500008      -3.82474674E-08
   44.0099983      -3.71917430E-08
   44.0699997      -3.61494692E-08
   44.1300011      -3.51465061E-08
   44.1899986      -3.42145867E-08
   44.2500000      -3.33855290E-08
   44.3100014      -3.26823013E-08
   44.3699989      -3.21107514E-08
   44.4300003      -3.16561852E-08
   44.4900017      -3.12872075E-08
   44.5499992      -3.09658077E-08
   44.6100006      -3.06594394E-08
   44.6699982      -3.03497885E-08
   44.7299995      -3.00342649E-08
   44.7900009      -2.97198568E-08
   44.8499985      -2.94129219E-08
   44.9099998      -2.91105131E-08
   44.9700012      -2.87981390E-08
   45.0299988      -2.84554176E-08
   45.0900002      -2.80668111E-08
   45.1500015      -2.76316694E-08
   45.2099991      -2.71676406E-08
   45.2700005      -2.67047771E-08
   45.3300018      -2.62721986E-08
   45.3899994      -2.58834252E-08
   45.4500008      -2.55277026E-08
   45.5099983      -2.51723193E-08
   45.5699997      -2.47759377E-08
   45.6300011      -2.43075604E-08
   45.6899986      -2.37627589E-08
   45.7500000      -2.31695694E-08
   45.8100014      -2.25810712E-08
   45.8699989      -2.20575505E-08
   45.9300003      -2.16460361E-08
   45.9900017      -2.13659224E-08
   46.0499992      -2.12064641E-08
   46.1100006      -2.11362483E-08
   46.1699982      -2.11194653E-08
   46.2299995      -2.11311857E-08
   46.2900009      -2.11651976E-08
   46.3499985      -2.12320739E-08
   46.4099998      -2.13498357E-08
   46.4700012      -2.15324398E-08
   46.5299988      -2.17812968E-08
   46.5900002      -2.20825545E-08
   46.6500015      -2.24098606E-08
   46.7099991      -2.27302337E-08
   46.7700005      -2.30103954E-08
   46.8300018      -2.32218991E-08
   46.8899994      -2.33446897E-08
   46.9500008      -2.33691750E-08
   47.0099983      -2.32967086E-08
   47.0699997      -2.31380106E-08
   47.1300011      -2.29093384E-08
   47.1899986      -2.26271606E-08
   47.2500000      -2.23034231E-08
   47.3100014      -2.19436682E-08
   47.3699989      -2.15494058E-08
   47.4300003      -2.11239133E-08
   47.4900017      -2.06786339E-08
   47.5499992      -2.02365502E-08
   47.6100006      -1.98300842E-08
   47.6699982      -1.94937382E-08
   47.7299995      -1.92543936E-08
   47.7900009      -1.91236236E-08
   47.8499985      -1.90956566E-08
   47.9099998      -1.91520968E-08
   47.9700012      -1.92714555E-08
   48.0299988      -1.94392982E-08
   48.0900002      -1.96546743E-08
   48.1500015      -1.99300825E-08
   48.2099991      -2.02851442E-08
   48.2700005      -2.07368380E-08
   48.3300018      -2.12904361E-08
   48.3899994      -2.19348379E-08
   48.4500008      -2.26439187E-08
   48.5099983      -2.33828636E-08
   48.5699997      -2.41164351E-08
   48.6300011      -2.48153782E-08
   48.6899986      -2.54583519E-08
   48.7500000      -2.60287756E-08
   48.8100014      -2.65083155E-08
   48.8699989      -2.68699427E-08
   48.9300003      -2.70733267E-08
   48.9900017      -2.70638196E-08
   49.0499992      -2.67742948E-08
   49.1100006      -2.61277702E-08
   49.1699982      -2.50384957E-08
   49.2299995      -2.34101538E-08
   49.2900009      -2.11312674E-08
   49.3499985      -1.80690591E-08
   49.4099998      -1.40631276E-08
   49.4700012      -8.91967211E-09
   49.5299988      -2.40598497E-09
   49.5900002       5.75587400E-09
   49.6500015       1.58972924E-08
   49.7099991       2.84135844E-08
   49.7700005       4.37763781E-08
   49.8300018       6.25468175E-08
   49.8899994       8.53887201E-08
   49.9500008       1.13081178E-07
   50.0099983       1.46531335E-07
   50.0699997       1.86789023E-07
   50.1300011       2.35065556E-07
   50.1899986       2.92759296E-07
   50.2500000       3.61488958E-07
   50.3100014       4.43134383E-07
   50.3699989       5.39882194E-07
   50.4300003       6.54272071E-07
   50.4900017       7.89240971E-07
   50.5499992       9.48163915E-07
   50.6100006       1.13489500E-06