 -0.750000000       0.00000000    
 -0.689999998       0.00000000    
 -0.629999995       0.00000000    
 -0.569999993       0.00000000    
 -0.509999990       0.00000000    
 -0.449999988       0.00000000    
 -0.389999986       0.00000000    
 -0.330000013       0.00000000    
 -0.270000011      -1.17125371E-25
 -0.209999993      -1.71124401E-24
 -0.150000006      -1.19060102E-23
  -9.00000036E-02  -5.15064230E-23
  -2.99999993E-02  -1.48523412E-22
   2.99999993E-02  -2.65070391E-22
   9.00000036E-02  -1.05951100E-22
  0.150000006       1.08863461E-21
  0.209999993       4.29573471E-21
  0.270000011       9.23777617E-21
  0.330000013       1.14737100E-20
  0.389999986       3.41592486E-23
  0.449999988      -3.92400815E-20
  0.509999990      -1.08774664E-19
  0.569999993      -1.73850591E-19
  0.629999995      -1.44394457E-19
  0.689999998       1.00931939E-19
  0.750000000       6.16781640E-19
  0.810000002       1.23505820E-18
  0.870000005       1.45445804E-18
  0.930000007       5.53524761E-19
  0.990000010      -1.93275941E-18
   1.04999995      -5.46064729E-18
   1.11000001      -7.90926858E-18
   1.16999996      -5.93464329E-18
   1.23000002       3.19035621E-18
   1.28999996       1.85501076E-17
   1.35000002       3.30106706E-17
   1.40999997       3.37175295E-17
   1.47000003       7.78458930E-18
   1.52999997      -4.73900740E-17
   1.59000003      -1.13929796E-16
   1.64999998      -1.51458544E-16
   1.71000004      -1.10511641E-16
   1.76999998       3.82400733E-17
   1.83000004       2.69998316E-16
   1.88999999       4.88231326E-16
   1.95000005       5.45280371E-16
   2.00999999       3.08691893E-16
   2.06999993      -2.46179750E-16
   2.13000011      -9.64069078E-16
   2.19000006      -1.51435070E-15
   2.25000000      -1.50552271E-15
   2.30999994      -6.88655891E-16
   2.36999989       8.35135099E-16
   2.43000007       2.52554880E-15
   2.49000001       3.53225995E-15
   2.54999995       3.05193277E-15
   2.60999990       7.94182750E-16
   2.67000008      -2.66649021E-15
   2.73000002      -5.88797843E-15
   2.78999996      -7.02761002E-15
   2.84999990      -4.68431158E-15
   2.91000009       1.20630176E-15
   2.97000003       8.86916849E-15
   3.02999997       1.49537145E-14
   3.08999991       1.56637432E-14
   3.15000010       8.46193453E-15
   3.21000004      -6.28827689E-15
   3.26999998      -2.45147141E-14
   3.32999992      -3.90577565E-14
   3.39000010      -4.18484996E-14
   3.45000005      -2.71509957E-14
   3.50999999       5.18611846E-15
   3.56999993       4.78078440E-14
   3.63000011       8.64489212E-14
   3.69000006       1.03598316E-13
   3.75000000       8.47411537E-14
   3.80999994       2.54825017E-14
   3.86999989      -6.31186997E-14
   3.93000007      -1.53932937E-13
   3.99000001      -2.09880914E-13
   4.05000019      -1.96608463E-13
   4.11000013      -9.84574970E-14
   4.17000008       6.83609663E-14
   4.23000002       2.52536951E-13
   4.28999996       3.79445390E-13
   4.34999990       3.77555056E-13
   4.40999985       2.11722106E-13
   4.46999979      -9.04458800E-14
   4.53000021      -4.34031744E-13
   4.59000015      -6.82616019E-13
   4.65000010      -7.10189448E-13
   4.71000004      -4.60407699E-13
   4.76999998       1.43991671E-14
   4.82999992       5.58668942E-13
   4.88999987       9.70412119E-13
   4.94999981       1.09070251E-12
   5.01000023       8.85173174E-13
   5.07000017       4.71657869E-13
   5.13000011       6.71456773E-14
   5.19000006      -1.33779245E-13
   5.25000000      -9.44624085E-14
   5.30999994      -8.23716841E-15
   5.36999989      -2.44178213E-13
   5.42999983      -1.15757230E-12
   5.48999977      -2.82997974E-12
   5.55000019      -4.86267797E-12
   5.61000013      -6.35599993E-12
   5.67000008      -6.14869050E-12
   5.73000002      -3.28027427E-12
   5.78999996       2.47997608E-12
   5.84999990       1.02639720E-11
   5.90999985       1.80991853E-11
   5.96999979       2.33484534E-11
   6.03000021       2.34984879E-11
   6.09000015       1.70395018E-11
   6.15000010       4.11149456E-12
   6.21000004      -1.33395447E-11
   6.26999998      -3.19692120E-11
   6.32999992      -4.78566492E-11
   6.38999987      -5.74293738E-11
   6.44999981      -5.81568023E-11
   6.51000023      -4.88118330E-11
   6.57000017      -2.93294694E-11
   6.63000011      -5.04707224E-13
   6.69000006       3.61452882E-11
   6.75000000       7.81341589E-11
   6.80999994       1.21412061E-10
   6.86999989       1.59754265E-10
   6.92999983       1.84636959E-10
   6.98999977       1.86045457E-10
   7.05000019       1.54351767E-10
   7.11000013       8.29465177E-11
   7.17000008      -2.90972055E-11
   7.23000002      -1.75220768E-10
   7.28999996      -3.41155521E-10
   7.34999990      -5.06512665E-10
   7.40999985      -6.47809972E-10
   7.46999979      -7.42062467E-10
   7.53000021      -7.69900033E-10
   7.59000015      -7.17420123E-10
   7.65000010      -5.76543258E-10
   7.71000004      -3.44262951E-10
   7.76999998      -2.16051170E-11
   7.82999992       3.86883053E-10
   7.88999987       8.72697359E-10
   7.94999981       1.42222634E-09
   8.01000023       2.01569472E-09
   8.06999969       2.62722888E-09
   8.13000011       3.22678084E-09
   8.18999958       3.78394560E-09
   8.25000000       4.27285096E-09
   8.31000042       4.67671057E-09
   8.36999989       4.99054664E-09
   8.43000031       5.22114219E-09
   8.48999977       5.38423306E-09
   8.55000019       5.49995072E-09
   8.60999966       5.58810687E-09
   8.67000008       5.66487390E-09
   8.72999954       5.74169956E-09
   8.78999996       5.82627679E-09
   8.85000038       5.92446936E-09
   8.90999985       6.04174666E-09
   8.97000027       6.18298657E-09
   9.02999973       6.35043440E-09
   9.09000015       6.54062715E-09
   9.14999962       6.74182576E-09
   9.21000004       6.93349378E-09
   9.27000046       7.08866565E-09
   9.32999992       7.17889126E-09
   9.39000034       7.18031101E-09
   9.44999981       7.07885128E-09
   9.51000023       6.87271795E-09
   9.56999969       6.57135235E-09
   9.63000011       6.19129770E-09
   9.68999958       5.75060310E-09
   9.75000000       5.26387289E-09
   9.81000042       4.73973394E-09
   9.86999989       4.18144053E-09
   9.93000031       3.58999608E-09
   9.98999977       2.96815195E-09
   10.0500002       2.32330843E-09
   10.1099997       1.66792580E-09
   10.1700001       1.01722208E-09
   10.2299995       3.85244642E-10
   10.2900000      -2.18767726E-10
   10.3500004      -7.91846311E-10
   10.4099998      -1.33559330E-09
   10.4700003      -1.85175941E-09
   10.5299997      -2.33685160E-09
   10.5900002      -2.77814793E-09
   10.6499996      -3.15312065E-09
   10.7100000      -3.43300033E-09
   10.7700005      -3.58955887E-09
   10.8299999      -3.60282537E-09
   10.8900003      -3.46695628E-09
   10.9499998      -3.19210525E-09
   11.0100002      -2.80161094E-09
   11.0699997      -2.32560726E-09
   11.1300001      -1.79349358E-09
   11.1899996      -1.22805432E-09
   11.2500000      -6.43217035E-10
   11.3100004      -4.58398181E-11
   11.3699999       5.59824964E-10
   11.4300003       1.16745835E-09
   11.4899998       1.76625703E-09
   11.5500002       2.34209896E-09
   11.6099997       2.88185253E-09
   11.6700001       3.37879658E-09
   11.7299995       3.83644405E-09
   11.7900000       4.26867297E-09
   11.8500004       4.69569184E-09
   11.9099998       5.13729015E-09
   11.9700003       5.60614444E-09
   12.0299997       6.10404838E-09
   12.0900002       6.62271660E-09
   12.1499996       7.14885040E-09
   12.2100000       7.67130359E-09
   12.2700005       8.18726331E-09
   12.3299999       8.70474715E-09
   12.3900003       9.24022991E-09
   12.4499998       9.81217863E-09
   12.5100002       1.04328528E-08
   12.5699997       1.11013847E-08
   12.6300001       1.18006485E-08
   12.6899996       1.24990098E-08
   12.7500000       1.31563906E-08
   12.8100004       1.37326790E-08
   12.8699999       1.41959200E-08
   12.9300003       1.45280366E-08
   12.9899998       1.47268562E-08
   13.0500002       1.48045691E-08
   13.1099997       1.47838675E-08
   13.1700001       1.46934864E-08
   13.2299995       1.45646677E-08
   13.2900000       1.44292134E-08
   13.3500004       1.43188226E-08
   13.4099998       1.42646934E-08
   13.4700003       1.42962859E-08
   13.5299997       1.44386565E-08
   13.5900002       1.47086983E-08
   13.6499996       1.51114374E-08
   13.7100000       1.56378892E-08
   13.7700005       1.62656928E-08
   13.8299999       1.69628063E-08
   13.8900003       1.76934059E-08
   13.9499998       1.84242239E-08
   14.0100002       1.91291605E-08
   14.0699997       1.97905532E-08
   14.1300001       2.03965858E-08
   14.1899996       2.09358557E-08
   14.2500000       2.13913509E-08
   14.3100004       2.17365486E-08
   14.3699999       2.19358647E-08
   14.4300003       2.19500880E-08
   14.4899998       2.17455334E-08
   14.5500002       2.13039755E-08
   14.6099997       2.06297930E-08
   14.6700001       1.97514414E-08
   14.7299995       1.87162890E-08
   14.7900000       1.75802306E-08
   14.8500004       1.63954006E-08
   14.9099998       1.52000634E-08
   14.9700003       1.40138416E-08
   15.0299997       1.28394255E-08
   15.0900002       1.16693739E-08
   15.1499996       1.04948281E-08
   15.2100000       9.31247790E-09
   15.2700005       8.12721002E-09
   15.3299999       6.94998015E-09
   15.3900003       5.79262061E-09
   15.4499998       4.66250860E-09
   15.5100002       3.55988972E-09
   15.5699997       2.47917420E-09
   15.6300001       1.41356815E-09
   15.6899996       3.60899893E-10
   15.7500000      -6.71902423E-10
   15.8100004      -1.66744651E-09
   15.8699999      -2.59991384E-09
   15.9300003      -3.43941142E-09
   15.9899998      -4.15685575E-09
   16.0499992      -4.72780792E-09
   16.1100006      -5.13445908E-09
   16.1700001      -5.36586420E-09
   16.2299995      -5.41712275E-09
   16.2900009      -5.28834221E-09
   16.3500004      -4.98403763E-09
   16.4099998      -4.51323379E-09
   16.4699993      -3.89016153E-09
   16.5300007      -3.13509085E-09
   16.5900002      -2.27459385E-09
   16.6499996      -1.34053690E-09
   16.7099991      -3.67421205E-10
   16.7700005       6.11627915E-10
   16.8299999       1.56913682E-09
   16.8899994       2.48628940E-09
   16.9500008       3.35335981E-09
   17.0100002       4.16722790E-09
   17.0699997       4.92692420E-09
   17.1299992       5.62908253E-09
   17.1900005       6.26521146E-09
   17.2500000       6.82175827E-09
   17.3099995       7.28250926E-09
   17.3700008       7.63179386E-09
   17.4300003       7.85679166E-09
   17.4899998       7.94810529E-09
   17.5499992       7.89901122E-09
   17.6100006       7.70478081E-09
   17.6700001       7.36340189E-09
   17.7299995       6.87815982E-09
   17.7900009       6.26129237E-09
   17.8500004       5.53704993E-09
   17.9099998       4.74256989E-09
   17.9699993       3.92583610E-09
   18.0300007       3.14116777E-09
   18.0900002       2.44362464E-09
   18.1499996       1.88384863E-09
   18.2099991       1.50438106E-09
   18.2700005       1.33757361E-09
   18.3299999       1.40443146E-09
   18.3899994       1.71336922E-09
   18.4500008       2.25814034E-09
   18.5100002       3.01497827E-09
   18.5699997       3.93999811E-09
   18.6299992       4.96868280E-09
   18.6900005       6.01937034E-09
   18.7500000       7.00178049E-09
   18.8099995       7.82984788E-09
   18.8700008       8.43613446E-09
   18.9300003       8.78367512E-09
   18.9899998       8.87135787E-09
   19.0499992       8.73078765E-09
   19.1100006       8.41571612E-09
   19.1700001       7.98788857E-09
   19.2299995       7.50438911E-09
   19.2900009       7.01038960E-09
   19.3500004       6.53829701E-09
   19.4099998       6.11106543E-09
   19.4699993       5.74562753E-09
   19.5300007       5.45301759E-09
   19.5900002       5.23434718E-09
   19.6499996       5.07488718E-09
   19.7099991       4.94034635E-09
   19.7700005       4.77890483E-09
   19.8299999       4.52996796E-09
   19.8899994       4.13735846E-09
   19.9500008       3.56244345E-09
   20.0100002       2.79258572E-09
   20.0699997       1.84226612E-09
   20.1299992       7.47132911E-10
   20.1900005      -4.46284232E-10
   20.2500000      -1.69138681E-09
   20.3099995      -2.94955971E-09
   20.3700008      -4.19375912E-09
   20.4300003      -5.40773160E-09
   20.4899998      -6.58234001E-09
   20.5499992      -7.71108333E-09
   20.6100006      -8.78677220E-09
   20.6700001      -9.80056836E-09
   20.7299995      -1.07435438E-08
   20.7900009      -1.16097887E-08
   20.8500004      -1.23993598E-08
   20.9099998      -1.31193350E-08
   20.9699993      -1.37820590E-08
   21.0300007      -1.44009897E-08
   21.0900002      -1.49857815E-08
   21.1499996      -1.55387401E-08
   21.2099991      -1.60542157E-08
   21.2700005      -1.65211453E-08
   21.3299999      -1.69275385E-08
   21.3899994      -1.72649255E-08
   21.4500008      -1.75309900E-08
   21.5100002      -1.77295441E-08
   21.5699997      -1.78682580E-08
   21.6299992      -1.79552746E-08
   21.6900005      -1.79960900E-08
   21.7500000      -1.79917414E-08
   21.8099995      -1.79387865E-08
   21.8700008      -1.78311605E-08
   21.9300003      -1.76635098E-08
   21.9899998      -1.74352301E-08
   22.0499992      -1.71540897E-08
   22.1100006      -1.68379906E-08
   22.1700001      -1.65137060E-08
   22.2299995      -1.62121054E-08
   22.2900009      -1.59605982E-08
   22.3500004      -1.57746065E-08
   22.4099998      -1.56506328E-08
   22.4699993      -1.55633693E-08
   22.5300007      -1.54682951E-08
   22.5900002      -1.53097659E-08
   22.6499996      -1.50328958E-08
   22.7099991      -1.45962478E-08
   22.7700005      -1.39817402E-08
   22.8299999      -1.31987115E-08
   22.8899994      -1.22807293E-08
   22.9500008      -1.12759491E-08
   23.0100002      -1.02341149E-08
   23.0699997      -9.19453402E-09
   23.1299992      -8.17889578E-09
   23.1900005      -7.19078130E-09
   23.2500000      -6.22089624E-09
   23.3099995      -5.25471888E-09
   23.3700008      -4.27869917E-09
   23.4300003      -3.28248828E-09
   23.4899998      -2.25725483E-09
   23.5499992      -1.19255816E-09
   23.6100006      -7.50464135E-11
   23.6700001       1.10885201E-09
   23.7299995       2.36662401E-09
   23.7900009       3.69258180E-09
   23.8500004       5.06389330E-09
   23.9099998       6.44269171E-09
   23.9699993       7.78465470E-09
   24.0300007       9.05152309E-09
   24.0900002       1.02230180E-08
   24.1499996       1.13035252E-08
   24.2099991       1.23206849E-08
   24.2700005       1.33159954E-08
   24.3299999       1.43305954E-08
   24.3899994       1.53912474E-08
   24.4500008       1.65016285E-08
   24.5100002       1.76421366E-08
   24.5699997       1.87782199E-08
   24.6299992       1.98739034E-08
   24.6900005       2.09049791E-08
   24.7500000       2.18663008E-08
   24.8099995       2.27699104E-08
   24.8700008       2.36345912E-08
   24.9300003       2.44712570E-08
   24.9899998       2.52708698E-08
   25.0499992       2.60009365E-08
   25.1100006       2.66133835E-08
   25.1700001       2.70617360E-08
   25.2299995       2.73212066E-08
   25.2900009       2.74032850E-08
   25.3500004       2.73579328E-08
   25.4099998       2.72610681E-08
   25.4699993       2.71909322E-08
   25.5300007       2.72019047E-08
   25.5900002       2.73059761E-08
   25.6499996       2.74696710E-08
   25.7099991       2.76282250E-08
   25.7700005       2.77120176E-08
   25.8299999       2.76750090E-08
   25.8899994       2.75140710E-08
   25.9500008       2.72716800E-08
   26.0100002       2.70212261E-08
   26.0699997       2.68410822E-08
   26.1299992       2.67876121E-08
   26.1900005       2.68769593E-08
   26.2500000       2.70811658E-08
   26.3099995       2.73382348E-08
   26.3700008       2.75708505E-08
   26.4300003       2.77065748E-08
   26.4899998       2.76934848E-08
   26.5499992       2.75082819E-08
   26.6100006       2.71568634E-08
   26.6700001       2.66691238E-08
   26.7299995       2.60900581E-08
   26.7900009       2.54689052E-08
   26.8500004       2.48480241E-08
   26.9099998       2.42535716E-08
   26.9699993       2.36905322E-08
   27.0300007       2.31441959E-08
   27.0900002       2.25885177E-08
   27.1499996       2.19992380E-08
   27.2099991       2.13673363E-08
   27.2700005       2.07076241E-08
   27.3299999       2.00587014E-08
   27.3899994       1.94735197E-08
   27.4500008       1.90035134E-08
   27.5100002       1.86816926E-08
   27.5699997       1.85107751E-08
   27.6299992       1.84606073E-08
   27.6900005       1.84759088E-08
   27.7500000       1.84918090E-08
   27.8099995       1.84519902E-08
   27.8700008       1.83234796E-08
   27.9300003       1.81033375E-08
   27.9899998       1.78153652E-08
   28.0499992       1.74983690E-08
   28.1100006       1.71903949E-08
   28.1700001       1.69147576E-08
   28.2299995       1.66730310E-08
   28.2900009       1.64477552E-08
   28.3500004       1.62141696E-08
   28.4099998       1.59569193E-08
   28.4699993       1.56854121E-08
   28.5300007       1.54414792E-08
   28.5900002       1.52950470E-08
   28.6499996       1.53276041E-08
   28.7099991       1.56079984E-08
   28.7700005       1.61686966E-08
   28.8299999       1.69915602E-08
   28.8899994       1.80095547E-08
   28.9500008       1.91250784E-08
   29.0100002       2.02390051E-08
   29.0699997       2.12798188E-08
   29.1299992       2.22218191E-08
   29.1900005       2.30856259E-08
   29.2500000       2.39215385E-08
   29.3099995       2.47832563E-08
   29.3700008       2.57028994E-08
   29.4300003       2.66767408E-08
   29.4899998       2.76655143E-08
   29.5499992       2.86067152E-08
   29.6100006       2.94319094E-08
   29.6700001       3.00817788E-08
   29.7299995       3.05145420E-08
   29.7900009       3.07077990E-08
   29.8500004       3.06566896E-08
   29.9099998       3.03717478E-08
   29.9699993       2.98778353E-08
   30.0300007       2.92133269E-08
   30.0900002       2.84273600E-08
   30.1499996       2.75737371E-08
   30.2099991       2.67021889E-08
   30.2700005       2.58496602E-08
   30.3299999       2.50350425E-08
   30.3899994       2.42594478E-08
   30.4500008       2.35117739E-08
   30.5100002       2.27767512E-08
   30.5699997       2.20416077E-08
   30.6299992       2.12981739E-08
   30.6900005       2.05397708E-08
   30.7500000       1.97550438E-08
   30.8099995       1.89230249E-08
   30.8700008       1.80135729E-08
   30.9300003       1.69951058E-08
   30.9899998       1.58478439E-08
   31.0499992       1.45774681E-08
   31.1100006       1.32228166E-08
   31.1700001       1.18529009E-08
   31.2299995       1.05527045E-08
   31.2900009       9.40200273E-09
   31.3500004       8.45476134E-09
   31.4099998       7.72680142E-09
   31.4699993       7.19624182E-09
   31.5300007       6.81627332E-09
   31.5900002       6.53502985E-09
   31.6499996       6.31492680E-09
   31.7099991       6.14448092E-09
   31.7700005       6.03880945E-09
   31.8299999       6.02932904E-09
   31.8899994       6.14692164E-09
   31.9500008       6.40481979E-09
   32.0099983       6.78727874E-09
   32.0699997       7.24795646E-09
   32.1300011       7.71859554E-09
   32.1899986       8.12508194E-09
   32.2500000       8.40546388E-09
   32.3100014       8.52384474E-09
   32.3699989       8.47565484E-09
   32.4300003       8.28314128E-09
   32.4900017       7.98362532E-09
   32.5499992       7.61570806E-09
   32.6100006       7.20880688E-09
   32.6699982       6.77926915E-09
   32.7299995       6.33286978E-09
   32.7900009       5.87053606E-09
   32.8499985       5.39309131E-09
   32.9099998       4.90207475E-09
   32.9700012       4.39641878E-09
   33.0299988       3.86737797E-09
   33.0900002       3.29524097E-09
   33.1500015       2.65044831E-09
   33.2099991       1.89948546E-09
   33.2700005       1.01345576E-09
   33.3300018      -2.40846197E-11
   33.3899994      -1.21312393E-09
   33.4500008      -2.53836108E-09
   33.5099983      -3.97453626E-09
   33.5699997      -5.49312773E-09
   33.6300011      -7.06713843E-09
   33.6899986      -8.67173711E-09
   33.7500000      -1.02806679E-08
   33.8100014      -1.18606520E-08
   33.8699989      -1.33672620E-08
   33.9300003      -1.47453951E-08
   33.9900017      -1.59352815E-08
   34.0499992      -1.68821401E-08
   34.1100006      -1.75454815E-08
   34.1699982      -1.79039805E-08
   34.2299995      -1.79541004E-08
   34.2900009      -1.77041102E-08
   34.3499985      -1.71678387E-08
   34.4099998      -1.63628595E-08
   34.4700012      -1.53150328E-08
   34.5299988      -1.40671306E-08
   34.5900002      -1.26856730E-08
   34.6500015      -1.12597380E-08
   34.7099991      -9.88863125E-09
   34.7700005      -8.66092176E-09
   34.8300018      -7.63229302E-09
   34.8899994      -6.81146606E-09
   34.9500008      -6.16082918E-09
   35.0099983      -5.61248692E-09
   35.0699997      -5.09394971E-09
   35.1300011      -4.55363480E-09
   35.1899986      -3.97648403E-09
   35.2500000      -3.38424511E-09
   35.3100014      -2.82124235E-09
   35.3699989      -2.33220310E-09
   35.4300003      -1.94148519E-09
   35.4900017      -1.64199077E-09
   35.5499992      -1.39773326E-09
   35.6100006      -1.15827314E-09
   35.6699982      -8.78438933E-10
   35.7299995      -5.34762623E-10
   35.7900009      -1.31689007E-10
   35.8499985       3.04848896E-10
   35.9099998       7.43443973E-10
   35.9700012       1.16564702E-09
   36.0299988       1.57885294E-09
   36.0900002       2.01834260E-09
   36.1500015       2.53811971E-09
   36.2099991       3.19498294E-09
   36.2700005       4.03267908E-09
   36.3300018       5.07209386E-09
   36.3899994       6.30983843E-09
   36.4500008       7.72348674E-09
   36.5099983       9.27915167E-09
   36.5699997       1.09372440E-08
   36.6300011       1.26547999E-08
   36.6899986       1.43858614E-08
   36.7500000       1.60831046E-08
   36.8100014       1.77032486E-08
   36.8699989       1.92159852E-08
   36.9300003       2.06129549E-08
   36.9900017       2.19116085E-08
   37.0499992       2.31499637E-08
   37.1100006       2.43719995E-08
   37.1699982       2.56080597E-08
   37.2299995       2.68579541E-08
   37.2900009       2.80843597E-08
   37.3499985       2.92205868E-08
   37.4099998       3.01907583E-08
   37.4700012       3.09349701E-08
   37.5299988       3.14294084E-08
   37.5900002       3.16930624E-08
   37.6500015       3.17784234E-08
   37.7099991       3.17501296E-08
   37.7700005       3.16608535E-08
   37.8300018       3.15345652E-08
   37.8899994       3.13638218E-08
   37.9500008       3.11214130E-08
   38.0099983       3.07803170E-08
   38.0699997       3.03326253E-08
   38.1300011       2.97989420E-08
   38.1899986       2.92244025E-08
   38.2500000       2.86632993E-08
   38.3100014       2.81593096E-08
   38.3699989       2.77298042E-08
   38.4300003       2.73608709E-08
   38.4900017       2.70151670E-08
   38.5499992       2.66494844E-08
   38.6100006       2.62350266E-08
   38.6699982       2.57723620E-08
   38.7299995       2.52948151E-08
   38.7900009       2.48584815E-08
   38.8499985       2.45220058E-08
   38.9099998       2.43233380E-08
   38.9700012       2.42619596E-08
   39.0299988       2.42931861E-08
   39.0900002       2.43366944E-08
   39.1500015       2.42960034E-08
   39.2099991       2.40816593E-08
   39.2700005       2.36299549E-08
   39.3300018       2.29113830E-08
   39.3899994       2.19277911E-08
   39.4500008       2.07019237E-08
   39.5099983       1.92657037E-08
   39.5699997       1.76529760E-08
   39.6300011       1.58991202E-08
   39.6899986       1.40456731E-08
   39.7500000       1.21450601E-08
   39.8100014       1.02604298E-08
   39.8699989       8.45816484E-09
   39.9300003       6.79473677E-09
   39.9900017       5.30293187E-09
   40.0499992       3.98342115E-09
   40.1100006       2.80560131E-09
   40.1699982       1.71770220E-09
   40.2299995       6.62165656E-10
   40.2900009      -4.09710044E-10
   40.3499985      -1.52901802E-09
   40.4099998      -2.70842770E-09
   40.4700012      -3.94760846E-09
   40.5299988      -5.24081534E-09
   40.5900002      -6.58257360E-09
   40.6500015      -7.96961164E-09
   40.7099991      -9.39997147E-09
   40.7700005      -1.08719691E-08
   40.8300018      -1.23852475E-08
   40.8899994      -1.39440450E-08
   40.9500008      -1.55603566E-08
   41.0099983      -1.72537344E-08
   41.0699997      -1.90457268E-08
   41.1300011      -2.09499209E-08
   41.1899986      -2.29615065E-08
   41.2500000      -2.50512819E-08
   41.3100014      -2.71675997E-08
   41.3699989      -2.92461628E-08
   41.4300003      -3.12240012E-08
   41.4900017      -3.30520038E-08
   41.5499992      -3.47013369E-08
   41.6100006      -3.61621026E-08
   41.6699982      -3.74361271E-08
   41.7299995      -3.85283698E-08
   41.7900009      -3.94412218E-08
   41.8499985      -4.01742994E-08
   41.9099998      -4.07290983E-08
   41.9700012      -4.11157899E-08
   42.0299988      -4.13585077E-08
   42.0900002      -4.14962855E-08
   42.1500015      -4.15787405E-08
   42.2099991      -4.16576462E-08
   42.2700005      -4.17769641E-08
   42.3300018      -4.19645296E-08
   42.3899994      -4.22283009E-08
   42.4500008      -4.25587139E-08
   42.5099983      -4.29369607E-08
   42.5699997      -4.33468053E-08
   42.6300011      -4.37859420E-08
   42.6899986      -4.42721024E-08
   42.7500000      -4.48406468E-08
   42.8100014      -4.55330103E-08
   42.8699989      -4.63794549E-08
   42.9300003      -4.73826027E-08
   42.9900017      -4.85089622E-08
   43.0499992      -4.96933836E-08
   43.1100006      -5.08563218E-08
   43.1699982      -5.19282892E-08
   43.2299995      -5.28720889E-08
   43.2900009      -5.36936007E-08
   43.3499985      -5.44360610E-08
   43.4099998      -5.51594788E-08
   43.4700012      -5.59131763E-08
   43.5299988      -5.67124161E-08
   43.5900002      -5.75286627E-08
   43.6500015      -5.82972426E-08
   43.7099991      -5.89393352E-08
   43.7700005      -5.93894747E-08
   43.8300018      -5.96181167E-08
   43.8899994      -5.96413230E-08
   43.9500008      -5.95149778E-08
   44.0099983      -5.93168821E-08
   44.0699997      -5.91237459E-08
   44.1300011      -5.89911515E-08
   44.1899986      -5.89422555E-08
   44.2500000      -5.89674194E-08
   44.3100014      -5.90332263E-08
   44.3699989      -5.90968092E-08
   44.4300003      -5.91206764E-08
   44.4900017      -5.90838489E-08
   44.5499992      -5.89866467E-08
   44.6100006      -5.88486877E-08
   44.6699982      -5.87012110E-08
   44.7299995      -5.85763757E-08
   44.7900009      -5.84966564E-08
   44.8499985      -5.84672293E-08
   44.9099998      -5.84732724E-08
   44.9700012      -5.84826836E-08
   45.0299988      -5.84533133E-08
   45.0900002      -5.83425752E-08
   45.1500015      -5.81169708E-08
   45.2099991      -5.77590527E-08
   45.2700005      -5.72703591E-08
   45.3300018      -5.66697835E-08
   45.3899994      -5.59881741E-08
   45.4500008      -5.52607986E-08
   45.5099983      -5.45197487E-08
   45.5699997      -5.37880993E-08
   45.6300011      -5.30771977E-08
   45.6899986      -5.23875023E-08
   45.7500000      -5.17125045E-08
   45.8100014      -5.10446831E-08
   45.8699989      -5.03815123E-08
   45.9300003      -4.97294366E-08
   45.9900017      -4.91039138E-08
   46.0499992      -4.85244165E-08
   46.1100006      -4.80053828E-08
   46.1699982      -4.75460666E-08
   46.2299995      -4.71237165E-08
   46.2900009      -4.66942360E-08
   46.3499985      -4.62021639E-08
   46.4099998      -4.55976163E-08
   46.4700012      -4.48544242E-08
   46.5299988      -4.39819026E-08
   46.5900002      -4.30245990E-08
   46.6500015      -4.20488995E-08
   46.7099991      -4.11207850E-08
   46.7700005      -4.02829627E-08
   46.8300018      -3.95398914E-08
   46.8899994      -3.88562000E-08
   46.9500008      -3.81688601E-08
   47.0099983      -3.74083982E-08
   47.0699997      -3.65218611E-08
   47.1300011      -3.54899186E-08
   47.1899986      -3.43329880E-08
   47.2500000      -3.31046692E-08
   47.3100014      -3.18748441E-08
   47.3699989      -3.07077030E-08
   47.4300003      -2.96419831E-08
   47.4900017      -2.86802919E-08
   47.5499992      -2.77917618E-08
   47.6100006      -2.69275215E-08
   47.6699982      -2.60433044E-08
   47.7299995      -2.51199914E-08
   47.7900009      -2.41730778E-08
   47.8499985      -2.32464004E-08
   47.9099998      -2.23922054E-08
   47.9700012      -2.16458513E-08
   48.0299988      -2.10059099E-08
   48.0900002      -2.04279811E-08
   48.1500015      -1.98343066E-08
   48.2099991      -1.91342853E-08
   48.2700005      -1.82465936E-08
   48.3300018      -1.71136048E-08
   48.3899994      -1.57027635E-08
   48.4500008      -1.39953089E-08
   48.5099983      -1.19677201E-08
   48.5699997      -9.57325330E-09
   48.6300011      -6.72998945E-09
   48.6899986      -3.31829630E-09
   48.7500000       8.13586587E-10
   48.8100014       5.84055337E-09
   48.8699989       1.19542918E-08
   48.9300003       1.93644834E-08
   48.9900017       2.83092501E-08
   49.0499992       3.90726562E-08
   49.1100006       5.20043066E-08
   49.1699982       6.75359644E-08
   49.2299995       8.61927774E-08
   49.2900009       1.08600339E-07
   49.3499985       1.35492002E-07
   49.4099998       1.67720756E-07
   49.4700012       2.06277804E-07
   49.5299988       2.52315687E-07
   49.5900002       3.07173650E-07
   49.6500015       3.72402212E-07
   49.7099991       4.49788701E-07
   49.7700005       5.41387919E-07
   49.8300018       6.49561457E-07
   49.8899994       7.77027822E-07
   49.9500008       9.26919427E-07
   50.0099983       1.10284168E-06
   50.0699997       1.30892897E-06
   50.1300011       1.54989925E-06
   50.1899986       1.83110888E-06
   50.2500000       2.15861564E-06
   50.3100014       2.53925396E-06
   50.3699989       2.98072200E-06
   50.4300003       3.49168158E-06
   50.4900017       4.08186224E-06
   50.5499992       4.76217474E-06
   50.6100006       5.54482131E-06