 -0.750000000       0.00000000    
 -0.689999998       0.00000000    
 -0.629999995       0.00000000    
 -0.569999993       0.00000000    
 -0.509999990       0.00000000    
 -0.449999988       0.00000000    
 -0.389999986       0.00000000    
 -0.330000013       0.00000000    
 -0.270000011      -2.04682195E-26
 -0.209999993      -1.88187786E-25
 -0.150000006      -7.65688461E-25
  -9.00000036E-02  -1.50095647E-24
  -2.99999993E-02   4.27742027E-25
   2.99999993E-02   1.25736145E-23
   9.00000036E-02   4.37371370E-23
  0.150000006       8.67279548E-23
  0.209999993       8.71669654E-23
  0.270000011      -8.03521854E-23
  0.330000013      -5.81660240E-22
  0.389999986      -1.48017024E-21
  0.449999988      -2.44948112E-21
  0.509999990      -2.39938560E-21
  0.569999993       7.27102967E-22
  0.629999995       9.41614911E-21
  0.689999998       2.45222491E-20
  0.750000000       4.13535247E-20
  0.810000002       4.53426743E-20
  0.870000005       1.16478905E-20
  0.930000007      -8.50140109E-20
  0.990000010      -2.46716880E-19
   1.04999995      -4.21236557E-19
   1.11000001      -4.84150570E-19
   1.16999996      -2.62800631E-19
   1.23000002       3.80311253E-19
   1.28999996       1.42121954E-18
   1.35000002       2.56387092E-18
   1.40999997       3.22437298E-18
   1.47000003       2.66610631E-18
   1.52999997       2.82724181E-19
   1.59000003      -4.03246330E-18
   1.64999998      -9.52301275E-18
   1.71000004      -1.43310232E-17
   1.76999998      -1.55842201E-17
   1.83000004      -1.01343671E-17
   1.88999999       3.74689946E-18
   1.95000005       2.38986574E-17
   2.00999999       4.23050606E-17
   2.06999993       4.60814610E-17
   2.13000011       2.37830821E-17
   2.19000006      -2.33403816E-17
   2.25000000      -7.09034803E-17
   2.30999994      -7.25971491E-17
   2.36999989       1.67960066E-17
   2.43000007       1.97589811E-16
   2.49000001       3.81794357E-16
   2.54999995       3.89410216E-16
   2.60999990       2.15366167E-17
   2.67000008      -7.88739452E-16
   2.73000002      -1.81091642E-15
   2.78999996      -2.45858809E-15
   2.84999990      -1.95983053E-15
   2.91000009       2.16777251E-16
   2.97000003       3.82944866E-15
   3.02999997       7.54179840E-15
   3.08999991       9.16204368E-15
   3.15000010       6.58716855E-15
   3.21000004      -8.18888001E-16
   3.26999998      -1.11175226E-14
   3.32999992      -1.98170287E-14
   3.39000010      -2.15202629E-14
   3.45000005      -1.28368843E-14
   3.50999999       4.78511570E-15
   3.56999993       2.41512912E-14
   3.63000011       3.46644710E-14
   3.69000006       2.76685599E-14
   3.75000000       2.52815491E-15
   3.80999994      -3.01208507E-14
   3.86999989      -5.10156865E-14
   3.93000007      -4.12705013E-14
   3.99000001       5.57375335E-15
   4.05000019       7.47579489E-14
   4.11000013       1.31199779E-13
   4.17000008       1.32804656E-13
   4.23000002       5.24828865E-14
   4.28999996      -1.00996312E-13
   4.34999990      -2.75398980E-13
   4.40999985      -3.88705425E-13
   4.46999979      -3.62520262E-13
   4.53000021      -1.62573663E-13
   4.59000015       1.73083959E-13
   4.65000010       5.35355180E-13
   4.71000004       7.80116477E-13
   4.76999998       7.87284897E-13
   4.82999992       5.17377970E-13
   4.88999987       3.73332618E-14
   4.94999981      -5.00789677E-13
   5.01000023      -9.22230933E-13
   5.07000017      -1.10469500E-12
   5.13000011      -1.02780750E-12
   5.19000006      -7.68250155E-13
   5.25000000      -4.39534829E-13
   5.30999994      -1.08088187E-13
   5.36999989       2.62635725E-13
   5.42999983       7.95049519E-13
   5.48999977       1.59763706E-12
   5.55000019       2.62254671E-12
   5.61000013       3.55978810E-12
   5.67000008       3.85112428E-12
   5.73000002       2.86486199E-12
   5.78999996       1.97051360E-13
   5.84999990      -4.01252339E-12
   5.90999985      -8.90037002E-12
   5.96999979      -1.29601226E-11
   6.03000021      -1.44185323E-11
   6.09000015      -1.18185487E-11
   6.15000010      -4.61923295E-12
   6.21000004       6.41105832E-12
   6.26999998       1.91750747E-11
   6.32999992       3.06397303E-11
   6.38999987       3.75344651E-11
   6.44999981       3.71449399E-11
   6.51000023       2.79762324E-11
   6.57000017       1.01321729E-11
   6.63000011      -1.46219876E-11
   6.69000006      -4.30408452E-11
   6.75000000      -7.07130188E-11
   6.80999994      -9.24405552E-11
   6.86999989      -1.02707183E-10
   6.92999983      -9.63337674E-11
   6.98999977      -6.94130656E-11
   7.05000019      -2.05049571E-11
   7.11000013       4.81105815E-11
   7.17000008       1.29501923E-10
   7.23000002       2.11925713E-10
   7.28999996       2.79788415E-10
   7.34999990       3.15808574E-10
   7.40999985       3.04090503E-10
   7.46999979       2.33483594E-10
   7.53000021       1.00425321E-10
   7.59000015      -8.94643318E-11
   7.65000010      -3.21463717E-10
   7.71000004      -5.73483649E-10
   7.76999998      -8.18996537E-10
   7.82999992      -1.03043363E-09
   7.88999987      -1.18231147E-09
   7.94999981      -1.25358735E-09
   8.01000023      -1.22911514E-09
   8.06999969      -1.10042786E-09
   8.13000011      -8.66231864E-10
   8.18999958      -5.32918043E-10
   8.25000000      -1.15102351E-10
   8.31000042       3.64138192E-10
   8.36999989       8.73887074E-10
   8.43000031       1.37736811E-09
   8.48999977       1.83544535E-09
   8.55000019       2.21128427E-09
   8.60999966       2.47533283E-09
   8.67000008       2.60954014E-09
   8.72999954       2.60985145E-09
   8.78999996       2.48648324E-09
   8.85000038       2.26208963E-09
   8.90999985       1.96846095E-09
   8.97000027       1.64263059E-09
   9.02999973       1.32314359E-09
   9.09000015       1.04685927E-09
   9.14999962       8.46246462E-10
   9.21000004       7.46902873E-10
   9.27000046       7.65117025E-10
   9.32999992       9.05630793E-10
   9.39000034       1.16015708E-09
   9.44999981       1.50738855E-09
   9.51000023       1.91504301E-09
   9.56999969       2.34393682E-09
   9.63000011       2.75337109E-09
   9.68999958       3.10657633E-09
   9.75000000       3.37485928E-09
   9.81000042       3.53950935E-09
   9.86999989       3.59132279E-09
   9.93000031       3.52843421E-09
   9.98999977       3.35367423E-09
   10.0500002       3.07266590E-09
   10.1099997       2.69333311E-09
   10.1700001       2.22669527E-09
   10.2299995       1.68810632E-09
   10.2900000       1.09779130E-09
   10.3500004       4.79799922E-10
   10.4099998      -1.40817663E-10
   10.4700003      -7.41961104E-10
   10.5299997      -1.30829825E-09
   10.5900002      -1.83357851E-09
   10.6499996      -2.32051334E-09
   10.7100000      -2.77813905E-09
   10.7700005      -3.21747073E-09
   10.8299999      -3.64686170E-09
   10.8900003      -4.06855438E-09
   10.9499998      -4.47744375E-09
   11.0100002      -4.86224749E-09
   11.0699997      -5.20844079E-09
   11.1300001      -5.50178303E-09
   11.1899996      -5.73119774E-09
   11.2500000      -5.89017146E-09
   11.3100004      -5.97649619E-09
   11.3699999      -5.99080519E-09
   11.4300003      -5.93469762E-09
   11.4899998      -5.80922555E-09
   11.5500002      -5.61419267E-09
   11.6099997      -5.34826627E-09
   11.6700001      -5.00953368E-09
   11.7299995      -4.59604355E-09
   11.7900000      -4.10600753E-09
   11.8500004      -3.53762686E-09
   11.9099998      -2.88880764E-09
   11.9700003      -2.15712559E-09
   12.0299997      -1.34029265E-09
   12.0900002      -4.37068631E-10
   12.1499996       5.51735879E-10
   12.2100000       1.62268821E-09
   12.2700005       2.77000156E-09
   12.3299999       3.98669942E-09
   12.3900003       5.26627186E-09
   12.4499998       6.60409816E-09
   12.5100002       7.99788769E-09
   12.5699997       9.44673140E-09
   12.6300001       1.09489751E-08
   12.6899996       1.24996866E-08
   12.7500000       1.40888288E-08
   12.8100004       1.57010920E-08
   12.8699999       1.73177508E-08
   12.9300003       1.89201224E-08
   12.9899998       2.04934310E-08
   13.0500002       2.20296990E-08
   13.1099997       2.35284521E-08
   13.1700001       2.49948950E-08
   13.2299995       2.64362363E-08
   13.2900000       2.78575456E-08
   13.3500004       2.92589846E-08
   13.4099998       3.06355865E-08
   13.4700003       3.19798232E-08
   13.5299997       3.32859429E-08
   13.5900002       3.45539704E-08
   13.6499996       3.57912846E-08
   13.7100000       3.70102384E-08
   13.7700005       3.82219980E-08
   13.8299999       3.94284108E-08
   13.8900003       4.06148821E-08
   13.9499998       4.17475228E-08
   14.0100002       4.27766267E-08
   14.0699997       4.36464269E-08
   14.1300001       4.43087700E-08
   14.1899996       4.47365487E-08
   14.2500000       4.49323174E-08
   14.3100004       4.49287150E-08
   14.3699999       4.47798421E-08
   14.4300003       4.45456472E-08
   14.4899998       4.42739783E-08
   14.5500002       4.39858994E-08
   14.6099997       4.36692105E-08
   14.6700001       4.32826646E-08
   14.7299995       4.27699440E-08
   14.7900000       4.20794812E-08
   14.8500004       4.11840162E-08
   14.9099998       4.00936884E-08
   14.9700003       3.88583103E-08
   15.0299997       3.75575979E-08
   15.0900002       3.62819428E-08
   15.1499996       3.51091884E-08
   15.2100000       3.40843833E-08
   15.2700005       3.32085612E-08
   15.3299999       3.24399103E-08
   15.3900003       3.17069144E-08
   15.4499998       3.09292005E-08
   15.5100002       3.00395477E-08
   15.5699997       2.90003861E-08
   15.6300001       2.78101133E-08
   15.6899996       2.64980748E-08
   15.7500000       2.51109036E-08
   15.8100004       2.36954243E-08
   15.8699999       2.22840892E-08
   15.9300003       2.08874020E-08
   15.9899998       1.94949408E-08
   16.0499992       1.80834956E-08
   16.1100006       1.66285012E-08
   16.1700001       1.51143578E-08
   16.2299995       1.35400660E-08
   16.2900009       1.19187558E-08
   16.3500004       1.02719380E-08
   16.4099998       8.62108429E-09
   16.4699993       6.97988156E-09
   16.5300007       5.35004663E-09
   16.5900002       3.72229558E-09
   16.6499996       2.08224193E-09
   16.7099991       4.19298790E-10
   16.7700005      -1.26450250E-09
   16.8299999      -2.94906011E-09
   16.8899994      -4.59652050E-09
   16.9500008      -6.15795415E-09
   17.0100002      -7.58473817E-09
   17.0699997      -8.84110829E-09
   17.1299992      -9.91356419E-09
   17.1900005      -1.08135643E-08
   17.2500000      -1.15721770E-08
   17.3099995      -1.22282806E-08
   17.3700008      -1.28145059E-08
   17.4300003      -1.33463258E-08
   17.4899998      -1.38189131E-08
   17.5499992      -1.42137759E-08
   17.6100006      -1.45136001E-08
   17.6700001      -1.47203654E-08
   17.7299995      -1.48700483E-08
   17.7900009      -1.50377488E-08
   17.8500004      -1.53298956E-08
   17.9099998      -1.58644351E-08
   17.9699993      -1.67442096E-08
   18.0300007      -1.80314590E-08
   18.0900002      -1.97315710E-08
   18.1499996      -2.17915890E-08
   18.2099991      -2.41144829E-08
   18.2700005      -2.65851661E-08
   18.3299999      -2.91006383E-08
   18.3899994      -3.15953876E-08
   18.4500008      -3.40548816E-08
   18.5100002      -3.65137822E-08
   18.5699997      -3.90401169E-08
   18.6299992      -4.17106776E-08
   18.6900005      -4.45850077E-08
   18.7500000      -4.76853153E-08
   18.8099995      -5.09872073E-08
   18.8700008      -5.44228840E-08
   18.9300003      -5.78945567E-08
   18.9899998      -6.12932354E-08
   19.0499992      -6.45169607E-08
   19.1100006      -6.74835761E-08
   19.1700001      -7.01354210E-08
   19.2299995      -7.24363716E-08
   19.2900009      -7.43642374E-08
   19.3500004      -7.59026690E-08
   19.4099998      -7.70363684E-08
   19.4699993      -7.77515865E-08
   19.5300007      -7.80418787E-08
   19.5900002      -7.79167877E-08
   19.6499996      -7.74101210E-08
   19.7099991      -7.65842429E-08
   19.7700005      -7.55277085E-08
   19.8299999      -7.43454365E-08
   19.8899994      -7.31425160E-08
   19.9500008      -7.20050437E-08
   20.0100002      -7.09827077E-08
   20.0699997      -7.00778884E-08
   20.1299992      -6.92449902E-08
   20.1900005      -6.84008086E-08
   20.2500000      -6.74439136E-08
   20.3099995      -6.62783677E-08
   20.3700008      -6.48357954E-08
   20.4300003      -6.30906598E-08
   20.4899998      -6.10653430E-08
   20.5499992      -5.88247175E-08
   20.6100006      -5.64623726E-08
   20.6700001      -5.40825056E-08
   20.7299995      -5.17820347E-08
   20.7900009      -4.96369097E-08
   20.8500004      -4.76948685E-08
   20.9099998      -4.59750531E-08
   20.9699993      -4.44728023E-08
   21.0300007      -4.31668283E-08
   21.0900002      -4.20258068E-08
   21.1499996      -4.10123207E-08
   21.2099991      -4.00838047E-08
   21.2700005      -3.91917325E-08
   21.3299999      -3.82811365E-08
   21.3899994      -3.72925832E-08
   21.4500008      -3.61675490E-08
   21.5100002      -3.48567184E-08
   21.5699997      -3.33294317E-08
   21.6299992      -3.15817772E-08
   21.6900005      -2.96408889E-08
   21.7500000      -2.75635976E-08
   21.8099995      -2.54288413E-08
   21.8700008      -2.33245565E-08
   21.9300003      -2.13314273E-08
   21.9899998      -1.95069632E-08
   22.0499992      -1.78738926E-08
   22.1100006      -1.64160774E-08
   22.1700001      -1.50833959E-08
   22.2299995      -1.38044509E-08
   22.2900009      -1.25037660E-08
   22.3500004      -1.11188738E-08
   22.4099998      -9.61297975E-09
   22.4699993      -7.98051669E-09
   22.5300007      -6.24511687E-09
   22.5900002      -4.45163328E-09
   22.6499996      -2.65510680E-09
   22.7099991      -9.09877895E-10
   22.7700005       7.38557493E-10
   22.8299999       2.25749552E-09
   22.8899994       3.62673824E-09
   22.9500008       4.83535789E-09
   23.0100002       5.87768367E-09
   23.0699997       6.75080081E-09
   23.1299992       7.45503570E-09
   23.1900005       7.99738054E-09
   23.2500000       8.39616199E-09
   23.3099995       8.68420535E-09
   23.3700008       8.90796503E-09
   23.4300003       9.12140408E-09
   23.4899998       9.37546840E-09
   23.5499992       9.70581837E-09
   23.6100006       1.01223732E-08
   23.6700001       1.06039701E-08
   23.7299995       1.11002159E-08
   23.7900009       1.15408021E-08
   23.8500004       1.18507684E-08
   23.9099998       1.19685266E-08
   23.9699993       1.18623946E-08
   24.0300007       1.15410970E-08
   24.0900002       1.10547225E-08
   24.1499996       1.04848850E-08
   24.2099991       9.92603510E-09
   24.2700005       9.46284118E-09
   24.3299999       9.15020326E-09
   24.3899994       9.00183394E-09
   24.4500008       8.99058250E-09
   24.5100002       9.05983999E-09
   24.5699997       9.14186327E-09
   24.6299992       9.17700316E-09
   24.6900005       9.12811515E-09
   24.7500000       8.98643204E-09
   24.8099995       8.76803696E-09
   24.8700008       8.50284998E-09
   24.9300003       8.22001933E-09
   24.9899998       7.93453214E-09
   25.0499992       7.63943486E-09
   25.1100006       7.30649408E-09
   25.1700001       6.89549262E-09
   25.2299995       6.36939346E-09
   25.2900009       5.71023273E-09
   25.3500004       4.92980812E-09
   25.4099998       4.07053324E-09
   25.4699993       3.19502669E-09
   25.5300007       2.36695685E-09
   25.5900002       1.62901470E-09
   25.6499996       9.85301507E-10
   25.7099991       3.94404287E-10
   25.7700005      -2.23730437E-10
   25.8299999      -9.68294223E-10
   25.8899994      -1.93070360E-09
   25.9500008      -3.16804694E-09
   26.0100002      -4.68488581E-09
   26.0699997      -6.42913234E-09
   26.1299992      -8.30351343E-09
   26.1900005      -1.01892974E-08
   26.2500000      -1.19750423E-08
   26.3099995      -1.35815279E-08
   26.3700008      -1.49754467E-08
   26.4300003      -1.61683005E-08
   26.4899998      -1.72020034E-08
   26.5499992      -1.81270625E-08
   26.6100006      -1.89812503E-08
   26.6700001      -1.97760759E-08
   26.7299995      -2.04950812E-08
   26.7900009      -2.11036788E-08
   26.8500004      -2.15661728E-08
   26.9099998      -2.18631779E-08
   26.9699993      -2.20026042E-08
   27.0300007      -2.20196217E-08
   27.0900002      -2.19650502E-08
   27.1499996      -2.18858904E-08
   27.2099991      -2.18050111E-08
   27.2700005      -2.17079794E-08
   27.3299999      -2.15431069E-08
   27.3899994      -2.12363656E-08
   27.4500008      -2.07174384E-08
   27.5100002      -1.99485886E-08
   27.5699997      -1.89463485E-08
   27.6299992      -1.77877073E-08
   27.6900005      -1.65973741E-08
   27.7500000      -1.55189763E-08
   27.8099995      -1.46784656E-08
   27.8700008      -1.41508751E-08
   27.9300003      -1.39406593E-08
   27.9899998      -1.39818042E-08
   28.0499992      -1.41579211E-08
   28.1100006      -1.43365524E-08
   28.1700001      -1.44077488E-08
   28.2299995      -1.43157086E-08
   28.2900009      -1.40742538E-08
   28.3500004      -1.37615448E-08
   28.4099998      -1.34955114E-08
   28.4699993      -1.33972566E-08
   28.5300007      -1.35535529E-08
   28.5900002      -1.39901948E-08
   28.6499996      -1.46649706E-08
   28.7099991      -1.54830602E-08
   28.7700005      -1.63303504E-08
   28.8299999      -1.71140560E-08
   28.8899994      -1.77970048E-08
   28.9500008      -1.84136226E-08
   29.0100002      -1.90614742E-08
   29.0699997      -1.98704768E-08
   29.1299992      -2.09597619E-08
   29.1900005      -2.23966694E-08
   29.2500000      -2.41720510E-08
   29.3099995      -2.62006097E-08
   29.3700008      -2.83466761E-08
   29.4300003      -3.04670742E-08
   29.4899998      -3.24569953E-08
   29.5499992      -3.42835058E-08
   29.6100006      -3.59954342E-08
   29.6700001      -3.77059841E-08
   29.7299995      -3.95532886E-08
   29.7900009      -4.16515071E-08
   29.8500004      -4.40481287E-08
   29.9099998      -4.67014587E-08
   29.9699993      -4.94857595E-08
   30.0300007      -5.22227666E-08
   30.0900002      -5.47297248E-08
   30.1499996      -5.68687533E-08
   30.2099991      -5.85820459E-08
   30.2700005      -5.99020211E-08
   30.3299999      -6.09339637E-08
   30.3899994      -6.18176301E-08
   30.4500008      -6.26809111E-08
   30.5100002      -6.36012345E-08
   30.5699997      -6.45871978E-08
   30.6299992      -6.55858798E-08
   30.6900005      -6.65124844E-08
   30.7500000      -6.72913529E-08
   30.8099995      -6.78931045E-08
   30.8700008      -6.83544741E-08
   30.9300003      -6.87730548E-08
   30.9899998      -6.92781796E-08
   31.0499992      -6.99876637E-08
   31.1100006      -7.09655126E-08
   31.1700001      -7.21954692E-08
   31.2299995      -7.35799475E-08
   31.2900009      -7.49652145E-08
   31.3500004      -7.61845271E-08
   31.4099998      -7.71049073E-08
   31.4699993      -7.76622997E-08
   31.5300007      -7.78737999E-08
   31.5900002      -7.78236497E-08
   31.6499996      -7.76278668E-08
   31.7099991      -7.73893234E-08
   31.7700005      -7.71577646E-08
   31.8299999      -7.69075257E-08
   31.8899994      -7.65404025E-08
   31.9500008      -7.59131709E-08
   32.0099983      -7.48816831E-08
   32.0699997      -7.33480121E-08
   32.1300011      -7.12956876E-08
   32.1899986      -6.88017181E-08
   32.2500000      -6.60212933E-08
   32.3100014      -6.31501180E-08
   32.3699989      -6.03767845E-08
   32.4300003      -5.78407189E-08
   32.4900017      -5.56084885E-08
   32.5499992      -5.36744054E-08
   32.6100006      -5.19825214E-08
   32.6699982      -5.04600841E-08
   32.7299995      -4.90497847E-08
   32.7900009      -4.77302287E-08
   32.8499985      -4.65196983E-08
   32.9099998      -4.54644145E-08
   32.9700012      -4.46175363E-08
   33.0299988      -4.40169394E-08
   33.0900002      -4.36689476E-08
   33.1500015      -4.35423217E-08
   33.2099991      -4.35734258E-08
   33.2700005      -4.36802559E-08
   33.3300018      -4.37807692E-08
   33.3899994      -4.38100152E-08
   33.4500008      -4.37310632E-08
   33.5099983      -4.35370460E-08
   33.5699997      -4.32445546E-08
   33.6300011      -4.28819398E-08
   33.6899986      -4.24777404E-08
   33.7500000      -4.20542143E-08
   33.8100014      -4.16283257E-08
   33.8699989      -4.12190815E-08
   33.9300003      -4.08569925E-08
   33.9900017      -4.05903826E-08
   34.0499992      -4.04845473E-08
   34.1100006      -4.06129779E-08
   34.1699982      -4.10431902E-08
   34.2299995      -4.18219699E-08
   34.2900009      -4.29651621E-08
   34.3499985      -4.44551311E-08
   34.4099998      -4.62462921E-08
   34.4700012      -4.82761600E-08
   34.5299988      -5.04777411E-08
   34.5900002      -5.27892432E-08
   34.6500015      -5.51585551E-08
   34.7099991      -5.75422234E-08
   34.7700005      -5.99006000E-08
   34.8300018      -6.21919369E-08
   34.8899994      -6.43682228E-08
   34.9500008      -6.63743194E-08
   35.0099983      -6.81511096E-08
   35.0699997      -6.96419349E-08
   35.1300011      -7.08009296E-08
   35.1899986      -7.16012636E-08
   35.2500000      -7.20409901E-08
   35.3100014      -7.21439832E-08
   35.3699989      -7.19546378E-08
   35.4300003      -7.15262871E-08
   35.4900017      -7.09060615E-08
   35.5499992      -7.01207341E-08
   35.6100006      -6.91688200E-08
   35.6699982      -6.80226009E-08
   35.7299995      -6.66402329E-08
   35.7900009      -6.49839862E-08
   35.8499985      -6.30379162E-08
   35.9099998      -6.08183370E-08
   35.9700012      -5.83729118E-08
   36.0299988      -5.57688828E-08
   36.0900002      -5.30747535E-08
   36.1500015      -5.03421624E-08
   36.2099991      -4.75940780E-08
   36.2700005      -4.48228228E-08
   36.3300018      -4.19978115E-08
   36.3899994      -3.90798007E-08
   36.4500008      -3.60367203E-08
   36.5099983      -3.28563381E-08
   36.5699997      -2.95523979E-08
   36.6300011      -2.61633417E-08
   36.6899986      -2.27451267E-08
   36.7500000      -1.93612948E-08
   36.8100014      -1.60740541E-08
   36.8699989      -1.29391466E-08
   36.9300003      -1.00054365E-08
   36.9900017      -7.31774774E-09
   37.0499992      -4.92001329E-09
   37.1100006      -2.85546831E-09
   37.1699982      -1.16207077E-09
   37.2299995       1.36163261E-10
   37.2900009       1.03871156E-09
   37.3499985       1.57442270E-09
   37.4099998       1.79980264E-09
   37.4700012       1.78840009E-09
   37.5299988       1.61361080E-09
   37.5900002       1.33036582E-09
   37.6500015       9.62361968E-10
   37.7099991       4.99988662E-10
   37.7700005      -8.96382274E-11
   37.8300018      -8.43692782E-10
   37.8899994      -1.78234549E-09
   37.9500008      -2.89277025E-09
   38.0099983      -4.12415746E-09
   38.0699997      -5.39552136E-09
   38.1300011      -6.61371535E-09
   38.1899986      -7.69581732E-09
   38.2500000      -8.58887006E-09
   38.3100014      -9.28088184E-09
   38.3699989      -9.79966686E-09
   38.4300003      -1.01995399E-08
   38.4900017      -1.05395568E-08
   38.5499992      -1.08597940E-08
   38.6100006      -1.11634160E-08
   38.6699982      -1.14110916E-08
   38.7299995      -1.15306564E-08
   38.7900009      -1.14396288E-08
   38.8499985      -1.10732330E-08
   38.9099998      -1.04080318E-08
   38.9700012      -9.47265821E-09
   39.0299988      -8.34190672E-09
   39.0900002      -7.11681603E-09
   39.1500015      -5.89836624E-09
   39.2099991      -4.76405981E-09
   39.2700005      -3.75454245E-09
   39.3300018      -2.87290347E-09
   39.3899994      -2.09469109E-09
   39.4500008      -1.38383416E-09
   39.5099983      -7.09097558E-10
   39.5699997      -5.69020005E-11
   39.6300011       5.61856672E-10
   39.6899986       1.11167175E-09
   39.7500000       1.53826962E-09
   39.8100014       1.77849102E-09
   39.8699989       1.77122872E-09
   39.9300003       1.46610080E-09
   39.9900017       8.27401314E-10
   40.0499992      -1.67025893E-10
   40.1100006      -1.52983726E-09
   40.1699982      -3.26748451E-09
   40.2299995      -5.37957456E-09
   40.2900009      -7.85363330E-09
   40.3499985      -1.06578772E-08
   40.4099998      -1.37367397E-08
   40.4700012      -1.70135248E-08
   40.5299988      -2.04016466E-08
   40.5900002      -2.38217517E-08
   40.6500015      -2.72187428E-08
   40.7099991      -3.05719965E-08
   40.7700005      -3.38942527E-08
   40.8300018      -3.72189533E-08
   40.8899994      -4.05802503E-08
   40.9500008      -4.39926922E-08
   41.0099983      -4.74378723E-08
   41.0699997      -5.08625817E-08
   41.1300011      -5.41890870E-08
   41.1899986      -5.73336898E-08
   41.2500000      -6.02272792E-08
   41.3100014      -6.28308783E-08
   41.3699989      -6.51414283E-08
   41.4300003      -6.71862068E-08
   41.4900017      -6.90082729E-08
   41.5499992      -7.06477650E-08
   41.6100006      -7.21248483E-08
   41.6699982      -7.34296464E-08
   41.7299995      -7.45221840E-08
   41.7900009      -7.53428750E-08
   41.8499985      -7.58310108E-08
   41.9099998      -7.59462395E-08
   41.9700012      -7.56866640E-08
   42.0299988      -7.50972831E-08
   42.0900002      -7.42649675E-08
   42.1500015      -7.33006260E-08
   42.2099991      -7.23138456E-08
   42.2700005      -7.13885058E-08
   42.3300018      -7.05678289E-08
   42.3899994      -6.98538045E-08
   42.4500008      -6.92199649E-08
   42.5099983      -6.86313015E-08
   42.5699997      -6.80626968E-08
   42.6300011      -6.75086582E-08
   42.6899986      -6.69818832E-08
   42.7500000      -6.65029773E-08
   42.8100014      -6.60870398E-08
   42.8699989      -6.57328272E-08
   42.9300003      -6.54183907E-08
   42.9900017      -6.51035137E-08
   43.0499992      -6.47374137E-08
   43.1100006      -6.42688605E-08
   43.1699982      -6.36562518E-08
   43.2299995      -6.28754293E-08
   43.2900009      -6.19238421E-08
   43.3499985      -6.08198221E-08
   43.4099998      -5.95969389E-08
   43.4700012      -5.82947379E-08
   43.5299988      -5.69484193E-08
   43.5900002      -5.55809621E-08
   43.6500015      -5.42003029E-08
   43.7099991      -5.28024806E-08
   43.7700005      -5.13792671E-08
   43.8300018      -4.99272694E-08
   43.8899994      -4.84550711E-08
   43.9500008      -4.69860666E-08
   44.0099983      -4.55562734E-08
   44.0699997      -4.42082886E-08
   44.1300011      -4.29834337E-08
   44.1899986      -4.19144861E-08
   44.2500000      -4.10207655E-08
   44.3100014      -4.03063609E-08
   44.3699989      -3.97611792E-08
   44.4300003      -3.93637372E-08
   44.4900017      -3.90843660E-08
   44.5499992      -3.88880892E-08
   44.6100006      -3.87370918E-08
   44.6699982      -3.85936261E-08
   44.7299995      -3.84239769E-08
   44.7900009      -3.82035061E-08
   44.8499985      -3.79215024E-08
   44.9099998      -3.75839022E-08
   44.9700012      -3.72121427E-08
   45.0299988      -3.68378821E-08
   45.0900002      -3.64950310E-08
   45.1500015      -3.62119863E-08
   45.2099991      -3.60069130E-08
   45.2700005      -3.58875170E-08
   45.3300018      -3.58548782E-08
   45.3899994      -3.59090961E-08
   45.4500008      -3.60539403E-08
   45.5099983      -3.62984558E-08
   45.5699997      -3.66547113E-08
   45.6300011      -3.71326934E-08
   45.6899986      -3.77342886E-08
   45.7500000      -3.84488494E-08
   45.8100014      -3.92524022E-08
   45.8699989      -4.01115088E-08
   45.9300003      -4.09911927E-08
   45.9900017      -4.18645065E-08
   46.0499992      -4.27202664E-08
   46.1100006      -4.35653327E-08
   46.1699982      -4.44195258E-08
   46.2299995      -4.53042439E-08
   46.2900009      -4.62287701E-08
   46.3499985      -4.71800341E-08
   46.4099998      -4.81209135E-08
   46.4700012      -4.89989027E-08
   46.5299988      -4.97627752E-08
   46.5900002      -5.03812139E-08
   46.6500015      -5.08563609E-08
   46.7099991      -5.12270049E-08
   46.7700005      -5.15598870E-08
   46.8300018      -5.19320764E-08
   46.8899994      -5.24098667E-08
   46.9500008      -5.30304796E-08
   47.0099983      -5.37913429E-08
   47.0699997      -5.46493304E-08
   47.1300011      -5.55299344E-08
   47.1899986      -5.63443479E-08
   47.2500000      -5.70108760E-08
   47.3100014      -5.74759760E-08
   47.3699989      -5.77293306E-08
   47.4300003      -5.78079522E-08
   47.4900017      -5.77863837E-08
   47.5499992      -5.77543027E-08
   47.6100006      -5.77873749E-08
   47.6699982      -5.79208539E-08
   47.7299995      -5.81356332E-08
   47.7900009      -5.83627724E-08
   47.8499985      -5.85059361E-08
   47.9099998      -5.84741642E-08
   47.9700012      -5.82132529E-08
   48.0299988      -5.77243817E-08
   48.0900002      -5.70636978E-08
   48.1500015      -5.63240157E-08
   48.2099991      -5.56060904E-08
   48.2700005      -5.49900570E-08
   48.3300018      -5.45161534E-08
   48.3899994      -5.41792673E-08
   48.4500008      -5.39366134E-08
   48.5099983      -5.37239124E-08
   48.5699997      -5.34745013E-08
   48.6300011      -5.31363078E-08
   48.6899986      -5.26835819E-08
   48.7500000      -5.21213082E-08
   48.8100014      -5.14813330E-08
   48.8699989      -5.08104137E-08
   48.9300003      -5.01523338E-08
   48.9900017      -4.95290635E-08
   49.0499992      -4.89277703E-08
   49.1100006      -4.83000804E-08
   49.1699982      -4.75761190E-08
   49.2299995      -4.66902392E-08
   49.2900009      -4.56096245E-08
   49.3499985      -4.43550441E-08
   49.4099998      -4.30055458E-08
   49.4700012      -4.16852224E-08
   49.5299988      -4.05373548E-08
   49.5900002      -3.96958697E-08
   49.6500015      -3.92643322E-08
   49.7099991      -3.93084996E-08
   49.7700005      -3.98630817E-08
   49.8300018      -4.09483363E-08
   49.8899994      -4.25902265E-08
   49.9500008      -4.48385613E-08
   50.0099983      -4.77795510E-08
   50.0699997      -5.15416509E-08
   50.1300011      -5.62949758E-08
   50.1899986      -6.22457961E-08
   50.2500000      -6.96285483E-08
   50.3100014      -7.86986547E-08
   50.3699989      -8.97301078E-08
   50.4300003      -1.03021037E-07
   50.4900017      -1.18908318E-07
   50.5499992      -1.37789584E-07
   50.6100006      -1.60148048E-07