  -2.400000      0.0000000E+00
  -2.340000      0.0000000E+00
  -2.280000      0.0000000E+00
  -2.220000      0.0000000E+00
  -2.160000      0.0000000E+00
  -2.100000      0.0000000E+00
  -2.040000      0.0000000E+00
  -1.980000      0.0000000E+00
  -1.920000     -1.5132561E-25
  -1.860000     -1.9336318E-24
  -1.800000     -1.2011360E-23
  -1.740000     -4.6773898E-23
  -1.680000     -1.2007874E-22
  -1.620000     -1.7568822E-22
  -1.560000      5.3176937E-23
  -1.500000      1.1333547E-21
  -1.440000      3.5904122E-21
  -1.380000      6.6641903E-21
  -1.320000      6.3265055E-21
  -1.260000     -5.5585031E-21
  -1.200000     -3.7138238E-20
  -1.140000     -8.4369708E-20
  -1.080000     -1.1398429E-19
  -1.020000     -5.7008467E-20
 -0.9600000      1.6212756E-19
 -0.9000000      5.4464725E-19
 -0.8400000      9.0900284E-19
 -0.7800000      8.4324487E-19
 -0.7200000     -1.5173928E-19
 -0.6600000     -2.2500756E-18
 -0.6000000     -4.7350527E-18
 -0.5400000     -5.6776883E-18
 -0.4800000     -2.4362713E-18
 -0.4200000      6.6492603E-18
 -0.3600000      1.9743248E-17
 -0.3000000      2.9650478E-17
 -0.2400000      2.4824448E-17
 -0.1800000     -5.0719394E-18
 -0.1200000     -5.9784995E-17
 -5.9999999E-02 -1.1970349E-16
  0.0000000E+00 -1.4505319E-16
  5.9999999E-02 -8.9608171E-17
  0.1200000      7.0941259E-17
  0.1800000      3.0661756E-16
  0.2400000      5.1720636E-16
  0.3000000      5.5403319E-16
  0.3600000      2.8697164E-16
  0.4200000     -3.0254548E-16
  0.4800000     -1.0494857E-15
  0.5400000     -1.6112361E-15
  0.6000000     -1.5859224E-15
  0.6600000     -7.2154814E-16
  0.7200000      8.7193868E-16
  0.7800000      2.6342991E-15
  0.8400000      3.6926423E-15
  0.9000000      3.2313642E-15
  0.9600000      9.6647931E-16
   1.020000     -2.5081967E-15
   1.080000     -5.7397087E-15
   1.140000     -6.9076668E-15
   1.200000     -4.6718691E-15
   1.260000      9.6428486E-16
   1.320000      8.2151413E-15
   1.380000      1.3838416E-14
   1.440000      1.4273135E-14
   1.500000      7.2636353E-15
   1.560000     -6.6526230E-15
   1.620000     -2.3491576E-14
   1.680000     -3.6498609E-14
   1.740000     -3.8215301E-14
   1.800000     -2.3465425E-14
   1.860000      7.6770814E-15
   1.920000      4.8119030E-14
   1.980000      8.4261360E-14
   2.040000      9.9369447E-14
   2.100000      7.9465250E-14
   2.160000      2.0247535E-14
   2.220000     -6.7510816E-14
   2.280000     -1.5706222E-13
   2.340000     -2.1149764E-13
   2.400000     -1.9631353E-13
   2.460000     -9.5569386E-14
   2.520000      7.4569603E-14
   2.580000      2.6230849E-13
   2.640000      3.9202151E-13
   2.700000      3.9102185E-13
   2.760000      2.2335558E-13
   2.820000     -8.3511004E-14
   2.880000     -4.3418982E-13
   2.940000     -6.9152355E-13
   3.000000     -7.2879078E-13
   3.060000     -4.8884925E-13
   3.120000     -2.2584860E-14
   3.180000      5.1712985E-13
   3.240000      9.3219291E-13
   3.300000      1.0675499E-12
   3.360000      8.9044326E-13
   3.420000      5.1571247E-13
   3.480000      1.5172989E-13
   3.540000     -1.9723445E-14
   3.600000      2.4999178E-14
   3.660000      8.4592950E-14
   3.720000     -2.0869865E-13
   3.780000     -1.1984619E-12
   3.840000     -2.9471852E-12
   3.900000     -5.0358866E-12
   3.960000     -6.5502738E-12
   4.020000     -6.3245941E-12
   4.080000     -3.4042393E-12
   4.140000      2.4291279E-12
   4.200000      1.0294221E-11
   4.260000      1.8208875E-11
   4.320000      2.3530497E-11
   4.380000      2.3741292E-11
   4.440000      1.7323001E-11
   4.500000      4.4005368E-12
   4.560000     -1.3099081E-11
   4.620000     -3.1845582E-11
   4.680000     -4.7915744E-11
   4.740000     -5.7709362E-11
   4.800000     -5.8642716E-11
   4.860000     -4.9421991E-11
   4.920000     -2.9923567E-11
   4.980000     -9.1604415E-13
   5.040000      3.6060870E-11
   5.100000      7.8448477E-11
   5.160000      1.2209225E-10
   5.220000      1.6066115E-10
   5.280000      1.8555600E-10
   5.340000      1.8673980E-10
   5.400000      1.5461897E-10
   5.460000      8.2661135E-11
   5.520000     -2.9964205E-11
   5.580000     -1.7660262E-10
   5.640000     -3.4289785E-10
   5.700000     -5.0837612E-10
   5.760000     -6.4946287E-10
   5.820000     -7.4307266E-10
   5.880000     -7.6974521E-10
   5.940000     -7.1553768E-10
   6.000000     -5.7242711E-10
   6.060000     -3.3759873E-10
   6.120000     -1.2409067E-11
   6.180000      3.9816128E-10
   6.240000      8.8514829E-10
   6.300000      1.4345498E-09
   6.360000      2.0263564E-09
   6.420000      2.6346678E-09
   6.480000      3.2296177E-09
   6.540000      3.7811421E-09
   6.600000      4.2637942E-09
   6.660000      4.6612274E-09
   6.720000      4.9688857E-09
   6.780000      5.1939701E-09
   6.840000      5.3526708E-09
   6.900000      5.4656359E-09
   6.960000      5.5532290E-09
   7.020000      5.6320935E-09
   7.080000      5.7138965E-09
   7.140000      5.8061280E-09
   7.200000      5.9139516E-09
   7.260000      6.0417062E-09
   7.320000      6.1929435E-09
   7.380000      6.3686958E-09
   7.440000      6.5647030E-09
   7.500000      6.7689987E-09
   7.560000      6.9613577E-09
   7.620000      7.1154673E-09
   7.680000      7.2035937E-09
   7.740000      7.2024209E-09
   7.800000      7.0981327E-09
   7.860000      6.8889499E-09
   7.920000      6.5842278E-09
   7.980000      6.2004952E-09
   8.040000      5.7559522E-09
   8.100000      5.2655107E-09
   8.160000      4.7381481E-09
   8.220000      4.1773478E-09
   8.280000      3.5840970E-09
   8.340000      2.9608609E-09
   8.400000      2.3145930E-09
   8.460000      1.6573579E-09
   8.520000      1.0042625E-09
   8.580000      3.6968062E-10
   8.640000     -2.3639232E-10
   8.700000     -8.0998735E-10
   8.760000     -1.3517739E-09
   8.820000     -1.8629596E-09
   8.880000     -2.3401059E-09
   8.940000     -2.7711575E-09
   9.000000     -3.1346796E-09
   9.060000     -3.4031069E-09
   9.120000     -3.5492005E-09
   9.180000     -3.5535392E-09
   9.240000     -3.4103353E-09
   9.300000     -3.1294072E-09
   9.360000     -2.7335882E-09
   9.420000     -2.2525750E-09
   9.480000     -1.7155667E-09
   9.540000     -1.1454241E-09
   9.600000     -5.5633814E-10
   9.660000      4.4560654E-11
   9.720000      6.5291000E-10
   9.780000      1.2625155E-09
   9.840000      1.8628550E-09
   9.900000      2.4400391E-09
   9.960000      2.9808855E-09
   10.02000      3.4782088E-09
   10.08000      3.9347245E-09
   10.14000      4.3634767E-09
   10.20000      4.7842117E-09
   10.26000      5.2169673E-09
   10.32000      5.6754703E-09
   10.38000      6.1631265E-09
   10.44000      6.6733210E-09
   10.50000      7.1939192E-09
   10.56000      7.7140241E-09
   10.62000      8.2301117E-09
   10.68000      8.7488496E-09
   10.74000      9.2853147E-09
   10.80000      9.8570929E-09
   10.86000      1.0476420E-08
   10.92000      1.1143187E-08
   10.98000      1.1841358E-08
   11.04000      1.2540099E-08
   11.10000      1.3199320E-08
   11.16000      1.3777925E-08
   11.22000      1.4242292E-08
   11.28000      1.4572637E-08
   11.34000      1.4765754E-08
   11.40000      1.4833959E-08
   11.46000      1.4801255E-08
   11.52000      1.4698428E-08
   11.58000      1.4558779E-08
   11.64000      1.4415489E-08
   11.70000      1.4300591E-08
   11.76000      1.4244672E-08
   11.82000      1.4276109E-08
   11.88000      1.4418998E-08
   11.94000      1.4689819E-08
   12.00000      1.5093791E-08
   12.06000      1.5622463E-08
   12.12000      1.6253916E-08
   12.18000      1.6956147E-08
   12.24000      1.7692948E-08
   12.30000      1.8430502E-08
   12.36000      1.9142359E-08
   12.42000      1.9810912E-08
   12.48000      2.0424700E-08
   12.54000      2.0972598E-08
   12.60000      2.1437321E-08
   12.66000      2.1791323E-08
   12.72000      2.1997405E-08
   12.78000      2.2014687E-08
   12.84000      2.1808409E-08
   12.90000      2.1360307E-08
   12.96000      2.0675740E-08
   13.02000      1.9784757E-08
   13.08000      1.8736291E-08
   13.14000      1.7587194E-08
   13.20000      1.6389718E-08
   13.26000      1.5181529E-08
   13.32000      1.3981342E-08
   13.38000      1.2791152E-08
   13.44000      1.1603456E-08
   13.50000      1.0410177E-08
   13.56000      9.2095833E-09
   13.62000      8.0086382E-09
   13.68000      6.8203816E-09
   13.74000      5.6581739E-09
   13.80000      4.5299018E-09
   13.86000      3.4350978E-09
   13.92000      2.3663829E-09
   13.98000      1.3145790E-09
   14.04000      2.7520336E-10
   14.10000     -7.4642648E-10
   14.16000     -1.7334356E-09
   14.22000     -2.6593761E-09
   14.28000     -3.4928589E-09
   14.34000     -4.2029540E-09
   14.40000     -4.7636228E-09
   14.46000     -5.1562288E-09
   14.52000     -5.3700639E-09
   14.58000     -5.4014997E-09
   14.64000     -5.2525864E-09
   14.70000     -4.9298747E-09
   14.76000     -4.4439408E-09
   14.82000     -3.8097312E-09
   14.88000     -3.0473779E-09
   14.94000     -2.1827258E-09
   15.00000     -1.2466829E-09
   15.06000     -2.7281646E-10
   15.12000      7.0657380E-10
   15.18000      1.6647452E-09
   15.24000      2.5834748E-09
   15.30000      3.4533008E-09
   15.36000      4.2707646E-09
   15.42000      5.0337774E-09
   15.48000      5.7371694E-09
   15.54000      6.3703589E-09
   15.60000      6.9179693E-09
   15.66000      7.3627104E-09
   15.72000      7.6888105E-09
   15.78000      7.8842772E-09
   15.84000      7.9412406E-09
   15.90000      7.8549354E-09
   15.96000      7.6227513E-09
   16.02000      7.2446960E-09
   16.08000      6.7257080E-09
   16.14000      6.0790790E-09
   16.20000      5.3294462E-09
   16.26000      4.5138306E-09
   16.32000      3.6799341E-09
   16.38000      2.8819807E-09
   16.44000      2.1752558E-09
   16.50000      1.6108048E-09
   16.56000      1.2314236E-09
   16.62000      1.0693110E-09
   16.68000      1.1448915E-09
   16.74000      1.4658073E-09
   16.80000      2.0251454E-09
   16.86000      2.7987241E-09
   16.92000      3.7424046E-09
   16.98000      4.7913638E-09
   17.04000      5.8634777E-09
   17.10000      6.8679604E-09
   17.16000      7.7184641E-09
   17.22000      8.3476355E-09
   17.28000      8.7188381E-09
   17.34000      8.8311056E-09
   17.40000      8.7156176E-09
   17.46000      8.4250651E-09
   17.52000      8.0199376E-09
   17.58000      7.5565776E-09
   17.64000      7.0804824E-09
   17.70000      6.6254411E-09
   17.76000      6.2161929E-09
   17.82000      5.8708922E-09
   17.88000      5.6004521E-09
   17.94000      5.4043365E-09
   18.00000      5.2651408E-09
   18.06000      5.1457447E-09
   18.12000      4.9921840E-09
   18.18000      4.7429105E-09
   18.24000      4.3420818E-09
   18.30000      3.7525143E-09
   18.36000      2.9638254E-09
   18.42000      1.9931716E-09
   18.48000      8.7881524E-10
   18.54000     -3.3071590E-10
   18.60000     -1.5879187E-09
   18.66000     -2.8545490E-09
   18.72000     -4.1049368E-09
   18.78000     -5.3245466E-09
   18.84000     -6.5055397E-09
   18.90000     -7.6417903E-09
   18.96000     -8.7255252E-09
   19.02000     -9.7467590E-09
   19.08000     -1.0695420E-08
   19.14000     -1.1564895E-08
   19.20000     -1.2355144E-08
   19.26000     -1.3073705E-08
   19.32000     -1.3733789E-08
   19.38000     -1.4349979E-08
   19.44000     -1.4933169E-08
   19.50000     -1.5486822E-08
   19.56000     -1.6006080E-08
   19.62000     -1.6480064E-08
   19.68000     -1.6896314E-08
   19.74000     -1.7245432E-08
   19.80000     -1.7524094E-08
   19.86000     -1.7735365E-08
   19.92000     -1.7886512E-08
   19.98000     -1.7985462E-08
   20.04000     -1.8037404E-08
   20.10000     -1.8042780E-08
   20.16000     -1.7997365E-08
   20.22000     -1.7894388E-08
   20.28000     -1.7728139E-08
   20.34000     -1.7498104E-08
   20.40000     -1.7212461E-08
   20.46000     -1.6889640E-08
   20.52000     -1.6556951E-08
   20.58000     -1.6245872E-08
   20.64000     -1.5984568E-08
   20.70000     -1.5789345E-08
   20.76000     -1.5657493E-08
   20.82000     -1.5564064E-08
   20.88000     -1.5464350E-08
   20.94000     -1.5302202E-08
   21.00000     -1.5022430E-08
   21.06000     -1.4583939E-08
   21.12000     -1.3969674E-08
   21.18000     -1.3190182E-08
   21.24000     -1.2279554E-08
   21.30000     -1.1285139E-08
   21.36000     -1.0254556E-08
   21.42000     -9.2244310E-09
   21.48000     -8.2143741E-09
   21.54000     -7.2273858E-09
   21.60000     -6.2552017E-09
   21.66000     -5.2852216E-09
   21.72000     -4.3056114E-09
   21.78000     -3.3066971E-09
   21.84000     -2.2791995E-09
   21.90000     -1.2117317E-09
   21.96000     -9.0378566E-11
   22.02000      1.0980954E-09
   22.08000      2.3601163E-09
   22.14000      3.6889485E-09
   22.20000      5.0615148E-09
   22.26000      6.4407986E-09
   22.32000      7.7839992E-09
   22.38000      9.0541308E-09
   22.44000      1.0231079E-08
   22.50000      1.1318018E-08
   22.56000      1.2340482E-08
   22.62000      1.3338004E-08
   22.68000      1.4350872E-08
   22.74000      1.5406544E-08
   22.80000      1.6510585E-08
   22.86000      1.7645513E-08
   22.92000      1.8778076E-08
   22.98000      1.9872132E-08
   23.04000      2.0901927E-08
   23.10000      2.1860149E-08
   23.16000      2.2757085E-08
   23.22000      2.3610987E-08
   23.28000      2.4433701E-08
   23.34000      2.5218178E-08
   23.40000      2.5934192E-08
   23.46000      2.6535478E-08
   23.52000      2.6976529E-08
   23.58000      2.7232769E-08
   23.64000      2.7315497E-08
   23.70000      2.7274389E-08
   23.76000      2.7185051E-08
   23.82000      2.7125193E-08
   23.88000      2.7148200E-08
   23.94000      2.7264560E-08
   24.00000      2.7439034E-08
   24.06000      2.7605314E-08
   24.12000      2.7692867E-08
   24.18000      2.7655544E-08
   24.24000      2.7490801E-08
   24.30000      2.7242123E-08
   24.36000      2.6984171E-08
   24.42000      2.6796824E-08
   24.48000      2.6738229E-08
   24.54000      2.6826431E-08
   24.60000      2.7035053E-08
   24.66000      2.7302672E-08
   24.72000      2.7550959E-08
   24.78000      2.7704784E-08
   24.84000      2.7708426E-08
   24.90000      2.7534773E-08
   24.96000      2.7187070E-08
   25.02000      2.6694504E-08
   25.08000      2.6103347E-08
   25.14000      2.5465505E-08
   25.20000      2.4826470E-08
   25.26000      2.4215099E-08
   25.32000      2.3638126E-08
   25.38000      2.3081494E-08
   25.44000      2.2518908E-08
   25.50000      2.1925283E-08
   25.56000      2.1290594E-08
   25.62000      2.0628837E-08
   25.68000      1.9978268E-08
   25.74000      1.9392131E-08
   25.80000      1.8922655E-08
   25.86000      1.8603806E-08
   25.92000      1.8438854E-08
   25.98000      1.8397285E-08
   26.04000      1.8422346E-08
   26.10000      1.8446869E-08
   26.16000      1.8412122E-08
   26.22000      1.8283526E-08
   26.28000      1.8058042E-08
   26.34000      1.7761032E-08
   26.40000      1.7433983E-08
   26.46000      1.7117721E-08
   26.52000      1.6837355E-08
   26.58000      1.6594637E-08
   26.64000      1.6370839E-08
   26.70000      1.6139410E-08
   26.76000      1.5883881E-08
   26.82000      1.5614111E-08
   26.88000      1.5373924E-08
   26.94000      1.5235841E-08
   27.00000      1.5283122E-08
   27.06000      1.5584398E-08
   27.12000      1.6169693E-08
   27.18000      1.7017074E-08
   27.24000      1.8055896E-08
   27.30000      1.9186530E-08
   27.36000      2.0309939E-08
   27.42000      2.1356332E-08
   27.48000      2.2302189E-08
   27.54000      2.3169681E-08
   27.60000      2.4009578E-08
   27.66000      2.4875266E-08
   27.72000      2.5798421E-08
   27.78000      2.6775165E-08
   27.84000      2.7766330E-08
   27.90000      2.8709326E-08
   27.96000      2.9535185E-08
   28.02000      3.0183809E-08
   28.08000      3.0613101E-08
   28.14000      3.0801498E-08
   28.20000      3.0746239E-08
   28.26000      3.0460455E-08
   28.32000      2.9970845E-08
   28.38000      2.9315739E-08
   28.44000      2.8542061E-08
   28.50000      2.7699986E-08
   28.56000      2.6835572E-08
   28.62000      2.5983327E-08
   28.68000      2.5161498E-08
   28.74000      2.4372079E-08
   28.80000      2.3605590E-08
   28.86000      2.2848399E-08
   28.92000      2.2089010E-08
   28.98000      2.1320247E-08
   29.04000      2.0536365E-08
   29.10000      1.9727077E-08
   29.16000      1.8872585E-08
   29.22000      1.7943876E-08
   29.28000      1.6910242E-08
   29.34000      1.5752333E-08
   29.40000      1.4475616E-08
   29.46000      1.3117902E-08
   29.52000      1.1746373E-08
   29.58000      1.0443662E-08
   29.64000      9.2873158E-09
   29.70000      8.3299208E-09
   29.76000      7.5872499E-09
   29.82000      7.0386741E-09
   29.88000      6.6393535E-09
   29.94000      6.3393513E-09
   30.00000      6.1024537E-09
   30.06000      5.9179666E-09
   30.12000      5.8015841E-09
   30.18000      5.7854668E-09
   30.24000      5.9014322E-09
   30.30000      6.1634640E-09
   30.36000      6.5558670E-09
   30.42000      7.0313901E-09
   30.48000      7.5201179E-09
   30.54000      7.9460900E-09
   30.60000      8.2458698E-09
   30.66000      8.3826803E-09
   30.72000      8.3515745E-09
   30.78000      8.1746512E-09
   30.84000      7.8891640E-09
   30.90000      7.5337434E-09
   30.96000      7.1380040E-09
   31.02000      6.7186137E-09
   31.08000      6.2815948E-09
   31.14000      5.8278604E-09
   31.20000      5.3580189E-09
   31.26000      4.8735527E-09
   31.32000      4.3739199E-09
   31.38000      3.8516248E-09
   31.44000      3.2885350E-09
   31.50000      2.6562463E-09
   31.56000      1.9212785E-09
   31.62000      1.0534764E-09
   31.68000      3.4324790E-11
   31.74000     -1.1382183E-09
   31.80000     -2.4501905E-09
   31.86000     -3.8767523E-09
   31.92000     -5.3891371E-09
   31.98000     -6.9597896E-09
   32.04000     -8.5631182E-09
   32.10000     -1.0171723E-08
   32.16000     -1.1750604E-08
   32.22000     -1.3253212E-08
   32.28000     -1.4622546E-08
   32.34000     -1.5797989E-08
   32.40000     -1.6725455E-08
   32.46000     -1.7366528E-08
   32.52000     -1.7702559E-08
   32.58000     -1.7732365E-08
   32.64000     -1.7465618E-08
   32.70000     -1.6916571E-08
   32.76000     -1.6102589E-08
   32.82000     -1.5049084E-08
   32.88000     -1.3798276E-08
   32.94000     -1.2416010E-08
   33.00000     -1.0990576E-08
   33.06000     -9.6206332E-09
   33.12000     -8.3946565E-09
   33.18000     -7.3690183E-09
   33.24000     -6.5536994E-09
   33.30000     -5.9122920E-09
   33.36000     -5.3773759E-09
   33.42000     -4.8759556E-09
   33.48000     -4.3553068E-09
   33.54000     -3.7993106E-09
   33.60000     -3.2292833E-09
   33.66000     -2.6897367E-09
   33.72000     -2.2256488E-09
   33.78000     -1.8610207E-09
   33.84000     -1.5875622E-09
   33.90000     -1.3676943E-09
   33.96000     -1.1498470E-09
   34.02000     -8.8888108E-10
   34.08000     -5.6257954E-10
   34.14000     -1.7719297E-10
   34.20000      2.3996499E-10
   34.26000      6.5721928E-10
   34.32000      1.0570210E-09
   34.38000      1.4482922E-09
   34.44000      1.8677417E-09
   34.50000      2.3702262E-09
   34.56000      3.0127694E-09
   34.62000      3.8389532E-09
   34.68000      4.8693169E-09
   34.74000      6.0999632E-09
   34.80000      7.5076718E-09
   34.86000      9.0574312E-09
   34.92000      1.0708418E-08
   34.98000      1.2416772E-08
   35.04000      1.4136346E-08
   35.10000      1.5820419E-08
   35.16000      1.7426743E-08
   35.22000      1.8925910E-08
   35.28000      2.0309841E-08
   35.34000      2.1595636E-08
   35.40000      2.2820737E-08
   35.46000      2.4028949E-08
   35.52000      2.5251250E-08
   35.58000      2.6488751E-08
   35.64000      2.7705491E-08
   35.70000      2.8835370E-08
   35.76000      2.9801839E-08
   35.82000      3.0543209E-08
   35.88000      3.1033533E-08
   35.94000      3.1290387E-08
   36.00000      3.1366231E-08
   36.06000      3.1327062E-08
   36.12000      3.1227568E-08
   36.18000      3.1093386E-08
   36.24000      3.0917757E-08
   36.30000      3.0673259E-08
   36.36000      3.0332458E-08
   36.42000      2.9887673E-08
   36.48000      2.9360670E-08
   36.54000      2.8798144E-08
   36.60000      2.8255268E-08
   36.66000      2.7774975E-08
   36.72000      2.7372193E-08
   36.78000      2.7029841E-08
   36.84000      2.6708213E-08
   36.90000      2.6363693E-08
   36.96000      2.5969138E-08
   37.02000      2.5527687E-08
   37.08000      2.5074581E-08
   37.14000      2.4666052E-08
   37.20000      2.4359197E-08
   37.26000      2.4189884E-08
   37.32000      2.4156392E-08
   37.38000      2.4214417E-08
   37.44000      2.4285061E-08
   37.50000      2.4272946E-08
   37.56000      2.4088164E-08
   37.62000      2.3664773E-08
   37.68000      2.2970335E-08
   37.74000      2.2004770E-08
   37.80000      2.0791179E-08
   37.86000      1.9364132E-08
   37.92000      1.7761099E-08
   37.98000      1.6020234E-08
   38.04000      1.4183694E-08
   38.10000      1.2302373E-08
   38.16000      1.0436864E-08
   38.22000      8.6514804E-09
   38.28000      7.0020274E-09
   38.34000      5.5218727E-09
   38.40000      4.2125059E-09
   38.46000      3.0433021E-09
   38.52000      1.9612298E-09
   38.58000      9.0679997E-10
   38.64000     -1.7010827E-10
   38.70000     -1.3004583E-09
   38.76000     -2.4950000E-09
   38.82000     -3.7504293E-09
   38.88000     -5.0582916E-09
   38.94000     -6.4118635E-09
   39.00000     -7.8085094E-09
   39.06000     -9.2482626E-09
   39.12000     -1.0731577E-08
   39.18000     -1.2259134E-08
   39.24000     -1.3834423E-08
   39.30000     -1.5467082E-08
   39.36000     -1.7173617E-08
   39.42000     -1.8973024E-08
   39.48000     -2.0877781E-08
   39.54000     -2.2883690E-08
   39.60000     -2.4963541E-08
   39.66000     -2.7068289E-08
   39.72000     -2.9136050E-08
   39.78000     -3.1105543E-08
   39.84000     -3.2928490E-08
   39.90000     -3.4576214E-08
   39.96000     -3.6038468E-08
   40.02000     -3.7316472E-08
   40.08000     -3.8414356E-08
   40.14000     -3.9333582E-08
   40.20000     -4.0072926E-08
   40.26000     -4.0633452E-08
   40.32000     -4.1025590E-08
   40.38000     -4.1274401E-08
   40.44000     -4.1420201E-08
   40.50000     -4.1513641E-08
   40.56000     -4.1606629E-08
   40.62000     -4.1742126E-08
   40.68000     -4.1946119E-08
   40.74000     -4.2224634E-08
   40.80000     -4.2566889E-08
   40.86000     -4.2953967E-08
   40.92000     -4.3370409E-08
   40.98000     -4.3814730E-08
   41.04000     -4.4304819E-08
   41.10000     -4.4875186E-08
   41.16000     -4.5565908E-08
   41.22000     -4.6406335E-08
   41.28000     -4.7399389E-08
   41.34000     -4.8513204E-08
   41.40000     -4.9684768E-08
   41.46000     -5.0836043E-08
   41.52000     -5.1897537E-08
   41.58000     -5.2830611E-08
   41.64000     -5.3639226E-08
   41.70000     -5.4365451E-08
   41.76000     -5.5069659E-08
   41.82000     -5.5802836E-08
   41.88000     -5.6582245E-08
   41.94000     -5.7380610E-08
   42.00000     -5.8133406E-08
   42.06000     -5.8761252E-08
   42.12000     -5.9198339E-08
   42.18000     -5.9415626E-08
   42.24000     -5.9430359E-08
   42.30000     -5.9299424E-08
   42.36000     -5.9100511E-08
   42.42000     -5.8908885E-08
   42.48000     -5.8778053E-08
   42.54000     -5.8729711E-08
   42.60000     -5.8754360E-08
   42.66000     -5.8820262E-08
   42.72000     -5.8886826E-08
   42.78000     -5.8918086E-08
   42.84000     -5.8892972E-08
   42.90000     -5.8810301E-08
   42.96000     -5.8687728E-08
   43.02000     -5.8555251E-08
   43.08000     -5.8444972E-08
   43.14000     -5.8380198E-08
   43.20000     -5.8366940E-08
   43.26000     -5.8390562E-08
   43.32000     -5.8418451E-08
   43.38000     -5.8407796E-08
   43.44000     -5.8315877E-08
   43.50000     -5.8109805E-08
   43.56000     -5.7773146E-08
   43.62000     -5.7308107E-08
   43.68000     -5.6733342E-08
   43.74000     -5.6078513E-08
   43.80000     -5.5377178E-08
   43.86000     -5.4659768E-08
   43.92000     -5.3948231E-08
   43.98000     -5.3253498E-08
   44.04000     -5.2576397E-08
   44.10000     -5.1911648E-08
   44.16000     -5.1253679E-08
   44.22000     -5.0602164E-08
   44.28000     -4.9965159E-08
   44.34000     -4.9358050E-08
   44.40000     -4.8798135E-08
   44.46000     -4.8296119E-08
   44.52000     -4.7847536E-08
   44.58000     -4.7427736E-08
   44.64000     -4.6993527E-08
   44.70000     -4.6492534E-08
   44.76000     -4.5878345E-08
   44.82000     -4.5126750E-08
   44.88000     -4.4246789E-08
   44.94000     -4.3281350E-08
   45.00000     -4.2295508E-08
   45.06000     -4.1355570E-08
   45.12000     -4.0506002E-08
   45.18000     -3.9752955E-08
   45.24000     -3.9060989E-08
   45.30000     -3.8364718E-08
   45.36000     -3.7591239E-08
   45.42000     -3.6685190E-08
   45.48000     -3.5627373E-08
   45.54000     -3.4440774E-08
   45.60000     -3.3182406E-08
   45.66000     -3.1924468E-08
   45.72000     -3.0731563E-08
   45.78000     -2.9641688E-08
   45.84000     -2.8657045E-08
   45.90000     -2.7747644E-08
   45.96000     -2.6866308E-08
   46.02000     -2.5969710E-08
   46.08000     -2.5037549E-08
   46.14000     -2.4082020E-08
   46.20000     -2.3143059E-08
   46.26000     -2.2270466E-08
   46.32000     -2.1499790E-08
   46.38000     -2.0832033E-08
   46.44000     -2.0225899E-08
   46.50000     -1.9605869E-08
   46.56000     -1.8882194E-08
   46.62000     -1.7973615E-08
   46.68000     -1.6822717E-08
   46.74000     -1.5397699E-08
   46.80000     -1.3680669E-08
   46.86000     -1.1648288E-08
   46.92000     -9.2529930E-09
   46.98000     -6.4114691E-09
   47.04000     -3.0029299E-09
   47.10000      1.1248007E-09
   47.16000      6.1465157E-09
   47.22000      1.2253913E-08
   47.28000      1.9657147E-08
   47.34000      2.8594892E-08
   47.40000      3.9351050E-08
   47.46000      5.2273975E-08
   47.52000      6.7793707E-08
   47.58000      8.6434504E-08
   47.64000      1.0882301E-07
   47.70000      1.3569526E-07
   47.76000      1.6790696E-07
   47.82000      2.0644983E-07
   47.88000      2.5247422E-07
   47.94000      3.0731556E-07
   48.00000      3.7252161E-07
   48.06000      4.4988022E-07
   48.12000      5.4145011E-07
   48.18000      6.4959806E-07
   48.24000      7.7704578E-07
   48.30000      9.2692517E-07
   48.36000      1.1028375E-06
   48.42000      1.3089129E-06
   48.48000      1.5498675E-06
   48.54000      1.8310595E-06
   48.60000      2.1585502E-06
   48.66000      2.5391762E-06
   48.72000      2.9806349E-06
   48.78000      3.4915847E-06
   48.84000      4.0817517E-06
   48.90000      4.7620460E-06
   48.96000      5.5446726E-06
   49.02000      6.4432475E-06
   49.08000      7.4729055E-06
   49.14000      8.6504097E-06
   49.20000      9.9942590E-06
   49.26000      1.1524806E-05
   49.32000      1.3264384E-05
   49.38000      1.5237454E-05
   49.44000      1.7470757E-05
   49.50000      1.9993466E-05
   49.56000      2.2837330E-05
   49.62000      2.6036803E-05
   49.68000      2.9629142E-05
   49.74000      3.3654491E-05
   49.80000      3.8155937E-05
   49.86000      4.3179567E-05
   49.92000      4.8774502E-05
   49.98000      5.4992925E-05
   50.04000      6.1890089E-05
   50.10000      6.9524307E-05
   50.16000      7.7956902E-05
   50.22000      8.7252127E-05
   50.28000      9.7477037E-05
   50.34000      1.0870132E-04
   50.40000      1.2099705E-04
   50.46000      1.3443844E-04
   50.52000      1.4910148E-04
   50.58000      1.6506368E-04
   50.64000      1.8240354E-04
   50.70000      2.0120022E-04
   50.76000      2.2153293E-04
   50.82000      2.4348055E-04
   50.88000      2.6712083E-04
   50.94000      2.9252996E-04
   51.00000      3.1978160E-04
   51.06000      3.4894634E-04
   51.12000      3.8009090E-04
   51.18000      4.1327733E-04
   51.24000      4.4856212E-04
   51.30000      4.8599558E-04
   51.36000      5.2562082E-04
   51.42000      5.6747306E-04
   51.48000      6.1157864E-04
   51.54000      6.5795443E-04
   51.60000      7.0660718E-04
   51.66000      7.5753237E-04
   51.72000      8.1071374E-04
   51.78000      8.6612307E-04
   51.84000      9.2371914E-04
   51.90000      9.8344765E-04
   51.96000      1.0452411E-03
   52.02000      1.1090179E-03
   52.08000      1.1746831E-03
   52.14000      1.2421279E-03
   52.20000      1.3112300E-03
   52.26000      1.3818542E-03
   52.32000      1.4538522E-03
   52.38000      1.5270640E-03
   52.44000      1.6013182E-03
   52.50000      1.6764335E-03
   52.56000      1.7522183E-03
   52.62000      1.8284739E-03
   52.68000      1.9049937E-03
   52.74000      1.9815664E-03
   52.80000      2.0579770E-03
   52.86000      2.1340079E-03
   52.92000      2.2094410E-03
   52.98000      2.2840598E-03
   53.04000      2.3576505E-03
   53.10000      2.4300038E-03
   53.16000      2.5009175E-03
   53.22000      2.5701975E-03
   53.28000      2.6376597E-03
   53.34000      2.7031328E-03
   53.40000      2.7664581E-03
   53.46000      2.8274921E-03
   53.52000      2.8861079E-03
   53.58000      2.9421952E-03
   53.64000      2.9956626E-03
   53.70000      3.0464376E-03
   53.76000      3.0944680E-03
   53.82000      3.1397217E-03
   53.88000      3.1821872E-03
   53.94000      3.2218741E-03
   54.00000      3.2588120E-03
   54.06000      3.2930512E-03
   54.12000      3.3246602E-03
   54.18000      3.3537261E-03
   54.24000      3.3803524E-03
   54.30000      3.4046588E-03
   54.36000      3.4267798E-03
   54.42000      3.4468626E-03
   54.48000      3.4650657E-03
   54.54000      3.4815560E-03
   54.60000      3.4965065E-03
   54.66000      3.5100954E-03
   54.72000      3.5225034E-03
   54.78000      3.5339110E-03
   54.84000      3.5444966E-03
   54.90000      3.5544345E-03
   54.96000      3.5638933E-03
   55.02000      3.5730321E-03
   55.08000      3.5820003E-03
   55.14000      3.5909335E-03
   55.20000      3.5999543E-03
   55.26000      3.6091679E-03
   55.32000      3.6186643E-03
   55.38000      3.6285142E-03
   55.44000      3.6387709E-03
   55.50000      3.6494667E-03
   55.56000      3.6606139E-03