  -2.400000      0.0000000E+00
  -2.340000      0.0000000E+00
  -2.280000      0.0000000E+00
  -2.220000      0.0000000E+00
  -2.160000      0.0000000E+00
  -2.100000      6.5730389E-20
  -2.040000      4.6085608E-19
  -1.980000      1.2816647E-18
  -1.920000      4.5342645E-19
  -1.860000     -9.4464473E-18
  -1.800000     -3.9699458E-17
  -1.740000     -8.8868731E-17
  -1.680000     -1.0905531E-16
  -1.620000      1.7824295E-17
  -1.560000      4.3336794E-16
  -1.500000      1.1360612E-15
  -1.440000      1.7439522E-15
  -1.380000      1.3960734E-15
  -1.320000     -9.1231801E-16
  -1.260000     -5.4361533E-15
  -1.200000     -1.0585273E-14
  -1.140000     -1.2535834E-14
  -1.080000     -6.5696451E-15
  -1.020000      9.6201496E-15
 -0.9600000      3.2018516E-14
 -0.9000000      4.8663571E-14
 -0.8400000      4.3267927E-14
 -0.7800000      4.6953251E-15
 -0.7200000     -6.1363675E-14
 -0.6600000     -1.2602723E-13
 -0.6000000     -1.4393101E-13
 -0.5400000     -7.5415633E-14
 -0.4800000      8.3165300E-14
 -0.4200000      2.7764848E-13
 -0.3600000      4.0156016E-13
 -0.3000000      3.3823825E-13
 -0.2400000      2.9301479E-14
 -0.1800000     -4.6194781E-13
 -0.1200000     -9.3348799E-13
 -5.9999999E-02 -1.1034651E-12
  0.0000000E+00 -7.4037423E-13
  5.9999999E-02  1.8422134E-13
  0.1200000      1.4005248E-12
  0.1800000      2.3785553E-12
  0.2400000      2.5251455E-12
  0.3000000      1.4837495E-12
  0.3600000     -5.9617562E-13
  0.4200000     -2.9797573E-12
  0.4800000     -4.5607866E-12
  0.5400000     -4.3406741E-12
  0.6000000     -1.9876264E-12
  0.6600000      1.8064973E-12
  0.7200000      5.4214324E-12
  0.7800000      6.9243678E-12
  0.8400000      5.0080977E-12
  0.9000000     -1.7076973E-13
  0.9600000     -6.7207516E-12
   1.020000     -1.1578590E-11
   1.080000     -1.1786261E-11
   1.140000     -5.9632360E-12
   1.200000      4.7376534E-12
   1.260000      1.6748694E-11
   1.320000      2.5365670E-11
   1.380000      2.6689604E-11
   1.440000      1.9343260E-11
   1.500000      5.1065831E-12
   1.560000     -1.1896531E-11
   1.620000     -2.7099403E-11
   1.680000     -3.7520802E-11
   1.740000     -4.2822849E-11
   1.800000     -4.4744149E-11
   1.860000     -4.5092922E-11
   1.920000     -4.3312805E-11
   1.980000     -3.5019102E-11
   2.040000     -1.2612712E-11
   2.100000      3.1794407E-11
   2.160000      1.0198083E-10
   2.220000      1.9336192E-10
   2.280000      2.9061817E-10
   2.340000      3.6833564E-10
   2.400000      3.9471118E-10
   2.460000      3.3728345E-10
   2.520000      1.6899210E-10
   2.580000     -1.2711504E-10
   2.640000     -5.5556071E-10
   2.700000     -1.1085693E-09
   2.760000     -1.7678419E-09
   2.820000     -2.5067426E-09
   2.880000     -3.2918368E-09
   2.940000     -4.0833843E-09
   3.000000     -4.8352549E-09
   3.060000     -5.4953628E-09
   3.120000     -6.0078404E-09
   3.180000     -6.3176682E-09
   3.240000     -6.3774808E-09
   3.300000     -6.1552217E-09
   3.360000     -5.6405893E-09
   3.420000     -4.8482618E-09
   3.480000     -3.8166750E-09
   3.540000     -2.6024882E-09
   3.600000     -1.2722589E-09
   3.660000      1.0632128E-10
   3.720000      1.4713102E-09
   3.780000      2.7701810E-09
   3.840000      3.9604018E-09
   3.900000      5.0083950E-09
   3.960000      5.8889387E-09
   4.020000      6.5865651E-09
   4.080000      7.0991737E-09
   4.140000      7.4424360E-09
   4.200000      7.6524875E-09
   4.260000      7.7844673E-09
   4.320000      7.9057845E-09
   4.380000      8.0851068E-09
   4.440000      8.3800522E-09
   4.500000      8.8274899E-09
   4.560000      9.4397219E-09
   4.620000      1.0207731E-08
   4.680000      1.1110079E-08
   4.740000      1.2123881E-08
   4.800000      1.3233680E-08
   4.860000      1.4435114E-08
   4.920000      1.5732649E-08
   4.980000      1.7133152E-08
   5.040000      1.8638680E-08
   5.100000      2.0241853E-08
   5.160000      2.1925667E-08
   5.220000      2.3667322E-08
   5.280000      2.5443821E-08
   5.340000      2.7236355E-08
   5.400000      2.9031375E-08
   5.460000      3.0818068E-08
   5.520000      3.2583888E-08
   5.580000      3.4310869E-08
   5.640000      3.5975308E-08
   5.700000      3.7551704E-08
   5.760000      3.9020090E-08
   5.820000      4.0373990E-08
   5.880000      4.1625796E-08
   5.940000      4.2807269E-08
   6.000000      4.3964615E-08
   6.060000      4.5149758E-08
   6.120000      4.6410698E-08
   6.180000      4.7784098E-08
   6.240000      4.9291888E-08
   6.300000      5.0941974E-08
   6.360000      5.2731473E-08
   6.420000      5.4650148E-08
   6.480000      5.6682183E-08
   6.540000      5.8805838E-08
   6.600000      6.0991773E-08
   6.660000      6.3201853E-08
   6.720000      6.5389742E-08
   6.780000      6.7503919E-08
   6.840000      6.9492330E-08
   6.900000      7.1307205E-08
   6.960000      7.2908584E-08
   7.020000      7.4265479E-08
   7.080000      7.5354698E-08
   7.140000      7.6157811E-08
   7.200000      7.6657351E-08
   7.260000      7.6833359E-08
   7.320000      7.6661308E-08
   7.380000      7.6112386E-08
   7.440000      7.5156741E-08
   7.500000      7.3769478E-08
   7.560000      7.1938466E-08
   7.620000      6.9672090E-08
   7.680000      6.7004493E-08
   7.740000      6.3996517E-08
   7.800000      6.0731338E-08
   7.860000      5.7305570E-08
   7.920000      5.3817423E-08
   7.980000      5.0354743E-08
   8.040000      4.6985097E-08
   8.100000      4.3749914E-08
   8.160000      4.0663330E-08
   8.220000      3.7715743E-08
   8.280000      3.4881033E-08
   8.340000      3.2125747E-08
   8.400000      2.9418288E-08
   8.460000      2.6736062E-08
   8.520000      2.4069472E-08
   8.580000      2.1422549E-08
   8.640000      1.8811106E-08
   8.700000      1.6259751E-08
   8.760000      1.3798807E-08
   8.820000      1.1461330E-08
   8.880000      9.2797681E-09
   8.940000      7.2817299E-09
   9.000000      5.4851363E-09
   9.060000      3.8941543E-09
   9.120000      2.4978344E-09
   9.180000      1.2728618E-09
   9.240000      1.9020480E-10
   9.300000     -7.7639123E-10
   9.360000     -1.6431755E-09
   9.420000     -2.4131219E-09
   9.480000     -3.0776093E-09
   9.540000     -3.6219598E-09
   9.600000     -4.0323633E-09
   9.660000     -4.3016515E-09
   9.720000     -4.4324335E-09
   9.780000     -4.4375001E-09
   9.840000     -4.3383683E-09
   9.900000     -4.1629322E-09
   9.960000     -3.9428074E-09
   10.02000     -3.7105241E-09
   10.08000     -3.4967063E-09
   10.14000     -3.3276490E-09
   10.20000     -3.2238885E-09
   10.26000     -3.2000895E-09
   10.32000     -3.2658896E-09
   10.38000     -3.4267005E-09
   10.44000     -3.6834626E-09
   10.50000     -4.0311039E-09
   10.56000     -4.4566582E-09
   10.62000     -4.9388240E-09
   10.68000     -5.4505147E-09
   10.74000     -5.9646430E-09
   10.80000     -6.4615526E-09
   10.86000     -6.9352528E-09
   10.92000     -7.3957014E-09
   10.98000     -7.8659230E-09
   11.04000     -8.3750029E-09
   11.10000     -8.9497787E-09
   11.16000     -9.6085069E-09
   11.22000     -1.0358495E-08
   11.28000     -1.1197653E-08
   11.34000     -1.2118028E-08
   11.40000     -1.3108788E-08
   11.46000     -1.4157085E-08
   11.52000     -1.5247016E-08
   11.58000     -1.6358475E-08
   11.64000     -1.7467968E-08
   11.70000     -1.8552218E-08
   11.76000     -1.9593420E-08
   11.82000     -2.0583427E-08
   11.88000     -2.1524142E-08
   11.94000     -2.2423151E-08
   12.00000     -2.3286233E-08
   12.06000     -2.4110346E-08
   12.12000     -2.4880880E-08
   12.18000     -2.5574954E-08
   12.24000     -2.6169468E-08
   12.30000     -2.6650026E-08
   12.36000     -2.7016286E-08
   12.42000     -2.7281166E-08
   12.48000     -2.7464530E-08
   12.54000     -2.7584957E-08
   12.60000     -2.7654085E-08
   12.66000     -2.7676419E-08
   12.72000     -2.7654275E-08
   12.78000     -2.7594441E-08
   12.84000     -2.7512012E-08
   12.90000     -2.7428323E-08
   12.96000     -2.7363235E-08
   13.02000     -2.7325436E-08
   13.08000     -2.7305919E-08
   13.14000     -2.7278594E-08
   13.20000     -2.7208532E-08
   13.26000     -2.7064486E-08
   13.32000     -2.6830003E-08
   13.38000     -2.6508040E-08
   13.44000     -2.6117041E-08
   13.50000     -2.5680656E-08
   13.56000     -2.5216197E-08
   13.62000     -2.4727363E-08
   13.68000     -2.4204407E-08
   13.74000     -2.3631081E-08
   13.80000     -2.2994397E-08
   13.86000     -2.2292152E-08
   13.92000     -2.1534634E-08
   13.98000     -2.0740154E-08
   14.04000     -1.9927111E-08
   14.10000     -1.9106665E-08
   14.16000     -1.8279469E-08
   14.22000     -1.7437280E-08
   14.28000     -1.6568011E-08
   14.34000     -1.5661318E-08
   14.40000     -1.4712334E-08
   14.46000     -1.3722714E-08
   14.52000     -1.2699760E-08
   14.58000     -1.1655064E-08
   14.64000     -1.0603534E-08
   14.70000     -9.5625792E-09
   14.76000     -8.5505389E-09
   14.82000     -7.5838056E-09
   14.88000     -6.6732917E-09
   14.94000     -5.8220238E-09
   15.00000     -5.0256701E-09
   15.06000     -4.2764516E-09
   15.12000     -3.5687666E-09
   15.18000     -2.9034306E-09
   15.24000     -2.2877684E-09
   15.30000     -1.7310640E-09
   15.36000     -1.2378345E-09
   15.42000     -8.0317408E-10
   15.48000     -4.1366052E-10
   15.54000     -5.4126037E-11
   15.60000      2.8323935E-10
   15.66000      5.9305838E-10
   15.72000      8.5853041E-10
   15.78000      1.0608421E-09
   15.84000      1.1914206E-09
   15.90000      1.2597723E-09
   15.96000      1.2914463E-09
   16.02000      1.3160357E-09
   16.08000      1.3511393E-09
   16.14000      1.3912342E-09
   16.20000      1.4084002E-09
   16.26000      1.3656047E-09
   16.32000      1.2362225E-09
   16.38000      1.0196547E-09
   16.44000      7.4467066E-10
   16.50000      4.5854462E-10
   16.56000      2.0763584E-10
   16.62000      1.9493138E-11
   16.68000     -1.0456491E-10
   16.74000     -1.8342503E-10
   16.80000     -2.4107871E-10
   16.86000     -2.9140937E-10
   16.92000     -3.3121780E-10
   16.98000     -3.4466605E-10
   17.04000     -3.1566486E-10
   17.10000     -2.4043831E-10
   17.16000     -1.3279866E-10
   17.22000     -1.9152615E-11
   17.28000      7.3812290E-11
   17.34000      1.3179920E-10
   17.40000      1.5899161E-10
   17.46000      1.7444496E-10
   17.52000      2.0102316E-10
   17.58000      2.5306063E-10
   17.64000      3.2941136E-10
   17.70000      4.1549597E-10
   17.76000      4.9311605E-10
   17.82000      5.5277610E-10
   17.88000      6.0201794E-10
   17.94000      6.6535299E-10
   18.00000      7.7556805E-10
   18.06000      9.6035879E-10
   18.12000      1.2303942E-09
   18.18000      1.5741443E-09
   18.24000      1.9616400E-09
   18.30000      2.3553983E-09
   18.36000      2.7238500E-09
   18.42000      3.0519773E-09
   18.48000      3.3454983E-09
   18.54000      3.6279086E-09
   18.60000      3.9325108E-09
   18.66000      4.2930606E-09
   18.72000      4.7364104E-09
   18.78000      5.2789546E-09
   18.84000      5.9267022E-09
   18.90000      6.6774155E-09
   18.96000      7.5229467E-09
   19.02000      8.4505851E-09
   19.08000      9.4433936E-09
   19.14000      1.0480409E-08
   19.20000      1.1537813E-08
   19.26000      1.2591695E-08
   19.32000      1.3622091E-08
   19.38000      1.4617239E-08
   19.44000      1.5576669E-08
   19.50000      1.6512088E-08
   19.56000      1.7445648E-08
   19.62000      1.8405892E-08
   19.68000      1.9422082E-08
   19.74000      2.0517767E-08
   19.80000      2.1704455E-08
   19.86000      2.2976463E-08
   19.92000      2.4308141E-08
   19.98000      2.5654714E-08
   20.04000      2.6957398E-08
   20.10000      2.8152190E-08
   20.16000      2.9180256E-08
   20.22000      2.9996873E-08
   20.28000      3.0576079E-08
   20.34000      3.0909870E-08
   20.40000      3.1003150E-08
   20.46000      3.0867444E-08
   20.52000      3.0516830E-08
   20.58000      2.9967804E-08
   20.64000      2.9242269E-08
   20.70000      2.8370609E-08
   20.76000      2.7391575E-08
   20.82000      2.6347566E-08
   20.88000      2.5276830E-08
   20.94000      2.4206532E-08
   21.00000      2.3150701E-08
   21.06000      2.2114740E-08
   21.12000      2.1104613E-08
   21.18000      2.0136016E-08
   21.24000      1.9238540E-08
   21.30000      1.8452253E-08
   21.36000      1.7817987E-08
   21.42000      1.7365792E-08
   21.48000      1.7106611E-08
   21.54000      1.7030251E-08
   21.60000      1.7109127E-08
   21.66000      1.7304462E-08
   21.72000      1.7570958E-08
   21.78000      1.7857833E-08
   21.84000      1.8107185E-08
   21.90000      1.8252925E-08
   21.96000      1.8223771E-08
   22.02000      1.7951630E-08
   22.08000      1.7383655E-08
   22.14000      1.6493850E-08
   22.20000      1.5289828E-08
   22.26000      1.3812132E-08
   22.32000      1.2126385E-08
   22.38000      1.0311151E-08
   22.44000      8.4453360E-09
   22.50000      6.5984134E-09
   22.56000      4.8250235E-09
   22.62000      3.1638323E-09
   22.68000      1.6394349E-09
   22.74000      2.6588440E-10
   22.80000     -9.4930896E-10
   22.86000     -2.0014479E-09
   22.92000     -2.8856522E-09
   22.98000     -3.5949046E-09
   23.04000     -4.1192942E-09
   23.10000     -4.4464068E-09
   23.16000     -4.5626329E-09
   23.22000     -4.4550870E-09
   23.28000     -4.1139376E-09
   23.34000     -3.5350014E-09
   23.40000     -2.7224083E-09
   23.46000     -1.6908530E-09
   23.52000     -4.6667581E-10
   23.58000      9.1298780E-10
   23.64000      2.4032596E-09
   23.70000      3.9561949E-09
   23.76000      5.5256826E-09
   23.82000      7.0708710E-09
   23.88000      8.5569463E-09
   23.94000      9.9532542E-09
   24.00000      1.1229973E-08
   24.06000      1.2355216E-08
   24.12000      1.3294229E-08
   24.18000      1.4011214E-08
   24.24000      1.4473068E-08
   24.30000      1.4653406E-08
   24.36000      1.4535268E-08
   24.42000      1.4111699E-08
   24.48000      1.3384558E-08
   24.54000      1.2362714E-08
   24.60000      1.1060942E-08
   24.66000      9.5002255E-09
   24.72000      7.7093087E-09
   24.78000      5.7266916E-09
   24.84000      3.6020618E-09
   24.90000      1.3964992E-09
   24.96000     -8.1880680E-10
   25.02000     -2.9653047E-09
   25.08000     -4.9612652E-09
   25.14000     -6.7273653E-09
   25.20000     -8.1933500E-09
   25.26000     -9.3048316E-09
   25.32000     -1.0028618E-08
   25.38000     -1.0354842E-08
   25.44000     -1.0294916E-08
   25.50000     -9.8758823E-09
   25.56000     -9.1333163E-09
   25.62000     -8.1055811E-09
   25.68000     -6.8314279E-09
   25.74000     -5.3509734E-09
   25.80000     -3.7080083E-09
   25.86000     -1.9507014E-09
   25.92000     -1.2868841E-10
   25.98000      1.7131465E-09
   26.04000      3.5415553E-09
   26.10000      5.3389080E-09
   26.16000      7.1018644E-09
   26.22000      8.8349754E-09
   26.28000      1.0542097E-08
   26.34000      1.2219604E-08
   26.40000      1.3854342E-08
   26.46000      1.5426728E-08
   26.52000      1.6916855E-08
   26.58000      1.8310205E-08
   26.64000      1.9600266E-08
   26.70000      2.0787322E-08
   26.76000      2.1874598E-08
   26.82000      2.2864034E-08
   26.88000      2.3753570E-08
   26.94000      2.4536570E-08
   27.00000      2.5202976E-08
   27.06000      2.5741020E-08
   27.12000      2.6138801E-08
   27.18000      2.6385472E-08
   27.24000      2.6472438E-08
   27.30000      2.6394948E-08
   27.36000      2.6154122E-08
   27.42000      2.5759080E-08
   27.48000      2.5228362E-08
   27.54000      2.4590070E-08
   27.60000      2.3880199E-08
   27.66000      2.3139274E-08
   27.72000      2.2407693E-08
   27.78000      2.1720730E-08
   27.84000      2.1104157E-08
   27.90000      2.0571504E-08
   27.96000      2.0123558E-08
   28.02000      1.9750143E-08
   28.08000      1.9433754E-08
   28.14000      1.9154211E-08
   28.20000      1.8893415E-08
   28.26000      1.8639442E-08
   28.32000      1.8389324E-08
   28.38000      1.8149938E-08
   28.44000      1.7936589E-08
   28.50000      1.7769091E-08
   28.56000      1.7665853E-08
   28.62000      1.7637262E-08
   28.68000      1.7680502E-08
   28.74000      1.7777877E-08
   28.80000      1.7900016E-08
   28.86000      1.8013496E-08
   28.92000      1.8090679E-08
   28.98000      1.8118241E-08
   29.04000      1.8101172E-08
   29.10000      1.8060685E-08
   29.16000      1.8026908E-08
   29.22000      1.8029402E-08
   29.28000      1.8089224E-08
   29.34000      1.8215220E-08
   29.40000      1.8404940E-08
   29.46000      1.8648365E-08
   29.52000      1.8931638E-08
   29.58000      1.9238765E-08
   29.64000      1.9551356E-08
   29.70000      1.9848262E-08
   29.76000      2.0107496E-08
   29.82000      2.0311276E-08
   29.88000      2.0452639E-08
   29.94000      2.0540034E-08
   30.00000      2.0596474E-08
   30.06000      2.0652282E-08
   30.12000      2.0734007E-08
   30.18000      2.0854786E-08
   30.24000      2.1011132E-08
   30.30000      2.1188063E-08
   30.36000      2.1369873E-08
   30.42000      2.1550461E-08
   30.48000      2.1737083E-08
   30.54000      2.1944862E-08
   30.60000      2.2184606E-08
   30.66000      2.2450553E-08
   30.72000      2.2715001E-08
   30.78000      2.2933396E-08
   30.84000      2.3057876E-08
   30.90000      2.3052765E-08
   30.96000      2.2904601E-08
   31.02000      2.2622215E-08
   31.08000      2.2227642E-08
   31.14000      2.1743096E-08
   31.20000      2.1180716E-08
   31.26000      2.0539645E-08
   31.32000      1.9810805E-08
   31.38000      1.8986029E-08
   31.44000      1.8066606E-08
   31.50000      1.7067693E-08
   31.56000      1.6017559E-08
   31.62000      1.4953130E-08
   31.68000      1.3914046E-08
   31.74000      1.2936730E-08
   31.80000      1.2048903E-08
   31.86000      1.1264373E-08
   31.92000      1.0578609E-08
   31.98000      9.9666018E-09
   32.04000      9.3848813E-09
   32.10000      8.7785708E-09
   32.16000      8.0922664E-09
   32.22000      7.2814745E-09
   32.28000      6.3207533E-09
   32.34000      5.2059645E-09
   32.40000      3.9507553E-09
   32.46000      2.5798774E-09
   32.52000      1.1230785E-09
   32.58000     -3.8774911E-10
   32.64000     -1.9178155E-09
   32.70000     -3.4270955E-09
   32.76000     -4.8693787E-09
   32.82000     -6.1947794E-09
   32.88000     -7.3556010E-09
   32.94000     -8.3133243E-09
   33.00000     -9.0436689E-09
   33.06000     -9.5375743E-09
   33.12000     -9.7980726E-09
   33.18000     -9.8351460E-09
   33.24000     -9.6615338E-09
   33.30000     -9.2917212E-09
   33.36000     -8.7443084E-09
   33.42000     -8.0459044E-09
   33.48000     -7.2336803E-09
   33.54000     -6.3543788E-09
   33.60000     -5.4594320E-09
   33.66000     -4.5978967E-09
   33.72000     -3.8099386E-09
   33.78000     -3.1231069E-09
   33.84000     -2.5519729E-09
   33.90000     -2.0999253E-09
   33.96000     -1.7610826E-09
   34.02000     -1.5208551E-09
   34.08000     -1.3552509E-09
   34.14000     -1.2304699E-09
   34.20000     -1.1047415E-09
   34.26000     -9.3338770E-10
   34.32000     -6.7627232E-10
   34.38000     -3.0524491E-10
   34.44000      1.9124118E-10
   34.50000      8.0811596E-10
   34.56000      1.5281536E-09
   34.62000      2.3289364E-09
   34.68000      3.1895135E-09
   34.74000      4.0943844E-09
   34.80000      5.0338542E-09
   34.86000      6.0014207E-09
   34.92000      6.9899175E-09
   34.98000      7.9882563E-09
   35.04000      8.9799022E-09
   35.10000      9.9431388E-09
   35.16000      1.0852435E-08
   35.22000      1.1679990E-08
   35.28000      1.2397144E-08
   35.34000      1.2975945E-08
   35.40000      1.3391603E-08
   35.46000      1.3626115E-08
   35.52000      1.3672377E-08
   35.58000      1.3537089E-08
   35.64000      1.3240657E-08
   35.70000      1.2813295E-08
   35.76000      1.2288497E-08
   35.82000      1.1696661E-08
   35.88000      1.1061942E-08
   35.94000      1.0403894E-08
   36.00000      9.7427186E-09
   36.06000      9.1047756E-09
   36.12000      8.5245517E-09
   36.18000      8.0412406E-09
   36.24000      7.6911739E-09
   36.30000      7.4999003E-09
   36.36000      7.4779178E-09
   36.42000      7.6219191E-09
   36.48000      7.9200806E-09
   36.54000      8.3576817E-09
   36.60000      8.9194634E-09
   36.66000      9.5876418E-09
   36.72000      1.0337667E-08
   36.78000      1.1135509E-08
   36.84000      1.1939354E-08
   36.90000      1.2705646E-08
   36.96000      1.3396345E-08
   37.02000      1.3983201E-08
   37.08000      1.4446543E-08
   37.14000      1.4769599E-08
   37.20000      1.4932429E-08
   37.26000      1.4910182E-08
   37.32000      1.4678067E-08
   37.38000      1.4221380E-08
   37.44000      1.3545622E-08
   37.50000      1.2681184E-08
   37.56000      1.1679631E-08
   37.62000      1.0602810E-08
   37.68000      9.5095798E-09
   37.74000      8.4457490E-09
   37.80000      7.4407409E-09
   37.86000      6.5107728E-09
   37.92000      5.6652918E-09
   37.98000      4.9126188E-09
   38.04000      4.2623918E-09
   38.10000      3.7250401E-09
   38.16000      3.3104051E-09
   38.22000      3.0275902E-09
   38.28000      2.8864549E-09
   38.34000      2.8993461E-09
   38.40000      3.0810443E-09
   38.46000      3.4460637E-09
   38.52000      4.0044434E-09
   38.58000      4.7585180E-09
   38.64000      5.7027170E-09
   38.70000      6.8264572E-09
   38.76000      8.1179312E-09
   38.82000      9.5657242E-09
   38.88000      1.1156492E-08
   38.94000      1.2869637E-08
   39.00000      1.4672247E-08
   39.06000      1.6518118E-08
   39.12000      1.8352663E-08
   39.18000      2.0122368E-08
   39.24000      2.1784782E-08
   39.30000      2.3314440E-08
   39.36000      2.4702034E-08
   39.42000      2.5947312E-08
   39.48000      2.7048960E-08
   39.54000      2.7995956E-08
   39.60000      2.8763894E-08
   39.66000      2.9317681E-08
   39.72000      2.9619507E-08
   39.78000      2.9639358E-08
   39.84000      2.9364646E-08
   39.90000      2.8805950E-08
   39.96000      2.7996983E-08
   40.02000      2.6988618E-08
   40.08000      2.5838535E-08
   40.14000      2.4599633E-08
   40.20000      2.3310845E-08
   40.26000      2.1993275E-08
   40.32000      2.0652401E-08
   40.38000      1.9284780E-08
   40.44000      1.7885872E-08
   40.50000      1.6455621E-08
   40.56000      1.4999955E-08
   40.62000      1.3528751E-08
   40.68000      1.2052408E-08
   40.74000      1.0579430E-08
   40.80000      9.1160359E-09
   40.86000      7.6670217E-09
   40.92000      6.2361178E-09
   40.98000      4.8245337E-09
   41.04000      3.4280265E-09
   41.10000      2.0342665E-09
   41.16000      6.2262279E-10
   41.22000     -8.3278073E-10
   41.28000     -2.3578517E-09
   41.34000     -3.9736743E-09
   41.40000     -5.6943281E-09
   41.46000     -7.5280200E-09
   41.52000     -9.4801136E-09
   41.58000     -1.1555575E-08
   41.64000     -1.3759062E-08
   41.70000     -1.6092748E-08
   41.76000     -1.8553747E-08
   41.82000     -2.1133323E-08
   41.88000     -2.3818696E-08
   41.94000     -2.6596201E-08
   42.00000     -2.9453259E-08
   42.06000     -3.2377265E-08
   42.12000     -3.5351654E-08
   42.18000     -3.8351693E-08
   42.24000     -4.1343320E-08
   42.30000     -4.4286612E-08
   42.36000     -4.7142684E-08
   42.42000     -4.9880335E-08
   42.48000     -5.2478516E-08
   42.54000     -5.4923419E-08
   42.60000     -5.7202321E-08
   42.66000     -5.9298777E-08
   42.72000     -6.1193106E-08
   42.78000     -6.2868843E-08
   42.84000     -6.4321533E-08
   42.90000     -6.5564350E-08
   42.96000     -6.6626022E-08
   43.02000     -6.7541094E-08
   43.08000     -6.8336966E-08
   43.14000     -6.9024260E-08
   43.20000     -6.9595607E-08
   43.26000     -7.0032748E-08
   43.32000     -7.0317661E-08
   43.38000     -7.0441146E-08
   43.44000     -7.0404475E-08
   43.50000     -7.0214519E-08
   43.56000     -6.9876812E-08
   43.62000     -6.9392215E-08
   43.68000     -6.8760059E-08
   43.74000     -6.7985845E-08
   43.80000     -6.7087953E-08
   43.86000     -6.6098075E-08
   43.92000     -6.5053563E-08
   43.98000     -6.3985290E-08
   44.04000     -6.2907986E-08
   44.10000     -6.1818710E-08
   44.16000     -6.0704963E-08
   44.22000     -5.9558083E-08
   44.28000     -5.8384373E-08
   44.34000     -5.7207831E-08
   44.40000     -5.6063023E-08
   44.46000     -5.4982181E-08
   44.52000     -5.3983513E-08
   44.58000     -5.3066611E-08
   44.64000     -5.2216400E-08
   44.70000     -5.1412616E-08
   44.76000     -5.0639265E-08
   44.82000     -4.9889820E-08
   44.88000     -4.9167131E-08
   44.94000     -4.8480107E-08
   45.00000     -4.7840381E-08
   45.06000     -4.7260688E-08
   45.12000     -4.6754472E-08
   45.18000     -4.6334623E-08
   45.24000     -4.6009951E-08
   45.30000     -4.5780059E-08
   45.36000     -4.5631527E-08
   45.42000     -4.5538457E-08
   45.48000     -4.5468717E-08
   45.54000     -4.5393904E-08
   45.60000     -4.5298695E-08
   45.66000     -4.5185008E-08
   45.72000     -4.5068681E-08
   45.78000     -4.4970093E-08
   45.84000     -4.4903064E-08
   45.90000     -4.4867193E-08
   45.96000     -4.4846828E-08
   46.02000     -4.4816723E-08
   46.08000     -4.4751118E-08
   46.14000     -4.4632007E-08
   46.20000     -4.4452925E-08
   46.26000     -4.4217490E-08
   46.32000     -4.3934179E-08
   46.38000     -4.3610523E-08
   46.44000     -4.3249681E-08
   46.50000     -4.2850552E-08
   46.56000     -4.2411013E-08
   46.62000     -4.1932104E-08
   46.68000     -4.1420979E-08
   46.74000     -4.0891258E-08
   46.80000     -4.0360625E-08
   46.86000     -3.9846977E-08
   46.92000     -3.9364831E-08
   46.98000     -3.8923549E-08
   47.04000     -3.8527926E-08
   47.10000     -3.8180634E-08
   47.16000     -3.7885137E-08
   47.22000     -3.7647506E-08
   47.28000     -3.7476326E-08
   47.34000     -3.7380779E-08
   47.40000     -3.7368192E-08
   47.46000     -3.7442231E-08
   47.52000     -3.7602593E-08
   47.58000     -3.7845648E-08
   47.64000     -3.8164789E-08
   47.70000     -3.8549256E-08
   47.76000     -3.8981629E-08
   47.82000     -3.9435420E-08
   47.88000     -3.9875211E-08
   47.94000     -4.0260790E-08
   48.00000     -4.0554291E-08
   48.06000     -4.0727166E-08
   48.12000     -4.0762632E-08
   48.18000     -4.0651113E-08
   48.24000     -4.0379533E-08
   48.30000     -3.9919161E-08
   48.36000     -3.9217888E-08
   48.42000     -3.8200831E-08
   48.48000     -3.6778680E-08
   48.54000     -3.4858584E-08
   48.60000     -3.2350620E-08
   48.66000     -2.9164969E-08
   48.72000     -2.5199977E-08
   48.78000     -2.0326290E-08
   48.84000     -1.4374103E-08
   48.90000     -7.1284290E-09
   48.96000      1.6678929E-09
   49.02000      1.2308725E-08
   49.08000      2.5123903E-08
   49.14000      4.0488388E-08
   49.20000      5.8841565E-08
   49.26000      8.0712532E-08
   49.32000      1.0674535E-07
   49.38000      1.3771988E-07
   49.44000      1.7456780E-07
   49.50000      2.1838673E-07
   49.56000      2.7045684E-07
   49.62000      3.3226323E-07
   49.68000      4.0552538E-07
   49.74000      4.9223263E-07
   49.80000      5.9468465E-07
   49.86000      7.1553620E-07
   49.92000      8.5784694E-07
   49.98000      1.0251356E-06
   50.04000      1.2214396E-06
   50.10000      1.4513772E-06
   50.16000      1.7202145E-06
   50.22000      2.0339346E-06
   50.28000      2.3993127E-06
   50.34000      2.8240001E-06
   50.40000      3.3166184E-06
   50.46000      3.8868634E-06
   50.52000      4.5456254E-06
   50.58000      5.3051072E-06
   50.64000      6.1789565E-06
   50.70000      7.1823970E-06
   50.76000      8.3323694E-06
   50.82000      9.6476606E-06
   50.88000      1.1149055E-05
   50.94000      1.2859469E-05
   51.00000      1.4804101E-05
   51.06000      1.7010574E-05
   51.12000      1.9509085E-05
   51.18000      2.2332553E-05
   51.24000      2.5516771E-05
   51.30000      2.9100540E-05
   51.36000      3.3125809E-05
   51.42000      3.7637790E-05
   51.48000      4.2685042E-05
   51.54000      4.8319573E-05
   51.60000      5.4596869E-05
   51.66000      6.1575935E-05
   51.72000      6.9319321E-05
   51.78000      7.7893063E-05
   51.84000      8.7366672E-05
   51.90000      9.7813041E-05
   51.96000      1.0930828E-04
   52.02000      1.2193154E-04
   52.08000      1.3576479E-04
   52.14000      1.5089249E-04
   52.20000      1.6740133E-04
   52.26000      1.8537974E-04
   52.32000      2.0491752E-04
   52.38000      2.2610533E-04
   52.44000      2.4903406E-04
   52.50000      2.7379431E-04
   52.56000      3.0047569E-04
   52.62000      3.2916604E-04
   52.68000      3.5995076E-04
   52.74000      3.9291198E-04
   52.80000      4.2812762E-04
   52.86000      4.6567046E-04
   52.92000      5.0560734E-04
   52.98000      5.4799829E-04
   53.04000      5.9289520E-04
   53.10000      6.4034131E-04
   53.16000      6.9037022E-04
   53.22000      7.4300484E-04
   53.28000      7.9825672E-04
   53.34000      8.5612491E-04
   53.40000      9.1659551E-04
   53.46000      9.7964052E-04
   53.52000      1.0452180E-03
   53.58000      1.1132705E-03
   53.64000      1.1837255E-03
   53.70000      1.2564954E-03
   53.76000      1.3314763E-03
   53.82000      1.4085489E-03
   53.88000      1.4875778E-03
   53.94000      1.5684128E-03
   54.00000      1.6508878E-03
   54.06000      1.7348232E-03
   54.12000      1.8200257E-03
   54.18000      1.9062891E-03
   54.24000      1.9933961E-03
   54.30000      2.0811181E-03
   54.36000      2.1692181E-03
   54.42000      2.2574512E-03
   54.48000      2.3455657E-03
   54.54000      2.4333065E-03
   54.60000      2.5204150E-03
   54.66000      2.6066324E-03
   54.72000      2.6917008E-03
   54.78000      2.7753655E-03
   54.84000      2.8573768E-03
   54.90000      2.9374918E-03
   54.96000      3.0154758E-03
   55.02000      3.0911050E-03
   55.08000      3.1641680E-03
   55.14000      3.2344670E-03
   55.20000      3.3018196E-03
   55.26000      3.3660606E-03
   55.32000      3.4270433E-03
   55.38000      3.4846398E-03
   55.44000      3.5387424E-03
   55.50000      3.5892639E-03
   55.56000      3.6361383E-03