 -0.750000000       0.00000000    
 -0.689999998       0.00000000    
 -0.629999995       0.00000000    
 -0.569999993       0.00000000    
 -0.509999990       0.00000000    
 -0.449999988       0.00000000    
 -0.389999986       0.00000000    
 -0.330000013       0.00000000    
 -0.270000011       4.14947866E-28
 -0.209999993      -9.60604861E-26
 -0.150000006      -1.20646405E-24
  -9.00000036E-02  -7.16264797E-24
  -2.99999993E-02  -2.60351283E-23
   2.99999993E-02  -5.91068107E-23
   9.00000036E-02  -5.71151577E-23
  0.150000006       1.53738603E-22
  0.209999993       8.80497209E-22
  0.270000011       2.27997472E-21
  0.330000013       3.58319980E-21
  0.389999986       2.11864219E-21
  0.449999988      -6.58503138E-21
  0.509999990      -2.56361900E-20
  0.569999993      -4.98182158E-20
  0.629999995      -5.84567182E-20
  0.689999998      -1.74417171E-20
  0.750000000       9.94744399E-20
  0.810000002       2.71633835E-19
  0.870000005       4.00338046E-19
  0.930000007       3.31388664E-19
  0.990000010      -3.70565347E-20
   1.04999995      -5.98401894E-19
   1.11000001      -9.68093105E-19
   1.16999996      -6.74151010E-19
   1.23000002       3.46669999E-19
   1.28999996       1.21620810E-18
   1.35000002       1.42046427E-19
   1.40999997      -4.41403469E-18
   1.47000003      -1.15126394E-17
   1.52999997      -1.57635809E-17
   1.59000003      -7.91945283E-18
   1.64999998       2.00317237E-17
   1.71000004       6.59124776E-17
   1.76999998       1.09271009E-16
   1.83000004       1.11959386E-16
   1.88999999       3.37587959E-17
   1.95000005      -1.38327429E-16
   2.00999999      -3.60313496E-16
   2.06999993      -5.23025004E-16
   2.13000011      -4.84555521E-16
   2.19000006      -1.43602181E-16
   2.25000000       4.75016924E-16
   2.30999994       1.17374785E-15
   2.36999989       1.62216010E-15
   2.43000007       1.49275253E-15
   2.49000001       6.42573699E-16
   2.54999995      -7.56649555E-16
   2.60999990      -2.23424252E-15
   2.67000008      -3.20849579E-15
   2.73000002      -3.26681677E-15
   2.78999996      -2.37728923E-15
   2.84999990      -8.81254455E-16
   2.91000009       7.61228192E-16
   2.97000003       2.32240828E-15
   3.02999997       3.98384710E-15
   3.08999991       6.11849633E-15
   3.15000010       8.69896061E-15
   3.21000004       1.06763209E-14
   3.26999998       9.86832093E-15
   3.32999992       3.76826408E-15
   3.39000010      -8.79790168E-15
   3.45000005      -2.58801634E-14
   3.50999999      -4.16173884E-14
   3.56999993      -4.74454731E-14
   3.63000011      -3.54662656E-14
   3.69000006      -2.92440370E-15
   3.75000000       4.42687133E-14
   3.80999994       9.11773573E-14
   3.86999989       1.17843967E-13
   3.93000007       1.06915345E-13
   3.99000001       5.21353760E-14
   4.05000019      -3.61283404E-14
   4.11000013      -1.31547103E-13
   4.17000008      -1.99606607E-13
   4.23000002      -2.10278043E-13
   4.28999996      -1.50776215E-13
   4.34999990      -3.28763438E-14
   4.40999985       1.09002563E-13
   4.46999979       2.29067579E-13
   4.53000021       2.86781964E-13
   4.59000015       2.62183585E-13
   4.65000010       1.63351036E-13
   4.71000004       2.26117580E-14
   4.76999998      -1.17000092E-13
   4.82999992      -2.19016835E-13
   4.88999987      -2.66609109E-13
   4.94999981      -2.65340457E-13
   5.01000023      -2.34437497E-13
   5.07000017      -1.91286020E-13
   5.13000011      -1.37771589E-13
   5.19000006      -5.68346538E-14
   5.25000000       7.70998662E-14
   5.30999994       2.77398493E-13
   5.36999989       5.24114281E-13
   5.42999983       7.54502634E-13
   5.48999977       8.73451105E-13
   5.55000019       7.83769371E-13
   5.61000013       4.26854651E-13
   5.67000008      -1.81936755E-13
   5.73000002      -9.38725009E-13
   5.78999996      -1.66603840E-12
   5.84999990      -2.15515431E-12
   5.90999985      -2.22349439E-12
   5.96999979      -1.76917346E-12
   6.03000021      -8.05990420E-13
   6.09000015       5.30824625E-13
   6.15000010       2.00822562E-12
   6.21000004       3.34020333E-12
   6.26999998       4.24163179E-12
   6.32999992       4.47943896E-12
   6.38999987       3.91324646E-12
   6.44999981       2.52218949E-12
   6.51000023       4.17836555E-13
   6.57000017      -2.15613118E-12
   6.63000011      -4.83812513E-12
   6.69000006      -7.17951046E-12
   6.75000000      -8.69607598E-12
   6.80999994      -8.94266258E-12
   6.86999989      -7.60821007E-12
   6.92999983      -4.61922861E-12
   6.98999977      -2.28424403E-13
   7.05000019       4.94380752E-12
   7.11000013       9.94813520E-12
   7.17000008       1.36458457E-11
   7.23000002       1.49428265E-11
   7.28999996       1.30764661E-11
   7.34999990       7.88304318E-12
   7.40999985      -3.83376904E-14
   7.46999979      -9.33135080E-12
   7.53000021      -1.80775863E-11
   7.59000015      -2.41417025E-11
   7.65000010      -2.55775574E-11
   7.71000004      -2.09886934E-11
   7.76999998      -9.75919085E-12
   7.82999992       7.87513197E-12
   7.88999987       3.08862727E-11
   7.94999981       5.75786432E-11
   8.01000023       8.57162882E-11
   8.06999969       1.12629475E-10
   8.13000011       1.35328193E-10
   8.18999958       1.50681981E-10
   8.25000000       1.55715177E-10
   8.31000042       1.48014961E-10
   8.36999989       1.26180094E-10
   8.43000031       9.01871425E-11
   8.48999977       4.15481156E-11
   8.55000019      -1.68135523E-11
   8.60999966      -8.09534037E-11
   8.67000008      -1.46461454E-10
   8.72999954      -2.09036566E-10
   8.78999996      -2.64946398E-10
   8.85000038      -3.11301374E-10
   8.90999985      -3.46152024E-10
   8.97000027      -3.68476499E-10
   9.02999973      -3.78142684E-10
   9.09000015      -3.75897508E-10
   9.14999962      -3.63382852E-10
   9.21000004      -3.43127388E-10
   9.27000046      -3.18444299E-10
   9.32999992      -2.93178870E-10
   9.39000034      -2.71295403E-10
   9.44999981      -2.56344918E-10
   9.51000023      -2.50901661E-10
   9.56999969      -2.56084071E-10
   9.63000011      -2.71275696E-10
   9.68999958      -2.94136604E-10
   9.75000000      -3.20941412E-10
   9.81000042      -3.47207013E-10
   9.86999989      -3.68496234E-10
   9.93000031      -3.81226078E-10
   9.98999977      -3.83297394E-10
   10.0500002      -3.74408504E-10
   10.1099997      -3.56003893E-10
   10.1700001      -3.30912991E-10
   10.2299995      -3.02805669E-10
   10.2900000      -2.75605955E-10
   10.3500004      -2.52965565E-10
   10.4099998      -2.37834363E-10
   10.4700003      -2.32122682E-10
   10.5299997      -2.36454800E-10
   10.5900002      -2.50055893E-10
   10.6499996      -2.70857614E-10
   10.7100000      -2.95898223E-10
   10.7700005      -3.22014609E-10
   10.8299999      -3.46698059E-10
   10.8900003      -3.68878900E-10
   10.9499998      -3.89378335E-10
   11.0100002      -4.10852213E-10
   11.0699997      -4.37217151E-10
   11.1300001      -4.72722750E-10
   11.1899996      -5.20939181E-10
   11.2500000      -5.83926796E-10
   11.3100004      -6.61766253E-10
   11.3699999      -7.52510387E-10
   11.4300003      -8.52531934E-10
   11.4899998      -9.57196544E-10
   11.5500002      -1.06177678E-09
   11.6099997      -1.16248311E-09
   11.6700001      -1.25742150E-09
   11.7299995      -1.34722422E-09
   11.7900000      -1.43509482E-09
   11.8500004      -1.52612956E-09
   11.9099998      -1.62600677E-09
   11.9700003      -1.73939063E-09
   12.0299997      -1.86855953E-09
   12.0900002      -2.01273131E-09
   12.1499996      -2.16831930E-09
   12.2100000      -2.32999131E-09
   12.2700005      -2.49208498E-09
   12.3299999      -2.64980948E-09
   12.3900003      -2.79977996E-09
   12.4499998      -2.93974334E-09
   12.5100002      -3.06772674E-09
   12.5699997      -3.18107762E-09
   12.6300001      -3.27589356E-09
   12.6899996      -3.34715144E-09
   12.7500000      -3.38953887E-09
   12.8100004      -3.39870287E-09
   12.8699999      -3.37249717E-09
   12.9300003      -3.31184369E-09
   12.9899998      -3.22099236E-09
   13.0500002      -3.10716852E-09
   13.1099997      -2.97975600E-09
   13.1700001      -2.84922019E-09
   13.2299995      -2.72598522E-09
   13.2900000      -2.61944755E-09
   13.3500004      -2.53730392E-09
   13.4099998      -2.48535437E-09
   13.4700003      -2.46787502E-09
   13.5299997      -2.48849741E-09
   13.5900002      -2.55132226E-09
   13.6499996      -2.66179923E-09
   13.7100000      -2.82688495E-09
   13.7700005      -3.05418024E-09
   13.8299999      -3.35014061E-09
   13.8900003      -3.71786713E-09
   13.9499998      -4.15523305E-09
   14.0100002      -4.65403049E-09
   14.0699997      -5.20044185E-09
   14.1300001      -5.77660808E-09
   14.1899996      -6.36267039E-09
   14.2500000      -6.93852797E-09
   14.3100004      -7.48481543E-09
   14.3699999      -7.98304800E-09
   14.4300003      -8.41534487E-09
   14.4899998      -8.76437056E-09
   14.5500002      -9.01398511E-09
   14.6099997      -9.15077258E-09
   14.6700001      -9.16610965E-09
   14.7299995      -9.05812936E-09
   14.7900000      -8.83285978E-09
   14.8500004      -8.50402060E-09
   14.9099998      -8.09139955E-09
   14.9700003      -7.61817720E-09
   15.0299997      -7.10788850E-09
   15.0900002      -6.58183907E-09
   15.1499996      -6.05758599E-09
   15.2100000      -5.54874946E-09
   15.2700005      -5.06595299E-09
   15.3299999      -4.61831684E-09
   15.3900003      -4.21479474E-09
   15.4499998      -3.86467924E-09
   15.5100002      -3.57695118E-09
   15.5699997      -3.35851946E-09
   15.6300001      -3.21179461E-09
   15.6899996      -3.13229132E-09
   15.7500000      -3.10702308E-09
   15.8100004      -3.11431769E-09
   15.8699999      -3.12538018E-09
   15.9300003      -3.10753645E-09
   15.9899998      -3.02865288E-09
   16.0499992      -2.86189050E-09
   16.1100006      -2.58978483E-09
   16.1700001      -2.20673968E-09
   16.2299995      -1.71938519E-09
   16.2900009      -1.14476761E-09
   16.3500004      -5.06882480E-10
   16.4099998       1.67556455E-10
   16.4699993       8.53128235E-10
   16.5300007       1.52868751E-09
   16.5900002       2.17888863E-09
   16.6499996       2.79424350E-09
   16.7099991       3.37002293E-09
   16.7700005       3.90448873E-09
   16.8299999       4.39696635E-09
   16.8899994       4.84618612E-09
   16.9500008       5.24920463E-09
   17.0100002       5.60106317E-09
   17.0699997       5.89515103E-09
   17.1299992       6.12409368E-09
   17.1900005       6.28084251E-09
   17.2500000       6.35966391E-09
   17.3099995       6.35684261E-09
   17.3700008       6.27116759E-09
   17.4300003       6.10443429E-09
   17.4899998       5.86223203E-09
   17.5499992       5.55504220E-09
   17.6100006       5.19931076E-09
   17.6700001       4.81776219E-09
   17.7299995       4.43815740E-09
   17.7900009       4.08997947E-09
   17.8500004       3.79919074E-09
   17.9099998       3.58198893E-09
   17.9699993       3.43905970E-09
   18.0300007       3.35193340E-09
   18.0900002       3.28262617E-09
   18.1499996       3.17687676E-09
   18.2099991       2.97035196E-09
   18.2700005       2.59645816E-09
   18.3299999       1.99413530E-09
   18.3899994       1.11423248E-09
   18.4500008      -7.63668781E-11
   18.5100002      -1.59303160E-09
   18.5699997      -3.43370066E-09
   18.6299992      -5.58056490E-09
   18.6900005      -8.00240585E-09
   18.7500000      -1.06570317E-08
   18.8099995      -1.34934428E-08
   18.8700008      -1.64535940E-08
   18.9300003      -1.94738323E-08
   18.9899998      -2.24863417E-08
   19.0499992      -2.54210732E-08
   19.1100006      -2.82087456E-08
   19.1700001      -3.07852197E-08
   19.2299995      -3.30971339E-08
   19.2900009      -3.51079699E-08
   19.3500004      -3.68031863E-08
   19.4099998      -3.81927343E-08
   19.4699993      -3.93097075E-08
   19.5300007      -4.02046965E-08
   19.5900002      -4.09366407E-08
   19.6499996      -4.15620249E-08
   19.7099991      -4.21248778E-08
   19.7700005      -4.26498659E-08
   19.8299999      -4.31399947E-08
   19.8899994      -4.35792664E-08
   19.9500008      -4.39392771E-08
   20.0100002      -4.41880310E-08
   20.0699997      -4.42985524E-08
   20.1299992      -4.42552235E-08
   20.1900005      -4.40562999E-08
   20.2500000      -4.37121521E-08
   20.3099995      -4.32398366E-08
   20.3700008      -4.26557136E-08
   20.4300003      -4.19683772E-08
   20.4899998      -4.11740970E-08
   20.5499992      -4.02563387E-08
   20.6100006      -3.91896720E-08
   20.6700001      -3.79469824E-08
   20.7299995      -3.65080197E-08
   20.7900009      -3.48667619E-08
   20.8500004      -3.30356542E-08
   20.9099998      -3.10456691E-08
   20.9699993      -2.89424076E-08
   21.0300007      -2.67794196E-08
   21.0900002      -2.46106318E-08
   21.1499996      -2.24836221E-08
   21.2099991      -2.04351842E-08
   21.2700005      -1.84897893E-08
   21.3299999      -1.66608363E-08
   21.3899994      -1.49538977E-08
   21.4500008      -1.33706841E-08
   21.5100002      -1.19123955E-08
   21.5699997      -1.05813935E-08
   21.6299992      -9.38064382E-09
   21.6900005      -8.31121660E-09
   21.7500000      -7.36878913E-09
   21.8099995      -6.54055343E-09
   21.8700008      -5.80387649E-09
   21.9300003      -5.12758236E-09
   21.9899998      -4.47590498E-09
   22.0499992      -3.81429510E-09
   22.1100006      -3.11563464E-09
   22.1700001      -2.36520536E-09
   22.2299995      -1.56305047E-09
   22.2900009      -7.23062721E-10
   22.3500004       1.30969346E-10
   22.4099998       9.71298264E-10
   22.4699993       1.77257253E-09
   22.5300007       2.51700616E-09
   22.5900002       3.19720717E-09
   22.6499996       3.81626153E-09
   22.7099991       4.38548531E-09
   22.7700005       4.92082242E-09
   22.8299999       5.43904877E-09
   22.8899994       5.95469452E-09
   22.9500008       6.47814336E-09
   23.0100002       7.01486469E-09
   23.0699997       7.56543983E-09
   23.1299992       8.12596657E-09
   23.1900005       8.68856453E-09
   23.2500000       9.24186772E-09
   23.3099995       9.77156933E-09
   23.3700008       1.02611768E-08
   23.4300003       1.06931219E-08
   23.4899998       1.10503366E-08
   23.5499992       1.13182530E-08
   23.6100006       1.14870291E-08
   23.6700001       1.15535839E-08
   23.7299995       1.15229444E-08
   23.7900009       1.14083933E-08
   23.8500004       1.12301537E-08
   23.9099998       1.10126956E-08
   23.9699993       1.07810507E-08
   24.0300007       1.05568363E-08
   24.0900002       1.03547180E-08
   24.1499996       1.01800035E-08
   24.2099991       1.00278781E-08
   24.2700005       9.88445503E-09
   24.3299999       9.72948300E-09
   24.3899994       9.54004431E-09
   24.4500008       9.29425692E-09
   24.5100002       8.97386521E-09
   24.5699997       8.56495586E-09
   24.6299992       8.05679967E-09
   24.6900005       7.43969331E-09
   24.7500000       6.70333877E-09
   24.8099995       5.83722448E-09
   24.8700008       4.83368723E-09
   24.9300003       3.69302366E-09
   24.9899998       2.42879850E-09
   25.0499992       1.07092568E-09
   25.1100006      -3.35501515E-10
   25.1700001      -1.73638126E-09
   25.2299995      -3.07881476E-09
   25.2900009      -4.32291536E-09
   25.3500004      -5.45196643E-09
   25.4099998      -6.47787690E-09
   25.4699993      -7.43996598E-09
   25.5300007      -8.39682457E-09
   25.5900002      -9.41286959E-09
   25.6499996      -1.05427755E-08
   25.7099991      -1.18177086E-08
   25.7700005      -1.32370630E-08
   25.8299999      -1.47680552E-08
   25.8899994      -1.63534128E-08
   25.9500008      -1.79251582E-08
   26.0100002      -1.94206926E-08
   26.0699997      -2.07966977E-08
   26.1299992      -2.20371046E-08
   26.1900005      -2.31531345E-08
   26.2500000      -2.41758862E-08
   26.3099995      -2.51441961E-08
   26.3700008      -2.60917599E-08
   26.4300003      -2.70376663E-08
   26.4899998      -2.79831074E-08
   26.5499992      -2.89148954E-08
   26.6100006      -2.98140961E-08
   26.6700001      -3.06662500E-08
   26.7299995      -3.14691739E-08
   26.7900009      -3.22352101E-08
   26.8500004      -3.29868115E-08
   26.9099998      -3.37467334E-08
   26.9699993      -3.45263658E-08
   27.0300007      -3.53163649E-08
   27.0900002      -3.60832644E-08
   27.1499996      -3.67738870E-08
   27.2099991      -3.73266502E-08
   27.2700005      -3.76867959E-08
   27.3299999      -3.78210103E-08
   27.3899994      -3.77270410E-08
   27.4500008      -3.74352140E-08
   27.5100002      -3.70009943E-08
   27.5699997      -3.64902348E-08
   27.6299992      -3.59609729E-08
   27.6900005      -3.54465932E-08
   27.7500000      -3.49453089E-08
   27.8099995      -3.44190596E-08
   27.8700008      -3.38026886E-08
   27.9300003      -3.30210739E-08
   27.9899998      -3.20096021E-08
   28.0499992      -3.07320889E-08
   28.1100006      -2.91909394E-08
   28.1700001      -2.74266032E-08
   28.2299995      -2.55066013E-08
   28.2900009      -2.35077753E-08
   28.3500004      -2.14973124E-08
   28.4099998      -1.95184580E-08
   28.4699993      -1.75850836E-08
   28.5300007      -1.56863411E-08
   28.5900002      -1.37993110E-08
   28.6499996      -1.19050769E-08
   28.7099991      -1.00026218E-08
   28.7700005      -8.11582890E-09
   28.8299999      -6.29115382E-09
   28.8899994      -4.58676030E-09
   28.9500008      -3.05674597E-09
   29.0100002      -1.73590942E-09
   29.0699997      -6.30432484E-10
   29.1299992       2.82004697E-10
   29.1900005       1.04234943E-09
   29.2500000       1.69364545E-09
   29.3099995       2.26346208E-09
   29.3700008       2.75154477E-09
   29.4300003       3.12740744E-09
   29.4899998       3.33928840E-09
   29.5499992       3.33192229E-09
   29.6100006       3.06728265E-09
   29.6700001       2.54107380E-09
   29.7299995       1.78882897E-09
   29.7900009       8.78821460E-10
   29.8500004      -1.06501773E-10
   29.9099998      -1.09471865E-09
   29.9699993      -2.04516248E-09
   30.0300007      -2.96066505E-09
   30.0900002      -3.88505406E-09
   30.1499996      -4.88707563E-09
   30.2099991      -6.03616890E-09
   30.2700005      -7.37839700E-09
   30.3299999      -8.92077523E-09
   30.3899994      -1.06292370E-08
   30.4500008      -1.24407196E-08
   30.5100002      -1.42849759E-08
   30.5699997      -1.61084905E-08
   30.6299992      -1.78922477E-08
   30.6900005      -1.96572927E-08
   30.7500000      -2.14560636E-08
   30.8099995      -2.33522659E-08
   30.8700008      -2.53958330E-08
   30.9300003      -2.76013150E-08
   30.9899998      -2.99370235E-08
   31.0499992      -3.23289626E-08
   31.1100006      -3.46787168E-08
   31.1700001      -3.68898441E-08
   31.2299995      -3.88943988E-08
   31.2900009      -4.06710541E-08
   31.3500004      -4.22490771E-08
   31.4099998      -4.36970673E-08
   31.4699993      -4.51001796E-08
   31.5300007      -4.65330956E-08
   31.5900002      -4.80369202E-08
   31.6499996      -4.96064274E-08
   31.7099991      -5.11907317E-08
   31.7700005      -5.27062518E-08
   31.8299999      -5.40574909E-08
   31.8899994      -5.51593438E-08
   31.9500008      -5.59546436E-08
   32.0099983      -5.64223726E-08
   32.0699997      -5.65749616E-08
   32.1300011      -5.64463711E-08
   32.1899986      -5.60753541E-08
   32.2500000      -5.54897710E-08
   32.3100014      -5.46971606E-08
   32.3699989      -5.36846585E-08
   32.4300003      -5.24278825E-08
   32.4900017      -5.09052320E-08
   32.5499992      -4.91121952E-08
   32.6100006      -4.70703263E-08
   32.6699982      -4.48275728E-08
   32.7299995      -4.24499227E-08
   32.7900009      -4.00072864E-08
   32.8499985      -3.75586708E-08
   32.9099998      -3.51418308E-08
   32.9700012      -3.27710055E-08
   33.0299988      -3.04435694E-08
   33.0900002      -2.81535559E-08
   33.1500015      -2.59074735E-08
   33.2099991      -2.37371935E-08
   33.2700005      -2.17052403E-08
   33.3300018      -1.99001136E-08
   33.3899994      -1.84222593E-08
   33.4500008      -1.73641546E-08
   33.5099983      -1.67899508E-08
   33.5699997      -1.67203851E-08
   33.6300011      -1.71273626E-08
   33.6899986      -1.79398878E-08
   33.7500000      -1.90598310E-08
   33.8100014      -2.03832542E-08
   33.8699989      -2.18214957E-08
   33.9300003      -2.33164261E-08
   33.9900017      -2.48461891E-08
   34.0499992      -2.64205777E-08
   34.1100006      -2.80683548E-08
   34.1699982      -2.98209635E-08
   34.2299995      -3.16977768E-08
   34.2900009      -3.36971233E-08
   34.3499985      -3.57950931E-08
   34.4099998      -3.79515583E-08
   34.4700012      -4.01207991E-08
   34.5299988      -4.22631210E-08
   34.5900002      -4.43541808E-08
   34.6500015      -4.63898040E-08
   34.7099991      -4.83856368E-08
   34.7700005      -5.03722575E-08
   34.8300018      -5.23871400E-08
   34.8899994      -5.44653993E-08
   34.9500008      -5.66313751E-08
   35.0099983      -5.88928835E-08
   35.0699997      -6.12395894E-08
   35.1300011      -6.36461763E-08
   35.1899986      -6.60795791E-08
   35.2500000      -6.85083279E-08
   35.3100014      -7.09111845E-08
   35.3699989      -7.32818677E-08
   35.4300003      -7.56280514E-08
   35.4900017      -7.79644012E-08
   35.5499992      -8.03016533E-08
   35.6100006      -8.26352604E-08
   35.6699982      -8.49375184E-08
   35.7299995      -8.71559251E-08
   35.7900009      -8.92187302E-08
   35.8499985      -9.10460685E-08
   35.9099998      -9.25634538E-08
   35.9700012      -9.37136022E-08
   36.0299988      -9.44632745E-08
   36.0900002      -9.48035606E-08
   36.1500015      -9.47439318E-08
   36.2099991      -9.43027274E-08
   36.2700005      -9.34972562E-08
   36.3300018      -9.23369896E-08
   36.3899994      -9.08219562E-08
   36.4500008      -8.89466776E-08
   36.5099983      -8.67081553E-08
   36.5699997      -8.41150296E-08
   36.6300011      -8.11947132E-08
   36.6899986      -7.79958924E-08
   36.7500000      -7.45852589E-08
   36.8100014      -7.10392101E-08
   36.8699989      -6.74325804E-08
   36.9300003      -6.38276632E-08
   36.9900017      -6.02664443E-08
   37.0499992      -5.67683927E-08
   37.1100006      -5.33342543E-08
   37.1699982      -4.99546964E-08
   37.2299995      -4.66212455E-08
   37.2900009      -4.33361258E-08
   37.3499985      -4.01181488E-08
   37.4099998      -3.70029625E-08
   37.4700012      -3.40377895E-08
   37.5299988      -3.12722968E-08
   37.5900002      -2.87482926E-08
   37.6500015      -2.64909392E-08
   37.7099991      -2.45034038E-08
   37.7700005      -2.27659154E-08
   37.8300018      -2.12389910E-08
   37.8899994      -1.98700203E-08
   37.9500008      -1.86019307E-08
   38.0099983      -1.73824741E-08
   38.0699997      -1.61726046E-08
   38.1300011      -1.49523292E-08
   38.1899986      -1.37227740E-08
   38.2500000      -1.25038886E-08
   38.3100014      -1.13282663E-08
   38.3699989      -1.02326867E-08
   38.4300003      -9.24969790E-09
   38.4900017      -8.40147241E-09
   38.5499992      -7.69741337E-09
   38.6100006      -7.13566584E-09
   38.6699982      -6.70750966E-09
   38.7299995      -6.40289510E-09
   38.7900009      -6.21529361E-09
   38.8499985      -6.14452267E-09
   38.9099998      -6.19690388E-09
   38.9700012      -6.38281117E-09
   39.0299988      -6.71225031E-09
   39.0900002      -7.18955961E-09
   39.1500015      -7.80868525E-09
   39.2099991      -8.55058424E-09
   39.2700005      -9.38410505E-09
   39.3300018      -1.02708837E-08
   39.3899994      -1.11736114E-08
   39.4500008      -1.20656987E-08
   39.5099983      -1.29394326E-08
   39.5699997      -1.38096272E-08
   39.6300011      -1.47107793E-08
   39.6899986      -1.56875615E-08
   39.7500000      -1.67806888E-08
   39.8100014      -1.80118871E-08
   39.8699989      -1.93724716E-08
   39.9300003      -2.08192876E-08
   39.9900017      -2.22798597E-08
   40.0499992      -2.36659581E-08
   40.1100006      -2.48922412E-08
   40.1699982      -2.58950710E-08
   40.2299995      -2.66464824E-08
   40.2900009      -2.71596878E-08
   40.3499985      -2.74849530E-08
   40.4099998      -2.76973413E-08
   40.4700012      -2.78799384E-08
   40.5299988      -2.81069745E-08
   40.5900002      -2.84308470E-08
   40.6500015      -2.88755899E-08
   40.7099991      -2.94374090E-08
   40.7700005      -3.00911651E-08
   40.8300018      -3.08003543E-08
   40.8899994      -3.15276729E-08
   40.9500008      -3.22434346E-08
   41.0099983      -3.29299752E-08
   41.0699997      -3.35815464E-08
   41.1300011      -3.42006210E-08
   41.1899986      -3.47926274E-08
   41.2500000      -3.53615341E-08
   41.3100014      -3.59080907E-08
   41.3699989      -3.64312740E-08
   41.4300003      -3.69320645E-08
   41.4900017      -3.74174824E-08
   41.5499992      -3.79029075E-08
   41.6100006      -3.84113470E-08
   41.6699982      -3.89695742E-08
   41.7299995      -3.96021811E-08
   41.7900009      -4.03251157E-08
   41.8499985      -4.11403498E-08
   41.9099998      -4.20327630E-08
   41.9700012      -4.29701252E-08
   42.0299988      -4.39065388E-08
   42.0900002      -4.47892958E-08
   42.1500015      -4.55684059E-08
   42.2099991      -4.62069245E-08
   42.2700005      -4.66895500E-08
   42.3300018      -4.70267274E-08
   42.3899994      -4.72525556E-08
   42.4500008      -4.74166910E-08
   42.5099983      -4.75725273E-08
   42.5699997      -4.77652655E-08
   42.6300011      -4.80233631E-08
   42.6899986      -4.83556128E-08
   42.7500000      -4.87537903E-08
   42.8100014      -4.91990129E-08
   42.8699989      -4.96691328E-08
   42.9300003      -5.01445854E-08
   42.9900017      -5.06111490E-08
   43.0499992      -5.10594340E-08
   43.1100006      -5.14820009E-08
   43.1699982      -5.18696162E-08
   43.2299995      -5.22085486E-08
   43.2900009      -5.24802850E-08
   43.3499985      -5.26644044E-08
   43.4099998      -5.27439568E-08
   43.4700012      -5.27116093E-08
   43.5299988      -5.25738848E-08
   43.5900002      -5.23513179E-08
   43.6500015      -5.20735277E-08
   43.7099991      -5.17703640E-08
   43.7700005      -5.14620631E-08
   43.8300018      -5.11519573E-08
   43.8899994      -5.08246529E-08
   43.9500008      -5.04505238E-08
   44.0099983      -4.99952044E-08
   44.0699997      -4.94309695E-08
   44.1300011      -4.87463545E-08
   44.1899986      -4.79510440E-08
   44.2500000      -4.70746251E-08
   44.3100014      -4.61597480E-08
   44.3699989      -4.52518094E-08
   44.4300003      -4.43883614E-08
   44.4900017      -4.35914700E-08
   44.5499992      -4.28654126E-08
   44.6100006      -4.22002344E-08
   44.6699982      -4.15799200E-08
   44.7299995      -4.09920240E-08
   44.7900009      -4.04352249E-08
   44.8499985      -3.99217761E-08
   44.9099998      -3.94737185E-08
   44.9700012      -3.91139885E-08
   45.0299988      -3.88553083E-08
   45.0900002      -3.86908710E-08
   45.1500015      -3.85902936E-08
   45.2099991      -3.85029288E-08
   45.2700005      -3.83683876E-08
   45.3300018      -3.81318230E-08
   45.3899994      -3.77597829E-08
   45.4500008      -3.72516809E-08
   45.5099983      -3.66428452E-08
   45.5699997      -3.59972709E-08
   45.6300011      -3.53915546E-08
   45.6899986      -3.48943878E-08
   45.7500000      -3.45478242E-08
   45.8100014      -3.43562583E-08
   45.8699989      -3.42865931E-08
   45.9300003      -3.42794380E-08
   45.9900017      -3.42677673E-08
   46.0499992      -3.41972211E-08
   46.1100006      -3.40420776E-08
   46.1699982      -3.38126256E-08
   46.2299995      -3.35523538E-08
   46.2900009      -3.33261738E-08
   46.3499985      -3.32033672E-08
   46.4099998      -3.32398535E-08
   46.4700012      -3.34646977E-08
   46.5299988      -3.38742794E-08
   46.5900002      -3.44357538E-08
   46.6500015      -3.50984877E-08
   46.7099991      -3.58099648E-08
   46.7700005      -3.65311017E-08
   46.8300018      -3.72460072E-08
   46.8899994      -3.79631757E-08
   46.9500008      -3.87080199E-08
   47.0099983      -3.95097572E-08
   47.0699997      -4.03875511E-08
   47.1300011      -4.13410604E-08
   47.1899986      -4.23485709E-08
   47.2500000      -4.33731557E-08
   47.3100014      -4.43742714E-08
   47.3699989      -4.53205544E-08
   47.4300003      -4.61993821E-08
   47.4900017      -4.70201869E-08
   47.5499992      -4.78109143E-08
   47.6100006      -4.86090563E-08
   47.6699982      -4.94502324E-08
   47.7299995      -5.03576629E-08
   47.7900009      -5.13352134E-08
   47.8499985      -5.23655821E-08
   47.9099998      -5.34137605E-08
   47.9700012      -5.44346683E-08
   48.0299988      -5.53830084E-08
   48.0900002      -5.62229587E-08
   48.1500015      -5.69353560E-08
   48.2099991      -5.75208254E-08
   48.2700005      -5.79981787E-08
   48.3300018      -5.83986477E-08
   48.3899994      -5.87576316E-08
   48.4500008      -5.91061671E-08
   48.5099983      -5.94642167E-08
   48.5699997      -5.98375038E-08
   48.6300011      -6.02182126E-08
   48.6899986      -6.05891870E-08
   48.7500000      -6.09299207E-08
   48.8100014      -6.12225222E-08
   48.8699989      -6.14560491E-08
   48.9300003      -6.16282421E-08
   48.9900017      -6.17448919E-08
   49.0499992      -6.18177936E-08
   49.1100006      -6.18624085E-08
   49.1699982      -6.18963014E-08
   49.2299995      -6.19384011E-08
   49.2900009      -6.20093061E-08
   49.3499985      -6.21320879E-08
   49.4099998      -6.23338181E-08
   49.4700012      -6.26481196E-08
   49.5299988      -6.31188541E-08
   49.5900002      -6.38045634E-08
   49.6500015      -6.47827036E-08
   49.7099991      -6.61523458E-08
   49.7700005      -6.80343959E-08
   49.8300018      -7.05697545E-08
   49.8899994      -7.39164960E-08
   49.9500008      -7.82481493E-08
   50.0099983      -8.37545429E-08
   50.0699997      -9.06461253E-08
   50.1300011      -9.91614968E-08
   50.1899986      -1.09577300E-07
   50.2500000      -1.22219305E-07
   50.3100014      -1.37473677E-07
   50.3699989      -1.55797309E-07
   50.4300003      -1.77726434E-07
   50.4900017      -2.03883218E-07
   50.5499992      -2.34980476E-07
   50.6100006      -2.71826138E-07