  -2.400000      0.0000000E+00
  -2.340000      0.0000000E+00
  -2.280000      0.0000000E+00
  -2.220000      0.0000000E+00
  -2.160000      0.0000000E+00
  -2.100000      4.9542487E-20
  -2.040000      3.6612940E-19
  -1.980000      1.2792222E-18
  -1.920000      2.4782792E-18
  -1.860000      1.4242769E-18
  -1.800000     -7.6900144E-18
  -1.740000     -3.1192266E-17
  -1.680000     -6.6504514E-17
  -1.620000     -8.8348137E-17
  -1.560000     -4.2264740E-17
  -1.500000      1.3605857E-16
  -1.440000      4.6388606E-16
  -1.380000      8.3224391E-16
  -1.320000      9.5886173E-16
  -1.260000      4.5106077E-16
  -1.200000     -9.7176840E-16
  -1.140000     -3.1426993E-15
  -1.080000     -5.1782576E-15
  -1.020000     -5.5399771E-15
 -0.9600000     -2.6257412E-15
 -0.9000000      4.1705573E-15
 -0.8400000      1.3371709E-14
 -0.7800000      2.1031025E-14
 -0.7200000      2.1717239E-14
 -0.6600000      1.0993978E-14
 -0.6000000     -1.1388609E-14
 -0.5400000     -3.9208782E-14
 -0.4800000     -6.0208857E-14
 -0.4200000     -6.0223914E-14
 -0.3600000     -3.0196338E-14
 -0.3000000      2.6734271E-14
 -0.2400000      9.1999420E-14
 -0.1800000      1.3544775E-13
 -0.1200000      1.2673571E-13
 -5.9999999E-02  5.0832104E-14
  0.0000000E+00 -7.9049560E-14
  5.9999999E-02 -2.1846812E-13
  0.1200000     -3.0317952E-13
  0.1800000     -2.7349287E-13
  0.2400000     -1.0340824E-13
  0.3000000      1.7788871E-13
  0.3600000      4.8390328E-13
  0.4200000      6.9348856E-13
  0.4800000      6.9366735E-13
  0.5400000      4.2822354E-13
  0.6000000     -6.7424541E-14
  0.6600000     -6.6201932E-13
  0.7200000     -1.1617363E-12
  0.7800000     -1.3733553E-12
  0.8400000     -1.1766506E-12
  0.9000000     -5.7908826E-13
  0.9600000      2.7017879E-13
   1.020000      1.1166065E-12
   1.080000      1.6780185E-12
   1.140000      1.7385470E-12
   1.200000      1.2256860E-12
   1.260000      2.4198799E-13
   1.320000     -9.6103876E-13
   1.380000     -2.0575562E-12
   1.440000     -2.7423309E-12
   1.500000     -2.8096965E-12
   1.560000     -2.1872742E-12
   1.620000     -9.1546356E-13
   1.680000      9.1041215E-13
   1.740000      3.1981063E-12
   1.800000      5.8745600E-12
   1.860000      8.8334930E-12
   1.920000      1.1819760E-11
   1.980000      1.4293031E-11
   2.040000      1.5340552E-11
   2.100000      1.3712489E-11
   2.160000      8.0276393E-12
   2.220000     -2.8533313E-12
   2.280000     -1.9350731E-11
   2.340000     -4.0700179E-11
   2.400000     -6.4637969E-11
   2.460000     -8.7363790E-11
   2.520000     -1.0385683E-10
   2.580000     -1.0854613E-10
   2.640000     -9.6254053E-11
   2.700000     -6.3264192E-11
   2.760000     -8.3277708E-12
   2.820000      6.6574343E-11
   2.880000      1.5585429E-10
   2.940000      2.5039312E-10
   3.000000      3.3805420E-10
   3.060000      4.0454706E-10
   3.120000      4.3451270E-10
   3.180000      4.1270107E-10
   3.240000      3.2515396E-10
   3.300000      1.6036228E-10
   3.360000     -8.9585631E-11
   3.420000     -4.2784221E-10
   3.480000     -8.5165464E-10
   3.540000     -1.3513580E-09
   3.600000     -1.9097299E-09
   3.660000     -2.5019802E-09
   3.720000     -3.0966174E-09
   3.780000     -3.6572785E-09
   3.840000     -4.1454062E-09
   3.900000     -4.5234132E-09
   3.960000     -4.7578372E-09
   4.020000     -4.8219566E-09
   4.080000     -4.6974824E-09
   4.140000     -4.3751940E-09
   4.200000     -3.8546659E-09
   4.260000     -3.1434408E-09
   4.320000     -2.2560840E-09
   4.380000     -1.2134487E-09
   4.440000     -4.2262204E-11
   4.500000      1.2251216E-09
   4.560000      2.5511533E-09
   4.620000      3.8941108E-09
   4.680000      5.2100066E-09
   4.740000      6.4554082E-09
   4.800000      7.5909119E-09
   4.860000      8.5847205E-09
   4.920000      9.4156825E-09
   4.980000      1.0075162E-08
   5.040000      1.0567381E-08
   5.100000      1.0908121E-08
   5.160000      1.1122023E-08
   5.220000      1.1238951E-08
   5.280000      1.1289988E-08
   5.340000      1.1303600E-08
   5.400000      1.1302462E-08
   5.460000      1.1301206E-08
   5.520000      1.1305312E-08
   5.580000      1.1311178E-08
   5.640000      1.1307331E-08
   5.700000      1.1276632E-08
   5.760000      1.1199189E-08
   5.820000      1.1055593E-08
   5.880000      1.0830019E-08
   5.940000      1.0512692E-08
   6.000000      1.0101312E-08
   6.060000      9.6011608E-09
   6.120000      9.0238341E-09
   6.180000      8.3847889E-09
   6.240000      7.7001552E-09
   6.300000      6.9834760E-09
   6.360000      6.2431753E-09
   6.420000      5.4814744E-09
   6.480000      4.6952322E-09
   6.540000      3.8786827E-09
   6.600000      3.0274887E-09
   6.660000      2.1430366E-09
   6.720000      1.2357002E-09
   6.780000      3.2601294E-10
   6.840000     -5.5672322E-10
   6.900000     -1.3780909E-09
   6.960000     -2.1034876E-09
   7.020000     -2.7030309E-09
   7.080000     -3.1552658E-09
   7.140000     -3.4490393E-09
   7.200000     -3.5835745E-09
   7.260000     -3.5673386E-09
   7.320000     -3.4165477E-09
   7.380000     -3.1540506E-09
   7.440000     -2.8089560E-09
   7.500000     -2.4169029E-09
   7.560000     -2.0204571E-09
   7.620000     -1.6688454E-09
   7.680000     -1.4162639E-09
   7.740000     -1.3182485E-09
   7.800000     -1.4261587E-09
   7.860000     -1.7805176E-09
   7.920000     -2.4046050E-09
   7.980000     -3.2999978E-09
   8.040000     -4.4455026E-09
   8.100000     -5.8000826E-09
   8.160000     -7.3092021E-09
   8.220000     -8.9129761E-09
   8.280000     -1.0554030E-08
   8.340000     -1.2183327E-08
   8.400000     -1.3763209E-08
   8.460000     -1.5268022E-08
   8.520000     -1.6683511E-08
   8.580000     -1.8006130E-08
   8.640000     -1.9242854E-08
   8.700000     -2.0411148E-08
   8.760000     -2.1538167E-08
   8.820000     -2.2658291E-08
   8.880000     -2.3808704E-08
   8.940000     -2.5023539E-08
   9.000000     -2.6327768E-08
   9.060000     -2.7732131E-08
   9.120000     -2.9230121E-08
   9.180000     -3.0797533E-08
   9.240000     -3.2394677E-08
   9.300000     -3.3970970E-08
   9.360000     -3.5471604E-08
   9.420000     -3.6845350E-08
   9.480000     -3.8052310E-08
   9.540000     -3.9069874E-08
   9.600000     -3.9895195E-08
   9.660000     -4.0543199E-08
   9.720000     -4.1040472E-08
   9.780000     -4.1416584E-08
   9.840000     -4.1695525E-08
   9.900000     -4.1889649E-08
   9.960000     -4.1997698E-08
   10.02000     -4.2006842E-08
   10.08000     -4.1897543E-08
   10.14000     -4.1649319E-08
   10.20000     -4.1245702E-08
   10.26000     -4.0677531E-08
   10.32000     -3.9944304E-08
   10.38000     -3.9053763E-08
   10.44000     -3.8020087E-08
   10.50000     -3.6860889E-08
   10.56000     -3.5593512E-08
   10.62000     -3.4231373E-08
   10.68000     -3.2781468E-08
   10.74000     -3.1244067E-08
   10.80000     -2.9615071E-08
   10.86000     -2.7890456E-08
   10.92000     -2.6071259E-08
   10.98000     -2.4167317E-08
   11.04000     -2.2198336E-08
   11.10000     -2.0192036E-08
   11.16000     -1.8180323E-08
   11.22000     -1.6195216E-08
   11.28000     -1.4266163E-08
   11.34000     -1.2419545E-08
   11.40000     -1.0680048E-08
   11.46000     -9.0726830E-09
   11.52000     -7.6239566E-09
   11.58000     -6.3610277E-09
   11.64000     -5.3086300E-09
   11.70000     -4.4843849E-09
   11.76000     -3.8938999E-09
   11.82000     -3.5272509E-09
   11.88000     -3.3581833E-09
   11.94000     -3.3466430E-09
   12.00000     -3.4442802E-09
   12.06000     -3.6016043E-09
   12.12000     -3.7748711E-09
   12.18000     -3.9307673E-09
   12.24000     -4.0476151E-09
   12.30000     -4.1129962E-09
   12.36000     -4.1189008E-09
   12.42000     -4.0563370E-09
   12.48000     -3.9113868E-09
   12.54000     -3.6639858E-09
   12.60000     -3.2895833E-09
   12.66000     -2.7627705E-09
   12.72000     -2.0614312E-09
   12.78000     -1.1700960E-09
   12.84000     -8.1788236E-11
   12.90000      1.2015939E-09
   12.96000      2.6697911E-09
   13.02000      4.3048853E-09
   13.08000      6.0816632E-09
   13.14000      7.9674658E-09
   13.20000      9.9217070E-09
   13.26000      1.1895484E-08
   13.32000      1.3831936E-08
   13.38000      1.5668006E-08
   13.44000      1.7338159E-08
   13.50000      1.8780216E-08
   13.56000      1.9942677E-08
   13.62000      2.0792243E-08
   13.68000      2.1319739E-08
   13.74000      2.1542593E-08
   13.80000      2.1502970E-08
   13.86000      2.1261673E-08
   13.92000      2.0889157E-08
   13.98000      2.0455646E-08
   14.04000      2.0022302E-08
   14.10000      1.9634731E-08
   14.16000      1.9319453E-08
   14.22000      1.9083268E-08
   14.28000      1.8915481E-08
   14.34000      1.8792765E-08
   14.40000      1.8686434E-08
   14.46000      1.8571322E-08
   14.52000      1.8434584E-08
   14.58000      1.8282144E-08
   14.64000      1.8140520E-08
   14.70000      1.8052779E-08
   14.76000      1.8069143E-08
   14.82000      1.8234696E-08
   14.88000      1.8577797E-08
   14.94000      1.9102684E-08
   15.00000      1.9788390E-08
   15.06000      2.0593911E-08
   15.12000      2.1467480E-08
   15.18000      2.2356783E-08
   15.24000      2.3216931E-08
   15.30000      2.4014438E-08
   15.36000      2.4727063E-08
   15.42000      2.5340992E-08
   15.48000      2.5847559E-08
   15.54000      2.6241432E-08
   15.60000      2.6521226E-08
   15.66000      2.6692163E-08
   15.72000      2.6769401E-08
   15.78000      2.6780180E-08
   15.84000      2.6763377E-08
   15.90000      2.6765939E-08
   15.96000      2.6836796E-08
   16.02000      2.7019681E-08
   16.08000      2.7346637E-08
   16.14000      2.7833492E-08
   16.20000      2.8478031E-08
   16.26000      2.9260685E-08
   16.32000      3.0147188E-08
   16.38000      3.1092572E-08
   16.44000      3.2046199E-08
   16.50000      3.2957651E-08
   16.56000      3.3783373E-08
   16.62000      3.4493404E-08
   16.68000      3.5077051E-08
   16.74000      3.5545831E-08
   16.80000      3.5932295E-08
   16.86000      3.6284067E-08
   16.92000      3.6653972E-08
   16.98000      3.7088338E-08
   17.04000      3.7616591E-08
   17.10000      3.8245059E-08
   17.16000      3.8956813E-08
   17.22000      3.9717605E-08
   17.28000      4.0485826E-08
   17.34000      4.1223373E-08
   17.40000      4.1903618E-08
   17.46000      4.2514227E-08
   17.52000      4.3054186E-08
   17.58000      4.3526907E-08
   17.64000      4.3932690E-08
   17.70000      4.4264112E-08
   17.76000      4.4506578E-08
   17.82000      4.4643894E-08
   17.88000      4.4666361E-08
   17.94000      4.4577689E-08
   18.00000      4.4397179E-08
   18.06000      4.4155744E-08
   18.12000      4.3886789E-08
   18.18000      4.3615383E-08
   18.24000      4.3349623E-08
   18.30000      4.3077421E-08
   18.36000      4.2769543E-08
   18.42000      4.2387445E-08
   18.48000      4.1892807E-08
   18.54000      4.1255589E-08
   18.60000      4.0458232E-08
   18.66000      3.9495653E-08
   18.72000      3.8371898E-08
   18.78000      3.7095436E-08
   18.84000      3.5674866E-08
   18.90000      3.4116418E-08
   18.96000      3.2423664E-08
   19.02000      3.0599193E-08
   19.08000      2.8647479E-08
   19.14000      2.6577863E-08
   19.20000      2.4406525E-08
   19.26000      2.2156552E-08
   19.32000      1.9855651E-08
   19.38000      1.7531800E-08
   19.44000      1.5207974E-08
   19.50000      1.2897527E-08
   19.56000      1.0601885E-08
   19.62000      8.3115008E-09
   19.68000      6.0099641E-09
   19.74000      3.6799610E-09
   19.80000      1.3090649E-09
   19.86000     -1.1066802E-09
   19.92000     -3.5626357E-09
   19.98000     -6.0489076E-09
   20.04000     -8.5558778E-09
   20.10000     -1.1079851E-08
   20.16000     -1.3626681E-08
   20.22000     -1.6211942E-08
   20.28000     -1.8857397E-08
   20.34000     -2.1584794E-08
   20.40000     -2.4408976E-08
   20.46000     -2.7332437E-08
   20.52000     -3.0343116E-08
   20.58000     -3.3416075E-08
   20.64000     -3.6518411E-08
   20.70000     -3.9615873E-08
   20.76000     -4.2678959E-08
   20.82000     -4.5686683E-08
   20.88000     -4.8626987E-08
   20.94000     -5.1494077E-08
   21.00000     -5.4283859E-08
   21.06000     -5.6989471E-08
   21.12000     -5.9598410E-08
   21.18000     -6.2092397E-08
   21.24000     -6.4449537E-08
   21.30000     -6.6647786E-08
   21.36000     -6.8667916E-08
   21.42000     -7.0494863E-08
   21.48000     -7.2117039E-08
   21.54000     -7.3524383E-08
   21.60000     -7.4706769E-08
   21.66000     -7.5654235E-08
   21.72000     -7.6359591E-08
   21.78000     -7.6822666E-08
   21.84000     -7.7054118E-08
   21.90000     -7.7076493E-08
   21.96000     -7.6921268E-08
   22.02000     -7.6622044E-08
   22.08000     -7.6206334E-08
   22.14000     -7.5689172E-08
   22.20000     -7.5071640E-08
   22.26000     -7.4345266E-08
   22.32000     -7.3500992E-08
   22.38000     -7.2539272E-08
   22.44000     -7.1476983E-08
   22.50000     -7.0348271E-08
   22.56000     -6.9198492E-08
   22.62000     -6.8073284E-08
   22.68000     -6.7006773E-08
   22.74000     -6.6013122E-08
   22.80000     -6.5084166E-08
   22.86000     -6.4193870E-08
   22.92000     -6.3307532E-08
   22.98000     -6.2392324E-08
   23.04000     -6.1425737E-08
   23.10000     -6.0399287E-08
   23.16000     -5.9317347E-08
   23.22000     -5.8192267E-08
   23.28000     -5.7038584E-08
   23.34000     -5.5869016E-08
   23.40000     -5.4693828E-08
   23.46000     -5.3523642E-08
   23.52000     -5.2374077E-08
   23.58000     -5.1269719E-08
   23.64000     -5.0245067E-08
   23.70000     -4.9341200E-08
   23.76000     -4.8598494E-08
   23.82000     -4.8047500E-08
   23.88000     -4.7700627E-08
   23.94000     -4.7547424E-08
   24.00000     -4.7555059E-08
   24.06000     -4.7674039E-08
   24.12000     -4.7847752E-08
   24.18000     -4.8023363E-08
   24.24000     -4.8161365E-08
   24.30000     -4.8241549E-08
   24.36000     -4.8264241E-08
   24.42000     -4.8246644E-08
   24.48000     -4.8215526E-08
   24.54000     -4.8198132E-08
   24.60000     -4.8213629E-08
   24.66000     -4.8267207E-08
   24.72000     -4.8348294E-08
   24.78000     -4.8433122E-08
   24.84000     -4.8490843E-08
   24.90000     -4.8491348E-08
   24.96000     -4.8412662E-08
   25.02000     -4.8245830E-08
   25.08000     -4.7996298E-08
   25.14000     -4.7681631E-08
   25.20000     -4.7326651E-08
   25.26000     -4.6957609E-08
   25.32000     -4.6597165E-08
   25.38000     -4.6261398E-08
   25.44000     -4.5959304E-08
   25.50000     -4.5694311E-08
   25.56000     -4.5466553E-08
   25.62000     -4.5274799E-08
   25.68000     -4.5116838E-08
   25.74000     -4.4988418E-08
   25.80000     -4.4881297E-08
   25.86000     -4.4781718E-08
   25.92000     -4.4670578E-08
   25.98000     -4.4525720E-08
   26.04000     -4.4325887E-08
   26.10000     -4.4054772E-08
   26.16000     -4.3703285E-08
   26.22000     -4.3268784E-08
   26.28000     -4.2751111E-08
   26.34000     -4.2147082E-08
   26.40000     -4.1445762E-08
   26.46000     -4.0627164E-08
   26.52000     -3.9665562E-08
   26.58000     -3.8536928E-08
   26.64000     -3.7227938E-08
   26.70000     -3.5743174E-08
   26.76000     -3.4107515E-08
   26.82000     -3.2362333E-08
   26.88000     -3.0556542E-08
   26.94000     -2.8735565E-08
   27.00000     -2.6931993E-08
   27.06000     -2.5161198E-08
   27.12000     -2.3423011E-08
   27.18000     -2.1708292E-08
   27.24000     -2.0007304E-08
   27.30000     -1.8316346E-08
   27.36000     -1.6640024E-08
   27.42000     -1.4988691E-08
   27.48000     -1.3372698E-08
   27.54000     -1.1796524E-08
   27.60000     -1.0255740E-08
   27.66000     -8.7383247E-09
   27.72000     -7.2298088E-09
   27.78000     -5.7199609E-09
   27.84000     -4.2080877E-09
   27.90000     -2.7048401E-09
   27.96000     -1.2301139E-09
   28.02000      1.9154964E-10
   28.08000      1.5356552E-09
   28.14000      2.7803877E-09
   28.20000      3.9063401E-09
   28.26000      4.8941105E-09
   28.32000      5.7216880E-09
   28.38000      6.3636039E-09
   28.44000      6.7929311E-09
   28.50000      6.9858124E-09
   28.56000      6.9270421E-09
   28.62000      6.6147807E-09
   28.68000      6.0628560E-09
   28.74000      5.2999662E-09
   28.80000      4.3660306E-09
   28.86000      3.3065877E-09
   28.92000      2.1664965E-09
   28.98000      9.8432107E-10
   29.04000     -2.1128245E-10
   29.10000     -1.4021202E-09
   29.16000     -2.5775957E-09
   29.22000     -3.7291690E-09
   29.28000     -4.8441637E-09
   29.34000     -5.9017742E-09
   29.40000     -6.8738881E-09
   29.46000     -7.7317681E-09
   29.52000     -8.4570955E-09
   29.58000     -9.0534753E-09
   29.64000     -9.5533554E-09
   29.70000     -1.0016345E-08
   29.76000     -1.0517903E-08
   29.82000     -1.1131196E-08
   29.88000     -1.1907969E-08
   29.94000     -1.2865057E-08
   30.00000     -1.3981165E-08
   30.06000     -1.5204709E-08
   30.12000     -1.6469246E-08
   30.18000     -1.7710374E-08
   30.24000     -1.8878017E-08
   30.30000     -1.9940448E-08
   30.36000     -2.0880327E-08
   30.42000     -2.1686422E-08
   30.48000     -2.2346113E-08
   30.54000     -2.2842745E-08
   30.60000     -2.3159105E-08
   30.66000     -2.3285013E-08
   30.72000     -2.3224935E-08
   30.78000     -2.3001519E-08
   30.84000     -2.2652902E-08
   30.90000     -2.2224558E-08
   30.96000     -2.1759028E-08
   31.02000     -2.1287709E-08
   31.08000     -2.0827894E-08
   31.14000     -2.0385707E-08
   31.20000     -1.9962952E-08
   31.26000     -1.9564101E-08
   31.32000     -1.9199815E-08
   31.38000     -1.8885016E-08
   31.44000     -1.8632264E-08
   31.50000     -1.8443409E-08
   31.56000     -1.8303510E-08
   31.62000     -1.8180303E-08
   31.68000     -1.8030264E-08
   31.74000     -1.7809651E-08
   31.80000     -1.7486755E-08
   31.86000     -1.7050823E-08
   31.92000     -1.6514216E-08
   31.98000     -1.5906860E-08
   32.04000     -1.5265154E-08
   32.10000     -1.4619871E-08
   32.16000     -1.3988345E-08
   32.22000     -1.3374754E-08
   32.28000     -1.2778919E-08
   32.34000     -1.2210141E-08
   32.40000     -1.1699675E-08
   32.46000     -1.1305072E-08
   32.52000     -1.1102353E-08
   32.58000     -1.1166936E-08
   32.64000     -1.1549431E-08
   32.70000     -1.2255652E-08
   32.76000     -1.3239452E-08
   32.82000     -1.4412516E-08
   32.88000     -1.5668498E-08
   32.94000     -1.6912814E-08
   33.00000     -1.8086711E-08
   33.06000     -1.9176372E-08
   33.12000     -2.0203904E-08
   33.18000     -2.1204640E-08
   33.24000     -2.2200890E-08
   33.30000     -2.3183642E-08
   33.36000     -2.4110046E-08
   33.42000     -2.4917577E-08
   33.48000     -2.5548495E-08
   33.54000     -2.5973730E-08
   33.60000     -2.6205692E-08
   33.66000     -2.6294300E-08
   33.72000     -2.6307760E-08
   33.78000     -2.6306141E-08
   33.84000     -2.6318929E-08
   33.90000     -2.6336084E-08
   33.96000     -2.6316508E-08
   34.02000     -2.6210619E-08
   34.08000     -2.5987728E-08
   34.14000     -2.5656805E-08
   34.20000     -2.5271699E-08
   34.26000     -2.4917934E-08
   34.32000     -2.4685662E-08
   34.38000     -2.4638862E-08
   34.44000     -2.4792676E-08
   34.50000     -2.5107713E-08
   34.56000     -2.5503775E-08
   34.62000     -2.5888049E-08
   34.68000     -2.6187234E-08
   34.74000     -2.6371698E-08
   34.80000     -2.6462864E-08
   34.86000     -2.6521475E-08
   34.92000     -2.6621704E-08
   34.98000     -2.6821397E-08
   35.04000     -2.7139839E-08
   35.10000     -2.7551337E-08
   35.16000     -2.7996501E-08
   35.22000     -2.8406228E-08
   35.28000     -2.8728589E-08
   35.34000     -2.8948083E-08
   35.40000     -2.9090135E-08
   35.46000     -2.9209838E-08
   35.52000     -2.9370172E-08
   35.58000     -2.9618853E-08
   35.64000     -2.9973044E-08
   35.70000     -3.0417400E-08
   35.76000     -3.0915388E-08
   35.82000     -3.1428478E-08
   35.88000     -3.1935084E-08
   35.94000     -3.2441786E-08
   36.00000     -3.2982918E-08
   36.06000     -3.3609236E-08
   36.12000     -3.4370519E-08
   36.18000     -3.5298545E-08
   36.24000     -3.6396255E-08
   36.30000     -3.7636170E-08
   36.36000     -3.8967830E-08
   36.42000     -4.0331130E-08
   36.48000     -4.1671065E-08
   36.54000     -4.2949235E-08
   36.60000     -4.4148990E-08
   36.66000     -4.5272909E-08
   36.72000     -4.6333778E-08
   36.78000     -4.7342180E-08
   36.84000     -4.8295011E-08
   36.90000     -4.9169149E-08
   36.96000     -4.9922956E-08
   37.02000     -5.0505754E-08
   37.08000     -5.0872249E-08
   37.14000     -5.0996757E-08
   37.20000     -5.0881731E-08
   37.26000     -5.0556729E-08
   37.32000     -5.0067687E-08
   37.38000     -4.9460088E-08
   37.44000     -4.8762345E-08
   37.50000     -4.7975927E-08
   37.56000     -4.7076199E-08
   37.62000     -4.6023796E-08
   37.68000     -4.4782055E-08
   37.74000     -4.3333564E-08
   37.80000     -4.1689393E-08
   37.86000     -3.9887407E-08
   37.92000     -3.7980797E-08
   37.98000     -3.6021572E-08
   38.04000     -3.4045677E-08
   38.10000     -3.2065365E-08
   38.16000     -3.0071039E-08
   38.22000     -2.8040828E-08
   38.28000     -2.5953241E-08
   38.34000     -2.3797455E-08
   38.40000     -2.1577511E-08
   38.46000     -1.9309850E-08
   38.52000     -1.7016562E-08
   38.58000     -1.4718393E-08
   38.64000     -1.2430887E-08
   38.70000     -1.0165088E-08
   38.76000     -7.9315505E-09
   38.82000     -5.7448655E-09
   38.88000     -3.6258496E-09
   38.94000     -1.6000054E-09
   39.00000      3.0701358E-10
   39.06000      2.0747344E-09
   39.12000      3.6915648E-09
   39.18000      5.1555324E-09
   39.24000      6.4723897E-09
   39.30000      7.6526554E-09
   39.36000      8.7092547E-09
   39.42000      9.6564818E-09
   39.48000      1.0509599E-08
   39.54000      1.1283568E-08
   39.60000      1.1989747E-08
   39.66000      1.2630804E-08
   39.72000      1.3195775E-08
   39.78000      1.3658140E-08
   39.84000      1.3979156E-08
   39.90000      1.4116691E-08
   39.96000      1.4037123E-08
   40.02000      1.3726095E-08
   40.08000      1.3193691E-08
   40.14000      1.2471624E-08
   40.20000      1.1603095E-08
   40.26000      1.0629166E-08
   40.32000      9.5769686E-09
   40.38000      8.4544682E-09
   40.44000      7.2537634E-09
   40.50000      5.9614167E-09
   40.56000      4.5714188E-09
   40.62000      3.0954015E-09
   40.68000      1.5659627E-09
   40.74000      3.1859185E-11
   40.80000     -1.4528799E-09
   40.86000     -2.8416032E-09
   40.92000     -4.1047392E-09
   40.98000     -5.2333875E-09
   41.04000     -6.2363168E-09
   41.10000     -7.1325146E-09
   41.16000     -7.9428348E-09
   41.22000     -8.6840206E-09
   41.28000     -9.3667198E-09
   41.34000     -9.9969393E-09
   41.40000     -1.0578804E-08
   41.46000     -1.1116247E-08
   41.52000     -1.1612310E-08
   41.58000     -1.2066504E-08
   41.64000     -1.2472070E-08
   41.70000     -1.2815284E-08
   41.76000     -1.3077868E-08
   41.82000     -1.3241737E-08
   41.88000     -1.3293671E-08
   41.94000     -1.3227086E-08
   42.00000     -1.3039231E-08
   42.06000     -1.2724334E-08
   42.12000     -1.2265502E-08
   42.18000     -1.1629192E-08
   42.24000     -1.0765282E-08
   42.30000     -9.6133066E-09
   42.36000     -8.1125284E-09
   42.42000     -6.2113932E-09
   42.48000     -3.8718002E-09
   42.54000     -1.0654654E-09
   42.60000      2.2372650E-09
   42.66000      6.0829435E-09
   42.72000      1.0550273E-08
   42.78000      1.5761078E-08
   42.84000      2.1885118E-08
   42.90000      2.9139605E-08
   42.96000      3.7786222E-08
   43.02000      4.8128985E-08
   43.08000      6.0515532E-08
   43.14000      7.5342662E-08
   43.20000      9.3065772E-08
   43.26000      1.1421094E-07
   43.32000      1.3938902E-07
   43.38000      1.6931136E-07
   43.44000      2.0480800E-07
   43.50000      2.4684883E-07
   43.56000      2.9656763E-07
   43.62000      3.5528902E-07
   43.68000      4.2455588E-07
   43.74000      5.0615739E-07
   43.80000      6.0215746E-07
   43.86000      7.1492440E-07
   43.92000      8.4716527E-07
   43.98000      1.0019667E-06
   44.04000      1.1828440E-06
   44.10000      1.3937992E-06
   44.16000      1.6393834E-06
   44.22000      1.9247645E-06
   44.28000      2.2557938E-06
   44.34000      2.6390721E-06
   44.40000      3.0820179E-06
   44.46000      3.5929390E-06
   44.52000      4.1811131E-06
   44.58000      4.8568772E-06
   44.64000      5.6317299E-06
   44.70000      6.5184367E-06
   44.76000      7.5311409E-06
   44.82000      8.6854716E-06
   44.88000      9.9986464E-06
   44.94000      1.1489570E-05
   45.00000      1.3178938E-05
   45.06000      1.5089334E-05
   45.12000      1.7245335E-05
   45.18000      1.9673629E-05
   45.24000      2.2403121E-05
   45.30000      2.5465020E-05
   45.36000      2.8892937E-05
   45.42000      3.2722935E-05
   45.48000      3.6993566E-05
   45.54000      4.1745901E-05
   45.60000      4.7023503E-05
   45.66000      5.2872445E-05
   45.72000      5.9341244E-05
   45.78000      6.6480810E-05
   45.84000      7.4344403E-05
   45.90000      8.2987492E-05
   45.96000      9.2467591E-05
   46.02000      1.0284410E-04
   46.08000      1.1417801E-04
   46.14000      1.2653165E-04
   46.20000      1.3996840E-04
   46.26000      1.5455220E-04
   46.32000      1.7034730E-04
   46.38000      1.8741765E-04
   46.44000      2.0582664E-04
   46.50000      2.2563638E-04
   46.56000      2.4690729E-04
   46.62000      2.6969737E-04
   46.68000      2.9406173E-04
   46.74000      3.2005168E-04
   46.80000      3.4771429E-04
   46.86000      3.7709149E-04
   46.92000      4.0821961E-04
   46.98000      4.4112848E-04
   47.04000      4.7584079E-04
   47.10000      5.1237148E-04
   47.16000      5.5072713E-04
   47.22000      5.9090514E-04
   47.28000      6.3289347E-04
   47.34000      6.7666988E-04
   47.40000      7.2220137E-04
   47.46000      7.6944422E-04
   47.52000      8.1834319E-04
   47.58000      8.6883194E-04
   47.64000      9.2083251E-04
   47.70000      9.7425521E-04
   47.76000      1.0289995E-03
   47.82000      1.0849534E-03
   47.88000      1.1419951E-03
   47.94000      1.1999917E-03
   48.00000      1.2588016E-03
   48.06000      1.3182742E-03
   48.12000      1.3782511E-03
   48.18000      1.4385676E-03
   48.24000      1.4990532E-03
   48.30000      1.5595335E-03
   48.36000      1.6198310E-03
   48.42000      1.6797669E-03
   48.48000      1.7391626E-03
   48.54000      1.7978410E-03
   48.60000      1.8556284E-03
   48.66000      1.9123557E-03
   48.72000      1.9678604E-03
   48.78000      2.0219884E-03
   48.84000      2.0745951E-03
   48.90000      2.1255468E-03
   48.96000      2.1747220E-03
   49.02000      2.2220144E-03
   49.08000      2.2673309E-03
   49.14000      2.3105955E-03
   49.20000      2.3517485E-03
   49.26000      2.3907477E-03
   49.32000      2.4275682E-03
   49.38000      2.4622034E-03
   49.44000      2.4946656E-03
   49.50000      2.5249838E-03
   49.56000      2.5532057E-03
   49.62000      2.5793957E-03
   49.68000      2.6036331E-03
   49.74000      2.6260142E-03
   49.80000      2.6466469E-03
   49.86000      2.6656534E-03
   49.92000      2.6831653E-03
   49.98000      2.6993235E-03
   50.04000      2.7142765E-03
   50.10000      2.7281770E-03
   50.16000      2.7411813E-03
   50.22000      2.7534470E-03
   50.28000      2.7651300E-03
   50.34000      2.7763839E-03
   50.40000      2.7873560E-03
   50.46000      2.7981873E-03
   50.52000      2.8090088E-03
   50.58000      2.8199411E-03
   50.64000      2.8310923E-03
   50.70000      2.8425567E-03
   50.76000      2.8544136E-03
   50.82000      2.8667261E-03
   50.88000      2.8795411E-03
   50.94000      2.8928872E-03
   51.00000      2.9067763E-03
   51.06000      2.9212022E-03
   51.12000      2.9361416E-03
   51.18000      2.9515545E-03
   51.24000      2.9673853E-03
   51.30000      2.9835631E-03
   51.36000      3.0000035E-03
   51.42000      3.0166092E-03
   51.48000      3.0332734E-03
   51.54000      3.0498796E-03
   51.60000      3.0663048E-03
   51.66000      3.0824209E-03
   51.72000      3.0980976E-03
   51.78000      3.1132032E-03
   51.84000      3.1276084E-03
   51.90000      3.1411869E-03
   51.96000      3.1538177E-03
   52.02000      3.1653875E-03
   52.08000      3.1757927E-03
   52.14000      3.1849400E-03
   52.20000      3.1927496E-03
   52.26000      3.1991547E-03
   52.32000      3.2041043E-03
   52.38000      3.2075625E-03
   52.44000      3.2095097E-03
   52.50000      3.2099423E-03
   52.56000      3.2088738E-03
   52.62000      3.2063336E-03
   52.68000      3.2023666E-03
   52.74000      3.1970339E-03
   52.80000      3.1904103E-03
   52.86000      3.1825842E-03
   52.92000      3.1736551E-03
   52.98000      3.1637324E-03
   53.04000      3.1529330E-03
   53.10000      3.1413808E-03
   53.16000      3.1292036E-03
   53.22000      3.1165315E-03
   53.28000      3.1034960E-03
   53.34000      3.0902256E-03
   53.40000      3.0768460E-03
   53.46000      3.0634764E-03
   53.52000      3.0502286E-03
   53.58000      3.0372045E-03
   53.64000      3.0244950E-03
   53.70000      3.0121787E-03
   53.76000      3.0003197E-03
   53.82000      2.9889685E-03
   53.88000      2.9781589E-03
   53.94000      2.9679094E-03
   54.00000      2.9582221E-03
   54.06000      2.9490828E-03
   54.12000      2.9404608E-03
   54.18000      2.9323096E-03
   54.24000      2.9245678E-03
   54.30000      2.9171596E-03
   54.36000      2.9099961E-03
   54.42000      2.9029779E-03
   54.48000      2.8959948E-03
   54.54000      2.8889286E-03
   54.60000      2.8816550E-03
   54.66000      2.8740438E-03
   54.72000      2.8659629E-03
   54.78000      2.8572795E-03
   54.84000      2.8478613E-03
   54.90000      2.8375790E-03
   54.96000      2.8263093E-03
   55.02000      2.8139353E-03
   55.08000      2.8003487E-03
   55.14000      2.7854515E-03
   55.20000      2.7691575E-03
   55.26000      2.7513935E-03
   55.32000      2.7321000E-03
   55.38000      2.7112314E-03
   55.44000      2.6887576E-03
   55.50000      2.6646641E-03
   55.56000      2.6389523E-03