 -0.750000000       0.00000000    
 -0.689999998       0.00000000    
 -0.629999995       0.00000000    
 -0.569999993       0.00000000    
 -0.509999990       0.00000000    
 -0.449999988      -1.51427528E-20
 -0.389999986      -1.49405220E-19
 -0.330000013      -7.42403182E-19
 -0.270000011      -2.40188228E-18
 -0.209999993      -5.40086984E-18
 -0.150000006      -7.88985630E-18
  -9.00000036E-02  -3.34440392E-18
  -2.99999993E-02   2.01886862E-17
   2.99999993E-02   7.45154868E-17
   9.00000036E-02   1.56015515E-16
  0.150000006       2.24227462E-16
  0.209999993       1.89468684E-16
  0.270000011      -6.65769683E-17
  0.330000013      -6.19376643E-16
  0.389999986      -1.39031236E-15
  0.449999988      -2.05255353E-15
  0.509999990      -2.04652583E-15
  0.569999993      -7.84576179E-16
  0.629999995       1.96220730E-15
  0.689999998       5.64477452E-15
  0.750000000       8.75952516E-15
  0.810000002       9.19215147E-15
  0.870000005       5.16566304E-15
  0.930000007      -3.48597744E-15
  0.990000010      -1.43638746E-14
   1.04999995      -2.26377246E-14
   1.11000001      -2.27136560E-14
   1.16999996      -1.11266426E-14
   1.23000002       1.05457516E-14
   1.28999996       3.44724757E-14
   1.35000002       4.84612825E-14
   1.40999997       4.10651331E-14
   1.47000003       8.18719855E-15
   1.52999997      -4.19972827E-14
   1.59000003      -8.91194670E-14
   1.64999998      -1.07324739E-13
   1.71000004      -7.71360108E-14
   1.76999998       2.20731810E-15
   1.83000004       1.06221279E-13
   1.88999999       1.89507494E-13
   1.95000005       2.01880640E-13
   2.00999999       1.11703344E-13
   2.06999993      -7.26853134E-14
   2.13000011      -2.93751704E-13
   2.19000006      -4.54841351E-13
   2.25000000      -4.49818432E-13
   2.30999994      -2.04652769E-13
   2.36999989       2.82514870E-13
   2.43000007       9.17703305E-13
   2.49000001       1.51499809E-12
   2.54999995       1.83169430E-12
   2.60999990       1.62950621E-12
   2.67000008       7.49146296E-13
   2.73000002      -8.18904894E-13
   2.78999996      -2.88556223E-12
   2.84999990      -5.05212799E-12
   2.91000009      -6.74815542E-12
   2.97000003      -7.32200672E-12
   3.02999997      -6.17828792E-12
   3.08999991      -2.94468248E-12
   3.15000010       2.36151680E-12
   3.21000004       9.20671959E-12
   3.26999998       1.64973330E-11
   3.32999992       2.26558876E-11
   3.39000010       2.58359879E-11
   3.45000005       2.42667691E-11
   3.50999999       1.66835903E-11
   3.56999993       2.76916792E-12
   3.63000011      -1.64931228E-11
   3.69000006      -3.86570394E-11
   3.75000000      -5.99280001E-11
   3.80999994      -7.55992699E-11
   3.86999989      -8.07950026E-11
   3.93000007      -7.14361001E-11
   3.99000001      -4.52797036E-11
   4.05000019      -2.83649992E-12
   4.11000013       5.20436021E-11
   4.17000008       1.12099587E-10
   4.23000002       1.67214367E-10
   4.28999996       2.05608724E-10
   4.34999990       2.15570534E-10
   4.40999985       1.87508745E-10
   4.46999979       1.16046249E-10
   4.53000021       1.83975036E-12
   4.59000015      -1.47157467E-10
   4.65000010      -3.15197007E-10
   4.71000004      -4.79102313E-10
   4.76999998      -6.09488238E-10
   4.82999992      -6.72724654E-10
   4.88999987      -6.33475883E-10
   4.94999981      -4.57615862E-10
   5.01000023      -1.15326929E-10
   5.07000017       4.15803225E-10
   5.13000011       1.14786725E-09
   5.19000006       2.08010698E-09
   5.25000000       3.19700999E-09
   5.30999994       4.46731674E-09
   5.36999989       5.84424642E-09
   5.42999983       7.26720639E-09
   5.48999977       8.66512195E-09
   5.55000019       9.96132687E-09
   5.61000013       1.10796634E-08
   5.67000008       1.19511805E-08
   5.73000002       1.25205810E-08
   5.78999996       1.27515074E-08
   5.84999990       1.26298509E-08
   5.90999985       1.21645796E-08
   5.96999979       1.13860210E-08
   6.03000021       1.03420188E-08
   6.09000015       9.09279851E-09
   6.15000010       7.70552244E-09
   6.21000004       6.24949159E-09
   6.26999998       4.79256013E-09
   6.32999992       3.39885586E-09
   6.38999987       2.12741669E-09
   6.44999981       1.03099718E-09
   6.51000023       1.54289637E-10
   6.57000017      -4.68931338E-10
   6.63000011      -8.19686097E-10
   6.69000006      -8.98009778E-10
   6.75000000      -7.26305016E-10
   6.80999994      -3.50387497E-10
   6.86999989       1.63031338E-10
   6.92999983       7.33066774E-10
   6.98999977       1.27528299E-09
   7.05000019       1.71484105E-09
   7.11000013       1.99987937E-09
   7.17000008       2.11233409E-09
   7.23000002       2.07351691E-09
   7.28999996       1.94256655E-09
   7.34999990       1.80725368E-09
   7.40999985       1.76829873E-09
   7.46999979       1.91994354E-09
   7.53000021       2.33064590E-09
   7.59000015       3.02806158E-09
   7.65000010       3.99183220E-09
   7.71000004       5.15615906E-09
   7.76999998       6.42201314E-09
   7.82999992       7.67662112E-09
   7.88999987       8.81604922E-09
   7.94999981       9.76584147E-09
   8.01000023       1.04949107E-08
   8.06999969       1.10194289E-08
   8.13000011       1.13957128E-08
   8.18999958       1.17038272E-08
   8.25000000       1.20259216E-08
   8.31000042       1.24246364E-08
   8.36999989       1.29269644E-08
   8.43000031       1.35175418E-08
   8.48999977       1.41429384E-08
   8.55000019       1.47257051E-08
   8.60999966       1.51844155E-08
   8.67000008       1.54545017E-08
   8.72999954       1.55045861E-08
   8.78999996       1.53443036E-08
   8.85000038       1.50219837E-08
   8.90999985       1.46131498E-08
   8.97000027       1.42030494E-08
   9.02999973       1.38677416E-08
   9.09000015       1.36582461E-08
   9.14999962       1.35911771E-08
   9.21000004       1.36474334E-08
   9.27000046       1.37784602E-08
   9.32999992       1.39179663E-08
   9.39000034       1.39960123E-08
   9.44999981       1.39522944E-08
   9.51000023       1.37461011E-08
   9.56999969       1.33614941E-08
   9.63000011       1.28074831E-08
   9.68999958       1.21139818E-08
   9.75000000       1.13249827E-08
   9.81000042       1.04905586E-08
   9.86999989       9.65911617E-09
   9.93000031       8.87087914E-09
   9.98999977       8.15308532E-09
   10.0500002       7.51701368E-09
   10.1099997       6.95678626E-09
   10.1700001       6.44993969E-09
   10.2299995       5.95987526E-09
   10.2900000       5.44037393E-09
   10.3500004       4.84220442E-09
   10.4099998       4.12143653E-09
   10.4700003       3.24842087E-09
   10.5299997       2.21576402E-09
   10.5900002       1.04322961E-09
   10.6499996      -2.22340202E-10
   10.7100000      -1.51316837E-09
   10.7700005      -2.75241252E-09
   10.8299999      -3.86973920E-09
   10.8900003      -4.81714224E-09
   10.9499998      -5.58089130E-09
   11.0100002      -6.18601526E-09
   11.0699997      -6.69137545E-09
   11.1300001      -7.17586612E-09
   11.1899996      -7.71880160E-09
   11.2500000      -8.37935321E-09
   11.3100004      -9.18037557E-09
   11.3699999      -1.01009121E-08
   11.4300003      -1.10793739E-08
   11.4899998      -1.20265451E-08
   11.5500002      -1.28450157E-08
   11.6099997      -1.34501050E-08
   11.6700001      -1.37870941E-08
   11.7299995      -1.38407419E-08
   11.7900000      -1.36351694E-08
   11.8500004      -1.32246010E-08
   11.9099998      -1.26777469E-08
   11.9700003      -1.20600072E-08
   12.0299997      -1.14181500E-08
   12.0900002      -1.07712905E-08
   12.1499996      -1.01102753E-08
   12.2100000      -9.40525169E-09
   12.2700005      -8.61897309E-09
   12.3299999      -7.72178765E-09
   12.3900003      -6.70390410E-09
   12.4499998      -5.58141222E-09
   12.5100002      -4.39450254E-09
   12.5699997      -3.19865623E-09
   12.6300001      -2.05160933E-09
   12.6899996      -9.99891392E-10
   12.7500000      -6.85750415E-11
   12.8100004       7.43361650E-10
   12.8699999       1.46140700E-09
   12.9300003       2.12863860E-09
   12.9899998       2.79573009E-09
   13.0500002       3.51035112E-09
   13.1099997       4.30815650E-09
   13.1700001       5.20685051E-09
   13.2299995       6.20392049E-09
   13.2900000       7.27784144E-09
   13.3500004       8.39196712E-09
   13.4099998       9.50002210E-09
   13.4700003       1.05521494E-08
   13.5299997       1.15007408E-08
   13.5900002       1.23057093E-08
   13.6499996       1.29391839E-08
   13.7100000       1.33896600E-08
   13.7700005       1.36653107E-08
   13.8299999       1.37956837E-08
   13.8900003       1.38306175E-08
   13.9499998       1.38353364E-08
   14.0100002       1.38814791E-08
   14.0699997       1.40350673E-08
   14.1300001       1.43437697E-08
   14.1899996       1.48265684E-08
   14.2500000       1.54688156E-08
   14.3100004       1.62244618E-08
   14.3699999       1.70254388E-08
   14.4300003       1.77962782E-08
   14.4899998       1.84705851E-08
   14.5500002       1.90055403E-08
   14.6099997       1.93910008E-08
   14.6700001       1.96510985E-08
   14.7299995       1.98380654E-08
   14.7900000       2.00198826E-08
   14.8500004       2.02649098E-08
   14.9099998       2.06274748E-08
   14.9700003       2.11380815E-08
   15.0299997       2.18005933E-08
   15.0900002       2.25965717E-08
   15.1499996       2.34948025E-08
   15.2100000       2.44624534E-08
   15.2700005       2.54740389E-08
   15.3299999       2.65154316E-08
   15.3900003       2.75821712E-08
   15.4499998       2.86735062E-08
   15.5100002       2.97849940E-08
   15.5699997       3.09028678E-08
   15.6300001       3.20024078E-08
   15.6899996       3.30510019E-08
   15.7500000       3.40148461E-08
   15.8100004       3.48670781E-08
   15.8699999       3.55947840E-08
   15.9300003       3.62025006E-08
   15.9899998       3.67110644E-08
   16.0499992       3.71517253E-08
   16.1100006       3.75568519E-08
   16.1700001       3.79496328E-08
   16.2299995       3.83355641E-08
   16.2900009       3.86983032E-08
   16.3500004       3.90013390E-08
   16.4099998       3.91952248E-08
   16.4699993       3.92286026E-08
   16.5300007       3.90598522E-08
   16.5900002       3.86662506E-08
   16.6499996       3.80480962E-08
   16.7099991       3.72270783E-08
   16.7700005       3.62396513E-08
   16.8299999       3.51277265E-08
   16.8899994       3.39294850E-08
   16.9500008       3.26728191E-08
   17.0100002       3.13731938E-08
   17.0699997       3.00361940E-08
   17.1299992       2.86638162E-08
   17.1900005       2.72623648E-08
   17.2500000       2.58492339E-08
   17.3099995       2.44559804E-08
   17.3700008       2.31261268E-08
   17.4300003       2.19077574E-08
   17.4899998       2.08428510E-08
   17.5499992       1.99566870E-08
   17.6100006       1.92509404E-08
   17.6700001       1.87029965E-08
   17.7299995       1.82720328E-08
   17.7900009       1.79099757E-08
   17.8500004       1.75737576E-08
   17.9099998       1.72349601E-08
   17.9699993       1.68839875E-08
   18.0300007       1.65279328E-08
   18.0900002       1.61834741E-08
   18.1499996       1.58676485E-08
   18.2099991       1.55896629E-08
   18.2700005       1.53462238E-08
   18.3299999       1.51215005E-08
   18.3899994       1.48913815E-08
   18.4500008       1.46305101E-08
   18.5100002       1.43200083E-08
   18.5699997       1.39536951E-08
   18.6299992       1.35410438E-08
   18.6900005       1.31059013E-08
   18.7500000       1.26811104E-08
   18.8099995       1.23003536E-08
   18.8700008       1.19895152E-08
   18.9300003       1.17602355E-08
   18.9899998       1.16079191E-08
   19.0499992       1.15151684E-08
   19.1100006       1.14598917E-08
   19.1700001       1.14256293E-08
   19.2299995       1.14107106E-08
   19.2900009       1.14329577E-08
   19.3500004       1.15278631E-08
   19.4099998       1.17401671E-08
   19.4699993       1.21108314E-08
   19.5300007       1.26629605E-08
   19.5900002       1.33907339E-08
   19.6499996       1.42547938E-08
   19.7099991       1.51858028E-08
   19.7700005       1.60957185E-08
   19.8299999       1.68941252E-08
   19.8899994       1.75055153E-08
   19.9500008       1.78829982E-08
   20.0100002       1.80149051E-08
   20.0699997       1.79226500E-08
   20.1299992       1.76507786E-08
   20.1900005       1.72522938E-08
   20.2500000       1.67736491E-08
   20.3099995       1.62437246E-08
   20.3700008       1.56696469E-08
   20.4300003       1.50399853E-08
   20.4899998       1.43335424E-08
   20.5499992       1.35302303E-08
   20.6100006       1.26201769E-08
   20.6700001       1.16080576E-08
   20.7299995       1.05115241E-08
   20.7900009       9.35467881E-09
   20.8500004       8.15915957E-09
   20.9099998       6.93606017E-09
   20.9699993       5.68141845E-09
   21.0300007       4.37665415E-09
   21.0900002       2.99363334E-09
   21.1499996       1.50251545E-09
   21.2099991      -1.20236640E-10
   21.2700005      -1.88619409E-09
   21.3299999      -3.79321330E-09
   21.3899994      -5.82778403E-09
   21.4500008      -7.97028843E-09
   21.5100002      -1.02011439E-08
   21.5699997      -1.25056641E-08
   21.6299992      -1.48761332E-08
   21.6900005      -1.73105992E-08
   21.7500000      -1.98090913E-08
   21.8099995      -2.23686989E-08
   21.8700008      -2.49791903E-08
   21.9300003      -2.76206116E-08
   21.9899998      -3.02635144E-08
   22.0499992      -3.28717888E-08
   22.1100006      -3.54072043E-08
   22.1700001      -3.78345106E-08
   22.2299995      -4.01256770E-08
   22.2900009      -4.22621973E-08
   22.3500004      -4.42349659E-08
   22.4099998      -4.60419010E-08
   22.4699993      -4.76844662E-08
   22.5300007      -4.91644983E-08
   22.5900002      -5.04828321E-08
   22.6499996      -5.16405052E-08
   22.7099991      -5.26421893E-08
   22.7700005      -5.35003828E-08
   22.8299999      -5.42382175E-08
   22.8899994      -5.48890391E-08
   22.9500008      -5.54918245E-08
   23.0100002      -5.60833620E-08
   23.0699997      -5.66893483E-08
   23.1299992      -5.73174468E-08
   23.1900005      -5.79547716E-08
   23.2500000      -5.85709756E-08
   23.3099995      -5.91262115E-08
   23.3700008      -5.95814882E-08
   23.4300003      -5.99082739E-08
   23.4899998      -6.00944219E-08
   23.5499992      -6.01446999E-08
   23.6100006      -6.00759975E-08
   23.6700001      -5.99088423E-08
   23.7299995      -5.96579497E-08
   23.7900009      -5.93247051E-08
   23.8500004      -5.88938640E-08
   23.9099998      -5.83356048E-08
   23.9699993      -5.76124926E-08
   24.0300007      -5.66896112E-08
   24.0900002      -5.55450868E-08
   24.1499996      -5.41779990E-08
   24.2099991      -5.26114370E-08
   24.2700005      -5.08896143E-08
   24.3299999      -4.90699001E-08
   24.3899994      -4.72120547E-08
   24.4500008      -4.53678588E-08
   24.5100002      -4.35741541E-08
   24.5699997      -4.18510524E-08
   24.6299992      -4.02053111E-08
   24.6900005      -3.86372072E-08
   24.7500000      -3.71482685E-08
   24.8099995      -3.57470498E-08
   24.8700008      -3.44513538E-08
   24.9300003      -3.32863870E-08
   24.9899998      -3.22797717E-08
   25.0499992      -3.14551549E-08
   25.1100006      -3.08262571E-08
   25.1700001      -3.03929610E-08
   25.2299995      -3.01403702E-08
   25.2900009      -3.00410470E-08
   25.3500004      -3.00600753E-08
   25.4099998      -3.01618570E-08
   25.4699993      -3.03172527E-08
   25.5300007      -3.05092058E-08
   25.5900002      -3.07353467E-08
   25.6499996      -3.10066355E-08
   25.7099991      -3.13422746E-08
   25.7700005      -3.17623723E-08
   25.8299999      -3.22807736E-08
   25.8899994      -3.29006333E-08
   25.9500008      -3.36144339E-08
   26.0100002      -3.44087319E-08
   26.0699997      -3.52719098E-08
   26.1299992      -3.62020245E-08
   26.1900005      -3.72113078E-08
   26.2500000      -3.83250587E-08
   26.3099995      -3.95742852E-08
   26.3700008      -4.09839167E-08
   26.4300003      -4.25602025E-08
   26.4899998      -4.42815100E-08
   26.5499992      -4.60960656E-08
   26.6100006      -4.79279940E-08
   26.6700001      -4.96905344E-08
   26.7299995      -5.13027629E-08
   26.7900009      -5.27051576E-08
   26.8500004      -5.38693428E-08
   26.9099998      -5.47995676E-08
   26.9699993      -5.55257706E-08
   27.0300007      -5.60909967E-08
   27.0900002      -5.65373810E-08
   27.1499996      -5.68951926E-08
   27.2099991      -5.71779069E-08
   27.2700005      -5.73840673E-08
   27.3299999      -5.75041490E-08
   27.3899994      -5.75290287E-08
   27.4500008      -5.74564325E-08
   27.5100002      -5.72926879E-08
   27.5699997      -5.70491387E-08
   27.6299992      -5.67345815E-08
   27.6900005      -5.63465470E-08
   27.7500000      -5.58647884E-08
   27.8099995      -5.52493589E-08
   27.8700008      -5.44445236E-08
   27.9300003      -5.33878293E-08
   27.9899998      -5.20221235E-08
   28.0499992      -5.03076976E-08
   28.1100006      -4.82314206E-08
   28.1700001      -4.58107152E-08
   28.2299995      -4.30913438E-08
   28.2900009      -4.01396818E-08
   28.3500004      -3.70313131E-08
   28.4099998      -3.38389299E-08
   28.4699993      -3.06221963E-08
   28.5300007      -2.74217413E-08
   28.5900002      -2.42580089E-08
   28.6499996      -2.11343192E-08
   28.7099991      -1.80424884E-08
   28.7700005      -1.49690162E-08
   28.8299999      -1.19002781E-08
   28.8899994      -8.82590623E-09
   28.9500008      -5.74050230E-09
   29.0100002      -2.64425681E-09
   29.0699997       4.56822052E-10
   29.1299992       3.55067753E-09
   29.1900005       6.61894894E-09
   29.2500000       9.63692415E-09
   29.3099995       1.25739552E-08
   29.3700008       1.53945159E-08
   29.4300003       1.80599464E-08
   29.4899998       2.05309725E-08
   29.5499992       2.27710721E-08
   29.6100006       2.47506993E-08
   29.6700001       2.64520974E-08
   29.7299995       2.78738472E-08
   29.7900009       2.90338313E-08
   29.8500004       2.99691330E-08
   29.9099998       3.07318295E-08
   29.9699993       3.13806510E-08
   30.0300007       3.19700213E-08
   30.0900002       3.25389138E-08
   30.1499996       3.31026264E-08
   30.2099991       3.36498651E-08
   30.2700005       3.41460868E-08
   30.3299999       3.45421434E-08
   30.3899994       3.47856712E-08
   30.4500008       3.48319489E-08
   30.5100002       3.46512685E-08
   30.5699997       3.42314550E-08
   30.6299992       3.35756525E-08
   30.6900005       3.26973506E-08
   30.7500000       3.16149880E-08
   30.8099995       3.03483034E-08
   30.8700008       2.89173592E-08
   30.9300003       2.73437948E-08
   30.9899998       2.56528860E-08
   31.0499992       2.38746765E-08
   31.1100006       2.20430305E-08
   31.1700001       2.01924824E-08
   31.2299995       1.83537185E-08
   31.2900009       1.65490786E-08
   31.3500004       1.47893671E-08
   31.4099998       1.30727047E-08
   31.4699993       1.13854854E-08
   31.5300007       9.70494085E-09
   31.5900002       8.00265454E-09
   31.6499996       6.24845420E-09
   31.7099991       4.41425785E-09
   31.7700005       2.47757725E-09
   31.8299999       4.24397351E-10
   31.8899994      -1.74887294E-09
   31.9500008      -4.03457801E-09
   32.0099983      -6.41414299E-09
   32.0699997      -8.85936302E-09
   32.1300011      -1.13343601E-08
   32.1899986      -1.37980010E-08
   32.2500000      -1.62067408E-08
   32.3100014      -1.85179587E-08
   32.3699989      -2.06936743E-08
   32.4300003      -2.27041852E-08
   32.4900017      -2.45307294E-08
   32.5499992      -2.61662194E-08
   32.6100006      -2.76134458E-08
   32.6699982      -2.88811268E-08
   32.7299995      -2.99790912E-08
   32.7900009      -3.09143999E-08
   32.8499985      -3.16900390E-08
   32.9099998      -3.23066160E-08
   32.9700012      -3.27661667E-08
   33.0299988      -3.30760876E-08
   33.0900002      -3.32509060E-08
   33.1500015      -3.33108368E-08
   33.2099991      -3.32773737E-08
   33.2700005      -3.31680319E-08
   33.3300018      -3.29927268E-08
   33.3899994      -3.27537997E-08
   33.4500008      -3.24499325E-08
   33.5099983      -3.20822409E-08
   33.5699997      -3.16598019E-08
   33.6300011      -3.12018003E-08
   33.6899986      -3.07352970E-08
   33.7500000      -3.02894350E-08
   33.8100014      -2.98887954E-08
   33.8699989      -2.95489819E-08
   33.9300003      -2.92763271E-08
   33.9900017      -2.90716500E-08
   34.0499992      -2.89359186E-08
   34.1100006      -2.88747586E-08
   34.1699982      -2.88992226E-08
   34.2299995      -2.90220115E-08
   34.2900009      -2.92506268E-08
   34.3499985      -2.95802582E-08
   34.4099998      -2.99895326E-08
   34.4700012      -3.04410186E-08
   34.5299988      -3.08865680E-08
   34.5900002      -3.12757997E-08
   34.6500015      -3.15650190E-08
   34.7099991      -3.17242481E-08
   34.7700005      -3.17407078E-08
   34.8300018      -3.16185194E-08
   34.8899994      -3.13752437E-08
   34.9500008      -3.10363610E-08
   35.0099983      -3.06288470E-08
   35.0699997      -3.01749630E-08
   35.1300011      -2.96871736E-08
   35.1899986      -2.91651752E-08
   35.2500000      -2.85957356E-08
   35.3100014      -2.79555756E-08
   35.3699989      -2.72167853E-08
   35.4300003      -2.63533764E-08
   35.4900017      -2.53472194E-08
   35.5499992      -2.41917579E-08
   35.6100006      -2.28928005E-08
   35.6699982      -2.14668123E-08
   35.7299995      -1.99380938E-08
   35.7900009      -1.83363760E-08
   35.8499985      -1.66957683E-08
   35.9099998      -1.50548409E-08
   35.9700012      -1.34566447E-08
   36.0299988      -1.19472139E-08
   36.0900002      -1.05717861E-08
   36.1500015      -9.36921918E-09
   36.2099991      -8.36640535E-09
   36.2700005      -7.57489271E-09
   36.3300018      -6.99135239E-09
   36.3899994      -6.60196298E-09
   36.4500008      -6.38913900E-09
   36.5099983      -6.33798081E-09
   36.5699997      -6.43996412E-09
   36.6300011      -6.69266420E-09
   36.6899986      -7.09606596E-09
   36.7500000      -7.64746844E-09
   36.8100014      -8.33743652E-09
   36.8699989      -9.14860010E-09
   36.9300003      -1.00577049E-08
   36.9900017      -1.10399121E-08
   37.0499992      -1.20735573E-08
   37.1100006      -1.31437066E-08
   37.1699982      -1.42435592E-08
   37.2299995      -1.53737840E-08
   37.2900009      -1.65404614E-08
   37.3499985      -1.77524768E-08
   37.4099998      -1.90189553E-08
   37.4700012      -2.03469668E-08
   37.5299988      -2.17396359E-08
   37.5900002      -2.31948984E-08
   37.6500015      -2.47053826E-08
   37.7099991      -2.62597428E-08
   37.7700005      -2.78454362E-08
   37.8300018      -2.94520710E-08
   37.8899994      -3.10739452E-08
   37.9500008      -3.27102718E-08
   38.0099983      -3.43623583E-08
   38.0699997      -3.60282968E-08
   38.1300011      -3.76970313E-08
   38.1899986      -3.93444211E-08
   38.2500000      -4.09334362E-08
   38.3100014      -4.24191704E-08
   38.3699989      -4.37574847E-08
   38.4300003      -4.49144331E-08
   38.4900017      -4.58731506E-08
   38.5499992      -4.66357335E-08
   38.6100006      -4.72195083E-08
   38.6699982      -4.76491913E-08
   38.7299995      -4.79479603E-08
   38.7900009      -4.81307296E-08
   38.8499985      -4.82018976E-08
   38.9099998      -4.81581068E-08
   38.9700012      -4.79946536E-08
   39.0299988      -4.77129909E-08
   39.0900002      -4.73267434E-08
   39.1500015      -4.68641552E-08
   39.2099991      -4.63664378E-08
   39.2700005      -4.58824623E-08
   39.3300018      -4.54612312E-08
   39.3899994      -4.51438673E-08
   39.4500008      -4.49566677E-08
   39.5099983      -4.49065922E-08
   39.5699997      -4.49799202E-08
   39.6300011      -4.51445601E-08
   39.6899986      -4.53556268E-08
   39.7500000      -4.55632971E-08
   39.8100014      -4.57212721E-08
   39.8699989      -4.57938114E-08
   39.9300003      -4.57595597E-08
   39.9900017      -4.56113263E-08
   40.0499992      -4.53522588E-08
   40.1100006      -4.49900845E-08
   40.1699982      -4.45317774E-08
   40.2299995      -4.39807337E-08
   40.2900009      -4.33373479E-08
   40.3499985      -4.26024407E-08
   40.4099998      -4.17817141E-08
   40.4700012      -4.08888532E-08
   40.5299988      -3.99456006E-08
   40.5900002      -3.89783956E-08
   40.6500015      -3.80126153E-08
   40.7099991      -3.70665845E-08
   40.7700005      -3.61475543E-08
   40.8300018      -3.52510057E-08
   40.8899994      -3.43633886E-08
   40.9500008      -3.34669465E-08
   41.0099983      -3.25447616E-08
   41.0699997      -3.15841007E-08
   41.1300011      -3.05773256E-08
   41.1899986      -2.95204270E-08
   41.2500000      -2.84104509E-08
   41.3100014      -2.72432228E-08
   41.3699989      -2.60125557E-08
   41.4300003      -2.47112837E-08
   41.4900017      -2.33337776E-08
   41.5499992      -2.18789697E-08
   41.6100006      -2.03529869E-08
   41.6699982      -1.87706988E-08
   41.7299995      -1.71558909E-08
   41.7900009      -1.55401523E-08
   41.8499985      -1.39606042E-08
   41.9099998      -1.24567103E-08
   41.9700012      -1.10664002E-08
   42.0299988      -9.82204273E-09
   42.0900002      -8.74700845E-09
   42.1500015      -7.85377541E-09
   42.2099991      -7.14432602E-09
   42.2700005      -6.61291377E-09
   42.3300018      -6.25039798E-09
   42.3899994      -6.04855144E-09
   42.4500008      -6.00251182E-09
   42.5099983      -6.11013640E-09
   42.5699997      -6.36828545E-09
   42.6300011      -6.76747947E-09
   42.6899986      -7.28734895E-09
   42.7500000      -7.89523646E-09
   42.8100014      -8.54919158E-09
   42.8699989      -9.20484666E-09
   42.9300003      -9.82402781E-09
   42.9900017      -1.03822000E-08
   43.0499992      -1.08723270E-08
   43.1100006      -1.13041905E-08
   43.1699982      -1.16999814E-08
   43.2299995      -1.20882149E-08
   43.2900009      -1.24982114E-08
   43.3499985      -1.29565629E-08
   43.4099998      -1.34856872E-08
   43.4700012      -1.41035246E-08
   43.5299988      -1.48232289E-08
   43.5900002      -1.56522759E-08
   43.6500015      -1.65914606E-08
   43.7099991      -1.76349317E-08
   43.7700005      -1.87723348E-08
   43.8300018      -1.99931502E-08
   43.8899994      -2.12920419E-08
   43.9500008      -2.26730563E-08
   44.0099983      -2.41506015E-08
   44.0699997      -2.57461696E-08
   44.1300011      -2.74815513E-08
   44.1899986      -2.93708489E-08
   44.2500000      -3.14142596E-08
   44.3100014      -3.35961303E-08
   44.3699989      -3.58882488E-08
   44.4300003      -3.82575429E-08
   44.4900017      -4.06760599E-08
   44.5499992      -4.31305232E-08
   44.6100006      -4.56294558E-08
   44.6699982      -4.82068536E-08
   44.7299995      -5.09225693E-08
   44.7900009      -5.38604716E-08
   44.8499985      -5.71255114E-08
   44.9099998      -6.08407831E-08
   44.9700012      -6.51454144E-08
   45.0299988      -7.01936713E-08
   45.0900002      -7.61558283E-08
   45.1500015      -8.32207974E-08
   45.2099991      -9.16005547E-08
   45.2700005      -1.01535711E-07
   45.3300018      -1.13301127E-07
   45.3899994      -1.27210669E-07
   45.4500008      -1.43620369E-07
   45.5099983      -1.62930476E-07
   45.5699997      -1.85587567E-07
   45.6300011      -2.12088992E-07
   45.6899986      -2.42991575E-07
   45.7500000      -2.78925143E-07
   45.8100014      -3.20610667E-07
   45.8699989      -3.68880137E-07
   45.9300003      -4.24695742E-07
   45.9900017      -4.89165359E-07
   46.0499992      -5.63552703E-07
   46.1100006      -6.49283777E-07
   46.1699982      -7.47950537E-07
   46.2299995      -8.61316153E-07
   46.2900009      -9.91322850E-07
   46.3499985      -1.14010470E-06
   46.4099998      -1.31000581E-06
   46.4700012      -1.50360052E-06
   46.5299988      -1.72371642E-06
   46.5900002      -1.97345730E-06
   46.6500015      -2.25622625E-06
   46.7099991      -2.57574629E-06
   46.7700005      -2.93608036E-06
   46.8300018      -3.34164747E-06
   46.8899994      -3.79723497E-06
   46.9500008      -4.30800810E-06
   47.0099983      -4.87951593E-06
   47.0699997      -5.51769381E-06
   47.1300011      -6.22886819E-06
   47.1899986      -7.01975796E-06
   47.2500000      -7.89747992E-06
   47.3100014      -8.86954513E-06
   47.3699989      -9.94385391E-06
   47.4300003      -1.11286890E-05
   47.4900017      -1.24326843E-05
   47.5499992      -1.38648102E-05
   47.6100006      -1.54343306E-05
   47.6699982      -1.71507727E-05
   47.7299995      -1.90238861E-05
   47.7900009      -2.10635899E-05
   47.8499985      -2.32799357E-05
   47.9099998      -2.56830353E-05
   47.9700012      -2.82830188E-05
   48.0299988      -3.10899450E-05
   48.0900002      -3.41137347E-05
   48.1500015      -3.73640723E-05
   48.2099991      -4.08503365E-05
   48.2700005      -4.45814694E-05
   48.3300018      -4.85659148E-05
   48.3899994      -5.28114761E-05
   48.4500008      -5.73252109E-05
   48.5099983      -6.21133149E-05
   48.5699997      -6.71810049E-05
   48.6300011      -7.25323844E-05
   48.6899986      -7.81703638E-05
   48.7500000      -8.40965440E-05
   48.8100014      -9.03111431E-05
   48.8699989      -9.68129389E-05
   48.9300003      -1.03599137E-04
   48.9900017      -1.10665336E-04
   49.0499992      -1.18005439E-04
   49.1100006      -1.25611637E-04
   49.1699982      -1.33474387E-04
   49.2299995      -1.41582292E-04
   49.2900009      -1.49922213E-04
   49.3499985      -1.58479175E-04
   49.4099998      -1.67236518E-04
   49.4700012      -1.76175803E-04
   49.5299988      -1.85277051E-04
   49.5900002      -1.94518696E-04
   49.6500015      -2.03877862E-04
   49.7099991      -2.13330422E-04
   49.7700005      -2.22851173E-04
   49.8300018      -2.32413993E-04
   49.8899994      -2.41992020E-04
   49.9500008      -2.51557911E-04
   50.0099983      -2.61083944E-04
   50.0699997      -2.70542514E-04
   50.1300011      -2.79906031E-04
   50.1899986      -2.89147458E-04
   50.2500000      -2.98240426E-04
   50.3100014      -3.07159586E-04
   50.3699989      -3.15880665E-04
   50.4300003      -3.24381050E-04
   50.4900017      -3.32639698E-04
   50.5499992      -3.40637605E-04
   50.6100006      -3.48357862E-04