 -0.750000000       0.00000000    
 -0.689999998       0.00000000    
 -0.629999995       0.00000000    
 -0.569999993       0.00000000    
 -0.509999990       0.00000000    
 -0.449999988       4.95367547E-20
 -0.389999986       3.65997126E-19
 -0.330000013       1.27832202E-18
 -0.270000011       2.47493453E-18
 -0.209999993       1.41642138E-18
 -0.150000006      -7.70117889E-18
  -9.00000036E-02  -3.11961606E-17
  -2.99999993E-02  -6.64793610E-17
   2.99999993E-02  -8.82750606E-17
   9.00000036E-02  -4.21626664E-17
  0.150000006       1.36096635E-16
  0.209999993       4.63706440E-16
  0.270000011       8.31752314E-16
  0.330000013       9.58250067E-16
  0.389999986       4.51016828E-16
  0.449999988      -9.70117528E-16
  0.509999990      -3.13836591E-15
  0.569999993      -5.17151731E-15
  0.629999995      -5.53360441E-15
  0.689999998      -2.62542267E-15
  0.750000000       4.15769680E-15
  0.810000002       1.33409824E-14
  0.870000005       2.09856157E-14
  0.930000007       2.16726322E-14
  0.990000010       1.09777105E-14
   1.04999995      -1.13449975E-14
   1.11000001      -3.90857424E-14
   1.16999996      -6.00180780E-14
   1.23000002      -6.00213713E-14
   1.28999996      -3.00777808E-14
   1.35000002       2.66625050E-14
   1.40999997       9.16711436E-14
   1.47000003       1.34891677E-13
   1.52999997       1.26105872E-13
   1.59000003       5.03854364E-14
   1.64999998      -7.90401205E-14
   1.71000004      -2.17845273E-13
   1.76999998      -3.02024627E-13
   1.83000004      -2.72169006E-13
   1.88999999      -1.02468869E-13
   1.95000005       1.77926155E-13
   2.00999999       4.82842932E-13
   2.06999993       6.91662873E-13
   2.13000011       6.91922051E-13
   2.19000006       4.27610882E-13
   2.25000000      -6.61770714E-14
   2.30999994      -6.59048337E-13
   2.36999989      -1.15829850E-12
   2.43000007      -1.37156584E-12
   2.49000001      -1.17866676E-12
   2.54999995      -5.85978748E-13
   2.60999990       2.59415834E-13
   2.67000008       1.10535582E-12
   2.73000002       1.67135609E-12
   2.78999996       1.74159222E-12
   2.84999990       1.24147014E-12
   2.91000009       2.69616306E-13
   2.97000003      -9.27151368E-13
   3.02999997      -2.02689363E-12
   3.08999991      -2.72597353E-12
   3.15000010      -2.81709465E-12
   3.21000004      -2.22302819E-12
   3.26999998      -9.77099478E-13
   3.32999992       8.32959786E-13
   3.39000010       3.12104335E-12
   3.45000005       5.81706341E-12
   3.50999999       8.81349941E-12
   3.56999993       1.18496289E-11
   3.63000011       1.43760949E-11
   3.69000006       1.54694261E-11
   3.75000000       1.38696554E-11
   3.80999994       8.18828772E-12
   3.86999989      -2.71688141E-12
   3.93000007      -1.92643453E-11
   3.99000001      -4.06843517E-11
   4.05000019      -6.47063930E-11
   4.11000013      -8.75239048E-11
   4.17000008      -1.04110900E-10
   4.23000002      -1.08890563E-10
   4.28999996      -9.66749805E-11
   4.34999990      -6.37293690E-11
   4.40999985      -8.77743364E-12
   4.46999979       6.62323321E-11
   4.53000021       1.55738838E-10
   4.59000015       2.50629795E-10
   4.65000010       3.38741785E-10
   4.71000004       4.05717265E-10
   4.76999998       4.36095576E-10
   4.82999992       4.14509316E-10
   4.88999987       3.26895511E-10
   4.94999981       1.61682501E-10
   5.01000023      -8.90396784E-11
   5.07000017      -4.28352576E-10
   5.13000011      -8.53374815E-10
   5.19000006      -1.35428191E-09
   5.25000000      -1.91368876E-09
   5.30999994      -2.50666354E-09
   5.36999989      -3.10159898E-09
   5.42999983      -3.66203490E-09
   5.48999977      -4.14931467E-09
   5.55000019      -4.52573579E-09
   5.61000013      -4.75770312E-09
   5.67000008      -4.81836437E-09
   5.73000002      -4.68934225E-09
   5.78999996      -4.36141212E-09
   5.84999990      -3.83426091E-09
   5.90999985      -3.11566040E-09
   5.96999979      -2.22049801E-09
   6.03000021      -1.16999244E-09
   6.09000015       8.77346546E-12
   6.15000010       1.28313371E-09
   6.21000004       2.61528066E-09
   6.26999998       3.96327460E-09
   6.32999992       5.28292743E-09
   6.38999987       6.53062404E-09
   6.44999981       7.66680586E-09
   6.51000023       8.65959926E-09
   6.57000017       9.48788337E-09
   6.63000011       1.01431992E-08
   6.69000006       1.06300595E-08
   6.75000000       1.09646017E-08
   6.80999994       1.11718048E-08
   6.86999989       1.12817791E-08
   6.92999983       1.13256986E-08
   6.98999977       1.13319638E-08
   7.05000019       1.13230207E-08
   7.11000013       1.13131673E-08
   7.17000008       1.13075025E-08
   7.23000002       1.13020944E-08
   7.28999996       1.12852998E-08
   7.34999990       1.12400889E-08
   7.40999985       1.11470513E-08
   7.46999979       1.09876508E-08
   7.53000021       1.07472395E-08
   7.59000015       1.04173363E-08
   7.65000010       9.99679273E-09
   7.71000004       9.49165546E-09
   7.76999998       8.91373197E-09
   7.82999992       8.27810709E-09
   7.88999987       7.60006458E-09
   7.94999981       6.89203938E-09
   8.01000023       6.16130968E-09
   8.06999969       5.40910339E-09
   8.13000011       4.63153205E-09
   8.18999958       3.82234822E-09
   8.25000000       2.97695957E-09
   8.31000042       2.09666973E-09
   8.36999989       1.19190124E-09
   8.43000031       2.83342655E-10
   8.48999977      -5.99460759E-10
   8.55000019      -1.42178214E-09
   8.60999966      -2.14867701E-09
   8.67000008      -2.74991607E-09
   8.72999954      -3.20371374E-09
   8.78999996      -3.49859586E-09
   8.85000038      -3.63345531E-09
   8.90999985      -3.61641228E-09
   8.97000027      -3.46335316E-09
   9.02999973      -3.19689941E-09
   9.09000015      -2.84615775E-09
   9.14999962      -2.44710008E-09
   9.21000004      -2.04298267E-09
   9.27000046      -1.68398306E-09
   9.32999992      -1.42528123E-09
   9.39000034      -1.32315314E-09
   9.44999981      -1.42923740E-09
   9.51000023      -1.78382387E-09
   9.56999969      -2.40960341E-09
   9.63000011      -3.30751426E-09
   9.68999958      -4.45599824E-09
   9.75000000      -5.81410786E-09
   9.81000042      -7.32779970E-09
   9.86999989      -8.93781937E-09
   9.93000031      -1.05872129E-08
   9.98999977      -1.22268853E-08
   10.0500002      -1.38185863E-08
   10.1099997      -1.53357167E-08
   10.1700001      -1.67630017E-08
   10.2299995      -1.80960722E-08
   10.2900000      -1.93413641E-08
   10.3500004      -2.05160102E-08
   10.4099998      -2.16468923E-08
   10.4700003      -2.27680754E-08
   10.5299997      -2.39164457E-08
   10.5900002      -2.51260737E-08
   10.6499996      -2.64223292E-08
   10.7100000      -2.78169345E-08
   10.7700005      -2.93047950E-08
   10.8299999      -3.08631947E-08
   10.8900003      -3.24535172E-08
   10.9499998      -3.40254687E-08
   11.0100002      -3.55236125E-08
   11.0699997      -3.68953366E-08
   11.1300001      -3.80990421E-08
   11.1899996      -3.91106489E-08
   11.2500000      -3.99265225E-08
   11.3100004      -4.05618117E-08
   11.3699999      -4.10442773E-08
   11.4300003      -4.14053893E-08
   11.4899998      -4.16712354E-08
   11.5500002      -4.18559338E-08
   11.6099997      -4.19591260E-08
   11.6700001      -4.19678159E-08
   11.7299995      -4.18612380E-08
   11.7900000      -4.16170494E-08
   11.8500004      -4.12169001E-08
   11.9099998      -4.06503133E-08
   11.9700003      -3.99164470E-08
   12.0299997      -3.90237354E-08
   12.0900002      -3.79878600E-08
   12.1499996      -3.68282720E-08
   12.2100000      -3.55640317E-08
   12.2700005      -3.42098332E-08
   12.3299999      -3.27733218E-08
   12.3900003      -3.12548138E-08
   12.4499998      -2.96496498E-08
   12.5100002      -2.79527086E-08
   12.5699997      -2.61634963E-08
   12.6300001      -2.42899887E-08
   12.6899996      -2.23499068E-08
   12.7500000      -2.03690718E-08
   12.8100004      -1.83777953E-08
   12.8699999      -1.64069007E-08
   12.9300003      -1.44850762E-08
   12.9899998      -1.26383650E-08
   13.0500002      -1.08915810E-08
   13.1099997      -9.27042709E-09
   13.1700001      -7.80272646E-09
   13.2299995      -6.51754428E-09
   13.2900000      -5.44181011E-09
   13.3500004      -4.59515181E-09
   13.4099998      -3.98445854E-09
   13.4700003      -3.60002272E-09
   13.5299997      -3.41477358E-09
   13.5900002      -3.38726114E-09
   13.6499996      -3.46784379E-09
   13.7100000      -3.60647645E-09
   13.7700005      -3.75989018E-09
   13.8299999      -3.89611055E-09
   13.8900003      -3.99513622E-09
   13.9499998      -4.04595113E-09
   14.0100002      -4.04126732E-09
   14.0699997      -3.97210442E-09
   14.1300001      -3.82414678E-09
   14.1899996      -3.57695273E-09
   14.2500000      -3.20591464E-09
   14.3100004      -2.68589995E-09
   14.3699999      -1.99515560E-09
   14.4300003      -1.11830656E-09
   14.4899998      -4.79502063E-11
   14.5500002       1.21499333E-09
   14.6099997       2.66160938E-09
   14.6700001       4.27540003E-09
   14.7299995       6.03239014E-09
   14.7900000       7.90082666E-09
   14.8500004       9.84064297E-09
   14.9099998       1.18030785E-08
   14.9700003       1.37310412E-08
   15.0299997       1.55609232E-08
   15.0900002       1.72264532E-08
   15.1499996       1.86647267E-08
   15.2100000       1.98237977E-08
   15.2700005       2.06703810E-08
   15.3299999       2.11957261E-08
   15.3900003       2.14179003E-08
   15.4499998       2.13795754E-08
   15.5100002       2.11416786E-08
   15.5699997       2.07743884E-08
   15.6300001       2.03475015E-08
   15.6899996       1.99219663E-08
   15.7500000       1.95436947E-08
   15.8100004       1.92400105E-08
   15.8699999       1.90187386E-08
   15.9300003       1.88699367E-08
   15.9899998       1.87703915E-08
   16.0499992       1.86907911E-08
   16.1100006       1.86048101E-08
   16.1700001       1.84983264E-08
   16.2299995       1.83762268E-08
   16.2900009       1.82643358E-08
   16.3500004       1.82052560E-08
   16.4099998       1.82487359E-08
   16.4699993       1.84392501E-08
   16.5300007       1.88044851E-08
   16.5900002       1.93482332E-08
   16.6499996       2.00495567E-08
   16.7099991       2.08679474E-08
   16.7700005       2.17522995E-08
   16.8299999       2.26505765E-08
   16.8899994       2.35173818E-08
   16.9500008       2.43179112E-08
   17.0100002       2.50282604E-08
   17.0699997       2.56334260E-08
   17.1299992       2.61247255E-08
   17.1900005       2.64982205E-08
   17.2500000       2.67549343E-08
   17.3099995       2.69026437E-08
   17.3700008       2.69583289E-08
   17.4300003       2.69498592E-08
   17.4899998       2.69157301E-08
   17.5499992       2.69021765E-08
   17.6100006       2.69578173E-08
   17.6700001       2.71268714E-08
   17.7299995       2.74424519E-08
   17.7900009       2.79214376E-08
   17.8500004       2.85619723E-08
   17.9099998       2.93438358E-08
   17.9699993       3.02312877E-08
   18.0300007       3.11776240E-08
   18.0900002       3.21307567E-08
   18.1499996       3.30394521E-08
   18.2099991       3.38598554E-08
   18.2700005       3.45619888E-08
   18.3299999       3.51351659E-08
   18.3899994       3.55909187E-08
   18.4500008       3.59620067E-08
   18.5100002       3.62966119E-08
   18.5699997       3.66484088E-08
   18.6299992       3.70645203E-08
   18.6900005       3.75746261E-08
   18.7500000       3.81845489E-08
   18.8099995       3.88762302E-08
   18.8700008       3.96142710E-08
   18.9300003       4.03565998E-08
   18.9899998       4.10656824E-08
   19.0499992       4.17164081E-08
   19.1100006       4.22981650E-08
   19.1700001       4.28111093E-08
   19.2299995       4.32587441E-08
   19.2900009       4.36405365E-08
   19.3500004       4.39480239E-08
   19.4099998       4.41661925E-08
   19.4699993       4.42795987E-08
   19.5300007       4.42803803E-08
   19.5900002       4.41744739E-08
   19.6499996       4.39828121E-08
   19.7099991       4.37366729E-08
   19.7700005       4.34684289E-08
   19.8299999       4.32011653E-08
   19.8899994       4.29408260E-08
   19.9500008       4.26737117E-08
   20.0100002       4.23698765E-08
   20.0699997       4.19909938E-08
   20.1299992       4.14996890E-08
   20.1900005       4.08672882E-08
   20.2500000       4.00778610E-08
   20.3099995       3.91279045E-08
   20.3700008       3.80227192E-08
   20.4300003       3.67712403E-08
   20.4899998       3.53813796E-08
   20.5499992       3.38574324E-08
   20.6100006       3.22001306E-08
   20.6700001       3.04091401E-08
   20.7299995       2.84868129E-08
   20.7900009       2.64418443E-08
   20.8500004       2.42912748E-08
   20.9099998       2.20599414E-08
   20.9699993       1.97772003E-08
   21.0300007       1.74717183E-08
   21.0900002       1.51658845E-08
   21.1499996       1.28715918E-08
   21.2099991       1.05887974E-08
   21.2700005       8.30736635E-09
   21.3299999       6.01158456E-09
   21.3899994       3.68585851E-09
   21.4500008       1.31973910E-09
   21.5100002      -1.08932219E-09
   21.5699997      -3.53629948E-09
   21.6299992      -6.01179773E-09
   21.6900005      -8.50701554E-09
   21.7500000      -1.10187797E-08
   21.8099995      -1.35529037E-08
   21.8700008      -1.61245719E-08
   21.9300003      -1.87553422E-08
   21.9899998      -2.14673967E-08
   22.0499992      -2.42767104E-08
   22.1100006      -2.71872320E-08
   22.1700001      -3.01880938E-08
   22.2299995      -3.32548424E-08
   22.2900009      -3.63544004E-08
   22.3500004      -3.94519866E-08
   22.4099998      -4.25176445E-08
   22.4699993      -4.55301290E-08
   22.5300007      -4.84770553E-08
   22.5900002      -5.13517300E-08
   22.6499996      -5.41483622E-08
   22.7099991      -5.68578358E-08
   22.7700005      -5.94657088E-08
   22.8299999      -6.19529459E-08
   22.8899994      -6.42986109E-08
   22.9500008      -6.64828974E-08
   23.0100002      -6.84889869E-08
   23.0699997      -7.03030594E-08
   23.1299992      -7.19127655E-08
   23.1900005      -7.33055643E-08
   23.2500000      -7.44682538E-08
   23.3099995      -7.53887903E-08
   23.3700008      -7.60599406E-08
   23.4300003      -7.64836017E-08
   23.4899998      -7.66737216E-08
   23.5499992      -7.66560362E-08
   23.6100006      -7.64639836E-08
   23.6700001      -7.61316912E-08
   23.7299995      -7.56862022E-08
   23.7900009      -7.51420330E-08
   23.8500004      -7.45002424E-08
   23.9099998      -7.37529149E-08
   23.9699993      -7.28916518E-08
   24.0300007      -7.19169293E-08
   24.0900002      -7.08447914E-08
   24.1499996      -6.97078093E-08
   24.2099991      -6.85496175E-08
   24.2700005      -6.74146463E-08
   24.3299999      -6.63366535E-08
   24.3899994      -6.53301129E-08
   24.4500008      -6.43875566E-08
   24.5100002      -6.34836326E-08
   24.5699997      -6.25842276E-08
   24.6299992      -6.16571967E-08
   24.6900005      -6.06809607E-08
   24.7500000      -5.96482650E-08
   24.8099995      -5.85645736E-08
   24.8700008      -5.74427368E-08
   24.9300003      -5.62967379E-08
   24.9899998      -5.51377113E-08
   25.0499992      -5.39738032E-08
   25.1100006      -5.28138422E-08
   25.1700001      -5.16727354E-08
   25.2299995      -5.05757463E-08
   25.2900009      -4.95591976E-08
   25.3500004      -4.86662870E-08
   25.4099998      -4.79389932E-08
   25.4699993      -4.74083137E-08
   25.5300007      -4.70859511E-08
   25.5900002      -4.69601034E-08
   25.6499996      -4.69966857E-08
   25.7099991      -4.71457042E-08
   25.7700005      -4.73509481E-08
   25.8299999      -4.75605901E-08
   25.8899994      -4.77360835E-08
   25.9500008      -4.78575046E-08
   26.0100002      -4.79243845E-08
   26.0699997      -4.79522271E-08
   26.1299992      -4.79656777E-08
   26.1900005      -4.79901807E-08
   26.2500000      -4.80439795E-08
   26.3099995      -4.81324705E-08
   26.3700008      -4.82462106E-08
   26.4300003      -4.83629528E-08
   26.4899998      -4.84531775E-08
   26.5499992      -4.84874292E-08
   26.6100006      -4.84435638E-08
   26.6700001      -4.83118612E-08
   26.7299995      -4.80967834E-08
   26.7900009      -4.78151918E-08
   26.8500004      -4.74918025E-08
   26.9099998      -4.71534243E-08
   26.9699993      -4.68236543E-08
   27.0300007      -4.65194603E-08
   27.0900002      -4.62502250E-08
   27.1499996      -4.60189895E-08
   27.2099991      -4.58248905E-08
   27.2700005      -4.56654341E-08
   27.3299999      -4.55375435E-08
   27.3899994      -4.54369271E-08
   27.4500008      -4.53562592E-08
   27.5100002      -4.52833753E-08
   27.5699997      -4.52007143E-08
   27.6299992      -4.50870097E-08
   27.6900005      -4.49207640E-08
   27.7500000      -4.46843806E-08
   27.8099995      -4.43669208E-08
   27.8700008      -4.39640004E-08
   27.9300003      -4.34744578E-08
   27.9899998      -4.28949960E-08
   28.0499992      -4.22152624E-08
   28.1100006      -4.14160155E-08
   28.1700001      -4.04719493E-08
   28.2299995      -3.93588095E-08
   28.2900009      -3.80624563E-08
   28.3500004      -3.65863926E-08
   28.4099998      -3.49545921E-08
   28.4699993      -3.32080496E-08
   28.5300007      -3.13960236E-08
   28.5900002      -2.95648750E-08
   28.6499996      -2.77485057E-08
   28.7099991      -2.59635957E-08
   28.7700005      -2.42109621E-08
   28.8299999      -2.24819239E-08
   28.8899994      -2.07666719E-08
   28.9500008      -1.90610194E-08
   29.0100002      -1.73689454E-08
   29.0699997      -1.57002891E-08
   29.1299992      -1.40652023E-08
   29.1900005      -1.24683188E-08
   29.2500000      -1.09056204E-08
   29.3099995      -9.36560340E-09
   29.3700008      -7.83431542E-09
   29.4300003      -6.30203179E-09
   29.4899998      -4.76865036E-09
   29.5499992      -3.24561933E-09
   29.6100006      -1.75387183E-09
   29.6700001      -3.19124172E-10
   29.7299995       1.03307418E-09
   29.7900009       2.28029351E-09
   29.8500004       3.40321704E-09
   29.9099998       4.38334924E-09
   29.9699993       5.20029797E-09
   30.0300007       5.83065285E-09
   30.0900002       6.24961549E-09
   30.1499996       6.43518749E-09
   30.2099991       6.37352038E-09
   30.2700005       6.06355632E-09
   30.3299999       5.51940005E-09
   30.3899994       4.76966644E-09
   30.4500008       3.85395715E-09
   30.5100002       2.81731638E-09
   30.5699997       1.70391135E-09
   30.6299992       5.51366286E-10
   30.6900005      -6.12836781E-10
   30.7500000      -1.77178372E-09
   30.8099995      -2.91602609E-09
   30.8700008      -4.03779232E-09
   30.9300003      -5.12466425E-09
   30.9899998      -6.15566886E-09
   31.0499992      -7.10239023E-09
   31.1100006      -7.93600385E-09
   31.1700001      -8.63856009E-09
   31.2299995      -9.21445853E-09
   31.2900009      -9.69706093E-09
   31.3500004      -1.01465796E-08
   31.4099998      -1.06384164E-08
   31.4699993      -1.12449605E-08
   31.5300007      -1.20166970E-08
   31.5900002      -1.29690907E-08
   31.6499996      -1.40796992E-08
   31.7099991      -1.52960613E-08
   31.7700005      -1.65509526E-08
   31.8299999      -1.77790422E-08
   31.8899994      -1.89290539E-08
   31.9500008      -1.99680112E-08
   32.0099983      -2.08777404E-08
   32.0699997      -2.16470379E-08
   32.1300011      -2.22643468E-08
   32.1899986      -2.27148291E-08
   32.2500000      -2.29831780E-08
   32.3100014      -2.30605064E-08
   32.3699989      -2.29515624E-08
   32.4300003      -2.26783943E-08
   32.4900017      -2.22782219E-08
   32.5499992      -2.17960601E-08
   32.6100006      -2.12749320E-08
   32.6699982      -2.07476596E-08
   32.7299995      -2.02333954E-08
   32.7900009      -1.97398276E-08
   32.8499985      -1.92694785E-08
   32.9099998      -1.88266043E-08
   32.9700012      -1.84211206E-08
   33.0299988      -1.80673432E-08
   33.0900002      -1.77779160E-08
   33.1500015      -1.75555925E-08
   33.2099991      -1.73868173E-08
   33.2700005      -1.72405308E-08
   33.3300018      -1.70736350E-08
   33.3899994      -1.68417937E-08
   33.4500008      -1.65119207E-08
   33.5099983      -1.60716649E-08
   33.5699997      -1.55321711E-08
   33.6300011      -1.49228860E-08
   33.6899986      -1.42804160E-08
   33.7500000      -1.36360674E-08
   33.8100014      -1.30076350E-08
   33.8699989      -1.23994388E-08
   33.9300003      -1.18112062E-08
   33.9900017      -1.12521876E-08
   34.0499992      -1.07539186E-08
   34.1100006      -1.03746505E-08
   34.1699982      -1.01913180E-08
   34.2299995      -1.02800684E-08
   34.2900009      -1.06917133E-08
   34.3499985      -1.14316014E-08
   34.4099998      -1.24526398E-08
   34.4700012      -1.36655016E-08
   34.5299988      -1.49631845E-08
   34.5900002      -1.62510378E-08
   34.6500015      -1.74707981E-08
   34.7099991      -1.86093772E-08
   34.7700005      -1.96894341E-08
   34.8300018      -2.07463611E-08
   34.8899994      -2.18019096E-08
   34.9500008      -2.28460255E-08
   35.0099983      -2.38346551E-08
   35.0699997      -2.47042689E-08
   35.1300011      -2.53965808E-08
   35.1899986      -2.58824748E-08
   35.2500000      -2.61746269E-08
   35.3100014      -2.63231712E-08
   35.3699989      -2.63961351E-08
   35.4300003      -2.64528399E-08
   35.4900017      -2.65215689E-08
   35.5499992      -2.65909872E-08
   35.6100006      -2.66190643E-08
   35.6699982      -2.65559770E-08
   35.7299995      -2.63715343E-08
   35.7900009      -2.60756927E-08
   35.8499985      -2.57233292E-08
   35.9099998      -2.54006789E-08
   35.9700012      -2.51981014E-08
   36.0299988      -2.51793839E-08
   36.0900002      -2.53592702E-08
   36.1500015      -2.56979753E-08
   36.2099991      -2.61150017E-08
   36.2700005      -2.65172879E-08
   36.3300018      -2.68313123E-08
   36.3899994      -2.70273244E-08
   36.4500008      -2.71268359E-08
   36.5099983      -2.71910121E-08
   36.5699997      -2.72947069E-08
   36.6300011      -2.74964247E-08
   36.6899986      -2.78157479E-08
   36.7500000      -2.82267116E-08
   36.8100014      -2.86691719E-08
   36.8699989      -2.90731723E-08
   36.9300003      -2.93863067E-08
   36.9900017      -2.95932647E-08
   37.0499992      -2.97202476E-08
   37.1100006      -2.98232834E-08
   37.1699982      -2.99659781E-08
   37.2299995      -3.01961229E-08
   37.2900009      -3.05305186E-08
   37.3499985      -3.09534300E-08
   37.4099998      -3.14283106E-08
   37.4700012      -3.19170965E-08
   37.5299988      -3.23988907E-08
   37.5900002      -3.28807594E-08
   37.6500015      -3.33969759E-08
   37.7099991      -3.39977397E-08
   37.7700005      -3.47321176E-08
   37.8300018      -3.56314551E-08
   37.8899994      -3.66987933E-08
   37.9500008      -3.79071530E-08
   38.0099983      -3.92066042E-08
   38.0699997      -4.05372589E-08
   38.1300011      -4.18439257E-08
   38.1899986      -4.30879759E-08
   38.2500000      -4.42529142E-08
   38.3100014      -4.53421620E-08
   38.3699989      -4.63699017E-08
   38.4300003      -4.73481272E-08
   38.4900017      -4.82744547E-08
   38.5499992      -4.91253722E-08
   38.6100006      -4.98578565E-08
   38.6699982      -5.04194091E-08
   38.7299995      -5.07633011E-08
   38.7900009      -5.08634592E-08
   38.8499985      -5.07231306E-08
   38.9099998      -5.03735293E-08
   38.9700012      -4.98624360E-08
   39.0299988      -4.92366645E-08
   39.0900002      -4.85250702E-08
   39.1500015      -4.77286299E-08
   39.2099991      -4.68216044E-08
   39.2700005      -4.57633895E-08
   39.3300018      -4.45163835E-08
   39.3899994      -4.30628262E-08
   39.4500008      -4.14140366E-08
   39.5099983      -3.96085866E-08
   39.5699997      -3.77004774E-08
   39.6300011      -3.57422287E-08
   39.6899986      -3.37697941E-08
   39.7500000      -3.17948583E-08
   39.8100014      -2.98068983E-08
   39.8699989      -2.77831749E-08
   39.9300003      -2.57017874E-08
   39.9900017      -2.35521771E-08
   40.0499992      -2.13392397E-08
   40.1100006      -1.90804403E-08
   40.1699982      -1.67985519E-08
   40.2299995      -1.45142218E-08
   40.2900009      -1.22420216E-08
   40.3499985      -9.99143790E-09
   40.4099998      -7.77147058E-09
   40.4700012      -5.59576296E-09
   40.5299988      -3.48514662E-09
   40.5900002      -1.46606127E-09
   40.6500015       4.34425690E-10
   40.7099991       2.19459184E-09
   40.7700005       3.80230780E-09
   40.8300018       5.25599875E-09
   40.8899994       6.56255894E-09
   40.9500008       7.73388731E-09
   41.0099983       8.78396733E-09
   41.0699997       9.72745973E-09
   41.1300011       1.05792859E-08
   41.1899986       1.13536887E-08
   41.2500000       1.20613945E-08
   41.3100014       1.27048922E-08
   41.3699989       1.32735778E-08
   41.4300003       1.37416043E-08
   41.4900017       1.40708369E-08
   41.5499992       1.42193395E-08
   41.6100006       1.41532075E-08
   41.6699982       1.38574769E-08
   41.7299995       1.33416345E-08
   41.7900009       1.26370701E-08
   41.8499985       1.17870087E-08
   41.9099998       1.08327143E-08
   41.9700012       9.80141390E-09
   42.0299988       8.70083916E-09
   42.0900002       7.52248841E-09
   42.1500015       6.25211571E-09
   42.2099991       4.88294161E-09
   42.2700005       3.42603967E-09
   42.3300018       1.91367944E-09
   42.3899994       3.94401539E-10
   42.4500008      -1.07800502E-09
   42.5099983      -2.45716514E-09
   42.5699997      -3.71365694E-09
   42.6300011      -4.83833640E-09
   42.6899986      -5.83913584E-09
   42.7500000      -6.73363898E-09
   42.8100014      -7.54104335E-09
   42.8699989      -8.27671354E-09
   42.9300003      -8.95070507E-09
   42.9900017      -9.56949098E-09
   43.0499992      -1.01386046E-08
   43.1100006      -1.06638431E-08
   43.1699982      -1.11498819E-08
   43.2299995      -1.15970442E-08
   43.2900009      -1.19982921E-08
   43.3499985      -1.23387185E-08
   43.4099998      -1.25985329E-08
   43.4700012      -1.27585267E-08
   43.5299988      -1.28053417E-08
   43.5900002      -1.27334507E-08
   43.6500015      -1.25420705E-08
   43.7099991      -1.22276882E-08
   43.7700005      -1.17752226E-08
   43.8300018      -1.11519505E-08
   43.8899994      -1.03074402E-08
   43.9500008      -9.18006560E-09
   44.0099983      -7.70758657E-09
   44.0699997      -5.83712900E-09
   44.1300011      -3.52975627E-09
   44.1899986      -7.56818219E-10
   44.2500000       2.51146970E-09
   44.3100014       6.32185815E-09
   44.3699989       1.07535225E-08
   44.4300003       1.59290341E-08
   44.4900017       2.20190319E-08
   44.5499992       2.92415248E-08
   44.6100006       3.78586833E-08
   44.6699982       4.81745985E-08
   44.7299995       6.05364647E-08
   44.7900009       7.53402247E-08
   44.8499985       9.30401285E-08
   44.9099998       1.14161082E-07
   44.9700012       1.39312959E-07
   45.0299988       1.69206629E-07
   45.0900002       2.04672247E-07
   45.1500015       2.46680315E-07
   45.2099991       2.96365613E-07
   45.2700005       3.55053402E-07
   45.3300018       4.24286867E-07
   45.3899994       5.05854871E-07
   45.4500008       6.01820318E-07
   45.5099983       7.14550708E-07
   45.5699997       8.46752584E-07
   45.6300011       1.00151306E-06
   45.6899986       1.18234868E-06
   45.7500000       1.39326323E-06
   45.8100014       1.63880975E-06
   45.8699989       1.92415746E-06
   45.9300003       2.25515760E-06
   45.9900017       2.63840980E-06
   46.0499992       3.08133167E-06
   46.1100006       3.59222963E-06
   46.1699982       4.18038144E-06
   46.2299995       4.85612554E-06
   46.2900009       5.63096182E-06
   46.3499985       6.51765822E-06
   46.4099998       7.53035920E-06
   46.4700012       8.68469397E-06
   46.5299988       9.99787699E-06
   46.5900002       1.14888126E-05
   46.6500015       1.31781944E-05
   46.7099991       1.50886017E-05
   46.7700005       1.72446162E-05
   46.8300018       1.96729270E-05
   46.8899994       2.24024370E-05
   46.9500008       2.54643619E-05
   47.0099983       2.88923093E-05
   47.0699997       3.27223424E-05
   47.1300011       3.69930203E-05
   47.1899986       4.17453957E-05
   47.2500000       4.70230407E-05
   47.3100014       5.28720229E-05
   47.3699989       5.93408477E-05
   47.4300003       6.64804538E-05
   47.4900017       7.43440833E-05
   47.5499992       8.29872006E-05
   47.6100006       9.24673441E-05
   47.6699982       1.02843893E-04
   47.7299995       1.14177856E-04
   47.7900009       1.26531551E-04
   47.8499985       1.39968353E-04
   47.9099998       1.54552210E-04
   47.9700012       1.70347339E-04
   48.0299988       1.87417725E-04
   48.0900002       2.05826698E-04
   48.1500015       2.25636439E-04
   48.2099991       2.46907322E-04
   48.2700005       2.69697426E-04
   48.3300018       2.94061756E-04
   48.3899994       3.20051709E-04
   48.4500008       3.47714289E-04
   48.5099983       3.77091463E-04
   48.5699997       4.08219552E-04
   48.6300011       4.41128359E-04
   48.6899986       4.75840672E-04
   48.7500000       5.12371422E-04
   48.8100014       5.50727127E-04
   48.8699989       5.90905081E-04
   48.9300003       6.32893352E-04
   48.9900017       6.76669704E-04
   49.0499992       7.22201134E-04
   49.1100006       7.69443926E-04
   49.1699982       8.18342902E-04
   49.2299995       8.68831645E-04
   49.2900009       9.20832041E-04
   49.3499985       9.74254799E-04
   49.4099998       1.02899899E-03
   49.4700012       1.08495308E-03
   49.5299988       1.14199449E-03
   49.5900002       1.19999109E-03
   49.6500015       1.25880085E-03
   49.7099991       1.31827348E-03
   49.7700005       1.37825042E-03
   49.8300018       1.43856683E-03
   49.8899994       1.49905239E-03
   49.9500008       1.55953271E-03
   50.0099983       1.61983015E-03
   50.0699997       1.67976611E-03
   50.1300011       1.73916167E-03
   50.1899986       1.79784012E-03
   50.2500000       1.85562752E-03
   50.3100014       1.91235484E-03
   50.3699989       1.96785969E-03
   50.4300003       2.02198769E-03
   50.4900017       2.07459414E-03
   50.5499992       2.12554587E-03
   50.6100006       2.17472157E-03