  -2.400000      0.0000000E+00
  -2.340000      0.0000000E+00
  -2.280000      0.0000000E+00
  -2.220000      0.0000000E+00
  -2.160000      0.0000000E+00
  -2.100000      3.2040389E-21
  -2.040000      7.9488147E-21
  -1.980000     -6.6488855E-20
  -1.920000     -5.5148235E-19
  -1.860000     -2.1342912E-18
  -1.800000     -5.4440152E-18
  -1.740000     -9.6624704E-18
  -1.680000     -1.0435619E-17
  -1.620000      1.2236361E-18
  -1.560000      3.6236066E-17
  -1.500000      9.8945068E-17
  -1.440000      1.7445166E-16
  -1.380000      2.1888481E-16
  -1.320000      1.6329469E-16
  -1.260000     -6.0712423E-17
  -1.200000     -4.7594262E-16
  -1.140000     -1.0122484E-15
  -1.080000     -1.4842954E-15
  -1.020000     -1.6191645E-15
 -0.9600000     -1.1399357E-15
 -0.9000000      1.1556224E-16
 -0.8400000      2.0825343E-15
 -0.7800000      4.4075491E-15
 -0.7200000      6.4641645E-15
 -0.6600000      7.4481691E-15
 -0.6000000      6.5399384E-15
 -0.5400000      3.1222261E-15
 -0.4800000     -2.9554074E-15
 -0.4200000     -1.1094451E-14
 -0.3600000     -1.9732408E-14
 -0.3000000     -2.6347915E-14
 -0.2400000     -2.7858805E-14
 -0.1800000     -2.1493022E-14
 -0.1200000     -5.9935772E-15
 -5.9999999E-02  1.7247500E-14
  0.0000000E+00  4.3690993E-14
  5.9999999E-02  6.6255574E-14
  0.1200000      7.7100178E-14
  0.1800000      7.0107785E-14
  0.2400000      4.3167465E-14
  0.3000000     -6.7852982E-16
  0.3600000     -5.3703102E-14
  0.4200000     -1.0532220E-13
  0.4800000     -1.4442066E-13
  0.5400000     -1.6123032E-13
  0.6000000     -1.4835043E-13
  0.6600000     -1.0133265E-13
  0.7200000     -1.9780532E-14
  0.7800000      9.0380387E-14
  0.8400000      2.1395743E-13
  0.9000000      3.2478070E-13
  0.9600000      3.8783373E-13
   1.020000      3.6699883E-13
   1.080000      2.3777697E-13
   1.140000      1.2721147E-15
   1.200000     -3.0642513E-13
   1.260000     -6.1512872E-13
   1.320000     -8.3439863E-13
   1.380000     -8.7812418E-13
   1.440000     -6.9284964E-13
   1.500000     -2.8030898E-13
   1.560000      2.9436444E-13
   1.620000      9.1297857E-13
   1.680000      1.4313824E-12
   1.740000      1.7160576E-12
   1.800000      1.6798640E-12
   1.860000      1.3067247E-12
   1.920000      6.5802393E-13
   1.980000     -1.4182272E-13
   2.040000     -9.3797604E-13
   2.100000     -1.5886654E-12
   2.160000     -2.0088419E-12
   2.220000     -2.2016666E-12
   2.280000     -2.2663705E-12
   2.340000     -2.3748555E-12
   2.400000     -2.7162942E-12
   2.460000     -3.4180276E-12
   2.520000     -4.4604064E-12
   2.580000     -5.6101976E-12
   2.640000     -6.3990731E-12
   2.700000     -6.1685392E-12
   2.760000     -4.1901014E-12
   2.820000      1.4885250E-13
   2.880000      7.1231831E-12
   2.940000      1.6458432E-11
   3.000000      2.7183302E-11
   3.060000      3.7593959E-11
   3.120000      4.5357520E-11
   3.180000      4.7751848E-11
   3.240000      4.2005545E-11
   3.300000      2.5676492E-11
   3.360000     -3.0031973E-12
   3.420000     -4.4878219E-11
   3.480000     -9.9754247E-11
   3.540000     -1.6641820E-10
   3.600000     -2.4276567E-10
   3.660000     -3.2598818E-10
   3.720000     -4.1277076E-10
   3.780000     -4.9946530E-10
   3.840000     -5.8223015E-10
   3.900000     -6.5715061E-10
   3.960000     -7.2037531E-10
   4.020000     -7.6830281E-10
   4.080000     -7.9784312E-10
   4.140000     -8.0675322E-10
   4.200000     -7.9401097E-10
   4.260000     -7.6016371E-10
   4.320000     -7.0756490E-10
   4.380000     -6.4041211E-10
   4.440000     -5.6452115E-10
   4.500000     -4.8681953E-10
   4.560000     -4.1460679E-10
   4.620000     -3.5469341E-10
   4.680000     -3.1257702E-10
   4.740000     -2.9181746E-10
   4.800000     -2.9372738E-10
   4.860000     -3.1740935E-10
   4.920000     -3.6007414E-10
   4.980000     -4.1750353E-10
   5.040000     -4.8451299E-10
   5.100000     -5.5532251E-10
   5.160000     -6.2384314E-10
   5.220000     -6.8397443E-10
   5.280000     -7.3003903E-10
   5.340000     -7.5742662E-10
   5.400000     -7.6339624E-10
   5.460000     -7.4784995E-10
   5.520000     -7.1380468E-10
   5.580000     -6.6731248E-10
   5.640000     -6.1670630E-10
   5.700000     -5.7124716E-10
   5.760000     -5.3943677E-10
   5.820000     -5.2737076E-10
   5.880000     -5.3750554E-10
   5.940000     -5.6809651E-10
   6.000000     -6.1339211E-10
   6.060000     -6.6448852E-10
   6.120000     -7.1062345E-10
   6.180000     -7.4063866E-10
   6.240000     -7.4436635E-10
   6.300000     -7.1377687E-10
   6.360000     -6.4382755E-10
   6.420000     -5.3304106E-10
   6.480000     -3.8389514E-10
   6.540000     -2.0310315E-10
   6.600000     -1.8130188E-12
   6.660000      2.0433302E-10
   6.720000      3.9541878E-10
   6.780000      5.4793958E-10
   6.840000      6.3610889E-10
   6.900000      6.3384015E-10
   6.960000      5.1730026E-10
   7.020000      2.6777208E-10
   7.080000     -1.2554652E-10
   7.140000     -6.6320183E-10
   7.200000     -1.3339286E-09
   7.260000     -2.1140711E-09
   7.320000     -2.9680394E-09
   7.380000     -3.8497414E-09
   7.440000     -4.7048916E-09
   7.500000     -5.4740510E-09
   7.560000     -6.0962613E-09
   7.620000     -6.5130696E-09
   7.680000     -6.6726700E-09
   7.740000     -6.5338068E-09
   7.800000     -6.0690133E-09
   7.860000     -5.2667790E-09
   7.920000     -4.1322896E-09
   7.980000     -2.6865448E-09
   8.040000     -9.6383657E-10
   8.100000      9.9218889E-10
   8.160000      3.1334078E-09
   8.220000      5.4123297E-09
   8.280000      7.7865803E-09
   8.340000      1.0221928E-08
   8.400000      1.2693281E-08
   8.460000      1.5183549E-08
   8.520000      1.7680847E-08
   8.580000      2.0174891E-08
   8.640000      2.2653676E-08
   8.700000      2.5101231E-08
   8.760000      2.7496739E-08
   8.820000      2.9814796E-08
   8.880000      3.2026090E-08
   8.940000      3.4097930E-08
   9.000000      3.5994187E-08
   9.060000      3.7674948E-08
   9.120000      3.9096452E-08
   9.180000      4.0212111E-08
   9.240000      4.0975202E-08
   9.300000      4.1343245E-08
   9.360000      4.1283691E-08
   9.420000      4.0779828E-08
   9.480000      3.9835754E-08
   9.540000      3.8479190E-08
   9.600000      3.6761168E-08
   9.660000      3.4752201E-08
   9.720000      3.2535169E-08
   9.780000      3.0195917E-08
   9.840000      2.7813197E-08
   9.900000      2.5449987E-08
   9.960000      2.3147901E-08
   10.02000      2.0925963E-08
   10.08000      1.8783743E-08
   10.14000      1.6707878E-08
   10.20000      1.4680079E-08
   10.26000      1.2684477E-08
   10.32000      1.0712599E-08
   10.38000      8.7650873E-09
   10.44000      6.8503647E-09
   10.50000      4.9813029E-09
   10.56000      3.1713729E-09
   10.62000      1.4316355E-09
   10.68000     -2.3055235E-10
   10.74000     -1.8109689E-09
   10.80000     -3.3066128E-09
   10.86000     -4.7134088E-09
   10.92000     -6.0246315E-09
   10.98000     -7.2309159E-09
   11.04000     -8.3221847E-09
   11.10000     -9.2911234E-09
   11.16000     -1.0137118E-08
   11.22000     -1.0869183E-08
   11.28000     -1.1506431E-08
   11.34000     -1.2075310E-08
   11.40000     -1.2603865E-08
   11.46000     -1.3114471E-08
   11.52000     -1.3617251E-08
   11.58000     -1.4106477E-08
   11.64000     -1.4561509E-08
   11.70000     -1.4952425E-08
   11.76000     -1.5248981E-08
   11.82000     -1.5430434E-08
   11.88000     -1.5493393E-08
   11.94000     -1.5455397E-08
   12.00000     -1.5353079E-08
   12.06000     -1.5235377E-08
   12.12000     -1.5153439E-08
   12.18000     -1.5149853E-08
   12.24000     -1.5249968E-08
   12.30000     -1.5457564E-08
   12.36000     -1.5755875E-08
   12.42000     -1.6113608E-08
   12.48000     -1.6493964E-08
   12.54000     -1.6863750E-08
   12.60000     -1.7199659E-08
   12.66000     -1.7489599E-08
   12.72000     -1.7728816E-08
   12.78000     -1.7912443E-08
   12.84000     -1.8027583E-08
   12.90000     -1.8048350E-08
   12.96000     -1.7936415E-08
   13.02000     -1.7647601E-08
   13.08000     -1.7142998E-08
   13.14000     -1.6401158E-08
   13.20000     -1.5427400E-08
   13.26000     -1.4256822E-08
   13.32000     -1.2949352E-08
   13.38000     -1.1577456E-08
   13.44000     -1.0209397E-08
   13.50000     -8.8924104E-09
   13.56000     -7.6405930E-09
   13.62000     -6.4312871E-09
   13.68000     -5.2116440E-09
   13.74000     -3.9142094E-09
   13.80000     -2.4776639E-09
   13.86000     -8.6707702E-10
   13.92000      9.1219604E-10
   13.98000      2.8112948E-09
   14.04000      4.7466959E-09
   14.10000      6.6190364E-09
   14.16000      8.3368992E-09
   14.22000      9.8390398E-09
   14.28000      1.1108962E-08
   14.34000      1.2177886E-08
   14.40000      1.3115460E-08
   14.46000      1.4010893E-08
   14.52000      1.4949778E-08
   14.58000      1.5992866E-08
   14.64000      1.7162328E-08
   14.70000      1.8438872E-08
   14.76000      1.9769891E-08
   14.82000      2.1085805E-08
   14.88000      2.2319460E-08
   14.94000      2.3422629E-08
   15.00000      2.4374739E-08
   15.06000      2.5181302E-08
   15.12000      2.5862859E-08
   15.18000      2.6438311E-08
   15.24000      2.6908491E-08
   15.30000      2.7245996E-08
   15.36000      2.7395565E-08
   15.42000      2.7286006E-08
   15.48000      2.6850994E-08
   15.54000      2.6052870E-08
   15.60000      2.4902207E-08
   15.66000      2.3466631E-08
   15.72000      2.1865272E-08
   15.78000      2.0249402E-08
   15.84000      1.8773894E-08
   15.90000      1.7567130E-08
   15.96000      1.6707482E-08
   16.02000      1.6212683E-08
   16.08000      1.6044565E-08
   16.14000      1.6127027E-08
   16.20000      1.6371265E-08
   16.26000      1.6700314E-08
   16.32000      1.7065480E-08
   16.38000      1.7450088E-08
   16.44000      1.7860224E-08
   16.50000      1.8306375E-08
   16.56000      1.8782986E-08
   16.62000      1.9253660E-08
   16.68000      1.9648091E-08
   16.74000      1.9873145E-08
   16.80000      1.9835813E-08
   16.86000      1.9471601E-08
   16.92000      1.8769629E-08
   16.98000      1.7785982E-08
   17.04000      1.6639900E-08
   17.10000      1.5492377E-08
   17.16000      1.4512080E-08
   17.22000      1.3837486E-08
   17.28000      1.3545645E-08
   17.34000      1.3636170E-08
   17.40000      1.4034742E-08
   17.46000      1.4614840E-08
   17.52000      1.5231279E-08
   17.58000      1.5756084E-08
   17.64000      1.6106977E-08
   17.70000      1.6261337E-08
   17.76000      1.6252889E-08
   17.82000      1.6153349E-08
   17.88000      1.6045325E-08
   17.94000      1.5994786E-08
   18.00000      1.6031048E-08
   18.06000      1.6139515E-08
   18.12000      1.6268356E-08
   18.18000      1.6346064E-08
   18.24000      1.6303687E-08
   18.30000      1.6094395E-08
   18.36000      1.5704344E-08
   18.42000      1.5151933E-08
   18.48000      1.4476480E-08
   18.54000      1.3720868E-08
   18.60000      1.2914447E-08
   18.66000      1.2062073E-08
   18.72000      1.1142832E-08
   18.78000      1.0118494E-08
   18.84000      8.9485326E-09
   18.90000      7.6064124E-09
   18.96000      6.0917151E-09
   19.02000      4.4341149E-09
   19.08000      2.6879825E-09
   19.14000      9.1925900E-10
   19.20000     -8.1150353E-10
   19.26000     -2.4650839E-09
   19.32000     -4.0341632E-09
   19.38000     -5.5458567E-09
   19.44000     -7.0558297E-09
   19.50000     -8.6358467E-09
   19.56000     -1.0358134E-08
   19.62000     -1.2280424E-08
   19.68000     -1.4434978E-08
   19.74000     -1.6823536E-08
   19.80000     -1.9418493E-08
   19.86000     -2.2169166E-08
   19.92000     -2.5011142E-08
   19.98000     -2.7876476E-08
   20.04000     -3.0702836E-08
   20.10000     -3.3440294E-08
   20.16000     -3.6055141E-08
   20.22000     -3.8530569E-08
   20.28000     -4.0864581E-08
   20.34000     -4.3065789E-08
   20.40000     -4.5148170E-08
   20.46000     -4.7125990E-08
   20.52000     -4.9010250E-08
   20.58000     -5.0807515E-08
   20.64000     -5.2521393E-08
   20.70000     -5.4155890E-08
   20.76000     -5.5719280E-08
   20.82000     -5.7226636E-08
   20.88000     -5.8699658E-08
   20.94000     -6.0163245E-08
   21.00000     -6.1639511E-08
   21.06000     -6.3140860E-08
   21.12000     -6.4664540E-08
   21.18000     -6.6190410E-08
   21.24000     -6.7683253E-08
   21.30000     -6.9099151E-08
   21.36000     -7.0394542E-08
   21.42000     -7.1535290E-08
   21.48000     -7.2503234E-08
   21.54000     -7.3298082E-08
   21.60000     -7.3934054E-08
   21.66000     -7.4431853E-08
   21.72000     -7.4808561E-08
   21.78000     -7.5068137E-08
   21.84000     -7.5195686E-08
   21.90000     -7.5157388E-08
   21.96000     -7.4906289E-08
   22.02000     -7.4392688E-08
   22.08000     -7.3576210E-08
   22.14000     -7.2436301E-08
   22.20000     -7.0978459E-08
   22.26000     -6.9234609E-08
   22.32000     -6.7258220E-08
   22.38000     -6.5115906E-08
   22.44000     -6.2878442E-08
   22.50000     -6.0613694E-08
   22.56000     -5.8382987E-08
   22.62000     -5.6240786E-08
   22.68000     -5.4236072E-08
   22.74000     -5.2413274E-08
   22.80000     -5.0810801E-08
   22.86000     -4.9456638E-08
   22.92000     -4.8362025E-08
   22.98000     -4.7515748E-08
   23.04000     -4.6881802E-08
   23.10000     -4.6402686E-08
   23.16000     -4.6008854E-08
   23.22000     -4.5632778E-08
   23.28000     -4.5224471E-08
   23.34000     -4.4764455E-08
   23.40000     -4.4270472E-08
   23.46000     -4.3795737E-08
   23.52000     -4.3418684E-08
   23.58000     -4.3226290E-08
   23.64000     -4.3294914E-08
   23.70000     -4.3673303E-08
   23.76000     -4.4372001E-08
   23.82000     -4.5361755E-08
   23.88000     -4.6581199E-08
   23.94000     -4.7951531E-08
   24.00000     -4.9394149E-08
   24.06000     -5.0846481E-08
   24.12000     -5.2272139E-08
   24.18000     -5.3663349E-08
   24.24000     -5.5036104E-08
   24.30000     -5.6420546E-08
   24.36000     -5.7850031E-08
   24.42000     -5.9352185E-08
   24.48000     -6.0943776E-08
   24.54000     -6.2629653E-08
   24.60000     -6.4404283E-08
   24.66000     -6.6253939E-08
   24.72000     -6.8157874E-08
   24.78000     -7.0087609E-08
   24.84000     -7.2005122E-08
   24.90000     -7.3861408E-08
   24.96000     -7.5597328E-08
   25.02000     -7.7148087E-08
   25.08000     -7.8451286E-08
   25.14000     -7.9457386E-08
   25.20000     -8.0139706E-08
   25.26000     -8.0500882E-08
   25.32000     -8.0573137E-08
   25.38000     -8.0411070E-08
   25.44000     -8.0077953E-08
   25.50000     -7.9628563E-08
   25.56000     -7.9093006E-08
   25.62000     -7.8466194E-08
   25.68000     -7.7706268E-08
   25.74000     -7.6743184E-08
   25.80000     -7.5495620E-08
   25.86000     -7.3891904E-08
   25.92000     -7.1889581E-08
   25.98000     -6.9488138E-08
   26.04000     -6.6731346E-08
   26.10000     -6.3698423E-08
   26.16000     -6.0486244E-08
   26.22000     -5.7187680E-08
   26.28000     -5.3871837E-08
   26.34000     -5.0571945E-08
   26.40000     -4.7283873E-08
   26.46000     -4.3975326E-08
   26.52000     -4.0602323E-08
   26.58000     -3.7127503E-08
   26.64000     -3.3534469E-08
   26.70000     -2.9834016E-08
   26.76000     -2.6061176E-08
   26.82000     -2.2265137E-08
   26.88000     -1.8496413E-08
   26.94000     -1.4796119E-08
   27.00000     -1.1190887E-08
   27.06000     -7.6944575E-09
   27.12000     -4.3142543E-09
   27.18000     -1.0595218E-09
   27.24000      2.0528095E-09
   27.30000      4.9971605E-09
   27.36000      7.7438314E-09
   27.42000      1.0267398E-08
   27.48000      1.2555845E-08
   27.54000      1.4616919E-08
   27.60000      1.6479008E-08
   27.66000      1.8185650E-08
   27.72000      1.9784817E-08
   27.78000      2.1315923E-08
   27.84000      2.2798430E-08
   27.90000      2.4225658E-08
   27.96000      2.5566004E-08
   28.02000      2.6771612E-08
   28.08000      2.7792206E-08
   28.14000      2.8589993E-08
   28.20000      2.9151073E-08
   28.26000      2.9489545E-08
   28.32000      2.9642790E-08
   28.38000      2.9659020E-08
   28.44000      2.9580995E-08
   28.50000      2.9431089E-08
   28.56000      2.9202868E-08
   28.62000      2.8862424E-08
   28.68000      2.8359624E-08
   28.74000      2.7646225E-08
   28.80000      2.6695314E-08
   28.86000      2.5515833E-08
   28.92000      2.4157252E-08
   28.98000      2.2702329E-08
   29.04000      2.1249509E-08
   29.10000      1.9889695E-08
   29.16000      1.8683782E-08
   29.22000      1.7647130E-08
   29.28000      1.6745187E-08
   29.34000      1.5901231E-08
   29.40000      1.5014077E-08
   29.46000      1.3981020E-08
   29.52000      1.2720180E-08
   29.58000      1.1186849E-08
   29.64000      9.3801349E-09
   29.70000      7.3388029E-09
   29.76000      5.1279523E-09
   29.82000      2.8204883E-09
   29.88000      4.7864485E-10
   29.94000     -1.8592964E-09
   30.00000     -4.1835038E-09
   30.06000     -6.5073831E-09
   30.12000     -8.8547951E-09
   30.18000     -1.1244330E-08
   30.24000     -1.3676373E-08
   30.30000     -1.6127794E-08
   30.36000     -1.8556541E-08
   30.42000     -2.0914841E-08
   30.48000     -2.3166404E-08
   30.54000     -2.5301333E-08
   30.60000     -2.7342768E-08
   30.66000     -2.9342042E-08
   30.72000     -3.1363022E-08
   30.78000     -3.3460285E-08
   30.84000     -3.5658143E-08
   30.90000     -3.7937774E-08
   30.96000     -4.0237136E-08
   31.02000     -4.2464315E-08
   31.08000     -4.4520473E-08
   31.14000     -4.6325383E-08
   31.20000     -4.7837446E-08
   31.26000     -4.9061921E-08
   31.32000     -5.0044743E-08
   31.38000     -5.0854048E-08
   31.44000     -5.1555311E-08
   31.50000     -5.2188003E-08
   31.56000     -5.2751176E-08
   31.62000     -5.3202303E-08
   31.68000     -5.3469474E-08
   31.74000     -5.3472796E-08
   31.80000     -5.3148000E-08
   31.86000     -5.2464742E-08
   31.92000     -5.1434014E-08
   31.98000     -5.0102816E-08
   32.04000     -4.8538716E-08
   32.10000     -4.6810118E-08
   32.16000     -4.4969429E-08
   32.22000     -4.3044974E-08
   32.28000     -4.1043929E-08
   32.34000     -3.8964291E-08
   32.40000     -3.6810235E-08
   32.46000     -3.4603971E-08
   32.52000     -3.2388595E-08
   32.58000     -3.0220132E-08
   32.64000     -2.8151659E-08
   32.70000     -2.6215810E-08
   32.76000     -2.4413104E-08
   32.82000     -2.2711571E-08
   32.88000     -2.1058831E-08
   32.94000     -1.9402925E-08
   33.00000     -1.7714566E-08
   33.06000     -1.6002556E-08
   33.12000     -1.4316498E-08
   33.18000     -1.2735319E-08
   33.24000     -1.1345314E-08
   33.30000     -1.0215186E-08
   33.36000     -9.3765777E-09
   33.42000     -8.8166594E-09
   33.48000     -8.4851077E-09
   33.54000     -8.3129166E-09
   33.60000     -8.2365643E-09
   33.66000     -8.2194713E-09
   33.72000     -8.2638012E-09
   33.78000     -8.4089375E-09
   33.84000     -8.7173415E-09
   33.90000     -9.2524353E-09
   33.96000     -1.0055558E-08
   34.02000     -1.1129284E-08
   34.08000     -1.2432404E-08
   34.14000     -1.3888368E-08
   34.20000     -1.5404941E-08
   34.26000     -1.6899415E-08
   34.32000     -1.8321822E-08
   34.38000     -1.9669010E-08
   34.44000     -2.0984924E-08
   34.50000     -2.2346534E-08
   34.56000     -2.3839254E-08
   34.62000     -2.5529156E-08
   34.68000     -2.7440439E-08
   34.74000     -2.9545237E-08
   34.80000     -3.1768959E-08
   34.86000     -3.4009464E-08
   34.92000     -3.6163911E-08
   34.98000     -3.8154756E-08
   35.04000     -3.9946748E-08
   35.10000     -4.1550134E-08
   35.16000     -4.3009891E-08
   35.22000     -4.4385619E-08
   35.28000     -4.5729525E-08
   35.34000     -4.7070181E-08
   35.40000     -4.8407212E-08
   35.46000     -4.9717777E-08
   35.52000     -5.0971419E-08
   35.58000     -5.2146838E-08
   35.64000     -5.3243880E-08
   35.70000     -5.4285923E-08
   35.76000     -5.5311766E-08
   35.82000     -5.6360037E-08
   35.88000     -5.7452120E-08
   35.94000     -5.8580042E-08
   36.00000     -5.9704163E-08
   36.06000     -6.0762034E-08
   36.12000     -6.1685810E-08
   36.18000     -6.2422750E-08
   36.24000     -6.2951898E-08
   36.30000     -6.3291601E-08
   36.36000     -6.3495051E-08
   36.42000     -6.3635326E-08
   36.48000     -6.3784391E-08
   36.54000     -6.3992736E-08
   36.60000     -6.4275852E-08
   36.66000     -6.4611442E-08
   36.72000     -6.4947905E-08
   36.78000     -6.5220718E-08
   36.84000     -6.5371232E-08
   36.90000     -6.5361583E-08
   36.96000     -6.5181467E-08
   37.02000     -6.4845047E-08
   37.08000     -6.4380366E-08
   37.14000     -6.3815754E-08
   37.20000     -6.3168784E-08
   37.26000     -6.2441899E-08
   37.32000     -6.1626160E-08
   37.38000     -6.0711031E-08
   37.44000     -5.9695800E-08
   37.50000     -5.8597323E-08
   37.56000     -5.7450286E-08
   37.62000     -5.6299051E-08
   37.68000     -5.5183673E-08
   37.74000     -5.4125241E-08
   37.80000     -5.3116207E-08
   37.86000     -5.2119876E-08
   37.92000     -5.1079887E-08
   37.98000     -4.9936784E-08
   38.04000     -4.8646086E-08
   38.10000     -4.7191556E-08
   38.16000     -4.5588958E-08
   38.22000     -4.3879073E-08
   38.28000     -4.2112287E-08
   38.34000     -4.0330242E-08
   38.40000     -3.8550759E-08
   38.46000     -3.6761200E-08
   38.52000     -3.4922500E-08
   38.58000     -3.2982417E-08
   38.64000     -3.0893762E-08
   38.70000     -2.8631666E-08
   38.76000     -2.6204283E-08
   38.82000     -2.3653568E-08
   38.88000     -2.1045677E-08
   38.94000     -1.8453827E-08
   39.00000     -1.5938811E-08
   39.06000     -1.3533110E-08
   39.12000     -1.1233558E-08
   39.18000     -9.0049568E-09
   39.24000     -6.7936039E-09
   39.30000     -4.5465622E-09
   39.36000     -2.2305564E-09
   39.42000      1.5559665E-10
   39.48000      2.5791043E-09
   39.54000      4.9825344E-09
   39.60000      7.3013182E-09
   39.66000      9.4836112E-09
   39.72000      1.1505841E-08
   39.78000      1.3378622E-08
   39.84000      1.5140891E-08
   39.90000      1.6844050E-08
   39.96000      1.8531257E-08
   40.02000      2.0218865E-08
   40.08000      2.1886420E-08
   40.14000      2.3478966E-08
   40.20000      2.4921546E-08
   40.26000      2.6141519E-08
   40.32000      2.7091707E-08
   40.38000      2.7766616E-08
   40.44000      2.8206021E-08
   40.50000      2.8484052E-08
   40.56000      2.8686587E-08
   40.62000      2.8883644E-08
   40.68000      2.9105326E-08
   40.74000      2.9328957E-08
   40.80000      2.9481756E-08
   40.86000      2.9458679E-08
   40.92000      2.9150483E-08
   40.98000      2.8473959E-08
   41.04000      2.7395625E-08
   41.10000      2.5942098E-08
   41.16000      2.4194129E-08
   41.22000      2.2266036E-08
   41.28000      2.0276259E-08
   41.34000      1.8317353E-08
   41.40000      1.6433781E-08
   41.46000      1.4613667E-08
   41.52000      1.2796636E-08
   41.58000      1.0895227E-08
   41.64000      8.8235081E-09
   41.70000      6.5244712E-09
   41.76000      3.9883088E-09
   41.82000      1.2565140E-09
   41.88000     -1.5890065E-09
   41.94000     -4.4482324E-09
   42.00000     -7.2300241E-09
   42.06000     -9.8760298E-09
   42.12000     -1.2374938E-08
   42.18000     -1.4763470E-08
   42.24000     -1.7114340E-08
   42.30000     -1.9514964E-08
   42.36000     -2.2043178E-08
   42.42000     -2.4746889E-08
   42.48000     -2.7633583E-08
   42.54000     -3.0672727E-08
   42.60000     -3.3810601E-08
   42.66000     -3.6993246E-08
   42.72000     -4.0190749E-08
   42.78000     -4.3415255E-08
   42.84000     -4.6727049E-08
   42.90000     -5.0226554E-08
   42.96000     -5.4035016E-08
   43.02000     -5.8270487E-08
   43.08000     -6.3027827E-08
   43.14000     -6.8370298E-08
   43.20000     -7.4336903E-08
   43.26000     -8.0964213E-08
   43.32000     -8.8316710E-08
   43.38000     -9.6516764E-08
   43.44000     -1.0576532E-07
   43.50000     -1.1634752E-07
   43.56000     -1.2862218E-07
   43.62000     -1.4299964E-07
   43.68000     -1.5991635E-07
   43.74000     -1.7981606E-07
   43.80000     -2.0314560E-07
   43.86000     -2.3036974E-07
   43.92000     -2.6200325E-07
   43.98000     -2.9865427E-07
   44.04000     -3.4106839E-07
   44.10000     -3.9016456E-07
   44.16000     -4.4705530E-07
   44.22000     -5.1304932E-07
   44.28000     -5.8964042E-07
   44.34000     -6.7849066E-07
   44.40000     -7.8141773E-07
   44.46000     -9.0039521E-07
   44.52000     -1.0375711E-06
   44.58000     -1.1953044E-06
   44.64000     -1.3762137E-06
   44.70000     -1.5832322E-06
   44.76000     -1.8196575E-06
   44.82000     -2.0891912E-06
   44.88000     -2.3959619E-06
   44.94000     -2.7445371E-06
   45.00000     -3.1399231E-06
   45.06000     -3.5875662E-06
   45.12000     -4.0933601E-06
   45.18000     -4.6636646E-06
   45.24000     -5.3053418E-06
   45.30000     -6.0257944E-06
   45.36000     -6.8330155E-06
   45.42000     -7.7356262E-06
   45.48000     -8.7428962E-06
   45.54000     -9.8647506E-06
   45.60000     -1.1111762E-05
   45.66000     -1.2495120E-05
   45.72000     -1.4026613E-05
   45.78000     -1.5718597E-05
   45.84000     -1.7583989E-05
   45.90000     -1.9636258E-05
   45.96000     -2.1889418E-05
   46.02000     -2.4358018E-05
   46.08000     -2.7057113E-05
   46.14000     -3.0002211E-05
   46.20000     -3.3209191E-05
   46.26000     -3.6694211E-05
   46.32000     -4.0473573E-05
   46.38000     -4.4563600E-05
   46.44000     -4.8980510E-05
   46.50000     -5.3740288E-05
   46.56000     -5.8858590E-05
   46.62000     -6.4350614E-05
   46.68000     -7.0231043E-05
   46.74000     -7.6513876E-05
   46.80000     -8.3212326E-05
   46.86000     -9.0338639E-05
   46.92000     -9.7903889E-05
   46.98000     -1.0591782E-04
   47.04000     -1.1438863E-04
   47.10000     -1.2332278E-04
   47.16000     -1.3272483E-04
   47.22000     -1.4259730E-04
   47.28000     -1.5294057E-04
   47.34000     -1.6375279E-04
   47.40000     -1.7502968E-04
   47.46000     -1.8676461E-04
   47.52000     -1.9894839E-04
   47.58000     -2.1156925E-04
   47.64000     -2.2461281E-04
   47.70000     -2.3806203E-04
   47.76000     -2.5189712E-04
   47.82000     -2.6609574E-04
   47.88000     -2.8063293E-04
   47.94000     -2.9548124E-04
   48.00000     -3.1061092E-04
   48.06000     -3.2599008E-04
   48.12000     -3.4158485E-04
   48.18000     -3.5735962E-04
   48.24000     -3.7327732E-04
   48.30000     -3.8929962E-04
   48.36000     -4.0538725E-04
   48.42000     -4.2150036E-04
   48.48000     -4.3759870E-04
   48.54000     -4.5364210E-04
   48.60000     -4.6959074E-04
   48.66000     -4.8540559E-04
   48.72000     -5.0104869E-04
   48.78000     -5.1648362E-04
   48.84000     -5.3167559E-04
   48.90000     -5.4659229E-04
   48.96000     -5.6120369E-04
   49.02000     -5.7548255E-04
   49.08000     -5.8940472E-04
   49.14000     -6.0294947E-04
   49.20000     -6.1609939E-04
   49.26000     -6.2884093E-04
   49.32000     -6.4116443E-04
   49.38000     -6.5306399E-04
   49.44000     -6.6453795E-04
   49.50000     -6.7558815E-04
   49.56000     -6.8622065E-04
   49.62000     -6.9644517E-04
   49.68000     -7.0627499E-04
   49.74000     -7.1572687E-04
   49.80000     -7.2482083E-04
   49.86000     -7.3357951E-04
   49.92000     -7.4202818E-04
   49.98000     -7.5019407E-04
   50.04000     -7.5810647E-04
   50.10000     -7.6579570E-04
   50.16000     -7.7329314E-04
   50.22000     -7.8063062E-04
   50.28000     -7.8783988E-04
   50.34000     -7.9495198E-04
   50.40000     -8.0199708E-04
   50.46000     -8.0900348E-04
   50.52000     -8.1599777E-04
   50.58000     -8.2300411E-04
   50.64000     -8.3004392E-04
   50.70000     -8.3713548E-04
   50.76000     -8.4429374E-04
   50.82000     -8.5152988E-04
   50.88000     -8.5885107E-04
   50.94000     -8.6626044E-04
   51.00000     -8.7375683E-04
   51.06000     -8.8133500E-04
   51.12000     -8.8898564E-04
   51.18000     -8.9669524E-04
   51.24000     -9.0444658E-04
   51.30000     -9.1221870E-04
   51.36000     -9.1998698E-04
   51.42000     -9.2772377E-04
   51.48000     -9.3539845E-04
   51.54000     -9.4297819E-04
   51.60000     -9.5042802E-04
   51.66000     -9.5771160E-04
   51.72000     -9.6479163E-04
   51.78000     -9.7163022E-04
   51.84000     -9.7818964E-04
   51.90000     -9.8443264E-04
   51.96000     -9.9032326E-04
   52.02000     -9.9582667E-04
   52.08000     -1.0009108E-03
   52.14000     -1.0055454E-03
   52.20000     -1.0097031E-03
   52.26000     -1.0133600E-03
   52.32000     -1.0164953E-03
   52.38000     -1.0190920E-03
   52.44000     -1.0211378E-03
   52.50000     -1.0226239E-03
   52.56000     -1.0235457E-03
   52.62000     -1.0239034E-03
   52.68000     -1.0237006E-03
   52.74000     -1.0229455E-03
   52.80000     -1.0216504E-03
   52.86000     -1.0198309E-03
   52.92000     -1.0175062E-03
   52.98000     -1.0146986E-03
   53.04000     -1.0114330E-03
   53.10000     -1.0077367E-03
   53.16000     -1.0036391E-03
   53.22000     -9.9917094E-04
   53.28000     -9.9436403E-04
   53.34000     -9.8925084E-04
   53.40000     -9.8386395E-04
   53.46000     -9.7823585E-04
   53.52000     -9.7239792E-04
   53.58000     -9.6638052E-04
   53.64000     -9.6021232E-04
   53.70000     -9.5392007E-04
   53.76000     -9.4752817E-04
   53.82000     -9.4105856E-04
   53.88000     -9.3453046E-04
   53.94000     -9.2795998E-04
   54.00000     -9.2136028E-04
   54.06000     -9.1474154E-04
   54.12000     -9.0811093E-04
   54.18000     -9.0147235E-04
   54.24000     -8.9482690E-04
   54.30000     -8.8817277E-04
   54.36000     -8.8150549E-04
   54.42000     -8.7481801E-04
   54.48000     -8.6810120E-04
   54.54000     -8.6134399E-04
   54.60000     -8.5453427E-04
   54.66000     -8.4765890E-04
   54.72000     -8.4070407E-04
   54.78000     -8.3365553E-04
   54.84000     -8.2649937E-04
   54.90000     -8.1922160E-04
   54.96000     -8.1180898E-04
   55.02000     -8.0424937E-04
   55.08000     -7.9653214E-04
   55.14000     -7.8864873E-04
   55.20000     -7.8059238E-04
   55.26000     -7.7235914E-04
   55.32000     -7.6394709E-04
   55.38000     -7.5535697E-04
   55.44000     -7.4659195E-04
   55.50000     -7.3765806E-04
   55.56000     -7.2856405E-04