  -2.400000      0.0000000E+00
  -2.340000      0.0000000E+00
  -2.280000      0.0000000E+00
  -2.220000      0.0000000E+00
  -2.160000      0.0000000E+00
  -2.100000     -1.5093280E-20
  -2.040000     -1.4903821E-19
  -1.980000     -7.4108290E-19
  -1.920000     -2.3990467E-18
  -1.860000     -5.3976922E-18
  -1.800000     -7.8915347E-18
  -1.740000     -3.3599469E-18
  -1.680000      2.0153501E-17
  -1.620000      7.4471428E-17
  -1.560000      1.5599558E-16
  -1.500000      2.2425716E-16
  -1.440000      1.8947993E-16
  -1.380000     -6.6860341E-17
  -1.320000     -6.2046519E-16
  -1.260000     -1.3927058E-15
  -1.200000     -2.0561007E-15
  -1.140000     -2.0495379E-15
  -1.080000     -7.8328588E-16
  -1.020000      1.9729066E-15
 -0.9600000      5.6685529E-15
 -0.9000000      8.7940799E-15
 -0.8400000      9.2249198E-15
 -0.7800000      5.1733537E-15
 -0.7200000     -3.5304469E-15
 -0.6600000     -1.4476193E-14
 -0.6000000     -2.2803282E-14
 -0.5400000     -2.2875168E-14
 -0.4800000     -1.1190889E-14
 -0.4200000      1.0674417E-14
 -0.3600000      3.4837123E-14
 -0.3000000      4.8997898E-14
 -0.2400000      4.1582060E-14
 -0.1800000      8.4083555E-15
 -0.1200000     -4.2319873E-14
 -5.9999999E-02 -9.0056658E-14
  0.0000000E+00 -1.0865397E-13
  5.9999999E-02 -7.8337598E-14
  0.1200000      1.7926237E-15
  0.1800000      1.0709645E-13
  0.2400000      1.9169310E-13
  0.3000000      2.0472285E-13
  0.3600000      1.1396597E-13
  0.4200000     -7.2394605E-14
  0.4800000     -2.9632858E-13
  0.5400000     -4.6006227E-13
  0.6000000     -4.5606699E-13
  0.6600000     -2.0923125E-13
  0.7200000      2.8247020E-13
  0.7800000      9.2396479E-13
  0.8400000      1.5271274E-12
  0.9000000      1.8465869E-12
  0.9600000      1.6419409E-12
   1.020000      7.5332058E-13
   1.080000     -8.2728561E-13
   1.140000     -2.9073527E-12
   1.200000     -5.0837073E-12
   1.260000     -6.7817696E-12
   1.320000     -7.3475063E-12
   1.380000     -6.1858058E-12
   1.440000     -2.9274849E-12
   1.500000      2.4048079E-12
   1.560000      9.2710900E-12
   1.620000      1.6571695E-11
   1.680000      2.2724583E-11
   1.740000      2.5881111E-11
   1.800000      2.4271042E-11
   1.860000      1.6633613E-11
   1.920000      2.6590737E-12
   1.980000     -1.6657840E-11
   2.040000     -3.8856151E-11
   2.100000     -6.0124968E-11
   2.160000     -7.5743231E-11
   2.220000     -8.0827949E-11
   2.280000     -7.1306003E-11
   2.340000     -4.4958134E-11
   2.400000     -2.3369490E-12
   2.460000      5.2652587E-11
   2.520000      1.1269308E-10
   2.580000      1.6762679E-10
   2.640000      2.0566768E-10
   2.700000      2.1514415E-10
   2.760000      1.8655594E-10
   2.820000      1.1465531E-10
   2.880000      2.4053603E-13
   2.940000     -1.4861808E-10
   3.000000     -3.1611760E-10
   3.060000     -4.7911841E-10
   3.120000     -6.0837196E-10
   3.180000     -6.7046940E-10
   3.240000     -6.3033934E-10
   3.300000     -4.5410711E-10
   3.360000     -1.1213350E-10
   3.420000      4.1793538E-10
   3.480000      1.1482750E-09
   3.540000      2.0783442E-09
   3.600000      3.1929428E-09
   3.660000      4.4611665E-09
   3.720000      5.8365770E-09
   3.780000      7.2588668E-09
   3.840000      8.6571710E-09
   3.900000      9.9549631E-09
   3.960000      1.1076179E-08
   4.020000      1.1951945E-08
   4.080000      1.2527046E-08
   4.140000      1.2765208E-08
   4.200000      1.2652386E-08
   4.260000      1.2197543E-08
   4.320000      1.1430878E-08
   4.380000      1.0399932E-08
   4.440000      9.1644221E-09
   4.500000      7.7908116E-09
   4.560000      6.3475638E-09
   4.620000      4.9016515E-09
   4.680000      3.5164192E-09
   4.740000      2.2503590E-09
   4.800000      1.1560414E-09
   4.860000      2.7839794E-10
   4.920000     -3.4815836E-10
   4.980000     -7.0373091E-10
   5.040000     -7.8735185E-10
   5.100000     -6.2055544E-10
   5.160000     -2.4861024E-10
   5.220000      2.6189972E-10
   5.280000      8.2981033E-10
   5.340000      1.3701132E-09
   5.400000      1.8072726E-09
   5.460000      2.0887732E-09
   5.520000      2.1960576E-09
   5.580000      2.1501640E-09
   5.640000      2.0101916E-09
   5.700000      1.8641215E-09
   5.760000      1.8131734E-09
   5.820000      1.9524380E-09
   5.880000      2.3516114E-09
   5.940000      3.0399230E-09
   6.000000      3.9987285E-09
   6.060000      5.1637286E-09
   6.120000      6.4367471E-09
   6.180000      7.7048128E-09
   6.240000      8.8625418E-09
   6.300000      9.8328634E-09
   6.360000      1.0581370E-08
   6.420000      1.1120906E-08
   6.480000      1.1505252E-08
   6.540000      1.1813406E-08
   6.600000      1.2128234E-08
   6.660000      1.2514766E-08
   6.720000      1.3003482E-08
   6.780000      1.3582760E-08
   6.840000      1.4202276E-08
   6.900000      1.4786357E-08
   6.960000      1.5253748E-08
   7.020000      1.5538614E-08
   7.080000      1.5607407E-08
   7.140000      1.5467405E-08
   7.200000      1.5165003E-08
   7.260000      1.4774555E-08
   7.320000      1.4380871E-08
   7.380000      1.4059998E-08
   7.440000      1.3862954E-08
   7.500000      1.3806077E-08
   7.560000      1.3869687E-08
   7.620000      1.4004603E-08
   7.680000      1.4144274E-08
   7.740000      1.4219210E-08
   7.800000      1.4170356E-08
   7.860000      1.3958789E-08
   7.920000      1.3570363E-08
   7.980000      1.3015281E-08
   8.040000      1.2323616E-08
   8.100000      1.1538418E-08
   8.160000      1.0708063E-08
   8.220000      9.8791375E-09
   8.280000      9.0906118E-09
   8.340000      8.3695344E-09
   8.400000      7.7281674E-09
   8.460000      7.1624910E-09
   8.520000      6.6521579E-09
   8.580000      6.1622254E-09
   8.640000      5.6470899E-09
   8.700000      5.0568358E-09
   8.760000      4.3456914E-09
   8.820000      3.4815235E-09
   8.880000      2.4545197E-09
   8.940000      1.2827905E-09
   9.000000      1.2750465E-11
   9.060000     -1.2869503E-09
   9.120000     -2.5376330E-09
   9.180000     -3.6668071E-09
   9.240000     -4.6247064E-09
   9.300000     -5.3967888E-09
   9.360000     -6.0083765E-09
   9.420000     -6.5194627E-09
   9.480000     -7.0103057E-09
   9.540000     -7.5611197E-09
   9.600000     -8.2310203E-09
   9.660000     -9.0417700E-09
   9.720000     -9.9706723E-09
   9.780000     -1.0954460E-08
   9.840000     -1.1903071E-08
   9.900000     -1.2719602E-08
   9.960000     -1.3321276E-08
   10.02000     -1.3656230E-08
   10.08000     -1.3712256E-08
   10.14000     -1.3515828E-08
   10.20000     -1.3122219E-08
   10.26000     -1.2599663E-08
   10.32000     -1.2011792E-08
   10.38000     -1.1402861E-08
   10.44000     -1.0789360E-08
   10.50000     -1.0159949E-08
   10.56000     -9.4833377E-09
   10.62000     -8.7216323E-09
   10.68000     -7.8452027E-09
   10.74000     -6.8447359E-09
   10.80000     -5.7370673E-09
   10.86000     -4.5632493E-09
   10.92000     -3.3796488E-09
   10.98000     -2.2448188E-09
   11.04000     -1.2059510E-09
   11.10000     -2.8854197E-10
   11.16000      5.0829002E-10
   11.22000      1.2101578E-09
   11.28000      1.8604376E-09
   11.34000      2.5101419E-09
   11.40000      3.2071930E-09
   11.46000      3.9873451E-09
   11.52000      4.8682725E-09
   11.58000      5.8473995E-09
   11.64000      6.9032433E-09
   11.70000      7.9994038E-09
   11.76000      9.0900780E-09
   11.82000      1.0126020E-08
   11.88000      1.1060216E-08
   11.94000      1.1853000E-08
   12.00000      1.2476675E-08
   12.06000      1.2919701E-08
   12.12000      1.3190194E-08
   12.18000      1.3317851E-08
   12.24000      1.3353056E-08
   12.30000      1.3362018E-08
   12.36000      1.3417623E-08
   12.42000      1.3587029E-08
   12.48000      1.3918472E-08
   12.54000      1.4430521E-08
   12.60000      1.5106938E-08
   12.66000      1.5899008E-08
   12.72000      1.6735340E-08
   12.78000      1.7537101E-08
   12.84000      1.8235150E-08
   12.90000      1.8785080E-08
   12.96000      1.9176566E-08
   13.02000      1.9434896E-08
   13.08000      1.9614442E-08
   13.14000      1.9785768E-08
   13.20000      2.0019714E-08
   13.26000      2.0372509E-08
   13.32000      2.0875664E-08
   13.38000      2.1533017E-08
   13.44000      2.2325109E-08
   13.50000      2.3218922E-08
   13.56000      2.4179412E-08
   13.62000      2.5178965E-08
   13.68000      2.6201969E-08
   13.74000      2.7243619E-08
   13.80000      2.8304250E-08
   13.86000      2.9381923E-08
   13.92000      3.0466438E-08
   13.98000      3.1537073E-08
   14.04000      3.2564905E-08
   14.10000      3.3518848E-08
   14.16000      3.4373372E-08
   14.22000      3.5115370E-08
   14.28000      3.5747870E-08
   14.34000      3.6289304E-08
   14.40000      3.6768110E-08
   14.46000      3.7213976E-08
   14.52000      3.7647901E-08
   14.58000      3.8073907E-08
   14.64000      3.8474905E-08
   14.70000      3.8814207E-08
   14.76000      3.9042586E-08
   14.82000      3.9109022E-08
   14.88000      3.8972217E-08
   14.94000      3.8609606E-08
   15.00000      3.8021444E-08
   15.06000      3.7229078E-08
   15.12000      3.6268293E-08
   15.18000      3.5179951E-08
   15.24000      3.4000877E-08
   15.30000      3.2757523E-08
   15.36000      3.1464197E-08
   15.42000      3.0126046E-08
   15.48000      2.8745696E-08
   15.54000      2.7331287E-08
   15.60000      2.5903054E-08
   15.66000      2.4495929E-08
   15.72000      2.3156684E-08
   15.78000      2.1935875E-08
   15.84000      2.0876701E-08
   15.90000      2.0004221E-08
   15.96000      1.9318552E-08
   16.02000      1.8794577E-08
   16.08000      1.8388548E-08
   16.14000      1.8049608E-08
   16.20000      1.7732546E-08
   16.26000      1.7407768E-08
   16.32000      1.7065556E-08
   16.38000      1.6713791E-08
   16.44000      1.6370501E-08
   16.50000      1.6054191E-08
   16.56000      1.5775260E-08
   16.62000      1.5531114E-08
   16.68000      1.5306115E-08
   16.74000      1.5076008E-08
   16.80000      1.4815210E-08
   16.86000      1.4504728E-08
   16.92000      1.4138426E-08
   16.98000      1.3725894E-08
   17.04000      1.3290991E-08
   17.10000      1.2866318E-08
   17.16000      1.2485011E-08
   17.22000      1.2172181E-08
   17.28000      1.1938626E-08
   17.34000      1.1779035E-08
   17.40000      1.1675558E-08
   17.46000      1.1605999E-08
   17.52000      1.1554160E-08
   17.58000      1.1518959E-08
   17.64000      1.1519020E-08
   17.70000      1.1590715E-08
   17.76000      1.1779564E-08
   17.82000      1.2127044E-08
   17.88000      1.2656407E-08
   17.94000      1.3361610E-08
   18.00000      1.4202786E-08
   18.06000      1.5109951E-08
   18.12000      1.5994445E-08
   18.18000      1.6765416E-08
   18.24000      1.7347240E-08
   18.30000      1.7693385E-08
   18.36000      1.7793122E-08
   18.42000      1.7669485E-08
   18.48000      1.7369221E-08
   18.54000      1.6947821E-08
   18.60000      1.6454054E-08
   18.66000      1.5918415E-08
   18.72000      1.5348492E-08
   18.78000      1.4732042E-08
   18.84000      1.4045957E-08
   18.90000      1.3267599E-08
   18.96000      1.2384457E-08
   19.02000      1.1398949E-08
   19.08000      1.0327146E-08
   19.14000      9.1923527E-09
   19.20000      8.0161957E-09
   19.26000      6.8105290E-09
   19.32000      5.5728675E-09
   19.38000      4.2867039E-09
   19.44000      2.9262681E-09
   19.50000      1.4638717E-09
   19.56000     -1.2269767E-10
   19.62000     -1.8450468E-09
   19.68000     -3.7026560E-09
   19.74000     -5.6850018E-09
   19.80000     -7.7761655E-09
   19.86000     -9.9600843E-09
   19.92000     -1.2224591E-08
   19.98000     -1.4562985E-08
   20.04000     -1.6972809E-08
   20.10000     -1.9452449E-08
   20.16000     -2.1996810E-08
   20.22000     -2.4593534E-08
   20.28000     -2.7220995E-08
   20.34000     -2.9848710E-08
   20.40000     -3.2440184E-08
   20.46000     -3.4957466E-08
   20.52000     -3.7366235E-08
   20.58000     -3.9640021E-08
   20.64000     -4.1762394E-08
   20.70000     -4.3726480E-08
   20.76000     -4.5532172E-08
   20.82000     -4.7182105E-08
   20.88000     -4.8678171E-08
   20.94000     -5.0020084E-08
   21.00000     -5.1206861E-08
   21.06000     -5.2240711E-08
   21.12000     -5.3131679E-08
   21.18000     -5.3900841E-08
   21.24000     -5.4580028E-08
   21.30000     -5.5207387E-08
   21.36000     -5.5819619E-08
   21.42000     -5.6443188E-08
   21.48000     -5.7087334E-08
   21.54000     -5.7741410E-08
   21.60000     -5.8377459E-08
   21.66000     -5.8957511E-08
   21.72000     -5.9443277E-08
   21.78000     -5.9805394E-08
   21.84000     -6.0029421E-08
   21.90000     -6.0116982E-08
   21.96000     -6.0081810E-08
   22.02000     -5.9942110E-08
   22.08000     -5.9711596E-08
   22.14000     -5.9391958E-08
   22.20000     -5.8969203E-08
   22.26000     -5.8415083E-08
   22.32000     -5.7693587E-08
   22.38000     -5.6770741E-08
   22.44000     -5.5625158E-08
   22.50000     -5.4256208E-08
   22.56000     -5.2687362E-08
   22.62000     -5.0963582E-08
   22.68000     -4.9143402E-08
   22.74000     -4.7288026E-08
   22.80000     -4.5450644E-08
   22.86000     -4.3669065E-08
   22.92000     -4.1963592E-08
   22.98000     -4.0340247E-08
   23.04000     -3.8797801E-08
   23.10000     -3.7335795E-08
   23.16000     -3.5960888E-08
   23.22000     -3.4689478E-08
   23.28000     -3.3546144E-08
   23.34000     -3.2558631E-08
   23.40000     -3.1751256E-08
   23.46000     -3.1138576E-08
   23.52000     -3.0721132E-08
   23.58000     -3.0484241E-08
   23.64000     -3.0400145E-08
   23.70000     -3.0433089E-08
   23.76000     -3.0546282E-08
   23.82000     -3.0709220E-08
   23.88000     -3.0903607E-08
   23.94000     -3.1126273E-08
   24.00000     -3.1388154E-08
   24.06000     -3.1709398E-08
   24.12000     -3.2112023E-08
   24.18000     -3.2612480E-08
   24.24000     -3.3216708E-08
   24.30000     -3.3919534E-08
   24.36000     -3.4708847E-08
   24.42000     -3.5573070E-08
   24.48000     -3.6509007E-08
   24.54000     -3.7526746E-08
   24.60000     -3.8649056E-08
   24.66000     -3.9904641E-08
   24.72000     -4.1316792E-08
   24.78000     -4.2890992E-08
   24.84000     -4.4605752E-08
   24.90000     -4.6410168E-08
   24.96000     -4.8229765E-08
   25.02000     -4.9979430E-08
   25.08000     -5.1579949E-08
   25.14000     -5.2973277E-08
   25.20000     -5.4132101E-08
   25.26000     -5.5061111E-08
   25.32000     -5.5789968E-08
   25.38000     -5.6360737E-08
   25.44000     -5.6814073E-08
   25.50000     -5.7178564E-08
   25.56000     -5.7466142E-08
   25.62000     -5.7674207E-08
   25.68000     -5.7792597E-08
   25.74000     -5.7812031E-08
   25.80000     -5.7730407E-08
   25.86000     -5.7554477E-08
   25.92000     -5.7296219E-08
   25.98000     -5.6965334E-08
   26.04000     -5.6560641E-08
   26.10000     -5.6063481E-08
   26.16000     -5.5435624E-08
   26.22000     -5.4622813E-08
   26.28000     -5.3563319E-08
   26.34000     -5.2199706E-08
   26.40000     -5.0490886E-08
   26.46000     -4.8421580E-08
   26.52000     -4.6006839E-08
   26.58000     -4.3290477E-08
   26.64000     -4.0337774E-08
   26.70000     -3.7224307E-08
   26.76000     -3.4023603E-08
   26.82000     -3.0796642E-08
   26.88000     -2.7585369E-08
   26.94000     -2.4411211E-08
   27.00000     -2.1277996E-08
   27.06000     -1.8177596E-08
   27.12000     -1.5096253E-08
   27.18000     -1.2019883E-08
   27.24000     -8.9375813E-09
   27.30000     -5.8434146E-09
   27.36000     -2.7371541E-09
   27.42000      3.7536271E-10
   27.48000      3.4819023E-09
   27.54000      6.5635875E-09
   27.60000      9.5950101E-09
   27.66000      1.2544933E-08
   27.72000      1.5377617E-08
   27.78000      1.8054696E-08
   27.84000      2.0537529E-08
   27.90000      2.2790230E-08
   27.96000      2.4783462E-08
   28.02000      2.6498997E-08
   28.08000      2.7934352E-08
   28.14000      2.9106152E-08
   28.20000      3.0050597E-08
   28.26000      3.0819674E-08
   28.32000      3.1472936E-08
   28.38000      3.2066186E-08
   28.44000      3.2639754E-08
   28.50000      3.3209734E-08
   28.56000      3.3764756E-08
   28.62000      3.4269465E-08
   28.68000      3.4673590E-08
   28.74000      3.4923843E-08
   28.80000      3.4975102E-08
   28.86000      3.4797882E-08
   28.92000      3.4380623E-08
   28.98000      3.3727250E-08
   29.04000      3.2851979E-08
   29.10000      3.1773936E-08
   29.16000      3.0513565E-08
   29.22000      2.9091741E-08
   29.28000      2.7530881E-08
   29.34000      2.5856712E-08
   29.40000      2.4099027E-08
   29.46000      2.2290513E-08
   29.52000      2.0463661E-08
   29.58000      1.8646626E-08
   29.64000      1.6859337E-08
   29.70000      1.5110869E-08
   29.76000      1.3398651E-08
   29.82000      1.1709452E-08
   29.88000      1.0021683E-08
   29.94000      8.3085210E-09
   30.00000      6.5414207E-09
   30.06000      4.6937161E-09
   30.12000      2.7440259E-09
   30.18000      6.7911365E-10
   30.24000     -1.5041766E-09
   30.30000     -3.7981511E-09
   30.36000     -6.1846679E-09
   30.42000     -8.6364427E-09
   30.48000     -1.1118905E-08
   30.54000     -1.3592360E-08
   30.60000     -1.6014472E-08
   30.66000     -1.8343226E-08
   30.72000     -2.0540408E-08
   30.78000     -2.2575239E-08
   30.84000     -2.4427274E-08
   30.90000     -2.6087577E-08
   30.96000     -2.7557419E-08
   31.02000     -2.8844704E-08
   31.08000     -2.9959271E-08
   31.14000     -3.0908897E-08
   31.20000     -3.1697589E-08
   31.26000     -3.2326877E-08
   31.32000     -3.2799278E-08
   31.38000     -3.3122046E-08
   31.44000     -3.3309092E-08
   31.50000     -3.3379788E-08
   31.56000     -3.3354940E-08
   31.62000     -3.3251787E-08
   31.68000     -3.3080529E-08
   31.74000     -3.2844245E-08
   31.80000     -3.2542598E-08
   31.86000     -3.2177599E-08
   31.92000     -3.1758852E-08
   31.98000     -3.1305582E-08
   32.04000     -3.0844458E-08
   32.10000     -3.0404017E-08
   32.16000     -3.0008326E-08
   32.22000     -2.9672835E-08
   32.28000     -2.9404177E-08
   32.34000     -2.9203870E-08
   32.40000     -2.9073748E-08
   32.46000     -2.9020164E-08
   32.52000     -2.9054501E-08
   32.58000     -2.9189309E-08
   32.64000     -2.9431519E-08
   32.70000     -2.9775482E-08
   32.76000     -3.0198962E-08
   32.82000     -3.0663784E-08
   32.88000     -3.1121324E-08
   32.94000     -3.1520962E-08
   33.00000     -3.1818995E-08
   33.06000     -3.1985525E-08
   33.12000     -3.2007822E-08
   33.18000     -3.1889861E-08
   33.24000     -3.1648817E-08
   33.30000     -3.1309572E-08
   33.36000     -3.0898519E-08
   33.42000     -3.0437661E-08
   33.48000     -2.9939905E-08
   33.54000     -2.9406230E-08
   33.60000     -2.8825461E-08
   33.66000     -2.8176725E-08
   33.72000     -2.7434243E-08
   33.78000     -2.6573300E-08
   33.84000     -2.5575828E-08
   33.90000     -2.4434170E-08
   33.96000     -2.3152298E-08
   34.02000     -2.1744750E-08
   34.08000     -2.0234392E-08
   34.14000     -1.8650340E-08
   34.20000     -1.7026876E-08
   34.26000     -1.5403220E-08
   34.32000     -1.3823128E-08
   34.38000     -1.2333097E-08
   34.44000     -1.0978448E-08
   34.50000     -9.7978692E-09
   34.56000     -8.8180405E-09
   34.62000     -8.0504590E-09
   34.68000     -7.4919804E-09
   34.74000     -7.1291471E-09
   34.80000     -6.9447705E-09
   34.86000     -6.9242061E-09
   34.92000     -7.0588966E-09
   34.98000     -7.3459843E-09
   35.04000     -7.7845481E-09
   35.10000     -8.3704990E-09
   35.16000     -9.0926395E-09
   35.22000     -9.9317443E-09
   35.28000     -1.0863032E-08
   35.34000     -1.1860947E-08
   35.40000     -1.2904235E-08
   35.46000     -1.3979481E-08
   35.52000     -1.5082076E-08
   35.58000     -1.6214793E-08
   35.64000     -1.7384954E-08
   35.70000     -1.8601323E-08
   35.76000     -1.9871592E-08
   35.82000     -2.1200632E-08
   35.88000     -2.2589450E-08
   35.94000     -2.4034717E-08
   36.00000     -2.5529017E-08
   36.06000     -2.7062082E-08
   36.12000     -2.8623063E-08
   36.18000     -3.0203278E-08
   36.24000     -3.1798319E-08
   36.30000     -3.3408128E-08
   36.36000     -3.5034258E-08
   36.42000     -3.6674724E-08
   36.48000     -3.8318177E-08
   36.54000     -3.9939973E-08
   36.60000     -4.1502293E-08
   36.66000     -4.2959215E-08
   36.72000     -4.4265516E-08
   36.78000     -4.5386411E-08
   36.84000     -4.6304709E-08
   36.90000     -4.7022795E-08
   36.96000     -4.7558785E-08
   37.02000     -4.7938368E-08
   37.08000     -4.8185541E-08
   37.14000     -4.8315645E-08
   37.20000     -4.8333067E-08
   37.26000     -4.8234089E-08
   37.32000     -4.8013469E-08
   37.38000     -4.7672096E-08
   37.44000     -4.7223075E-08
   37.50000     -4.6694254E-08
   37.56000     -4.6126669E-08
   37.62000     -4.5569429E-08
   37.68000     -4.5072429E-08
   37.74000     -4.4678401E-08
   37.80000     -4.4415891E-08
   37.86000     -4.4294300E-08
   37.92000     -4.4301963E-08
   37.98000     -4.4407866E-08
   38.04000     -4.4566828E-08
   38.10000     -4.4727432E-08
   38.16000     -4.4840981E-08
   38.22000     -4.4869299E-08
   38.28000     -4.4789466E-08
   38.34000     -4.4594177E-08
   38.40000     -4.4288033E-08
   38.46000     -4.3881393E-08
   38.52000     -4.3384272E-08
   38.58000     -4.2802579E-08
   38.64000     -4.2138009E-08
   38.70000     -4.1391175E-08
   38.76000     -4.0566242E-08
   38.82000     -3.9674632E-08
   38.88000     -3.8735763E-08
   38.94000     -3.7774253E-08
   39.00000     -3.6814424E-08
   39.06000     -3.5874248E-08
   39.12000     -3.4961086E-08
   39.18000     -3.4070712E-08
   39.24000     -3.3189878E-08
   39.30000     -3.2301116E-08
   39.36000     -3.1387849E-08
   39.42000     -3.0437846E-08
   39.48000     -2.9444100E-08
   39.54000     -2.8403310E-08
   39.60000     -2.7313172E-08
   39.66000     -2.6170031E-08
   39.72000     -2.4967999E-08
   39.78000     -2.3699998E-08
   39.84000     -2.2360197E-08
   39.90000     -2.0947009E-08
   39.96000     -1.9465658E-08
   40.02000     -1.7929739E-08
   40.08000     -1.6361527E-08
   40.14000     -1.4791093E-08
   40.20000     -1.3254325E-08
   40.26000     -1.1789997E-08
   40.32000     -1.0435999E-08
   40.38000     -9.2252366E-09
   40.44000     -8.1819662E-09
   40.50000     -7.3196262E-09
   40.56000     -6.6409682E-09
   40.62000     -6.1406755E-09
   40.68000     -5.8096532E-09
   40.74000     -5.6393725E-09
   40.80000     -5.6244187E-09
   40.86000     -5.7619629E-09
   40.92000     -6.0481922E-09
   40.98000     -6.4731327E-09
   41.04000     -7.0162511E-09
   41.10000     -7.6451512E-09
   41.16000     -8.3185476E-09
   41.22000     -8.9929815E-09
   41.28000     -9.6311785E-09
   41.34000     -1.0209223E-08
   41.40000     -1.0720244E-08
   41.46000     -1.1173738E-08
   41.52000     -1.1591310E-08
   41.58000     -1.2000856E-08
   41.64000     -1.2431301E-08
   41.70000     -1.2909206E-08
   41.76000     -1.3457316E-08
   41.82000     -1.4094121E-08
   41.88000     -1.4833313E-08
   41.94000     -1.5682676E-08
   42.00000     -1.6642931E-08
   42.06000     -1.7707720E-08
   42.12000     -1.8865840E-08
   42.18000     -2.0105801E-08
   42.24000     -2.1421444E-08
   42.30000     -2.2816442E-08
   42.36000     -2.4305470E-08
   42.42000     -2.5910950E-08
   42.48000     -2.7656062E-08
   42.54000     -2.9556361E-08
   42.60000     -3.1613119E-08
   42.66000     -3.3810998E-08
   42.72000     -3.6121236E-08
   42.78000     -3.8509572E-08
   42.84000     -4.0946670E-08
   42.90000     -4.3418289E-08
   42.96000     -4.5932811E-08
   43.02000     -4.8524988E-08
   43.08000     -5.1256105E-08
   43.14000     -5.4211537E-08
   43.20000     -5.7497232E-08
   43.26000     -6.1236427E-08
   43.32000     -6.5567406E-08
   43.38000     -7.0642990E-08
   43.44000     -7.6631828E-08
   43.50000     -8.3721545E-08
   43.56000     -9.2123472E-08
   43.62000     -1.0207825E-07
   43.68000     -1.1386143E-07
   43.74000     -1.2778784E-07
   43.80000     -1.4421458E-07
   43.86000     -1.6354257E-07
   43.92000     -1.8621846E-07
   43.98000     -2.1273905E-07
   44.04000     -2.4365997E-07
   44.10000     -2.7960985E-07
   44.16000     -3.2130868E-07
   44.22000     -3.6958841E-07
   44.28000     -4.2541217E-07
   44.34000     -4.8988926E-07
   44.40000     -5.6428485E-07
   44.46000     -6.5002570E-07
   44.52000     -7.4870400E-07
   44.58000     -8.6208161E-07
   44.64000     -9.9209922E-07
   44.70000     -1.1408894E-06
   44.76000     -1.3107945E-06
   44.82000     -1.5043883E-06
   44.88000     -1.7244981E-06
   44.94000     -1.9742281E-06
   45.00000     -2.2569827E-06
   45.06000     -2.5764862E-06
   45.12000     -2.9368036E-06
   45.18000     -3.3423560E-06
   45.24000     -3.7979330E-06
   45.30000     -4.3086998E-06
   45.36000     -4.8802053E-06
   45.42000     -5.5183837E-06
   45.48000     -6.2295580E-06
   45.54000     -7.0204474E-06
   45.60000     -7.8981648E-06
   45.66000     -8.8702209E-06
   45.72000     -9.9445178E-06
   45.78000     -1.1129335E-05
   45.84000     -1.2433310E-05
   45.90000     -1.3865415E-05
   45.96000     -1.5434915E-05
   46.02000     -1.7151342E-05
   46.08000     -1.9024443E-05
   46.14000     -2.1064141E-05
   46.20000     -2.3280480E-05
   46.26000     -2.5683574E-05
   46.32000     -2.8283548E-05
   46.38000     -3.1090458E-05
   46.44000     -3.4114226E-05
   46.50000     -3.7364545E-05
   46.56000     -4.0850780E-05
   46.62000     -4.4581899E-05
   46.68000     -4.8566333E-05
   46.74000     -5.2811884E-05
   46.80000     -5.7325607E-05
   46.86000     -6.2113693E-05
   46.92000     -6.7181340E-05
   46.98000     -7.2532675E-05
   47.04000     -7.8170604E-05
   47.10000     -8.4096755E-05
   47.16000     -9.0311340E-05
   47.22000     -9.6813121E-05
   47.28000     -1.0359929E-04
   47.34000     -1.1066545E-04
   47.40000     -1.1800550E-04
   47.46000     -1.2561165E-04
   47.52000     -1.3347431E-04
   47.58000     -1.4158215E-04
   47.64000     -1.4992199E-04
   47.70000     -1.5847888E-04
   47.76000     -1.6723615E-04
   47.82000     -1.7617538E-04
   47.88000     -1.8527656E-04
   47.94000     -1.9451817E-04
   48.00000     -2.0387732E-04
   48.06000     -2.1332988E-04
   48.12000     -2.2285063E-04
   48.18000     -2.3241343E-04
   48.24000     -2.4199141E-04
   48.30000     -2.5155724E-04
   48.36000     -2.6108322E-04
   48.42000     -2.7054170E-04
   48.48000     -2.7990516E-04
   48.54000     -2.8914656E-04
   48.60000     -2.9823949E-04
   48.66000     -3.0715860E-04
   48.72000     -3.1587965E-04
   48.78000     -3.2437997E-04
   48.84000     -3.3263853E-04
   48.90000     -3.4063632E-04
   48.96000     -3.4835649E-04
   49.02000     -3.5578452E-04
   49.08000     -3.6290832E-04
   49.14000     -3.6971844E-04
   49.20000     -3.7620834E-04
   49.26000     -3.8237419E-04
   49.32000     -3.8821509E-04
   49.38000     -3.9373312E-04
   49.44000     -3.9893316E-04
   49.50000     -4.0382301E-04
   49.56000     -4.0841315E-04
   49.62000     -4.1271691E-04
   49.68000     -4.1675009E-04
   49.74000     -4.2053082E-04
   49.80000     -4.2407945E-04
   49.86000     -4.2741813E-04
   49.92000     -4.3057060E-04
   49.98000     -4.3356186E-04
   50.04000     -4.3641790E-04
   50.10000     -4.3916533E-04
   50.16000     -4.4183107E-04
   50.22000     -4.4444203E-04
   50.28000     -4.4702474E-04
   50.34000     -4.4960505E-04
   50.40000     -4.5220781E-04
   50.46000     -4.5485637E-04
   50.52000     -4.5757258E-04
   50.58000     -4.6037624E-04
   50.64000     -4.6328499E-04
   50.70000     -4.6631403E-04
   50.76000     -4.6947587E-04
   50.82000     -4.7278026E-04
   50.88000     -4.7623398E-04
   50.94000     -4.7984088E-04
   51.00000     -4.8360153E-04
   51.06000     -4.8751355E-04
   51.12000     -4.9157155E-04
   51.18000     -4.9576728E-04
   51.24000     -5.0008984E-04
   51.30000     -5.0452567E-04
   51.36000     -5.0905888E-04
   51.42000     -5.1367155E-04
   51.48000     -5.1834359E-04
   51.54000     -5.2305358E-04
   51.60000     -5.2777870E-04
   51.66000     -5.3249538E-04
   51.72000     -5.3717964E-04
   51.78000     -5.4180698E-04
   51.84000     -5.4635340E-04
   51.90000     -5.5079535E-04
   51.96000     -5.5510987E-04
   52.02000     -5.5927562E-04
   52.08000     -5.6327245E-04
   52.14000     -5.6708214E-04
   52.20000     -5.7068863E-04
   52.26000     -5.7407824E-04
   52.32000     -5.7723944E-04
   52.38000     -5.8016361E-04
   52.44000     -5.8284466E-04
   52.50000     -5.8527925E-04
   52.56000     -5.8746693E-04
   52.62000     -5.8940996E-04
   52.68000     -5.9111358E-04
   52.74000     -5.9258536E-04
   52.80000     -5.9383555E-04
   52.86000     -5.9487630E-04
   52.92000     -5.9572200E-04
   52.98000     -5.9638848E-04
   53.04000     -5.9689302E-04
   53.10000     -5.9725414E-04
   53.16000     -5.9749134E-04
   53.22000     -5.9762457E-04
   53.28000     -5.9767393E-04
   53.34000     -5.9765932E-04
   53.40000     -5.9760018E-04
   53.46000     -5.9751485E-04
   53.52000     -5.9742044E-04
   53.58000     -5.9733255E-04
   53.64000     -5.9726497E-04
   53.70000     -5.9722946E-04
   53.76000     -5.9723546E-04
   53.82000     -5.9728994E-04
   53.88000     -5.9739721E-04
   53.94000     -5.9755903E-04
   54.00000     -5.9777411E-04
   54.06000     -5.9803855E-04
   54.12000     -5.9834571E-04
   54.18000     -5.9868617E-04
   54.24000     -5.9904798E-04
   54.30000     -5.9941673E-04
   54.36000     -5.9977564E-04
   54.42000     -6.0010585E-04
   54.48000     -6.0038670E-04
   54.54000     -6.0059584E-04
   54.60000     -6.0070970E-04
   54.66000     -6.0070370E-04
   54.72000     -6.0055277E-04
   54.78000     -6.0023169E-04
   54.84000     -5.9971533E-04
   54.90000     -5.9897901E-04
   54.96000     -5.9799891E-04
   55.02000     -5.9675204E-04
   55.08000     -5.9521705E-04
   55.14000     -5.9337408E-04
   55.20000     -5.9120526E-04
   55.26000     -5.8869488E-04
   55.32000     -5.8582966E-04
   55.38000     -5.8259931E-04
   55.44000     -5.7899562E-04
   55.50000     -5.7501387E-04
   55.56000     -5.7065173E-04