 -0.750000000       0.00000000    
 -0.689999998       0.00000000    
 -0.629999995       0.00000000    
 -0.569999993       0.00000000    
 -0.509999990       0.00000000    
 -0.449999988       3.16015205E-21
 -0.389999986       7.54794393E-21
 -0.330000013      -6.83330027E-20
 -0.270000011      -5.56998144E-19
 -0.209999993      -2.14562524E-18
 -0.150000006      -5.45815044E-18
  -9.00000036E-02  -9.66106754E-18
  -2.99999993E-02  -1.03729590E-17
   2.99999993E-02   1.42383457E-18
   9.00000036E-02   3.66568728E-17
  0.150000006       9.96073424E-17
  0.209999993       1.75197370E-16
  0.270000011       2.19248920E-16
  0.330000013       1.62458193E-16
  0.389999986      -6.37464886E-17
  0.449999988      -4.81818069E-16
  0.509999990      -1.02036702E-15
  0.569999993      -1.49184514E-15
  0.629999995      -1.62069505E-15
  0.689999998      -1.12834519E-15
  0.750000000       1.45959540E-16
  0.810000002       2.13104087E-15
  0.870000005       4.46184939E-15
  0.930000007       6.49796243E-15
  0.990000010       7.42542031E-15
   1.04999995       6.42800768E-15
   1.11000001       2.91252978E-15
   1.16999996      -3.22602324E-15
   1.23000002      -1.13329425E-14
   1.28999996      -1.98015144E-14
   1.35000002      -2.61075883E-14
   1.40999997      -2.72320381E-14
   1.47000003      -2.05360817E-14
   1.52999997      -4.93904827E-15
   1.59000003       1.80077307E-14
   1.64999998       4.37016417E-14
   1.71000004       6.51630104E-14
   1.76999998       7.48418051E-14
   1.83000004       6.70530797E-14
   1.88999999       4.01326108E-14
   1.95000005      -2.59314669E-15
   2.00999999      -5.34443875E-14
   2.06999993      -1.02301637E-13
   2.13000011      -1.38871309E-13
   2.19000006      -1.54338714E-13
   2.25000000      -1.42045867E-13
   2.30999994      -9.77311765E-14
   2.36999989      -2.04295385E-14
   2.43000007       8.51847957E-14
   2.49000001       2.05470935E-13
   2.54999995       3.15514840E-13
   2.60999990       3.80669129E-13
   2.67000008       3.63988218E-13
   2.73000002       2.39129680E-13
   2.78999996       5.04171671E-15
   2.84999990      -3.03643097E-13
   2.91000009      -6.16595479E-13
   2.97000003      -8.41295404E-13
   3.02999997      -8.88142207E-13
   3.08999991      -7.00121276E-13
   3.15000010      -2.77051250E-13
   3.21000004       3.14825531E-13
   3.26999998       9.52815734E-13
   3.32999992       1.48585972E-12
   3.39000010       1.77325580E-12
   3.45000005       1.72295370E-12
   3.50999999       1.31823729E-12
   3.56999993       6.24758763E-13
   3.63000011      -2.24851401E-13
   3.69000006      -1.06571067E-12
   3.75000000      -1.74650875E-12
   3.80999994      -2.17473110E-12
   3.86999989      -2.34848078E-12
   3.93000007      -2.36376196E-12
   3.99000001      -2.39064627E-12
   4.05000019      -2.61879429E-12
   4.11000013      -3.18123609E-12
   4.17000008      -4.07341348E-12
   4.23000002      -5.09003647E-12
   4.28999996      -5.80336256E-12
   4.34999990      -5.60177729E-12
   4.40999985      -3.79681833E-12
   4.46999979       2.08499464E-13
   4.53000021       6.71438165E-12
   4.59000015       1.55211261E-11
   4.65000010       2.57755119E-11
   4.71000004       3.59117701E-11
   4.76999998       4.37179529E-11
   4.82999992       4.65343319E-11
   4.88999987       4.15616951E-11
   4.94999981       2.62310902E-11
   5.01000023      -1.42908764E-12
   5.07000017      -4.24939112E-11
   5.13000011      -9.69608491E-11
   5.19000006      -1.63710878E-10
   5.25000000      -2.40604814E-10
   5.30999994      -3.24680394E-10
   5.36999989      -4.12400530E-10
   5.42999983      -4.99902120E-10
   5.48999977      -5.83208593E-10
   5.55000019      -6.58395893E-10
   5.61000013      -7.21728899E-10
   5.67000008      -7.69805775E-10
   5.73000002      -7.99752709E-10
   5.78999996      -8.09495915E-10
   5.84999990      -7.98101751E-10
   5.90999985      -7.66130603E-10
   5.96999979      -7.15911663E-10
   6.03000021      -6.51626475E-10
   6.09000015      -5.79108095E-10
   6.15000010      -5.05319675E-10
   6.21000004      -4.37560627E-10
   6.26999998      -3.82534393E-10
   6.32999992      -3.45471290E-10
   6.38999987      -3.29501343E-10
   6.44999981      -3.35409561E-10
   6.51000023      -3.61793540E-10
   6.57000017      -4.05523309E-10
   6.63000011      -4.62318572E-10
   6.69000006      -5.27257182E-10
   6.75000000      -5.95103189E-10
   6.80999994      -6.60470123E-10
   6.86999989      -7.17949311E-10
   6.92999983      -7.62375885E-10
   6.98999977      -7.89348142E-10
   7.05000019      -7.95977284E-10
   7.11000013      -7.81690879E-10
   7.17000008      -7.48810181E-10
   7.23000002      -7.02632730E-10
   7.28999996      -6.50872023E-10
   7.34999990      -6.02496719E-10
   7.40999985      -5.66190539E-10
   7.46999979      -5.48764700E-10
   7.53000021      -5.53859791E-10
   7.59000015      -5.81181991E-10
   7.65000010      -6.26384722E-10
   7.71000004      -6.81567469E-10
   7.76999998      -7.36263606E-10
   7.82999992      -7.78739073E-10
   7.88999987      -7.97416022E-10
   7.94999981      -7.82263809E-10
   8.01000023      -7.26041283E-10
   8.06999969      -6.25322572E-10
   8.13000011      -4.81279905E-10
   8.18999958      -3.00210828E-10
   8.25000000      -9.37894415E-11
   8.31000042       1.21019472E-10
   8.36999989       3.22480126E-10
   8.43000031       4.85150253E-10
   8.48999977       5.81558468E-10
   8.55000019       5.84465365E-10
   8.60999966       4.69547623E-10
   8.67000008       2.18228255E-10
   8.72999954      -1.79688125E-10
   8.78999996      -7.23898608E-10
   8.85000038      -1.40224932E-09
   8.90999985      -2.19028062E-09
   8.97000027      -3.05171044E-09
   9.02999973      -3.93984045E-09
   9.09000015      -4.79983164E-09
   9.14999962      -5.57177326E-09
   9.21000004      -6.19439922E-09
   9.27000046      -6.60921362E-09
   9.32999992      -6.76469414E-09
   9.39000034      -6.62014843E-09
   9.44999981      -6.14881035E-09
   9.51000023      -5.33981037E-09
   9.56999969      -4.19876711E-09
   9.63000011      -2.74685230E-09
   9.68999958      -1.01834896E-09
   9.75000000       9.43146894E-10
   9.81000042       3.08948556E-09
   9.86999989       5.37305622E-09
   9.93000031       7.75136755E-09
   9.98999977       1.01902371E-08
   10.0500002       1.26649065E-08
   10.1099997       1.51588893E-08
   10.1700001       1.76609696E-08
   10.2299995       2.01613002E-08
   10.2900000       2.26477415E-08
   10.3500004       2.51034198E-08
   10.4099998       2.75058767E-08
   10.4700003       2.98275857E-08
   10.5299997       3.20371036E-08
   10.5900002       3.41000934E-08
   10.6499996       3.59797561E-08
   10.7100000       3.76366991E-08
   10.7700005       3.90288371E-08
   10.8299999       4.01120914E-08
   10.8900003       4.08425187E-08
   10.9499998       4.11800691E-08
   11.0100002       4.10937382E-08
   11.0699997       4.05672083E-08
   11.1300001       3.96039574E-08
   11.1899996       3.82305068E-08
   11.2500000       3.64967683E-08
   11.3100004       3.44727518E-08
   11.3699999       3.22417613E-08
   11.4300003       2.98908240E-08
   11.4899998       2.75001710E-08
   11.5500002       2.51338790E-08
   11.6099997       2.28338006E-08
   11.6700001       2.06181614E-08
   11.7299995       1.84849789E-08
   11.7900000       1.64191611E-08
   11.8500004       1.44011407E-08
   11.9099998       1.24146791E-08
   11.9700003       1.04518838E-08
   12.0299997       8.51461923E-09
   12.0900002       6.61261845E-09
   12.1499996       4.75960338E-09
   12.2100000       2.96909919E-09
   12.2700005       1.25142607E-09
   12.3299999      -3.87280819E-10
   12.3900003      -1.94400029E-09
   12.4499998      -3.41640827E-09
   12.5100002      -4.80026108E-09
   12.5699997      -6.08778405E-09
   12.6300001      -7.26795335E-09
   12.6899996      -8.32892244E-09
   12.7500000      -9.26206667E-09
   12.8100004      -1.00664037E-08
   12.8699999      -1.07517506E-08
   12.9300003      -1.13391296E-08
   12.9899998      -1.18576358E-08
   13.0500002      -1.23381527E-08
   13.1099997      -1.28054891E-08
   13.1700001      -1.32713192E-08
   13.2299995      -1.37303395E-08
   13.2900000      -1.41612251E-08
   13.3500004      -1.45325467E-08
   13.4099998      -1.48122012E-08
   13.4700003      -1.49778039E-08
   13.5299997      -1.50250496E-08
   13.5900002      -1.49716293E-08
   13.6499996      -1.48554857E-08
   13.7100000      -1.47277248E-08
   13.7700005      -1.46419312E-08
   13.8299999      -1.46425849E-08
   13.8900003      -1.47555852E-08
   13.9499998      -1.49833550E-08
   14.0100002      -1.53058384E-08
   14.0699997      -1.56870108E-08
   14.1300001      -1.60849218E-08
   14.1899996      -1.64620868E-08
   14.2500000      -1.67928782E-08
   14.3100004      -1.70655330E-08
   14.3699999      -1.72782517E-08
   14.4300003      -1.74310735E-08
   14.4899998      -1.75167827E-08
   14.5500002      -1.75146848E-08
   14.6099997      -1.73900894E-08
   14.6700001      -1.71003762E-08
   14.7299995      -1.66061032E-08
   14.7900000      -1.58837050E-08
   14.8500004      -1.49355497E-08
   14.9099998      -1.37936782E-08
   14.9700003      -1.25153727E-08
   15.0299997      -1.11710783E-08
   15.0900002      -9.82759030E-09
   15.1499996      -8.53105409E-09
   15.2100000      -7.29473326E-09
   15.2700005      -6.09547612E-09
   15.3299999      -4.88056529E-09
   15.3900003      -3.58366314E-09
   15.4499998      -2.14577200E-09
   15.5100002      -5.35341882E-10
   15.5699997       1.23842259E-09
   15.6300001       3.12326387E-09
   15.6899996       5.03367836E-09
   15.7500000       6.87038959E-09
   15.8100004       8.54419113E-09
   15.8699999       9.99760097E-09
   15.9300003       1.12183924E-08
   15.9899998       1.22414674E-08
   16.0499992       1.31387585E-08
   16.1100006       1.40000900E-08
   16.1700001       1.49102544E-08
   16.2299995       1.59283573E-08
   16.2900009       1.70747043E-08
   16.3500004       1.83283237E-08
   16.4099998       1.96352534E-08
   16.4699993       2.09248530E-08
   16.5300007       2.21291270E-08
   16.5900002       2.31992825E-08
   16.6499996       2.41146321E-08
   16.7099991       2.48812366E-08
   16.7700005       2.55209827E-08
   16.8299999       2.60548454E-08
   16.8899994       2.64861875E-08
   16.9500008       2.67901896E-08
   17.0100002       2.69138170E-08
   17.0699997       2.67874274E-08
   17.1299992       2.63453419E-08
   17.1900005       2.55495642E-08
   17.2500000       2.44093439E-08
   17.3099995       2.29900774E-08
   17.3700008       2.14079758E-08
   17.4300003       1.98110435E-08
   17.4899998       1.83510274E-08
   17.5499992       1.71538534E-08
   17.6100006       1.62965872E-08
   17.6700001       1.57971058E-08
   17.7299995       1.56188573E-08
   17.7900009       1.56885758E-08
   17.8500004       1.59210156E-08
   17.9099998       1.62428009E-08
   17.9699993       1.66081264E-08
   18.0300007       1.70018541E-08
   18.0900002       1.74298407E-08
   18.1499996       1.79005788E-08
   18.2099991       1.84051920E-08
   18.2700005       1.89034957E-08
   18.3299999       1.93219627E-08
   18.3899994       1.95657108E-08
   18.4500008       1.95418721E-08
   18.5100002       1.91878886E-08
   18.5699997       1.84959550E-08
   18.6299992       1.75255206E-08
   18.6900005       1.63987419E-08
   18.7500000       1.52786743E-08
   18.8099995       1.43350833E-08
   18.8700008       1.37066927E-08
   18.9300003       1.34700047E-08
   18.9899998       1.36232376E-08
   19.0499992       1.40897347E-08
   19.1100006       1.47397330E-08
   19.1700001       1.54242432E-08
   19.2299995       1.60115547E-08
   19.2900009       1.64164859E-08
   19.3500004       1.66149245E-08
   19.4099998       1.66407297E-08
   19.4699993       1.65671636E-08
   19.5300007       1.64792606E-08
   19.5900002       1.64456875E-08
   19.6499996       1.64982090E-08
   19.7099991       1.66240515E-08
   19.7700005       1.67723559E-08
   19.8299999       1.68715477E-08
   19.8899994       1.68514820E-08
   19.9500008       1.66631118E-08
   20.0100002       1.62897038E-08
   20.0699997       1.57467426E-08
   20.1299992       1.50713593E-08
   20.1900005       1.43056011E-08
   20.2500000       1.34795561E-08
   20.3099995       1.26001343E-08
   20.3700008       1.16491128E-08
   20.4300003       1.05908047E-08
   20.4899998       9.38643652E-09
   20.5499992       8.01017297E-09
   20.6100006       6.46132703E-09
   20.6700001       4.76869255E-09
   20.7299995       2.98555336E-09
   20.7900009       1.17689847E-09
   20.8500004      -5.97314476E-10
   20.9099998      -2.29797892E-09
   20.9699993      -3.91735844E-09
   21.0300007      -5.48163781E-09
   21.0900002      -7.04515735E-09
   21.1499996      -8.67816929E-09
   21.2099991      -1.04514744E-08
   21.2700005      -1.24216726E-08
   21.3299999      -1.46202535E-08
   21.3899994      -1.70484160E-08
   21.4500008      -1.96780103E-08
   21.5100002      -2.24576144E-08
   21.5699997      -2.53219010E-08
   21.6299992      -2.82020931E-08
   21.6900005      -3.10355581E-08
   21.7500000      -3.37730057E-08
   21.8099995      -3.63824384E-08
   21.8700008      -3.88496240E-08
   21.9300003      -4.11754293E-08
   21.9899998      -4.33709211E-08
   22.0499992      -4.54515217E-08
   22.1100006      -4.74316693E-08
   22.1700001      -4.93213577E-08
   22.2299995      -5.11253653E-08
   22.2900009      -5.28452517E-08
   22.3500004      -5.44831948E-08
   22.4099998      -5.60461366E-08
   22.4699993      -5.75484407E-08
   22.5300007      -5.90116862E-08
   22.5900002      -6.04611969E-08
   22.6499996      -6.19199341E-08
   22.7099991      -6.34014512E-08
   22.7700005      -6.49042136E-08
   22.8299999      -6.64091644E-08
   22.8899994      -6.78817713E-08
   22.9500008      -6.92782578E-08
   23.0100002      -7.05546768E-08
   23.0699997      -7.16761903E-08
   23.1299992      -7.26238838E-08
   23.1900005      -7.33970325E-08
   23.2500000      -7.40097761E-08
   23.3099995      -7.44831610E-08
   23.3700008      -7.48348299E-08
   23.4300003      -7.50693943E-08
   23.4899998      -7.51725935E-08
   23.5499992      -7.51111884E-08
   23.6100006      -7.48388302E-08
   23.6700001      -7.43064490E-08
   23.7299995      -7.34741405E-08
   23.7900009      -7.23215408E-08
   23.8500004      -7.08538366E-08
   23.9099998      -6.91021924E-08
   23.9699993      -6.71190321E-08
   24.0300007      -6.49700098E-08
   24.0900002      -6.27252987E-08
   24.1499996      -6.04526775E-08
   24.2099991      -5.82137396E-08
   24.2700005      -5.60633246E-08
   24.3299999      -5.40506164E-08
   24.3899994      -5.22199599E-08
   24.4500008      -5.06094828E-08
   24.5100002      -4.92469177E-08
   24.5699997      -4.81435478E-08
   24.6299992      -4.72885127E-08
   24.6900005      -4.66464023E-08
   24.7500000      -4.61603165E-08
   24.8099995      -4.57611264E-08
   24.8700008      -4.53814941E-08
   24.9300003      -4.49715323E-08
   24.9899998      -4.45119426E-08
   25.0499992      -4.40208439E-08
   25.1100006      -4.35519780E-08
   25.1700001      -4.31841798E-08
   25.2299995      -4.30043627E-08
   25.2900009      -4.30881144E-08
   25.3500004      -4.34827072E-08
   25.4099998      -4.41968275E-08
   25.4699993      -4.51994708E-08
   25.5300007      -4.64281733E-08
   25.5900002      -4.78040079E-08
   25.6499996      -4.92492447E-08
   25.7099991      -5.07028730E-08
   25.7700005      -5.21301864E-08
   25.8299999      -5.35246549E-08
   25.8899994      -5.49026318E-08
   25.9500008      -5.62936222E-08
   26.0100002      -5.77295012E-08
   26.0699997      -5.92359122E-08
   26.1299992      -6.08276665E-08
   26.1900005      -6.25080787E-08
   26.2500000      -6.42709210E-08
   26.3099995      -6.61027855E-08
   26.3700008      -6.79842387E-08
   26.4300003      -6.98889409E-08
   26.4899998      -7.17814643E-08
   26.5499992      -7.36153538E-08
   26.6100006      -7.53335172E-08
   26.6700001      -7.68722046E-08
   26.7299995      -7.81689735E-08
   26.7900009      -7.91731551E-08
   26.8500004      -7.98561146E-08
   26.9099998      -8.02182569E-08
   26.9699993      -8.02896452E-08
   27.0300007      -8.01232503E-08
   27.0900002      -7.97814863E-08
   27.1499996      -7.93190296E-08
   27.2099991      -7.87666039E-08
   27.2700005      -7.81201379E-08
   27.3299999      -7.73390667E-08
   27.3899994      -7.63546524E-08
   27.4500008      -7.50867386E-08
   27.5100002      -7.34647259E-08
   27.5699997      -7.14471540E-08
   27.6299992      -6.90344848E-08
   27.6900005      -6.62713973E-08
   27.7500000      -6.32378345E-08
   27.8099995      -6.00310699E-08
   27.8700008      -5.67438363E-08
   27.9300003      -5.34446194E-08
   27.9899998      -5.01656530E-08
   28.0499992      -4.69017003E-08
   28.1100006      -4.36195151E-08
   28.1700001      -4.02744647E-08
   28.2299995      -3.68288475E-08
   28.2900009      -3.32661045E-08
   28.3500004      -2.95969542E-08
   28.4099998      -2.58564121E-08
   28.4699993      -2.20938166E-08
   28.5300007      -1.83601365E-08
   28.5900002      -1.46973154E-08
   28.6499996      -1.11330527E-08
   28.7099991      -7.68205588E-09
   28.7700005      -4.35221859E-09
   28.8299999      -1.15240939E-09
   28.8899994       1.90175276E-09
   28.9500008       4.78676698E-09
   29.0100002       7.47539541E-09
   29.0699997       9.94461402E-09
   29.1299992       1.21843620E-08
   29.1900005       1.42036543E-08
   29.2500000       1.60313718E-08
   29.3099995       1.77107875E-08
   29.3700008       1.92889456E-08
   29.4300003       2.08038564E-08
   29.4899998       2.22733547E-08
   29.5499992       2.36892443E-08
   29.6100006       2.50188457E-08
   29.6700001       2.62139324E-08
   29.7299995       2.72245906E-08
   29.7900009       2.80140160E-08
   29.8500004       2.85696089E-08
   29.9099998       2.89067614E-08
   29.9699993       2.90638589E-08
   30.0300007       2.90897191E-08
   30.0900002       2.90273015E-08
   30.1499996       2.88988602E-08
   30.2099991       2.86976345E-08
   30.2700005       2.83892767E-08
   30.3299999       2.79231731E-08
   30.3899994       2.72506142E-08
   30.4500008       2.63442423E-08
   30.5100002       2.52125698E-08
   30.5699997       2.39045814E-08
   30.6299992       2.25024017E-08
   30.6900005       2.11035953E-08
   30.7500000       1.97979233E-08
   30.8099995       1.86449363E-08
   30.8700008       1.76586035E-08
   30.9300003       1.68030994E-08
   30.9899998       1.60007083E-08
   31.0499992       1.51496309E-08
   31.1100006       1.41469885E-08
   31.1700001       1.29111646E-08
   31.2299995       1.13981287E-08
   31.2900009       9.60800595E-09
   31.3500004       7.58076180E-09
   31.4099998       5.38265654E-09
   31.4699993       3.08746317E-09
   31.5300007       7.57796492E-10
   31.5900002      -1.56821101E-09
   31.6499996      -3.88126375E-09
   31.7099991      -6.19540907E-09
   31.7700005      -8.53494786E-09
   31.8299999      -1.09185372E-08
   31.8899994      -1.33462725E-08
   31.9500008      -1.57946083E-08
   32.0099983      -1.82212521E-08
   32.0699997      -2.05785700E-08
   32.1300011      -2.28308270E-08
   32.1899986      -2.49688430E-08
   32.2500000      -2.70162896E-08
   32.3100014      -2.90245037E-08
   32.3699989      -3.10566861E-08
   32.4300003      -3.31661951E-08
   32.4900017      -3.53759688E-08
   32.5499992      -3.76660907E-08
   32.6100006      -3.99740721E-08
   32.6699982      -4.22083417E-08
   32.7299995      -4.42710686E-08
   32.7900009      -4.60833149E-08
   32.8499985      -4.76046758E-08
   32.9099998      -4.88411409E-08
   32.9700012      -4.98387607E-08
   33.0299988      -5.06651503E-08
   33.0900002      -5.13847311E-08
   33.1500015      -5.20356416E-08
   33.2099991      -5.26155794E-08
   33.2700005      -5.30809885E-08
   33.3300018      -5.33595461E-08
   33.3899994      -5.33718172E-08
   33.4500008      -5.30548760E-08
   33.5099983      -5.23803152E-08
   33.5699997      -5.13610736E-08
   33.6300011      -5.00454753E-08
   33.6899986      -4.85012102E-08
   33.7500000      -4.67954457E-08
   33.8100014      -4.49783073E-08
   33.8699989      -4.30754987E-08
   33.9300003      -4.10920471E-08
   33.9900017      -3.90249042E-08
   34.0499992      -3.68784860E-08
   34.1100006      -3.46762405E-08
   34.1699982      -3.24629106E-08
   34.2299995      -3.02959435E-08
   34.2900009      -2.82292145E-08
   34.3499985      -2.62954476E-08
   34.4099998      -2.44947671E-08
   34.4700012      -2.27946320E-08
   34.5299988      -2.11421796E-08
   34.5900002      -1.94851548E-08
   34.6500015      -1.77940915E-08
   34.7099991      -1.60776299E-08
   34.7700005      -1.43851357E-08
   34.8300018      -1.27952360E-08
   34.8899994      -1.13939658E-08
   34.9500008      -1.02498996E-08
   35.0099983      -9.39472411E-09
   35.0699997      -8.81575879E-09
   35.1300011      -8.46280113E-09
   35.1899986      -8.26680147E-09
   35.2500000      -8.16398593E-09
   35.3100014      -8.11741696E-09
   35.3699989      -8.12901035E-09
   35.4300003      -8.23824831E-09
   35.4900017      -8.50818438E-09
   35.5499992      -9.00326391E-09
   35.6100006      -9.76604042E-09
   35.6699982      -1.08001244E-08
   35.7299995      -1.20648416E-08
   35.7900009      -1.34835521E-08
   35.8499985      -1.49634420E-08
   35.9099998      -1.64210707E-08
   35.9700012      -1.78059754E-08
   36.0299988      -1.91150225E-08
   36.0900002      -2.03927488E-08
   36.1500015      -2.17171241E-08
   36.2099991      -2.31747155E-08
   36.2700005      -2.48326479E-08
   36.3300018      -2.67159646E-08
   36.3899994      -2.87973947E-08
   36.4500008      -3.10026813E-08
   36.5099983      -3.32297247E-08
   36.5699997      -3.53753258E-08
   36.6300011      -3.73611151E-08
   36.6899986      -3.91506916E-08
   36.7500000      -4.07531289E-08
   36.8100014      -4.22126902E-08
   36.8699989      -4.35891536E-08
   36.9300003      -4.49359163E-08
   36.9900017      -4.62834961E-08
   37.0499992      -4.76335593E-08
   37.1100006      -4.89645977E-08
   37.1699982      -5.02462143E-08
   37.2299995      -5.14557570E-08
   37.2900009      -5.25907247E-08
   37.3499985      -5.36719575E-08
   37.4099998      -5.47363932E-08
   37.4700012      -5.58221132E-08
   37.5299988      -5.69513325E-08
   37.5900002      -5.81179052E-08
   37.6500015      -5.92842646E-08
   37.7099991      -6.03894748E-08
   37.7700005      -6.13661015E-08
   37.8300018      -6.21604954E-08
   37.8899994      -6.27498764E-08
   37.9500008      -6.31504022E-08
   38.0099983      -6.34135517E-08
   38.0699997      -6.36117008E-08
   38.1300011      -6.38173461E-08
   38.1899986      -6.40824496E-08
   38.2500000      -6.44242988E-08
   38.3100014      -6.48218972E-08
   38.3699989      -6.52238441E-08
   38.4300003      -6.55645991E-08
   38.4900017      -6.57836097E-08
   38.5499992      -6.58409149E-08
   38.6100006      -6.57246275E-08
   38.6699982      -6.54483046E-08
   38.7299995      -6.50402896E-08
   38.7900009      -6.45297860E-08
   38.8499985      -6.39351967E-08
   38.9099998      -6.32593711E-08
   38.9700012      -6.24932639E-08
   39.0299988      -6.16259754E-08
   39.0900002      -6.06565322E-08
   39.1500015      -5.96019483E-08
   39.2099991      -5.84975801E-08
   39.2700005      -5.73887569E-08
   39.3300018      -5.63164733E-08
   39.3899994      -5.53023725E-08
   39.4500008      -5.43388694E-08
   39.5099983      -5.33886144E-08
   39.5699997      -5.23941104E-08
   39.6300011      -5.12945206E-08
   39.6899986      -5.00440080E-08
   39.7500000      -4.86252532E-08
   39.8100014      -4.70534722E-08
   39.8699989      -4.53694717E-08
   39.9300003      -4.36242580E-08
   39.9900017      -4.18604102E-08
   40.0499992      -4.00967259E-08
   40.1100006      -3.83212324E-08
   40.1699982      -3.64949599E-08
   40.2299995      -3.45651685E-08
   40.2900009      -3.24836833E-08
   40.3499985      -3.02244167E-08
   40.4099998      -2.77943055E-08
   40.4700012      -2.52343071E-08
   40.5299988      -2.26098518E-08
   40.5900002      -1.99937435E-08
   40.6500015      -1.74466646E-08
   40.7099991      -1.50012980E-08
   40.7700005      -1.26550272E-08
   40.8300018      -1.03735367E-08
   40.8899994      -8.10427725E-09
   40.9500008      -5.79562309E-09
   41.0099983      -3.41562822E-09
   41.0699997      -9.64331281E-10
   41.1300011       1.52445523E-09
   41.1899986       3.99253697E-09
   41.2500000       6.37487396E-09
   41.3100014       8.61946159E-09
   41.3699989       1.07028644E-08
   41.4300003       1.26360735E-08
   41.4900017       1.44585268E-08
   41.5499992       1.62220708E-08
   41.6100006       1.79701249E-08
   41.6699982       1.97190069E-08
   41.7299995       2.14479119E-08
   41.7900009       2.31013022E-08
   41.8499985       2.46034997E-08
   41.9099998       2.58810964E-08
   41.9700012       2.68861555E-08
   42.0299988       2.76124759E-08
   42.0900002       2.80992118E-08
   42.1500015       2.84200130E-08
   42.2099991       2.86604731E-08
   42.2700005       2.88905415E-08
   42.3300018       2.91404199E-08
   42.3899994       2.93876159E-08
   42.4500008       2.95595282E-08
   42.5099983       2.95512681E-08
   42.5699997       2.92537674E-08
   42.6300011       2.85841431E-08
   42.6899986       2.75095022E-08
   42.7500000       2.60573856E-08
   42.8100014       2.43097578E-08
   42.8699989       2.23822951E-08
   42.9300003       2.03947277E-08
   42.9900017       1.84405859E-08
   43.0499992       1.65647567E-08
   43.1100006       1.47550532E-08
   43.1699982       1.29500135E-08
   43.2299995       1.10604663E-08
   43.2900009       8.99853525E-09
   43.3499985       6.70562095E-09
   43.4099998       4.17130019E-09
   43.4700012       1.43786127E-09
   43.5299988      -1.41053647E-09
   43.5900002      -4.27057634E-09
   43.6500015      -7.04755987E-09
   43.7099991      -9.68020064E-09
   43.7700005      -1.21555725E-08
   43.8300018      -1.45103867E-08
   43.8899994      -1.68187704E-08
   43.9500008      -1.91704679E-08
   44.0099983      -2.16459100E-08
   44.0699997      -2.42953355E-08
   44.1300011      -2.71279106E-08
   44.1899986      -3.01139771E-08
   44.2500000      -3.31998677E-08
   44.3100014      -3.63310129E-08
   44.3699989      -3.94764186E-08
   44.4300003      -4.26470841E-08
   44.4900017      -4.59024996E-08
   44.5499992      -4.93430541E-08
   44.6100006      -5.30908721E-08
   44.6699982      -5.72656234E-08
   44.7299995      -6.19640517E-08
   44.7900009      -6.72509373E-08
   44.8499985      -7.31659782E-08
   44.9099998      -7.97455328E-08
   44.9700012      -8.70533512E-08
   45.0299988      -9.52112345E-08
   45.0900002      -1.04420259E-07
   45.1500015      -1.14966639E-07
   45.2099991      -1.27210910E-07
   45.2700005      -1.41565181E-07
   45.3300018      -1.58467060E-07
   45.3899994      -1.78360438E-07
   45.4500008      -2.01691350E-07
   45.5099983      -2.28923042E-07
   45.5699997      -2.60568612E-07
   45.6300011      -2.97234237E-07
   45.6899986      -3.39663757E-07
   45.7500000      -3.88774509E-07
   45.8100014      -4.45677642E-07
   45.8699989      -5.11681094E-07
   45.9300003      -5.88278851E-07
   45.9900017      -6.77134267E-07
   46.0499992      -7.80067637E-07
   46.1100006      -8.99055578E-07
   46.1699982      -1.03624927E-06
   46.2299995      -1.19400920E-06
   46.2900009      -1.37495465E-06
   46.3499985      -1.58201783E-06
   46.4099998      -1.81849350E-06
   46.4700012      -2.08808001E-06
   46.5299988      -2.39490305E-06
   46.5900002      -2.74352692E-06
   46.6500015      -3.13895703E-06
   46.7099991      -3.58663920E-06
   46.7700005      -4.09246923E-06
   46.8300018      -4.66280972E-06
   46.8899994      -5.30452326E-06
   46.9500008      -6.02501450E-06
   47.0099983      -6.83227745E-06
   47.0699997      -7.73493048E-06
   47.1300011      -8.74224315E-06
   47.1899986      -9.86414398E-06
   47.2500000      -1.11112040E-05
   47.3100014      -1.24946146E-05
   47.3699989      -1.40261609E-05
   47.4300003      -1.57181985E-05
   47.4900017      -1.75836449E-05
   47.5499992      -1.96359706E-05
   47.6100006      -2.18891855E-05
   47.6699982      -2.43578379E-05
   47.7299995      -2.70569817E-05
   47.7900009      -3.00021275E-05
   47.8499985      -3.32091586E-05
   47.9099998      -3.66942259E-05
   47.9700012      -4.04736420E-05
   48.0299988      -4.45637306E-05
   48.0900002      -4.89807171E-05
   48.1500015      -5.37405795E-05
   48.2099991      -5.88589646E-05
   48.2700005      -6.43510866E-05
   48.3300018      -7.02316029E-05
   48.3899994      -7.65145160E-05
   48.4500008      -8.32130390E-05
   48.5099983      -9.03394030E-05
   48.5699997      -9.79047036E-05
   48.6300011      -1.05918698E-04
   48.6899986      -1.14389557E-04
   48.7500000      -1.23323756E-04
   48.8100014      -1.32725851E-04
   48.8699989      -1.42598365E-04
   48.9300003      -1.52941662E-04
   48.9900017      -1.63753881E-04
   49.0499992      -1.75030800E-04
   49.1100006      -1.86765770E-04
   49.1699982      -1.98949623E-04
   49.2299995      -2.11570601E-04
   49.2900009      -2.24614298E-04
   49.3499985      -2.38063658E-04
   49.4099998      -2.51898891E-04
   49.4700012      -2.66097602E-04
   49.5299988      -2.80634820E-04
   49.5900002      -2.95483100E-04
   49.6500015      -3.10612726E-04
   49.7099991      -3.25991801E-04
   49.7700005      -3.41586507E-04
   49.8300018      -3.57361307E-04
   49.8899994      -3.73279094E-04
   49.9500008      -3.89301538E-04
   50.0099983      -4.05389292E-04
   50.0699997      -4.21502511E-04
   50.1300011      -4.37600916E-04
   50.1899986      -4.53644287E-04
   50.2500000      -4.69592866E-04
   50.3100014      -4.85407567E-04
   50.3699989      -5.01050556E-04
   50.4300003      -5.16485248E-04
   50.4900017      -5.31677157E-04
   50.5499992      -5.46593801E-04
   50.6100006      -5.61205205E-04