 -0.750000000       0.00000000    
 -0.689999998       0.00000000    
 -0.629999995       0.00000000    
 -0.569999993       0.00000000    
 -0.509999990       0.00000000    
 -0.449999988       0.00000000    
 -0.389999986       0.00000000    
 -0.330000013       0.00000000    
 -0.270000011      -6.81526765E-26
 -0.209999993      -6.27084811E-25
 -0.150000006      -2.26065073E-24
  -9.00000036E-02  -1.07269395E-24
  -2.99999993E-02   2.70810521E-23
   2.99999993E-02   1.47215682E-22
   9.00000036E-02   4.36066203E-22
  0.150000006       7.85845210E-22
  0.209999993       4.71217542E-22
  0.270000011      -2.23509392E-21
  0.330000013      -9.44368760E-21
  0.389999986      -2.06992481E-20
  0.449999988      -2.75984191E-20
  0.509999990      -9.67832417E-21
  0.569999993       5.98330239E-20
  0.629999995       1.89413555E-19
  0.689999998       3.28328199E-19
  0.750000000       3.36816365E-19
  0.810000002       1.86990769E-20
  0.870000005      -7.40392564E-19
  0.930000007      -1.75451749E-18
  0.990000010      -2.38170341E-18
   1.04999995      -1.66122558E-18
   1.11000001       1.09568251E-18
   1.16999996       5.40662040E-18
   1.23000002       8.99850249E-18
   1.28999996       8.31009962E-18
   1.35000002       6.08829229E-19
   1.40999997      -1.29002679E-17
   1.47000003      -2.50209595E-17
   1.52999997      -2.42581848E-17
   1.59000003      -1.63198982E-18
   1.64999998       3.95181269E-17
   1.71000004       7.70126789E-17
   1.76999998       7.45043828E-17
   1.83000004       1.35217829E-18
   1.88999999      -1.38015773E-16
   1.95000005      -2.82222140E-16
   2.00999999      -3.20343281E-16
   2.06999993      -1.41423705E-16
   2.13000011       2.84641875E-16
   2.19000006       8.34182028E-16
   2.25000000       1.21982125E-15
   2.30999994       1.08433558E-15
   2.36999989       1.90673734E-16
   2.43000007      -1.36517602E-15
   2.49000001      -3.03989325E-15
   2.54999995      -3.94184781E-15
   2.60999990      -3.17945061E-15
   2.67000008      -3.63920612E-16
   2.73000002       3.95469561E-15
   2.78999996       8.18780756E-15
   2.84999990       1.01313518E-14
   2.91000009       7.88365074E-15
   2.97000003       9.54329575E-16
   3.02999997      -8.95188888E-15
   3.08999991      -1.80081119E-14
   3.15000010      -2.14672318E-14
   3.21000004      -1.57683450E-14
   3.26999998      -7.63563568E-16
   3.32999992       1.90652056E-14
   3.39000010       3.53957721E-14
   3.45000005       3.91318210E-14
   3.50999999       2.48751367E-14
   3.56999993      -5.14170683E-15
   3.63000011      -3.99811714E-14
   3.69000006      -6.33000664E-14
   3.75000000      -6.05870267E-14
   3.80999994      -2.75265091E-14
   3.86999989       2.48848319E-14
   3.93000007       7.23905528E-14
   3.99000001       8.77257726E-14
   4.05000019       5.56556076E-14
   4.11000013      -1.44945244E-14
   4.17000008      -8.69686606E-14
   4.23000002      -1.12888004E-13
   4.28999996      -5.58489785E-14
   4.34999990       8.11119292E-14
   4.40999985       2.42346155E-13
   4.46999979       3.32289616E-13
   4.53000021       2.55354657E-13
   4.59000015      -3.02197944E-14
   4.65000010      -4.69213102E-13
   4.71000004      -9.02926171E-13
   4.76999998      -1.11332092E-12
   4.82999992      -9.09644755E-13
   4.88999987      -2.26253247E-13
   4.94999981       8.12283563E-13
   5.01000023       1.89642334E-12
   5.07000017       2.61926461E-12
   5.13000011       2.62274924E-12
   5.19000006       1.74825345E-12
   5.25000000       1.27648746E-13
   5.30999994      -1.83074823E-12
   5.36999989      -3.56563845E-12
   5.42999983      -4.55255581E-12
   5.48999977      -4.48503994E-12
   5.55000019      -3.37215065E-12
   5.61000013      -1.51178397E-12
   5.67000008       6.45527522E-13
   5.73000002       2.67685852E-12
   5.78999996       4.32449302E-12
   5.84999990       5.52520659E-12
   5.90999985       6.32125819E-12
   5.96999979       6.70765266E-12
   6.03000021       6.51062104E-12
   6.09000015       5.38460119E-12
   6.15000010       2.95789825E-12
   6.21000004      -9.24910322E-13
   6.26999998      -5.98206337E-12
   6.32999992      -1.14260571E-11
   6.38999987      -1.61221141E-11
   6.44999981      -1.89421274E-11
   6.51000023      -1.91736921E-11
   6.57000017      -1.67882670E-11
   6.63000011      -1.24078013E-11
   6.69000006      -6.93294987E-12
   6.75000000      -9.62471314E-13
   6.80999994       5.73110266E-12
   6.86999989       1.43691101E-11
   6.92999983       2.67750318E-11
   6.98999977       4.44283603E-11
   7.05000019       6.72121664E-11
   7.11000013       9.22833060E-11
   7.17000008       1.13531046E-10
   7.23000002       1.21954238E-10
   7.28999996       1.07016861E-10
   7.34999990       5.87325813E-11
   7.40999985      -3.00062475E-11
   7.46999979      -1.61413424E-10
   7.53000021      -3.31551842E-10
   7.59000015      -5.30028132E-10
   7.65000010      -7.40547290E-10
   7.71000004      -9.42033340E-10
   7.76999998      -1.10997678E-09
   7.82999992      -1.21779387E-09
   7.88999987      -1.23819810E-09
   7.94999981      -1.14478105E-09
   8.01000023      -9.14060827E-10
   8.06999969      -5.28130761E-10
   8.13000011       2.22413962E-11
   8.18999958       7.34541317E-10
   8.25000000       1.59217051E-09
   8.31000042       2.56356425E-09
   8.36999989       3.60325103E-09
   8.43000031       4.65492667E-09
   8.48999977       5.65615688E-09
   8.55000019       6.54398713E-09
   8.60999966       7.26063698E-09
   8.67000008       7.75856979E-09
   8.72999954       8.00449751E-09
   8.78999996       7.98215183E-09
   8.85000038       7.69377451E-09
   8.90999985       7.16029147E-09
   8.97000027       6.41998543E-09
   9.02999973       5.52542456E-09
   9.09000015       4.53850646E-09
   9.14999962       3.52379548E-09
   9.21000004       2.54084620E-09
   9.27000046       1.63668257E-09
   9.32999992       8.39892100E-10
   9.39000034       1.57680397E-10
   9.44999981      -4.23278329E-10
   9.51000023      -9.32168120E-10
   9.56999969      -1.40637912E-09
   9.63000011      -1.88240312E-09
   9.68999958      -2.38710318E-09
   9.75000000      -2.93104074E-09
   9.81000042      -3.50503537E-09
   9.86999989      -4.08040801E-09
   9.93000031      -4.61266048E-09
   9.98999977      -5.04778042E-09
   10.0500002      -5.33004929E-09
   10.1099997      -5.41013589E-09
   10.1700001      -5.25234700E-09
   10.2299995      -4.84005769E-09
   10.2900000      -4.17856949E-09
   10.3500004      -3.29490990E-09
   10.4099998      -2.23443619E-09
   10.4700003      -1.05456677E-09
   10.5299997       1.83498050E-10
   10.5900002       1.42370338E-09
   10.6499996       2.62303468E-09
   10.7100000       3.75676068E-09
   10.7700005       4.81989737E-09
   10.8299999       5.82466608E-09
   10.8900003       6.79475853E-09
   10.9499998       7.75809994E-09
   11.0100002       8.74017481E-09
   11.0699997       9.75967041E-09
   11.1300001       1.08272875E-08
   11.1899996       1.19473400E-08
   11.2500000       1.31207125E-08
   11.3100004       1.43473002E-08
   11.3699999       1.56263802E-08
   11.4300003       1.69544219E-08
   11.4899998       1.83211863E-08
   11.5500002       1.97060253E-08
   11.6099997       2.10765627E-08
   11.6700001       2.23913723E-08
   11.7299995       2.36067343E-08
   11.7900000       2.46860203E-08
   11.8500004       2.56088857E-08
   11.9099998       2.63772186E-08
   11.9700003       2.70156022E-08
   12.0299997       2.75656884E-08
   12.0900002       2.80758723E-08
   12.1499996       2.85891790E-08
   12.2100000       2.91329219E-08
   12.2700005       2.97129947E-08
   12.3299999       3.03143288E-08
   12.3900003       3.09069428E-08
   12.4499998       3.14554747E-08
   12.5100002       3.19290727E-08
   12.5699997       3.23086198E-08
   12.6300001       3.25893552E-08
   12.6899996       3.27785514E-08
   12.7500000       3.28895133E-08
   12.8100004       3.29344374E-08
   12.8699999       3.29189405E-08
   12.9300003       3.28403971E-08
   12.9899998       3.26909593E-08
   13.0500002       3.24643139E-08
   13.1099997       3.21638218E-08
   13.1700001       3.18089910E-08
   13.2299995       3.14374269E-08
   13.2900000       3.11007220E-08
   13.3500004       3.08545829E-08
   13.4099998       3.07455181E-08
   13.4700003       3.07977821E-08
   13.5299997       3.10046318E-08
   13.5900002       3.13270903E-08
   13.6499996       3.17015001E-08
   13.7100000       3.20543307E-08
   13.7700005       3.23207310E-08
   13.8299999       3.24615037E-08
   13.8900003       3.24735581E-08
   13.9499998       3.23905347E-08
   14.0100002       3.22730003E-08
   14.0699997       3.21909539E-08
   14.1300001       3.22035518E-08
   14.1899996       3.23419407E-08
   14.2500000       3.26000560E-08
   14.3100004       3.29358016E-08
   14.3699999       3.32818857E-08
   14.4300003       3.35628485E-08
   14.4899998       3.37132953E-08
   14.5500002       3.36922739E-08
   14.6099997       3.34903447E-08
   14.6700001       3.31280177E-08
   14.7299995       3.26467315E-08
   14.7900000       3.20952758E-08
   14.8500004       3.15153628E-08
   14.9099998       3.09298116E-08
   14.9700003       3.03358796E-08
   15.0299997       2.97046281E-08
   15.0900002       2.89860527E-08
   15.1499996       2.81184409E-08
   15.2100000       2.70399614E-08
   15.2700005       2.57003130E-08
   15.3299999       2.40705660E-08
   15.3900003       2.21496030E-08
   15.4499998       1.99662136E-08
   15.5100002       1.75762285E-08
   15.5699997       1.50549564E-08
   15.6300001       1.24858399E-08
   15.6899996       9.94730520E-09
   15.7500000       7.50032569E-09
   15.8100004       5.17954346E-09
   15.8699999       2.99022784E-09
   15.9300003       9.12094511E-10
   15.9899998      -1.09063969E-09
   16.0499992      -3.05525538E-09
   16.1100006      -5.00596720E-09
   16.1700001      -6.94242530E-09
   16.2299995      -8.83424089E-09
   16.2900009      -1.06230935E-08
   16.3500004      -1.22322472E-08
   16.4099998      -1.35815768E-08
   16.4699993      -1.46048764E-08
   16.5300007      -1.52655435E-08
   16.5900002      -1.55668687E-08
   16.6499996      -1.55542246E-08
   16.7099991      -1.53082347E-08
   16.7700005      -1.49302490E-08
   16.8299999      -1.45234740E-08
   16.8899994      -1.41743470E-08
   16.9500008      -1.39388385E-08
   17.0100002      -1.38369565E-08
   17.0699997      -1.38564458E-08
   17.1299992      -1.39640122E-08
   17.1900005      -1.41202179E-08
   17.2500000      -1.42932866E-08
   17.3099995      -1.44675854E-08
   17.3700008      -1.46445149E-08
   17.4300003      -1.48361901E-08
   17.4899998      -1.50548622E-08
   17.5499992      -1.53025930E-08
   17.6100006      -1.55656750E-08
   17.6700001      -1.58166547E-08
   17.7299995      -1.60241385E-08
   17.7900009      -1.61675704E-08
   17.8500004      -1.62522156E-08
   17.9099998      -1.63190492E-08
   17.9699993      -1.64455543E-08
   18.0300007      -1.67360241E-08
   18.0900002      -1.73030781E-08
   18.1499996      -1.82445987E-08
   18.2099991      -1.96216785E-08
   18.2700005      -2.14428955E-08
   18.3299999      -2.36586626E-08
   18.3899994      -2.61668109E-08
   18.4500008      -2.88278876E-08
   18.5100002      -3.14863442E-08
   18.5699997      -3.39926025E-08
   18.6299992      -3.62211381E-08
   18.6900005      -3.80811507E-08
   18.7500000      -3.95188522E-08
   18.8099995      -4.05128233E-08
   18.8700008      -4.10657286E-08
   18.9300003      -4.11963477E-08
   18.9899998      -4.09348644E-08
   19.0499992      -4.03223943E-08
   19.1100006      -3.94136208E-08
   19.1700001      -3.82795982E-08
   19.2299995      -3.70076165E-08
   19.2900009      -3.56958871E-08
   19.3500004      -3.44430653E-08
   19.4099998      -3.33347607E-08
   19.4699993      -3.24309468E-08
   19.5300007      -3.17583435E-08
   19.5900002      -3.13106803E-08
   19.6499996      -3.10572972E-08
   19.7099991      -3.09576720E-08
   19.7700005      -3.09774322E-08
   19.8299999      -3.11006971E-08
   19.8899994      -3.13346753E-08
   19.9500008      -3.17050883E-08
   20.0100002      -3.22439178E-08
   20.0699997      -3.29735457E-08
   20.1299992      -3.38924266E-08
   20.1900005      -3.49667211E-08
   20.2500000      -3.61303840E-08
   20.3099995      -3.72936704E-08
   20.3700008      -3.83575589E-08
   20.4300003      -3.92302582E-08
   20.4899998      -3.98417122E-08
   20.5499992      -4.01527203E-08
   20.6100006      -4.01569551E-08
   20.6700001      -3.98759816E-08
   20.7299995      -3.93492634E-08
   20.7900009      -3.86222787E-08
   20.8500004      -3.77363705E-08
   20.9099998      -3.67229909E-08
   20.9699993      -3.56035095E-08
   21.0300007      -3.43936080E-08
   21.0900002      -3.31096466E-08
   21.1499996      -3.17737268E-08
   21.2099991      -3.04149133E-08
   21.2700005      -2.90657027E-08
   21.3299999      -2.77549539E-08
   21.3899994      -2.65000804E-08
   21.4500008      -2.53015475E-08
   21.5100002      -2.41420253E-08
   21.5699997      -2.29906032E-08
   21.6299992      -2.18106617E-08
   21.6900005      -2.05687574E-08
   21.7500000      -1.92416607E-08
   21.8099995      -1.78195716E-08
   21.8700008      -1.63050906E-08
   21.9300003      -1.47090287E-08
   21.9899998      -1.30450788E-08
   22.0499992      -1.13254837E-08
   22.1100006      -9.55914992E-09
   22.1700001      -7.75244757E-09
   22.2299995      -5.91189409E-09
   22.2900009      -4.04718570E-09
   22.3500004      -2.17312301E-09
   22.4099998      -3.09513082E-10
   22.4699993       1.52090385E-09
   22.5300007       3.29564043E-09
   22.5900002       4.99543651E-09
   22.6499996       6.60581767E-09
   22.7099991       8.11665402E-09
   22.7700005       9.52005141E-09
   22.8299999       1.08076685E-08
   22.8899994       1.19689654E-08
   22.9500008       1.29916220E-08
   23.0100002       1.38645246E-08
   23.0699997       1.45826098E-08
   23.1299992       1.51518300E-08
   23.1900005       1.55921533E-08
   23.2500000       1.59368998E-08
   23.3099995       1.62279434E-08
   23.3700008       1.65077676E-08
   23.4300003       1.68107182E-08
   23.4899998       1.71561592E-08
   23.5499992       1.75458581E-08
   23.6100006       1.79663981E-08
   23.6700001       1.83957436E-08
   23.7299995       1.88116154E-08
   23.7900009       1.91986622E-08
   23.8500004       1.95518837E-08
   23.9099998       1.98750705E-08
   23.9699993       2.01747987E-08
   24.0300007       2.04521591E-08
   24.0900002       2.06952073E-08
   24.1499996       2.08750386E-08
   24.2099991       2.09472493E-08
   24.2700005       2.08588542E-08
   24.3299999       2.05588488E-08
   24.3899994       2.00094998E-08
   24.4500008       1.91949940E-08
   24.5100002       1.81249202E-08
   24.5699997       1.68314696E-08
   24.6299992       1.53611879E-08
   24.6900005       1.37636453E-08
   24.7500000       1.20802852E-08
   24.8099995       1.03366302E-08
   24.8700008       8.53986393E-09
   24.9300003       6.68219791E-09
   24.9899998       4.74862993E-09
   25.0499992       2.72644551E-09
   25.1100006       6.13465945E-10
   25.1700001      -1.57735203E-09
   25.2299995      -3.81800636E-09
   25.2900009      -6.06974604E-09
   25.3500004      -8.28989943E-09
   25.4099998      -1.04390878E-08
   25.4699993      -1.24869288E-08
   25.5300007      -1.44150558E-08
   25.5900002      -1.62171929E-08
   25.6499996      -1.78966637E-08
   25.7099991      -1.94622380E-08
   25.7700005      -2.09233555E-08
   25.8299999      -2.22858745E-08
   25.8899994      -2.35493420E-08
   25.9500008      -2.47064555E-08
   26.0100002      -2.57448391E-08
   26.0699997      -2.66505484E-08
   26.1299992      -2.74122858E-08
   26.1900005      -2.80251022E-08
   26.2500000      -2.84926944E-08
   26.3099995      -2.88280013E-08
   26.3700008      -2.90522806E-08
   26.4300003      -2.91931190E-08
   26.4899998      -2.92816598E-08
   26.5499992      -2.93490974E-08
   26.6100006      -2.94225142E-08
   26.6700001      -2.95204305E-08
   26.7299995      -2.96490086E-08
   26.7900009      -2.98003489E-08
   26.8500004      -2.99541085E-08
   26.9099998      -3.00829335E-08
   26.9699993      -3.01609084E-08
   27.0300007      -3.01729202E-08
   27.0900002      -3.01222691E-08
   27.1499996      -3.00341085E-08
   27.2099991      -2.99532879E-08
   27.2700005      -2.99369809E-08
   27.3299999      -3.00440206E-08
   27.3899994      -3.03238288E-08
   27.4500008      -3.08081383E-08
   27.5100002      -3.15077706E-08
   27.5699997      -3.24151657E-08
   27.6299992      -3.35114123E-08
   27.6900005      -3.47750841E-08
   27.7500000      -3.61895403E-08
   27.8099995      -3.77461014E-08
   27.8700008      -3.94421527E-08
   27.9300003      -4.12753742E-08
   27.9899998      -4.32368310E-08
   28.0499992      -4.53060274E-08
   28.1100006      -4.74501682E-08
   28.1700001      -4.96279711E-08
   28.2299995      -5.17965653E-08
   28.2900009      -5.39187788E-08
   28.3500004      -5.59682540E-08
   28.4099998      -5.79307731E-08
   28.4699993      -5.98018346E-08
   28.5300007      -6.15819218E-08
   28.5900002      -6.32716919E-08
   28.6499996      -6.48693188E-08
   28.7099991      -6.63710367E-08
   28.7700005      -6.77747352E-08
   28.8299999      -6.90849760E-08
   28.8899994      -7.03167231E-08
   28.9500008      -7.14953714E-08
   29.0100002      -7.26514671E-08
   29.0699997      -7.38110160E-08
   29.1299992      -7.49838236E-08
   29.1900005      -7.61543930E-08
   29.2500000      -7.72793030E-08
   29.3099995      -7.82934038E-08
   29.3700008      -7.91242911E-08
   29.4300003      -7.97109152E-08
   29.4899998      -8.00207189E-08
   29.5499992      -8.00592446E-08
   29.6100006      -7.98684994E-08
   29.6700001      -7.95138106E-08
   29.7299995      -7.90627368E-08
   29.7900009      -7.85625289E-08
   29.8500004      -7.80233549E-08
   29.9099998      -7.74131550E-08
   29.9699993      -7.66664385E-08
   30.0300007      -7.57048966E-08
   30.0900002      -7.44638058E-08
   30.1499996      -7.29156469E-08
   30.2099991      -7.10831927E-08
   30.2700005      -6.90370143E-08
   30.3299999      -6.68776821E-08
   30.3899994      -6.47081393E-08
   30.4500008      -6.26050607E-08
   30.5100002      -6.05989854E-08
   30.5699997      -5.86699720E-08
   30.6299992      -5.67605767E-08
   30.6900005      -5.48019052E-08
   30.7500000      -5.27440562E-08
   30.8099995      -5.05804429E-08
   30.8700008      -4.83572720E-08
   30.9300003      -4.61643239E-08
   30.9899998      -4.41093349E-08
   31.0499992      -4.22840536E-08
   31.1100006      -4.07331697E-08
   31.1700001      -3.94369906E-08
   31.2299995      -3.83144396E-08
   31.2900009      -3.72464584E-08
   31.3500004      -3.61129082E-08
   31.4099998      -3.48312774E-08
   31.4699993      -3.33845414E-08
   31.5300007      -3.18287618E-08
   31.5900002      -3.02774126E-08
   31.6499996      -2.88671380E-08
   31.7099991      -2.77154868E-08
   31.7700005      -2.68841127E-08
   31.8299999      -2.63592632E-08
   31.8899994      -2.60562203E-08
   31.9500008      -2.58469282E-08
   32.0099983      -2.56027128E-08
   32.0699997      -2.52388936E-08
   32.1300011      -2.47469032E-08
   32.1899986      -2.42029508E-08
   32.2500000      -2.37491946E-08
   32.3100014      -2.35523050E-08
   32.3699989      -2.37518165E-08
   32.4300003      -2.44146268E-08
   32.4900017      -2.55105093E-08
   32.5499992      -2.69170215E-08
   32.6100006      -2.84527442E-08
   32.6699982      -2.99285894E-08
   32.7299995      -3.12010613E-08
   32.7900009      -3.22108491E-08
   32.8499985      -3.29949650E-08
   32.9099998      -3.36691173E-08
   32.9700012      -3.43864244E-08
   33.0299988      -3.52857832E-08
   33.0900002      -3.64461030E-08
   33.1500015      -3.78605911E-08
   33.2099991      -3.94386426E-08
   33.2700005      -4.10340988E-08
   33.3300018      -4.24902069E-08
   33.3899994      -4.36864092E-08
   33.4500008      -4.45717774E-08
   33.5099983      -4.51746196E-08
   33.5699997      -4.55858782E-08
   33.6300011      -4.59228851E-08
   33.6899986      -4.62861891E-08
   33.7500000      -4.67241854E-08
   33.8100014      -4.72169539E-08
   33.8699989      -4.76838444E-08
   33.9300003      -4.80114046E-08
   33.9900017      -4.80916782E-08
   34.0499992      -4.78579487E-08
   34.1100006      -4.73063828E-08
   34.1699982      -4.64969503E-08
   34.2299995      -4.55337172E-08
   34.2900009      -4.45313013E-08
   34.3499985      -4.35785452E-08
   34.4099998      -4.27111821E-08
   34.4700012      -4.19021049E-08
   34.5299988      -4.10721590E-08
   34.5900002      -4.01173779E-08
   34.6500015      -3.89435506E-08
   34.7099991      -3.74967968E-08
   34.7700005      -3.57805874E-08
   34.8300018      -3.38546968E-08
   34.8899994      -3.18174393E-08
   34.9500008      -2.97779277E-08
   35.0099983      -2.78276602E-08
   35.0699997      -2.60202011E-08
   35.1300011      -2.43644607E-08
   35.1899986      -2.28323973E-08
   35.2500000      -2.13773728E-08
   35.3100014      -1.99563708E-08
   35.3699989      -1.85485280E-08
   35.4300003      -1.71641670E-08
   35.4900017      -1.58420903E-08
   35.5499992      -1.46369219E-08
   35.6100006      -1.36016416E-08
   35.6699982      -1.27716904E-08
   35.7299995      -1.21560015E-08
   35.7900009      -1.17374146E-08
   35.8499985      -1.14814034E-08
   35.9099998      -1.13493215E-08
   35.9700012      -1.13113066E-08
   36.0299988      -1.13547678E-08
   36.0900002      -1.14863896E-08
   36.1500015      -1.17279191E-08
   36.2099991      -1.21077974E-08
   36.2700005      -1.26515642E-08
   36.3300018      -1.33738318E-08
   36.3899994      -1.42738212E-08
   36.4500008      -1.53350967E-08
   36.5099983      -1.65288210E-08
   36.5699997      -1.78186657E-08
   36.6300011      -1.91651619E-08
   36.6899986      -2.05277573E-08
   36.7500000      -2.18641940E-08
   36.8100014      -2.31285480E-08
   36.8699989      -2.42702018E-08
   36.9300003      -2.52360994E-08
   36.9900017      -2.59769948E-08
   37.0499992      -2.64563926E-08
   37.1100006      -2.66589453E-08
   37.1699982      -2.65946429E-08
   37.2299995      -2.62962967E-08
   37.2900009      -2.58102730E-08
   37.3499985      -2.51830645E-08
   37.4099998      -2.44479974E-08
   37.4700012      -2.36164137E-08
   37.5299988      -2.26762182E-08
   37.5900002      -2.15981899E-08
   37.6500015      -2.03479704E-08
   37.7099991      -1.88999518E-08
   37.7700005      -1.72487109E-08
   37.8300018      -1.54145301E-08
   37.8899994      -1.34412739E-08
   37.9500008      -1.13872485E-08
   38.0099983      -9.31186683E-09
   38.0699997      -7.26228322E-09
   38.1300011      -5.26433386E-09
   38.1899986      -3.32081163E-09
   38.2500000      -1.41769751E-09
   38.3100014       4.63764110E-10
   38.3699989       2.33342123E-09
   38.4300003       4.18198809E-09
   38.4900017       5.97816241E-09
   38.5499992       7.67440955E-09
   38.6100006       9.21957533E-09
   38.6699982       1.05738316E-08
   38.7299995       1.17204664E-08
   38.7900009       1.26700632E-08
   38.8499985       1.34554403E-08
   38.9099998       1.41192098E-08
   38.9700012       1.46987009E-08
   39.0299988       1.52139581E-08
   39.0900002       1.56633000E-08
   39.1500015       1.60278120E-08
   39.2099991       1.62826037E-08
   39.2700005       1.64099916E-08
   39.3300018       1.64091922E-08
   39.3899994       1.62988130E-08
   39.4500008       1.61114517E-08
   39.5099983       1.58830318E-08
   39.5699997       1.56414028E-08
   39.6300011       1.53988200E-08
   39.6899986       1.51510733E-08
   39.7500000       1.48833816E-08
   39.8100014       1.45804595E-08
   39.8699989       1.42367025E-08
   39.9300003       1.38624205E-08
   39.9900017       1.34834544E-08
   40.0499992       1.31337980E-08
   40.1100006       1.28433948E-08
   40.1699982       1.26251818E-08
   40.2299995       1.24662067E-08
   40.2900009       1.23267458E-08
   40.3499985       1.21488934E-08
   40.4099998       1.18727996E-08
   40.4700012       1.14555636E-08
   40.5299988       1.08862590E-08
   40.5900002       1.01913322E-08
   40.6500015       9.42779099E-09
   40.7099991       8.66598970E-09
   40.7700005       7.96780419E-09
   40.8300018       7.36782946E-09
   40.8899994       6.86412882E-09
   40.9500008       6.42146203E-09
   41.0099983       5.98531980E-09
   41.0699997       5.50125456E-09
   41.1300011       4.93250463E-09
   41.1899986       4.26998259E-09
   41.2500000       3.53186702E-09
   41.3100014       2.75378320E-09
   41.3699989       1.97364947E-09
   41.4300003       1.21665444E-09
   41.4900017       4.85373186E-10
   41.5499992      -2.41947407E-10
   41.6100006      -1.00461173E-09
   41.6699982      -1.84654447E-09
   41.7299995      -2.80141199E-09
   41.7900009      -3.88063892E-09
   41.8499985      -5.06837905E-09
   41.9099998      -6.32544239E-09
   41.9700012      -7.60137464E-09
   42.0299988      -8.85113760E-09
   42.0900002      -1.00510054E-08
   42.1500015      -1.12081615E-08
   42.2099991      -1.23601840E-08
   42.2700005      -1.35638336E-08
   42.3300018      -1.48762682E-08
   42.3899994      -1.63346563E-08
   42.4500008      -1.79411561E-08
   42.5099983      -1.96586445E-08
   42.5699997      -2.14191491E-08
   42.6300011      -2.31425492E-08
   42.6899986      -2.47595420E-08
   42.7500000      -2.62313442E-08
   42.8100014      -2.75597820E-08
   42.8699989      -2.87846333E-08
   42.9300003      -2.99693887E-08
   42.9900017      -3.11802140E-08
   43.0499992      -3.24647687E-08
   43.1100006      -3.38373098E-08
   43.1699982      -3.52741871E-08
   43.2299995      -3.67206567E-08
   43.2900009      -3.81065846E-08
   43.3499985      -3.93663342E-08
   43.4099998      -4.04569178E-08
   43.4700012      -4.13692725E-08
   43.5299988      -4.21294786E-08
   43.5900002      -4.27897362E-08
   43.6500015      -4.34119762E-08
   43.7099991      -4.40492371E-08
   43.7700005      -4.47306903E-08
   43.8300018      -4.54548044E-08
   43.8899994      -4.61925893E-08
   43.9500008      -4.68994017E-08
   44.0099983      -4.75310777E-08
   44.0699997      -4.80590359E-08
   44.1300011      -4.84796949E-08
   44.1899986      -4.88156608E-08
   44.2500000      -4.91090368E-08
   44.3100014      -4.94096071E-08
   44.3699989      -4.97617272E-08
   44.4300003      -5.01938722E-08
   44.4900017      -5.07133819E-08
   44.5499992      -5.13073282E-08
   44.6100006      -5.19486569E-08
   44.6699982      -5.26056283E-08
   44.7299995      -5.32519095E-08
   44.7900009      -5.38748033E-08
   44.8499985      -5.44796492E-08
   44.9099998      -5.50892167E-08
   44.9700012      -5.57381448E-08
   45.0299988      -5.64636409E-08
   45.0900002      -5.72947485E-08
   45.1500015      -5.82431809E-08
   45.2099991      -5.92984541E-08
   45.2700005      -6.04291728E-08
   45.3300018      -6.15901214E-08
   45.3899994      -6.27332426E-08
   45.4500008      -6.38187814E-08
   45.5099983      -6.48231619E-08
   45.5699997      -6.57409629E-08
   45.6300011      -6.65809026E-08
   45.6899986      -6.73573695E-08
   45.7500000      -6.80806735E-08
   45.8100014      -6.87490882E-08
   45.8699989      -6.93446935E-08
   45.9300003      -6.98339591E-08
   45.9900017      -7.01723479E-08
   46.0499992      -7.03117990E-08
   46.1100006      -7.02092962E-08
   46.1699982      -6.98347122E-08
   46.2299995      -6.91763802E-08
   46.2900009      -6.82428478E-08
   46.3499985      -6.70601779E-08
   46.4099998      -6.56652333E-08
   46.4700012      -6.40966249E-08
   46.5299988      -6.23861922E-08
   46.5900002      -6.05536385E-08
   46.6500015      -5.86067799E-08
   46.7099991      -5.65473961E-08
   46.7700005      -5.43810934E-08
   46.8300018      -5.21276107E-08
   46.8899994      -4.98277473E-08
   46.9500008      -4.75439563E-08
   47.0099983      -4.53541595E-08
   47.0699997      -4.33410641E-08
   47.1300011      -4.15812629E-08
   47.1899986      -4.01387332E-08
   47.2500000      -3.90656290E-08
   47.3100014      -3.84100574E-08
   47.3699989      -3.82277143E-08
   47.4300003      -3.85926135E-08
   47.4900017      -3.96030941E-08
   47.5499992      -4.13817389E-08
   47.6100006      -4.40709087E-08
   47.6699982      -4.78274131E-08
   47.7299995      -5.28200523E-08
   47.7900009      -5.92321143E-08
   47.8499985      -6.72690419E-08
   47.9099998      -7.71699220E-08
   47.9700012      -8.92206700E-08
   48.0299988      -1.03767221E-07
   48.0900002      -1.21226790E-07
   48.1500015      -1.42096269E-07
   48.2099991      -1.66957108E-07
   48.2700005      -1.96477501E-07
   48.3300018      -2.31414177E-07
   48.3899994      -2.72617541E-07
   48.4500008      -3.21042705E-07
   48.5099983      -3.77768231E-07
   48.5699997      -4.44020372E-07
   48.6300011      -5.21198672E-07
   48.6899986      -6.10898837E-07
   48.7500000      -7.14929513E-07
   48.8100014      -8.35324329E-07
   48.8699989      -9.74351906E-07
   48.9300003      -1.13452904E-06
   48.9900017      -1.31864022E-06
   49.0499992      -1.52976656E-06
   49.1100006      -1.77132233E-06
   49.1699982      -2.04709841E-06
   49.2299995      -2.36130450E-06
   49.2900009      -2.71860972E-06
   49.3499985      -3.12417342E-06
   49.4099998      -3.58366560E-06
   49.4700012      -4.10327630E-06
   49.5299988      -4.68972212E-06
   49.5900002      -5.35025129E-06
   49.6500015      -6.09266090E-06
   49.7099991      -6.92532240E-06
   49.7700005      -7.85722023E-06
   49.8300018      -8.89799412E-06
   49.8899994      -1.00579737E-05
   49.9500008      -1.13482029E-05
   50.0099983      -1.27804506E-05
   50.0699997      -1.43672014E-05
   50.1300011      -1.61216285E-05
   50.1899986      -1.80575516E-05
   50.2500000      -2.01893945E-05
   50.3100014      -2.25321273E-05
   50.3699989      -2.51012298E-05
   50.4300003      -2.79126398E-05
   50.4900017      -3.09827192E-05
   50.5499992      -3.43282154E-05
   50.6100006      -3.79661906E-05