 -0.750000000       0.00000000    
 -0.689999998       0.00000000    
 -0.629999995       0.00000000    
 -0.569999993       0.00000000    
 -0.509999990       0.00000000    
 -0.449999988       0.00000000    
 -0.389999986       0.00000000    
 -0.330000013       0.00000000    
 -0.270000011      -8.20539932E-25
 -0.209999993      -7.82449912E-24
 -0.150000006      -3.24901168E-23
  -9.00000036E-02  -5.94893198E-23
  -2.99999993E-02   7.05985703E-23
   2.99999993E-02   8.02330560E-22
   9.00000036E-02   2.62169503E-21
  0.150000006       4.67826213E-21
  0.209999993       2.10450419E-21
  0.270000011      -1.55401145E-20
  0.330000013      -5.82842639E-20
  0.389999986      -1.15057566E-19
  0.449999988      -1.21590833E-19
  0.509999990       5.42708482E-20
  0.569999993       5.53352087E-19
  0.629999995       1.34259075E-18
  0.689999998       1.94573353E-18
  0.750000000       1.29210544E-18
  0.810000002      -1.95704336E-18
  0.870000005      -8.30572549E-18
  0.930000007      -1.57194542E-17
  0.990000010      -1.83533395E-17
   1.04999995      -7.51139470E-18
   1.11000001       2.35651167E-17
   1.16999996       7.14421601E-17
   1.23000002       1.14696189E-16
   1.28999996       1.13868121E-16
   1.35000002       2.64200330E-17
   1.40999997      -1.62377884E-16
   1.47000003      -4.04064388E-16
   1.52999997      -5.71373221E-16
   1.59000003      -4.89826607E-16
   1.64999998      -2.79028402E-17
   1.71000004       7.79097252E-16
   1.76999998       1.63854278E-15
   1.83000004       2.03048642E-15
   1.88999999       1.41444020E-15
   1.95000005      -4.21454901E-16
   2.00999999      -3.02365986E-15
   2.06999993      -5.18549589E-15
   2.13000011      -5.30927197E-15
   2.19000006      -2.22636046E-15
   2.25000000       3.81817931E-15
   2.30999994       1.05727660E-14
   2.36999989       1.41643128E-14
   2.43000007       1.07090714E-14
   2.49000001      -1.26539777E-15
   2.54999995      -1.87146898E-14
   2.60999990      -3.37474833E-14
   2.67000008      -3.60989924E-14
   2.73000002      -1.81760701E-14
   2.78999996       1.92245156E-14
   2.84999990       6.36452696E-14
   2.91000009       9.31164122E-14
   2.97000003       8.47100642E-14
   3.02999997       2.71255949E-14
   3.08999991      -6.83440731E-14
   3.15000010      -1.65342065E-13
   3.21000004      -2.13050552E-13
   3.26999998      -1.68676054E-13
   3.32999992      -2.34885286E-14
   3.39000010       1.80794981E-13
   3.45000005       3.57567898E-13
   3.50999999       4.06992311E-13
   3.56999993       2.64846955E-13
   3.63000011      -5.25766971E-14
   3.69000006      -4.32974593E-13
   3.75000000      -6.98968823E-13
   3.80999994      -6.82346974E-13
   3.86999989      -3.14249874E-13
   3.93000007       3.12148419E-13
   3.99000001       9.46940226E-13
   4.05000019       1.27172480E-12
   4.11000013       1.04569706E-12
   4.17000008       2.47765269E-13
   4.23000002      -8.60066901E-13
   4.28999996      -1.79942389E-12
   4.34999990      -2.06801048E-12
   4.40999985      -1.38739942E-12
   4.46999979       1.08172863E-13
   4.53000021       1.85054446E-12
   4.59000015       3.02967243E-12
   4.65000010       2.94591239E-12
   4.71000004       1.37823412E-12
   4.76999998      -1.21152220E-12
   4.82999992      -3.76999473E-12
   4.88999987      -5.04828731E-12
   4.94999981      -4.16345734E-12
   5.01000023      -1.08237074E-12
   5.07000017       3.21642756E-12
   5.13000011       7.02934022E-12
   5.19000006       8.59291891E-12
   5.25000000       6.86774335E-12
   5.30999994       2.09095783E-12
   5.36999989      -4.18617007E-12
   5.42999983      -9.64930653E-12
   5.48999977      -1.21650103E-11
   5.55000019      -1.07164425E-11
   5.61000013      -5.89401705E-12
   5.67000008       3.26204233E-13
   5.73000002       5.46873701E-12
   5.78999996       7.73818336E-12
   5.84999990       6.94260925E-12
   5.90999985       4.67905445E-12
   5.96999979       3.60545187E-12
   6.03000021       6.04592374E-12
   6.09000015       1.25276005E-11
   6.15000010       2.09548351E-11
   6.21000004       2.69177406E-11
   6.26999998       2.51733252E-11
   6.32999992       1.18163604E-11
   6.38999987      -1.36975535E-11
   6.44999981      -4.75327312E-11
   6.51000023      -8.19672247E-11
   6.57000017      -1.07327765E-10
   6.63000011      -1.14718575E-10
   6.69000006      -9.85742807E-11
   6.75000000      -5.81410024E-11
   6.80999994       2.56427475E-12
   6.86999989       7.61353897E-11
   6.92999983       1.53774313E-10
   6.98999977       2.26957036E-10
   7.05000019       2.88023078E-10
   7.11000013       3.29486272E-10
   7.17000008       3.42514739E-10
   7.23000002       3.15497850E-10
   7.28999996       2.33692538E-10
   7.34999990       8.05610925E-11
   7.40999985      -1.59277924E-10
   7.46999979      -4.96294839E-10
   7.53000021      -9.32754318E-10
   7.59000015      -1.46111900E-09
   7.65000010      -2.06486117E-09
   7.71000004      -2.72153944E-09
   7.76999998      -3.40716233E-09
   7.82999992      -4.10036805E-09
   7.88999987      -4.78504214E-09
   7.94999981      -5.45061063E-09
   8.01000023      -6.09022788E-09
   8.06999969      -6.69792577E-09
   8.13000011      -7.26622851E-09
   8.18999958      -7.78548248E-09
   8.25000000      -8.24532442E-09
   8.31000042      -8.63760086E-09
   8.36999989      -8.95923868E-09
   8.43000031      -9.21332521E-09
   8.48999977      -9.40732381E-09
   8.55000019      -9.54853441E-09
   8.60999966      -9.63832036E-09
   8.67000008      -9.66747393E-09
   8.72999954      -9.61504742E-09
   8.78999996      -9.45191037E-09
   8.85000038      -9.14858234E-09
   8.90999985      -8.68512640E-09
   8.97000027      -8.05991096E-09
   9.02999973      -7.29420391E-09
   9.09000015      -6.43084475E-09
   9.14999962      -5.52725243E-09
   9.21000004      -4.64489025E-09
   9.27000046      -3.83840026E-09
   9.32999992      -3.14747739E-09
   9.39000034      -2.59334110E-09
   9.44999981      -2.17990315E-09
   9.51000023      -1.89814231E-09
   9.56999969      -1.73141779E-09
   9.63000011      -1.65969893E-09
   9.68999958      -1.66173875E-09
   9.75000000      -1.71553627E-09
   9.81000042      -1.79837467E-09
   9.86999989      -1.88787275E-09
   9.93000031      -1.96481498E-09
   9.98999977      -2.01737160E-09
   10.0500002      -2.04525441E-09
   10.1099997      -2.06191797E-09
   10.1700001      -2.09333217E-09
   10.2299995      -2.17300955E-09
   10.2900000      -2.33437958E-09
   10.3500004      -2.60268274E-09
   10.4099998      -2.98884495E-09
   10.4700003      -3.48716389E-09
   10.5299997      -4.07730871E-09
   10.5900002      -4.72965134E-09
   10.6499996      -5.41186207E-09
   10.7100000      -6.09443918E-09
   10.7700005      -6.75347778E-09
   10.8299999      -7.37027994E-09
   10.8900003      -7.92881583E-09
   10.9499998      -8.41301162E-09
   11.0100002      -8.80597106E-09
   11.0699997      -9.09235887E-09
   11.1300001      -9.26366095E-09
   11.1899996      -9.32442834E-09
   11.2500000      -9.29660704E-09
   11.3100004      -9.21918009E-09
   11.3699999      -9.14171139E-09
   11.4300003      -9.11260667E-09
   11.4899998      -9.16514864E-09
   11.5500002      -9.30579080E-09
   11.6099997      -9.50902734E-09
   11.6700001      -9.72142100E-09
   11.7299995      -9.87445681E-09
   11.7900000      -9.90292026E-09
   11.8500004      -9.76342385E-09
   11.9099998      -9.44744460E-09
   11.9700003      -8.98477737E-09
   12.0299997      -8.43620374E-09
   12.0900002      -7.87748888E-09
   12.1499996      -7.37934380E-09
   12.2100000      -6.98913327E-09
   12.2700005      -6.71940237E-09
   12.3299999      -6.54618493E-09
   12.3900003      -6.41720410E-09
   12.4499998      -6.26735641E-09
   12.5100002      -6.03701400E-09
   12.5699997      -5.68818637E-09
   12.6300001      -5.21442312E-09
   12.6899996      -4.64218619E-09
   12.7500000      -4.02377287E-09
   12.8100004      -3.42400752E-09
   12.8699999      -2.90440449E-09
   12.9300003      -2.50893972E-09
   12.9899998      -2.25492824E-09
   13.0500002      -2.13098672E-09
   13.1099997      -2.10209961E-09
   13.1700001      -2.11994977E-09
   13.2299995      -2.13543982E-09
   13.2900000      -2.11007389E-09
   13.3500004      -2.02355888E-09
   13.4099998      -1.87636462E-09
   13.4700003      -1.68748837E-09
   13.5299997      -1.48879842E-09
   13.5900002      -1.31776856E-09
   13.6499996      -1.21021937E-09
   13.7100000      -1.19413512E-09
   13.7700005      -1.28513844E-09
   13.8299999      -1.48399315E-09
   13.8900003      -1.77652282E-09
   13.9499998      -2.13630069E-09
   14.0100002      -2.53010701E-09
   14.0699997      -2.92539148E-09
   14.1300001      -3.29809580E-09
   14.1899996      -3.63861985E-09
   14.2500000      -3.95393673E-09
   14.3100004      -4.26490088E-09
   14.3699999      -4.59942529E-09
   14.4300003      -4.98370678E-09
   14.4899998      -5.43445022E-09
   14.5500002      -5.95467586E-09
   14.6099997      -6.53431664E-09
   14.6700001      -7.15497483E-09
   14.7299995      -7.79665044E-09
   14.7900000      -8.44362003E-09
   14.8500004      -9.08712394E-09
   14.9099998      -9.72390524E-09
   14.9700003      -1.03513544E-08
   15.0299997      -1.09613270E-08
   15.0900002      -1.15351924E-08
   15.1499996      -1.20421682E-08
   15.2100000      -1.24418191E-08
   15.2700005      -1.26901361E-08
   15.3299999      -1.27474795E-08
   15.3900003      -1.25860877E-08
   15.4499998      -1.21950334E-08
   15.5100002      -1.15812577E-08
   15.5699997      -1.07663833E-08
   15.6300001      -9.78020509E-09
   15.6899996      -8.65263416E-09
   15.7500000      -7.40639905E-09
   15.8100004      -6.05262018E-09
   15.8699999      -4.59058525E-09
   15.9300003      -3.01175440E-09
   15.9899998      -1.30664901E-09
   16.0499992       5.27728916E-10
   16.1100006       2.48248000E-09
   16.1700001       4.53518911E-09
   16.2299995       6.65249500E-09
   16.2900009       8.79573125E-09
   16.3500004       1.09274749E-08
   16.4099998       1.30167219E-08
   16.4699993       1.50411150E-08
   16.5300007       1.69859167E-08
   16.5900002       1.88406073E-08
   16.6499996       2.05947686E-08
   16.7099991       2.22349090E-08
   16.7700005       2.37434215E-08
   16.8299999       2.50999008E-08
   16.8899994       2.62843241E-08
   16.9500008       2.72809757E-08
   17.0100002       2.80818853E-08
   17.0699997       2.86888202E-08
   17.1299992       2.91133624E-08
   17.1900005       2.93751565E-08
   17.2500000       2.94988460E-08
   17.3099995       2.95103604E-08
   17.3700008       2.94332114E-08
   17.4300003       2.92853208E-08
   17.4899998       2.90767357E-08
   17.5499992       2.88085342E-08
   17.6100006       2.84731634E-08
   17.6700001       2.80561672E-08
   17.7299995       2.75391105E-08
   17.7900009       2.69030220E-08
   17.8500004       2.61316622E-08
   17.9099998       2.52140264E-08
   17.9699993       2.41459173E-08
   18.0300007       2.29308057E-08
   18.0900002       2.15803482E-08
   18.1499996       2.01146140E-08
   18.2099991       1.85616464E-08
   18.2700005       1.69556689E-08
   18.3299999       1.53335051E-08
   18.3899994       1.37295091E-08
   18.4500008       1.21702390E-08
   18.5100002       1.06705960E-08
   18.5699997       9.23289534E-09
   18.6299992       7.84939669E-09
   18.6900005       6.50750698E-09
   18.7500000       5.19594634E-09
   18.8099995       3.90989152E-09
   18.8700008       2.65361955E-09
   18.9300003       1.44006884E-09
   18.9899998       2.87719099E-10
   19.0499992      -7.84115550E-10
   19.1100006      -1.76011516E-09
   19.1700001      -2.63244404E-09
   19.2299995      -3.40179196E-09
   19.2900009      -4.07557055E-09
   19.3500004      -4.66383554E-09
   19.4099998      -5.17443866E-09
   19.4699993      -5.60939295E-09
   19.5300007      -5.96412519E-09
   19.5900002      -6.23018703E-09
   19.6499996      -6.40054454E-09
   19.7099991      -6.47546416E-09
   19.7700005      -6.46675069E-09
   19.8299999      -6.39882947E-09
   19.8899994      -6.30644026E-09
   19.9500008      -6.22991037E-09
   20.0100002      -6.20954044E-09
   20.0699997      -6.28053254E-09
   20.1299992      -6.46932330E-09
   20.1900005      -6.79165790E-09
   20.2500000      -7.25239024E-09
   20.3099995      -7.84684584E-09
   20.3700008      -8.56344062E-09
   20.4300003      -9.38691880E-09
   20.4899998      -1.03013358E-08
   20.5499992      -1.12918066E-08
   20.6100006      -1.23444748E-08
   20.6700001      -1.34448683E-08
   20.7299995      -1.45755195E-08
   20.7900009      -1.57141198E-08
   20.8500004      -1.68331464E-08
   20.9099998      -1.79012662E-08
   20.9699993      -1.88859168E-08
   21.0300007      -1.97561238E-08
   21.0900002      -2.04845314E-08
   21.1499996      -2.10482209E-08
   21.2099991      -2.14284270E-08
   21.2700005      -2.16098144E-08
   21.3299999      -2.15801474E-08
   21.3899994      -2.13310081E-08
   21.4500008      -2.08597655E-08
   21.5100002      -2.01724930E-08
   21.5699997      -1.92868566E-08
   21.6299992      -1.82338038E-08
   21.6900005      -1.70569532E-08
   21.7500000      -1.58091922E-08
   21.8099995      -1.45469334E-08
   21.8700008      -1.33234277E-08
   21.9300003      -1.21829222E-08
   21.9899998      -1.11572565E-08
   22.0499992      -1.02654862E-08
   22.1100006      -9.51602086E-09
   22.1700001      -8.90988439E-09
   22.2299995      -8.44354009E-09
   22.2900009      -8.11041367E-09
   22.3500004      -7.90114640E-09
   22.4099998      -7.80341036E-09
   22.4699993      -7.80225928E-09
   22.5300007      -7.88143861E-09
   22.5900002      -8.02523470E-09
   22.6499996      -8.21983104E-09
   22.7099991      -8.45318571E-09
   22.7700005      -8.71316974E-09
   22.8299999      -8.98469299E-09
   22.8899994      -9.24728027E-09
   22.9500008      -9.47455714E-09
   23.0100002      -9.63638946E-09
   23.0699997      -9.70330216E-09
   23.1299992      -9.65195390E-09
   23.1900005      -9.47011713E-09
   23.2500000      -9.15998921E-09
   23.3099995      -8.73933814E-09
   23.3700008      -8.24053892E-09
   23.4300003      -7.70780684E-09
   23.4899998      -7.19290538E-09
   23.5499992      -6.74958178E-09
   23.6100006      -6.42729203E-09
   23.6700001      -6.26523500E-09
   23.7299995      -6.28810159E-09
   23.7900009      -6.50477894E-09
   23.8500004      -6.91038959E-09
   23.9099998      -7.49082751E-09
   23.9699993      -8.22788149E-09
   24.0300007      -9.10282072E-09
   24.0900002      -1.00970130E-08
   24.1499996      -1.11896146E-08
   24.2099991      -1.23537198E-08
   24.2700005      -1.35531835E-08
   24.3299999      -1.47421320E-08
   24.3899994      -1.58682010E-08
   24.4500008      -1.68791985E-08
   24.5100002      -1.77317592E-08
   24.5699997      -1.83998630E-08
   24.6299992      -1.88810692E-08
   24.6900005      -1.91988452E-08
   24.7500000      -1.94003018E-08
   24.8099995      -1.95497680E-08
   24.8700008      -1.97197085E-08
   24.9300003      -1.99810248E-08
   24.9899998      -2.03947561E-08
   25.0499992      -2.10064108E-08
   25.1100006      -2.18430962E-08
   25.1700001      -2.29126336E-08
   25.2299995      -2.42036915E-08
   25.2900009      -2.56862371E-08
   25.3500004      -2.73125700E-08
   25.4099998      -2.90196347E-08
   25.4699993      -3.07333998E-08
   25.5300007      -3.23752722E-08
   25.5900002      -3.38696289E-08
   25.6499996      -3.51508724E-08
   25.7099991      -3.61685899E-08
   25.7700005      -3.68901709E-08
   25.8299999      -3.73012341E-08
   25.8899994      -3.74047957E-08
   25.9500008      -3.72200120E-08
   26.0100002      -3.67807331E-08
   26.0699997      -3.61333257E-08
   26.1299992      -3.53330094E-08
   26.1900005      -3.44380844E-08
   26.2500000      -3.35024097E-08
   26.3099995      -3.25670761E-08
   26.3700008      -3.16529061E-08
   26.4300003      -3.07554124E-08
   26.4899998      -2.98436085E-08
   26.5499992      -2.88634254E-08
   26.6100006      -2.77458856E-08
   26.6700001      -2.64192117E-08
   26.7299995      -2.48232226E-08
   26.7900009      -2.29234036E-08
   26.8500004      -2.07216218E-08
   26.9099998      -1.82607032E-08
   26.9699993      -1.56211808E-08
   27.0300007      -1.29103297E-08
   27.0900002      -1.02455360E-08
   27.1499996      -7.73553221E-09
   27.2099991      -5.46358514E-09
   27.2700005      -3.47619999E-09
   27.3299999      -1.77950565E-09
   27.3899994      -3.43633011E-10
   27.4500008       8.86404505E-10
   27.5100002       1.97616190E-09
   27.5699997       2.98698555E-09
   27.6299992       3.96421296E-09
   27.6900005       4.93055863E-09
   27.7500000       5.88538418E-09
   27.8099995       6.80895340E-09
   27.8700008       7.66957609E-09
   27.9300003       8.43108250E-09
   27.9899998       9.05848374E-09
   28.0499992       9.52072821E-09
   28.1100006       9.79074244E-09
   28.1700001       9.84393989E-09
   28.2299995       9.65679003E-09
   28.2900009       9.20682108E-09
   28.3500004       8.47471693E-09
   28.4099998       7.44827844E-09
   28.4699993       6.12721518E-09
   28.5300007       4.52719418E-09
   28.5900002       2.68147970E-09
   28.6499996       6.38932851E-10
   28.7099991      -1.54197022E-09
   28.7700005      -3.80216125E-09
   28.8299999      -6.09191897E-09
   28.8899994      -8.37890735E-09
   28.9500008      -1.06517515E-08
   29.0100002      -1.29178481E-08
   29.0699997      -1.51959672E-08
   29.1299992      -1.75060499E-08
   29.1900005      -1.98595895E-08
   29.2500000      -2.22537100E-08
   29.3099995      -2.46706424E-08
   29.3700008      -2.70822369E-08
   29.4300003      -2.94574338E-08
   29.4899998      -3.17696518E-08
   29.5499992      -3.40014310E-08
   29.6100006      -3.61448791E-08
   29.6700001      -3.81981096E-08
   29.7299995      -4.01593887E-08
   29.7900009      -4.20213695E-08
   29.8500004      -4.37677592E-08
   29.9099998      -4.53737883E-08
   29.9699993      -4.68105412E-08
   30.0300007      -4.80516533E-08
   30.0900002      -4.90800716E-08
   30.1499996      -4.98924031E-08
   30.2099991      -5.04991604E-08
   30.2700005      -5.09208071E-08
   30.3299999      -5.11809475E-08
   30.3899994      -5.12991534E-08
   30.4500008      -5.12859124E-08
   30.5100002      -5.11411749E-08
   30.5699997      -5.08565776E-08
   30.6299992      -5.04198496E-08
   30.6900005      -4.98194730E-08
   30.7500000      -4.90477738E-08
   30.8099995      -4.81017111E-08
   30.8700008      -4.69817110E-08
   30.9300003      -4.56895961E-08
   30.9899998      -4.42269119E-08
   31.0499992      -4.25943512E-08
   31.1100006      -4.07925569E-08
   31.1700001      -3.88239592E-08
   31.2299995      -3.66950097E-08
   31.2900009      -3.44182993E-08
   31.3500004      -3.20139861E-08
   31.4099998      -2.95101543E-08
   31.4699993      -2.69418727E-08
   31.5300007      -2.43489087E-08
   31.5900002      -2.17723546E-08
   31.6499996      -1.92507148E-08
   31.7099991      -1.68161538E-08
   31.7700005      -1.44915431E-08
   31.8299999      -1.22887203E-08
   31.8899994      -1.02081037E-08
   31.9500008      -8.23962143E-09
   32.0099983      -6.36485531E-09
   32.0699997      -4.56029747E-09
   32.1300011      -2.80155854E-09
   32.1899986      -1.06810050E-09
   32.2500000       6.52252863E-10
   32.3100014       2.36006925E-09
   32.3699989       4.04333900E-09
   32.4300003       5.67937031E-09
   32.4900017       7.23941751E-09
   32.5499992       8.69507044E-09
   32.6100006       1.00248698E-08
   32.6699982       1.12194556E-08
   32.7299995       1.22838868E-08
   32.7900009       1.32364679E-08
   32.8499985       1.41042387E-08
   32.9099998       1.49159973E-08
   32.9700012       1.56942424E-08
   33.0299988       1.64476450E-08
   33.0900002       1.71655685E-08
   33.1500015       1.78159087E-08
   33.2099991       1.83469488E-08
   33.2700005       1.86932176E-08
   33.3300018       1.87844567E-08
   33.3899994       1.85560154E-08
   33.4500008       1.79584809E-08
   33.5099983       1.69643304E-08
   33.5699997       1.55701230E-08
   33.6300011       1.37939757E-08
   33.6899986       1.16694876E-08
   33.7500000       9.23833099E-09
   33.8100014       6.54403642E-09
   33.8699989       3.62874109E-09
   33.9300003       5.33307565E-10
   33.9900017      -2.70023848E-09
   34.0499992      -6.02588646E-09
   34.1100006      -9.39225586E-09
   34.1699982      -1.27435689E-08
   34.2299995      -1.60227351E-08
   34.2900009      -1.91754932E-08
   34.3499985      -2.21544880E-08
   34.4099998      -2.49224978E-08
   34.4700012      -2.74547070E-08
   34.5299988      -2.97398532E-08
   34.5900002      -3.17800151E-08
   34.6500015      -3.35883357E-08
   34.7099991      -3.51843141E-08
   34.7700005      -3.65870854E-08
   34.8300018      -3.78084515E-08
   34.8899994      -3.88481780E-08
   34.9500008      -3.96937772E-08
   35.0099983      -4.03254106E-08
   35.0699997      -4.07242808E-08
   35.1300011      -4.08813392E-08
   35.1899986      -4.08028562E-08
   35.2500000      -4.05109368E-08
   35.3100014      -4.00393319E-08
   35.3699989      -3.94269186E-08
   35.4300003      -3.87117147E-08
   35.4900017      -3.79275384E-08
   35.5499992      -3.71033479E-08
   35.6100006      -3.62640051E-08
   35.6699982      -3.54305953E-08
   35.7299995      -3.46192373E-08
   35.7900009      -3.38387736E-08
   35.8499985      -3.30887673E-08
   35.9099998      -3.23594556E-08
   35.9700012      -3.16345528E-08
   36.0299988      -3.08965191E-08
   36.0900002      -3.01327852E-08
   36.1500015      -2.93410647E-08
   36.2099991      -2.85322841E-08
   36.2700005      -2.77304029E-08
   36.3300018      -2.69692837E-08
   36.3899994      -2.62873545E-08
   36.4500008      -2.57210910E-08
   36.5099983      -2.52983927E-08
   36.5699997      -2.50330014E-08
   36.6300011      -2.49211247E-08
   36.6899986      -2.49412775E-08
   36.7500000      -2.50579522E-08
   36.8100014      -2.52288377E-08
   36.8699989      -2.54141970E-08
   36.9300003      -2.55859351E-08
   36.9900017      -2.57335913E-08
   37.0499992      -2.58650257E-08
   37.1100006      -2.60012989E-08
   37.1699982      -2.61672923E-08
   37.2299995      -2.63813877E-08
   37.2900009      -2.66479958E-08
   37.3499985      -2.69556661E-08
   37.4099998      -2.72812724E-08
   37.4700012      -2.75982721E-08
   37.5299988      -2.78856032E-08
   37.5900002      -2.81337336E-08
   37.6500015      -2.83459212E-08
   37.7099991      -2.85348563E-08
   37.7700005      -2.87164621E-08
   37.8300018      -2.89032798E-08
   37.8899994      -2.90992439E-08
   37.9500008      -2.92967446E-08
   38.0099983      -2.94759968E-08
   38.0699997      -2.96065963E-08
   38.1300011      -2.96512308E-08
   38.1899986      -2.95715470E-08
   38.2500000      -2.93355509E-08
   38.3100014      -2.89250544E-08
   38.3699989      -2.83409207E-08
   38.4300003      -2.76040115E-08
   38.4900017      -2.67510831E-08
   38.5499992      -2.58267292E-08
   38.6100006      -2.48740779E-08
   38.6699982      -2.39273774E-08
   38.7299995      -2.30085426E-08
   38.7900009      -2.21278480E-08
   38.8499985      -2.12871516E-08
   38.9099998      -2.04833892E-08
   38.9700012      -1.97106793E-08
   39.0299988      -1.89609501E-08
   39.0900002      -1.82242967E-08
   39.1500015      -1.74906685E-08
   39.2099991      -1.67536385E-08
   39.2700005      -1.60153508E-08
   39.3300018      -1.52904640E-08
   39.3899994      -1.46065062E-08
   39.4500008      -1.39992880E-08
   39.5099983      -1.35040192E-08
   39.5699997      -1.31449980E-08
   39.6300011      -1.29278366E-08
   39.6899986      -1.28376199E-08
   39.7500000      -1.28443167E-08
   39.8100014      -1.29138460E-08
   39.8699989      -1.30208466E-08
   39.9300003      -1.31583002E-08
   39.9900017      -1.33403706E-08
   40.0499992      -1.35974467E-08
   40.1100006      -1.39655132E-08
   40.1699982      -1.44739953E-08
   40.2299995      -1.51366066E-08
   40.2900009      -1.59481104E-08
   40.3499985      -1.68874408E-08
   40.4099998      -1.79252364E-08
   40.4700012      -1.90326634E-08
   40.5299988      -2.01886046E-08
   40.5900002      -2.13833502E-08
   40.6500015      -2.26183854E-08
   40.7099991      -2.39028104E-08
   40.7700005      -2.52475338E-08
   40.8300018      -2.66586255E-08
   40.8899994      -2.81314563E-08
   40.9500008      -2.96473477E-08
   41.0099983      -3.11742028E-08
   41.0699997      -3.26716112E-08
   41.1300011      -3.40994184E-08
   41.1899986      -3.54271315E-08
   41.2500000      -3.66409445E-08
   41.3100014      -3.77455827E-08
   41.3699989      -3.87600814E-08
   41.4300003      -3.97089401E-08
   41.4900017      -4.06118410E-08
   41.5499992      -4.14755661E-08
   41.6100006      -4.22907860E-08
   41.6699982      -4.30345146E-08
   41.7299995      -4.36770549E-08
   41.7900009      -4.41910863E-08
   41.8499985      -4.45601991E-08
   41.9099998      -4.47846418E-08
   41.9700012      -4.48829596E-08
   42.0299988      -4.48891555E-08
   42.0900002      -4.48460575E-08
   42.1500015      -4.47963089E-08
   42.2099991      -4.47733051E-08
   42.2700005      -4.47944295E-08
   42.3300018      -4.48586128E-08
   42.3899994      -4.49490969E-08
   42.4500008      -4.50406041E-08
   42.5099983      -4.51087629E-08
   42.5699997      -4.51387621E-08
   42.6300011      -4.51304913E-08
   42.6899986      -4.50984921E-08
   42.7500000      -4.50670008E-08
   42.8100014      -4.50617819E-08
   42.8699989      -4.51014905E-08
   42.9300003      -4.51913742E-08
   42.9900017      -4.53210092E-08
   43.0499992      -4.54665141E-08
   43.1100006      -4.55960922E-08
   43.1699982      -4.56769342E-08
   43.2299995      -4.56814071E-08
   43.2900009      -4.55910545E-08
   43.3499985      -4.53979361E-08
   43.4099998      -4.51038424E-08
   43.4700012      -4.47182558E-08
   43.5299988      -4.42560300E-08
   43.5900002      -4.37351879E-08
   43.6500015      -4.31749498E-08
   43.7099991      -4.25938360E-08
   43.7700005      -4.20078621E-08
   43.8300018      -4.14291357E-08
   43.8899994      -4.08653911E-08
   43.9500008      -4.03208205E-08
   44.0099983      -3.97981914E-08
   44.0699997      -3.93017423E-08
   44.1300011      -3.88398433E-08
   44.1899986      -3.84264744E-08
   44.2500000      -3.80807421E-08
   44.3100014      -3.78243250E-08
   44.3699989      -3.76773102E-08
   44.4300003      -3.76533649E-08
   44.4900017      -3.77553739E-08
   44.5499992      -3.79725940E-08
   44.6100006      -3.82802270E-08
   44.6699982      -3.86416836E-08
   44.7299995      -3.90136314E-08
   44.7900009      -3.93531003E-08
   44.8499985      -3.96255224E-08
   44.9099998      -3.98119759E-08
   44.9700012      -3.99136972E-08
   45.0299988      -3.99522868E-08
   45.0900002      -3.99648918E-08
   45.1500015      -3.99952675E-08
   45.2099991      -4.00828455E-08
   45.2700005      -4.02528890E-08
   45.3300018      -4.05104927E-08
   45.3899994      -4.08400496E-08
   45.4500008      -4.12099475E-08
   45.5099983      -4.15806802E-08
   45.5699997      -4.19138502E-08
   45.6300011      -4.21797175E-08
   45.6899986      -4.23618118E-08
   45.7500000      -4.24582112E-08
   45.8100014      -4.24797086E-08
   45.8699989      -4.24454996E-08
   45.9300003      -4.23771169E-08
   45.9900017      -4.22916528E-08
   46.0499992      -4.21956514E-08
   46.1100006      -4.20815134E-08
   46.1699982      -4.19279722E-08
   46.2299995      -4.17053378E-08
   46.2900009      -4.13846912E-08
   46.3499985      -4.09485708E-08
   46.4099998      -4.03997404E-08
   46.4700012      -3.97647426E-08
   46.5299988      -3.90904269E-08
   46.5900002      -3.84338428E-08
   46.6500015      -3.78483378E-08
   46.7099991      -3.73701887E-08
   46.7700005      -3.70102455E-08
   46.8300018      -3.67536650E-08
   46.8899994      -3.65679504E-08
   46.9500008      -3.64168038E-08
   47.0099983      -3.62752210E-08
   47.0699997      -3.61409391E-08
   47.1300011      -3.60389834E-08
   47.1899986      -3.60185695E-08
   47.2500000      -3.61445665E-08
   47.3100014      -3.64871049E-08
   47.3699989      -3.71133275E-08
   47.4300003      -3.80836731E-08
   47.4900017      -3.94533721E-08
   47.5499992      -4.12780885E-08
   47.6100006      -4.36217249E-08
   47.6699982      -4.65643097E-08
   47.7299995      -5.02083672E-08
   47.7900009      -5.46830101E-08
   47.8499985      -6.01457160E-08
   47.9099998      -6.67825972E-08
   47.9700012      -7.48084474E-08
   48.0299988      -8.44679917E-08
   48.0900002      -9.60395781E-08
   48.1500015      -1.09841750E-07
   48.2099991      -1.26242355E-07
   48.2700005      -1.45669020E-07
   48.3300018      -1.68619664E-07
   48.3899994      -1.95671532E-07
   48.4500008      -2.27487661E-07
   48.5099983      -2.64821267E-07
   48.5699997      -3.08518423E-07
   48.6300011      -3.59521664E-07
   48.6899986      -4.18876283E-07
   48.7500000      -4.87742284E-07
   48.8100014      -5.67412769E-07
   48.8699989      -6.59336649E-07
   48.9300003      -7.65144193E-07
   48.9900017      -8.86669739E-07
   49.0499992      -1.02597073E-06
   49.1100006      -1.18534001E-06
   49.1699982      -1.36731603E-06
   49.2299995      -1.57469174E-06
   49.2900009      -1.81052758E-06
   49.3499985      -2.07816902E-06
   49.4099998      -2.38126995E-06
   49.4700012      -2.72381567E-06
   49.5299988      -3.11015128E-06
   49.5900002      -3.54500253E-06
   49.6500015      -4.03349759E-06
   49.7099991      -4.58117938E-06
   49.7700005      -5.19401601E-06
   49.8300018      -5.87840168E-06
   49.8899994      -6.64115487E-06
   49.9500008      -7.48951697E-06
   50.0099983      -8.43114776E-06
   50.0699997      -9.47412991E-06
   50.1300011      -1.06269717E-05
   50.1899986      -1.18986072E-05
   50.2500000      -1.32983960E-05
   50.3100014      -1.48361014E-05
   50.3699989      -1.65218735E-05
   50.4300003      -1.83661978E-05
   50.4900017      -2.03798463E-05
   50.5499992      -2.25738113E-05
   50.6100006      -2.49592449E-05