  -2.400000      0.0000000E+00
  -2.340000      0.0000000E+00
  -2.280000      0.0000000E+00
  -2.220000      0.0000000E+00
  -2.160000      0.0000000E+00
  -2.100000      0.0000000E+00
  -2.040000      0.0000000E+00
  -1.980000      0.0000000E+00
  -1.920000     -8.3144815E-25
  -1.860000     -8.0010990E-24
  -1.800000     -3.3728370E-23
  -1.740000     -6.4397947E-23
  -1.680000      5.9917331E-23
  -1.620000      8.0033728E-22
  -1.560000      2.6986992E-21
  -1.500000      4.9921440E-21
  -1.440000      2.7966716E-21
  -1.380000     -1.4788114E-20
  -1.320000     -5.9049173E-20
  -1.260000     -1.2063282E-19
  -1.200000     -1.3537876E-19
  -1.140000      3.4311849E-20
  -1.080000      5.4342339E-19
  -1.020000      1.3778860E-18
 -0.9600000      2.0678485E-18
 -0.9000000      1.5074704E-18
 -0.8400000     -1.7393753E-18
 -0.7800000     -8.3121783E-18
 -0.7200000     -1.6251659E-17
 -0.6600000     -1.9575089E-17
 -0.6000000     -9.1299059E-18
 -0.5400000      2.2517886E-17
 -0.4800000      7.2416466E-17
 -0.4200000      1.1881184E-16
 -0.3600000      1.2067132E-16
 -0.3000000      3.2953317E-17
 -0.2400000     -1.6113425E-16
 -0.1800000     -4.1272006E-16
 -0.1200000     -5.9024009E-16
 -5.9999999E-02 -5.1186095E-16
  0.0000000E+00 -3.9516760E-17
  5.9999999E-02  7.9158082E-16
  0.1200000      1.6785499E-15
  0.1800000      2.0829182E-15
  0.2400000      1.4471738E-15
  0.3000000     -4.4206313E-16
  0.3600000     -3.1077990E-15
  0.4200000     -5.2997920E-15
  0.4800000     -5.3795380E-15
  0.5400000     -2.1727714E-15
  0.6000000      4.0237360E-15
  0.6600000      1.0858927E-14
  0.7200000      1.4361655E-14
  0.7800000      1.0622674E-14
  0.8400000     -1.7313830E-15
  0.9000000     -1.9444246E-14
  0.9600000     -3.4393756E-14
   1.020000     -3.6210201E-14
   1.080000     -1.7440356E-14
   1.140000      2.0728445E-14
   1.200000      6.5348233E-14
   1.260000      9.4123243E-14
   1.320000      8.4214320E-14
   1.380000      2.4903460E-14
   1.440000     -7.1628623E-14
   1.500000     -1.6825098E-13
   1.560000     -2.1395150E-13
   1.620000     -1.6658062E-13
   1.680000     -1.8747102E-14
   1.740000      1.8635546E-13
   1.800000      3.6126299E-13
   1.860000      4.0649087E-13
   1.920000      2.5946243E-13
   1.980000     -6.1167691E-14
   2.040000     -4.4107122E-13
   2.100000     -7.0228372E-13
   2.160000     -6.7804085E-13
   2.220000     -3.0267274E-13
   2.280000      3.2693046E-13
   2.340000      9.5833812E-13
   2.400000      1.2733144E-12
   2.460000      1.0344008E-12
   2.520000      2.2607732E-13
   2.580000     -8.8411277E-13
   2.640000     -1.8150206E-12
   2.700000     -2.0663022E-12
   2.760000     -1.3662270E-12
   2.820000      1.4190439E-13
   2.880000      1.8826104E-12
   2.940000      3.0443896E-12
   3.000000      2.9339578E-12
   3.060000      1.3427358E-12
   3.120000     -1.2542413E-12
   3.180000     -3.7965941E-12
   3.240000     -5.0397061E-12
   3.300000     -4.1163782E-12
   3.360000     -1.0147142E-12
   3.420000      3.2702079E-12
   3.480000      7.0328157E-12
   3.540000      8.5264452E-12
   3.600000      6.7424569E-12
   3.660000      1.9499203E-12
   3.720000     -4.2825262E-12
   3.780000     -9.6486178E-12
   3.840000     -1.2048265E-11
   3.900000     -1.0510633E-11
   3.960000     -5.6645335E-12
   4.020000      5.0170263E-13
   4.080000      5.5337072E-12
   4.140000      7.6818404E-12
   4.200000      6.8028300E-12
   4.260000      4.5205996E-12
   4.320000      3.4831322E-12
   4.380000      5.9712257E-12
   4.440000      1.2457528E-11
   4.500000      2.0812430E-11
   4.560000      2.6638464E-11
   4.620000      2.4757365E-11
   4.680000      1.1360834E-11
   4.740000     -1.4006836E-11
   4.800000     -4.7474507E-11
   4.860000     -8.1367822E-11
   4.920000     -1.0614389E-10
   4.980000     -1.1308650E-10
   5.040000     -9.6802455E-11
   5.100000     -5.6643936E-11
   5.160000      3.3707438E-12
   5.220000      7.5942010E-11
   5.280000      1.5245330E-10
   5.340000      2.2458158E-10
   5.400000      2.8483244E-10
   5.460000      3.2581979E-10
   5.520000      3.3874936E-10
   5.580000      3.1201913E-10
   5.640000      2.3090764E-10
   5.700000      7.8937808E-11
   5.760000     -1.5918371E-10
   5.820000     -4.9386117E-10
   5.880000     -9.2738472E-10
   5.940000     -1.4523924E-09
   6.000000     -2.0526940E-09
   6.060000     -2.7062992E-09
   6.120000     -3.3896805E-09
   6.180000     -4.0818380E-09
   6.240000     -4.7668238E-09
   6.300000     -5.4340159E-09
   6.360000     -6.0763550E-09
   6.420000     -6.6875963E-09
   6.480000     -7.2600321E-09
   6.540000     -7.7838846E-09
   6.600000     -8.2487528E-09
   6.660000     -8.6464498E-09
   6.720000     -8.9737684E-09
   6.780000     -9.2335144E-09
   6.840000     -9.4327373E-09
   6.900000     -9.5783124E-09
   6.960000     -9.6713091E-09
   7.020000     -9.7024664E-09
   7.080000     -9.6510204E-09
   7.140000     -9.4881480E-09
   7.200000     -9.1845944E-09
   7.260000     -8.7203995E-09
   7.320000     -8.0935951E-09
   7.380000     -7.3248803E-09
   7.440000     -6.4565127E-09
   7.500000     -5.5455649E-09
   7.560000     -4.6535731E-09
   7.620000     -3.8357104E-09
   7.680000     -3.1325371E-09
   7.740000     -2.5662517E-09
   7.800000     -2.1416184E-09
   7.860000     -1.8501847E-09
   7.920000     -1.6755561E-09
   7.980000     -1.5977017E-09
   8.040000     -1.5952557E-09
   8.100000     -1.6460863E-09
   8.160000     -1.7273623E-09
   8.220000     -1.8165468E-09
   8.280000     -1.8941253E-09
   8.340000     -1.9477528E-09
   8.400000     -1.9764435E-09
   8.460000     -1.9929289E-09
   8.520000     -2.0226747E-09
   8.580000     -2.0991320E-09
   8.640000     -2.2562074E-09
   8.700000     -2.5200564E-09
   8.760000     -2.9026874E-09
   8.820000     -3.3993171E-09
   8.880000     -3.9901265E-09
   8.940000     -4.6455400E-09
   9.000000     -5.3329647E-09
   9.060000     -6.0225620E-09
   9.120000     -6.6902186E-09
   9.180000     -7.3172091E-09
   9.240000     -7.8875386E-09
   9.300000     -8.3850331E-09
   9.360000     -8.7924006E-09
   9.420000     -9.0935828E-09
   9.480000     -9.2791517E-09
   9.540000     -9.3527763E-09
   9.600000     -9.3357757E-09
   9.660000     -9.2668841E-09
   9.720000     -9.1958174E-09
   9.780000     -9.1714449E-09
   9.840000     -9.2276888E-09
   9.900000     -9.3716608E-09
   9.960000     -9.5784056E-09
   10.02000     -9.7948361E-09
   10.08000     -9.9525517E-09
   10.14000     -9.9862421E-09
   10.20000     -9.8522852E-09
   10.26000     -9.5418589E-09
   10.32000     -9.0844221E-09
   10.38000     -8.5403808E-09
   10.44000     -7.9850500E-09
   10.50000     -7.4886621E-09
   10.56000     -7.0981985E-09
   10.62000     -6.8261281E-09
   10.68000     -6.6488983E-09
   10.74000     -6.5151555E-09
   10.80000     -6.3610055E-09
   10.86000     -6.1278871E-09
   10.92000     -5.7782752E-09
   10.98000     -5.3053042E-09
   11.04000     -4.7342086E-09
   11.10000     -4.1156598E-09
   11.16000     -3.5130743E-09
   11.22000     -2.9873373E-09
   11.28000     -2.5828768E-09
   11.34000     -2.3184703E-09
   11.40000     -2.1848174E-09
   11.46000     -2.1490489E-09
   11.52000     -2.1645123E-09
   11.58000     -2.1829127E-09
   11.64000     -2.1655526E-09
   11.70000     -2.0910453E-09
   11.76000     -1.9581907E-09
   11.82000     -1.7841700E-09
   11.88000     -1.5993160E-09
   11.94000     -1.4401407E-09
   12.00000     -1.3421529E-09
   12.06000     -1.3335252E-09
   12.12000     -1.4302782E-09
   12.18000     -1.6335013E-09
   12.24000     -1.9291309E-09
   12.30000     -2.2906930E-09
   12.36000     -2.6849472E-09
   12.42000     -3.0795395E-09
   12.48000     -3.4508831E-09
   12.54000     -3.7900172E-09
   12.60000     -4.1044976E-09
   12.66000     -4.4155004E-09
   12.72000     -4.7509219E-09
   12.78000     -5.1366862E-09
   12.84000     -5.5891447E-09
   12.90000     -6.1110339E-09
   12.96000     -6.6921007E-09
   13.02000     -7.3137625E-09
   13.08000     -7.9556903E-09
   13.14000     -8.6015985E-09
   13.20000     -9.2419876E-09
   13.26000     -9.8728830E-09
   13.32000     -1.0491228E-08
   13.38000     -1.1088886E-08
   13.44000     -1.1647731E-08
   13.50000     -1.2137861E-08
   13.56000     -1.2519895E-08
   13.62000     -1.2750839E-08
   13.68000     -1.2791878E-08
   13.74000     -1.2615806E-08
   13.80000     -1.2211950E-08
   13.86000     -1.1587161E-08
   13.92000     -1.0762614E-08
   13.98000     -9.7673079E-09
   14.04000     -8.6301606E-09
   14.10000     -7.3729765E-09
   14.16000     -6.0063345E-09
   14.22000     -4.5295980E-09
   14.28000     -2.9349394E-09
   14.34000     -1.2139800E-09
   14.40000      6.3519201E-10
   14.46000      2.6029838E-09
   14.52000      4.6668420E-09
   14.58000      6.7936994E-09
   14.64000      8.9452783E-09
   14.70000      1.1084291E-08
   14.76000      1.3179422E-08
   14.82000      1.5207613E-08
   14.88000      1.7153253E-08
   14.94000      1.9005034E-08
   15.00000      2.0752012E-08
   15.06000      2.2380531E-08
   15.12000      2.3873225E-08
   15.18000      2.5210456E-08
   15.24000      2.6373593E-08
   15.30000      2.7348966E-08
   15.36000      2.8131081E-08
   15.42000      2.8724161E-08
   15.48000      2.9141608E-08
   15.54000      2.9403747E-08
   15.60000      2.9534549E-08
   15.66000      2.9558093E-08
   15.72000      2.9495359E-08
   15.78000      2.9361619E-08
   15.84000      2.9164642E-08
   15.90000      2.8903960E-08
   15.96000      2.8571401E-08
   16.02000      2.8152952E-08
   16.08000      2.7631637E-08
   16.14000      2.6990735E-08
   16.20000      2.6216547E-08
   16.26000      2.5300217E-08
   16.32000      2.4238666E-08
   16.38000      2.3035145E-08
   16.44000      2.1699890E-08
   16.50000      2.0250866E-08
   16.56000      1.8713987E-08
   16.62000      1.7121785E-08
   16.68000      1.5509984E-08
   16.74000      1.3912310E-08
   16.80000      1.2354999E-08
   16.86000      1.0852904E-08
   16.92000      9.4087067E-09
   16.98000      8.0155935E-09
   17.04000      6.6624835E-09
   17.10000      5.3399756E-09
   17.16000      4.0451407E-09
   17.22000      2.7838427E-09
   17.28000      1.5701229E-09
   17.34000      4.2303228E-10
   17.40000     -6.3811750E-10
   17.46000     -1.5987154E-09
   17.52000     -2.4525098E-09
   17.58000     -3.2026575E-09
   17.64000     -3.8595811E-09
   17.70000     -4.4361963E-09
   17.76000     -4.9422577E-09
   17.82000     -5.3801927E-09
   17.88000     -5.7443765E-09
   17.94000     -6.0244068E-09
   18.00000     -6.2111973E-09
   18.06000     -6.3034618E-09
   18.12000     -6.3120873E-09
   18.18000     -6.2609335E-09
   18.24000     -6.1841607E-09
   18.30000     -6.1213874E-09
   18.36000     -6.1123728E-09
   18.42000     -6.1924457E-09
   18.48000     -6.3892176E-09
   18.54000     -6.7205748E-09
   18.60000     -7.1939161E-09
   18.66000     -7.8067091E-09
   18.72000     -8.5484002E-09
   18.78000     -9.4033457E-09
   18.84000     -1.0353916E-08
   18.90000     -1.1382700E-08
   18.96000     -1.2473043E-08
   19.02000     -1.3607942E-08
   19.08000     -1.4768124E-08
   19.14000     -1.5930512E-08
   19.20000     -1.7067952E-08
   19.26000     -1.8150409E-08
   19.32000     -1.9147045E-08
   19.38000     -2.0028370E-08
   19.44000     -2.0767740E-08
   19.50000     -2.1341990E-08
   19.56000     -2.1731470E-08
   19.62000     -2.1919904E-08
   19.68000     -2.1894589E-08
   19.74000     -2.1647320E-08
   19.80000     -2.1176087E-08
   19.86000     -2.0487468E-08
   19.92000     -1.9599071E-08
   19.98000     -1.8541140E-08
   20.04000     -1.7356243E-08
   20.10000     -1.6096408E-08
   20.16000     -1.4817831E-08
   20.22000     -1.3574346E-08
   20.28000     -1.2411398E-08
   20.34000     -1.1362257E-08
   20.40000     -1.0447244E-08
   20.46000     -9.6756025E-09
   20.52000     -9.0486481E-09
   20.58000     -8.5626439E-09
   20.64000     -8.2104492E-09
   20.70000     -7.9819822E-09
   20.76000     -7.8642808E-09
   20.82000     -7.8420808E-09
   20.88000     -7.8992466E-09
   20.94000     -8.0205425E-09
   21.00000     -8.1927469E-09
   21.06000     -8.4042204E-09
   21.12000     -8.6428269E-09
   21.18000     -8.8930969E-09
   21.24000     -9.1340722E-09
   21.30000     -9.3391712E-09
   21.36000     -9.4786072E-09
   21.42000     -9.5238342E-09
   21.48000     -9.4527550E-09
   21.54000     -9.2542747E-09
   21.60000     -8.9312229E-09
   21.66000     -8.5013028E-09
   21.72000     -7.9961993E-09
   21.78000     -7.4590876E-09
   21.84000     -6.9406880E-09
   21.90000     -6.4939991E-09
   21.96000     -6.1681771E-09
   22.02000     -6.0025660E-09
   22.08000     -6.0223089E-09
   22.14000     -6.2368244E-09
   22.20000     -6.6415984E-09
   22.26000     -7.2225248E-09
   22.32000     -7.9609617E-09
   22.38000     -8.8374188E-09
   22.44000     -9.8324451E-09
   22.50000     -1.0924651E-08
   22.56000     -1.2087136E-08
   22.62000     -1.3284414E-08
   22.68000     -1.4471784E-08
   22.74000     -1.5598257E-08
   22.80000     -1.6612850E-08
   22.86000     -1.7472980E-08
   22.92000     -1.8152887E-08
   22.98000     -1.8649986E-08
   23.04000     -1.8987345E-08
   23.10000     -1.9211541E-08
   23.16000     -1.9386277E-08
   23.22000     -1.9583233E-08
   23.28000     -1.9872310E-08
   23.34000     -2.0313363E-08
   23.40000     -2.0950688E-08
   23.46000     -2.1810386E-08
   23.52000     -2.2899773E-08
   23.58000     -2.4207688E-08
   23.64000     -2.5704999E-08
   23.70000     -2.7345431E-08
   23.76000     -2.9067532E-08
   23.82000     -3.0798546E-08
   23.88000     -3.2460377E-08
   23.94000     -3.3976871E-08
   24.00000     -3.5280905E-08
   24.06000     -3.6319996E-08
   24.12000     -3.7059543E-08
   24.18000     -3.7483886E-08
   24.24000     -3.7595871E-08
   24.30000     -3.7415592E-08
   24.36000     -3.6978577E-08
   24.42000     -3.6333066E-08
   24.48000     -3.5535869E-08
   24.54000     -3.4646302E-08
   24.60000     -3.3718614E-08
   24.66000     -3.2793725E-08
   24.72000     -3.1891901E-08
   24.78000     -3.1007840E-08
   24.84000     -3.0109621E-08
   24.90000     -2.9142331E-08
   24.96000     -2.8036416E-08
   25.02000     -2.6719922E-08
   25.08000     -2.5132881E-08
   25.14000     -2.3241194E-08
   25.20000     -2.1047065E-08
   25.26000     -1.8593308E-08
   25.32000     -1.5959964E-08
   25.38000     -1.3253415E-08
   25.44000     -1.0589985E-08
   25.50000     -8.0774738E-09
   25.56000     -5.7986251E-09
   25.62000     -3.8000207E-09
   25.68000     -2.0885351E-09
   25.74000     -6.3563982E-10
   25.80000      6.1194211E-10
   25.86000      1.7180304E-09
   25.92000      2.7425862E-09
   25.98000      3.7301802E-09
   26.04000      4.7034239E-09
   26.10000      5.6620317E-09
   26.16000      6.5867320E-09
   26.22000      7.4461077E-09
   26.28000      8.2039859E-09
   26.34000      8.8252792E-09
   26.40000      9.2790682E-09
   26.46000      9.5389163E-09
   26.52000      9.5814148E-09
   26.58000      9.3845092E-09
   26.64000      8.9270769E-09
   26.70000      8.1906277E-09
   26.76000      7.1630497E-09
   26.82000      5.8434448E-09
   26.88000      4.2464086E-09
   26.94000      2.4039972E-09
   27.00000      3.6401093E-10
   27.06000     -1.8157915E-09
   27.12000     -4.0766182E-09
   27.18000     -6.3685639E-09
   27.24000     -8.6586933E-09
   27.30000     -1.0934738E-08
   27.36000     -1.3203069E-08
   27.42000     -1.5481524E-08
   27.48000     -1.7789395E-08
   27.54000     -2.0137913E-08
   27.60000     -2.2524324E-08
   27.66000     -2.4931246E-08
   27.72000     -2.7331030E-08
   27.78000     -2.9693105E-08
   27.84000     -3.1991373E-08
   27.90000     -3.4208906E-08
   27.96000     -3.6338502E-08
   28.02000     -3.8379092E-08
   28.08000     -4.0329763E-08
   28.14000     -4.2183760E-08
   28.20000     -4.3924931E-08
   28.26000     -4.5528129E-08
   28.32000     -4.6963638E-08
   28.38000     -4.8204100E-08
   28.44000     -4.9231581E-08
   28.50000     -5.0042047E-08
   28.56000     -5.0645660E-08
   28.62000     -5.1062724E-08
   28.68000     -5.1316775E-08
   28.74000     -5.1427385E-08
   28.80000     -5.1405060E-08
   28.86000     -5.1249827E-08
   28.92000     -5.0953378E-08
   28.98000     -5.0503530E-08
   29.04000     -4.9888932E-08
   29.10000     -4.9102347E-08
   29.16000     -4.8141615E-08
   29.22000     -4.7008509E-08
   29.28000     -4.5706475E-08
   29.34000     -4.4238476E-08
   29.40000     -4.2605951E-08
   29.46000     -4.0809336E-08
   29.52000     -3.8849947E-08
   29.58000     -3.6732594E-08
   29.64000     -3.4468115E-08
   29.70000     -3.2075089E-08
   29.76000     -2.9580230E-08
   29.82000     -2.7017425E-08
   29.88000     -2.4425502E-08
   29.94000     -2.1845151E-08
   30.00000     -1.9315367E-08
   30.06000     -1.6869841E-08
   30.12000     -1.4533742E-08
   30.18000     -1.2321297E-08
   30.24000     -1.0234634E-08
   30.30000     -8.2642391E-09
   30.36000     -6.3911414E-09
   30.42000     -4.5906634E-09
   30.48000     -2.8372147E-09
   30.54000     -1.1093692E-09
   30.60000      6.0568206E-10
   30.66000      2.3091764E-09
   30.72000      3.9900279E-09
   30.78000      5.6266405E-09
   30.84000      7.1911663E-09
   30.90000      8.6554879E-09
   30.96000      9.9976658E-09
   31.02000      1.1207272E-08
   31.08000      1.2288140E-08
   31.14000      1.3257606E-08
   31.20000      1.4142167E-08
   31.26000      1.4970411E-08
   31.32000      1.5764742E-08
   31.38000      1.6533679E-08
   31.44000      1.7266425E-08
   31.50000      1.7930887E-08
   31.56000      1.8475742E-08
   31.62000      1.8836355E-08
   31.68000      1.8943604E-08
   31.74000      1.8733912E-08
   31.80000      1.8158419E-08
   31.86000      1.7189242E-08
   31.92000      1.5821485E-08
   31.98000      1.4070897E-08
   32.04000      1.1968311E-08
   32.10000      9.5530170E-09
   32.16000      6.8672814E-09
   32.22000      3.9534984E-09
   32.28000      8.5416196E-10
   32.34000     -2.3863580E-09
   32.40000     -5.7198708E-09
   32.46000     -9.0936885E-09
   32.52000     -1.2451840E-08
   32.58000     -1.5737900E-08
   32.64000     -1.8898604E-08
   32.70000     -2.1887422E-08
   32.76000     -2.4667589E-08
   32.82000     -2.7214396E-08
   32.88000     -2.9516473E-08
   32.94000     -3.1575574E-08
   33.00000     -3.3404255E-08
   33.06000     -3.5021056E-08
   33.12000     -3.6443989E-08
   33.18000     -3.7683929E-08
   33.24000     -3.8740417E-08
   33.30000     -3.9601698E-08
   33.36000     -4.0249404E-08
   33.42000     -4.0666347E-08
   33.48000     -4.0844434E-08
   33.54000     -4.0789732E-08
   33.60000     -4.0522956E-08
   33.66000     -4.0075751E-08
   33.72000     -3.9484860E-08
   33.78000     -3.8786762E-08
   33.84000     -3.8014569E-08
   33.90000     -3.7197367E-08
   33.96000     -3.6360763E-08
   34.02000     -3.5526970E-08
   34.08000     -3.4713416E-08
   34.14000     -3.3930203E-08
   34.20000     -3.3177802E-08
   34.26000     -3.2446710E-08
   34.32000     -3.1720074E-08
   34.38000     -3.0979010E-08
   34.44000     -3.0209222E-08
   34.50000     -2.9406840E-08
   34.56000     -2.8581841E-08
   34.62000     -2.7758054E-08
   34.68000     -2.6969909E-08
   34.74000     -2.6256821E-08
   34.80000     -2.5656334E-08
   34.86000     -2.5197366E-08
   34.92000     -2.4894625E-08
   34.98000     -2.4745251E-08
   35.04000     -2.4728671E-08
   35.10000     -2.4810156E-08
   35.16000     -2.4947960E-08
   35.22000     -2.5102695E-08
   35.28000     -2.5246543E-08
   35.34000     -2.5369417E-08
   35.40000     -2.5479778E-08
   35.46000     -2.5599444E-08
   35.52000     -2.5753991E-08
   35.58000     -2.5962152E-08
   35.64000     -2.6228156E-08
   35.70000     -2.6539807E-08
   35.76000     -2.6872792E-08
   35.82000     -2.7199169E-08
   35.88000     -2.7496473E-08
   35.94000     -2.7753970E-08
   36.00000     -2.7974089E-08
   36.06000     -2.8169161E-08
   36.12000     -2.8355247E-08
   36.18000     -2.8545333E-08
   36.24000     -2.8743868E-08
   36.30000     -2.8943466E-08
   36.36000     -2.9124100E-08
   36.42000     -2.9254684E-08
   36.48000     -2.9297066E-08
   36.54000     -2.9212242E-08
   36.60000     -2.8968008E-08
   36.66000     -2.8546424E-08
   36.72000     -2.7948868E-08
   36.78000     -2.7196780E-08
   36.84000     -2.6327472E-08
   36.90000     -2.5386186E-08
   36.96000     -2.4417011E-08
   37.02000     -2.3455607E-08
   37.08000     -2.2525636E-08
   37.14000     -2.1639092E-08
   37.20000     -2.0799076E-08
   37.26000     -2.0002940E-08
   37.32000     -1.9244343E-08
   37.38000     -1.8514099E-08
   37.44000     -1.7800929E-08
   37.50000     -1.7093550E-08
   37.56000     -1.6384694E-08
   37.62000     -1.5676187E-08
   37.68000     -1.4982803E-08
   37.74000     -1.4332477E-08
   37.80000     -1.3761435E-08
   37.86000     -1.3305017E-08
   37.92000     -1.2987093E-08
   37.98000     -1.2812153E-08
   38.04000     -1.2763546E-08
   38.10000     -1.2809219E-08
   38.16000     -1.2913246E-08
   38.22000     -1.3049021E-08
   38.28000     -1.3209116E-08
   38.34000     -1.3408063E-08
   38.40000     -1.3677135E-08
   38.46000     -1.4053326E-08
   38.52000     -1.4566921E-08
   38.58000     -1.5232212E-08
   38.64000     -1.6044314E-08
   38.70000     -1.6982423E-08
   38.76000     -1.8017497E-08
   38.82000     -1.9121190E-08
   38.88000     -2.0273053E-08
   38.94000     -2.1464217E-08
   39.00000     -2.2697114E-08
   39.06000     -2.3981825E-08
   39.12000     -2.5330190E-08
   39.18000     -2.6749023E-08
   39.24000     -2.8234105E-08
   39.30000     -2.9766699E-08
   39.36000     -3.1314137E-08
   39.42000     -3.2834940E-08
   39.48000     -3.4287584E-08
   39.54000     -3.5640223E-08
   39.60000     -3.6877971E-08
   39.66000     -3.8004920E-08
   39.72000     -3.9039932E-08
   39.78000     -4.0007620E-08
   39.84000     -4.0927794E-08
   39.90000     -4.1807226E-08
   39.96000     -4.2636440E-08
   40.02000     -4.3392358E-08
   40.08000     -4.4045457E-08
   40.14000     -4.4568953E-08
   40.20000     -4.4947239E-08
   40.26000     -4.5181327E-08
   40.32000     -4.5290154E-08
   40.38000     -4.5307569E-08
   40.44000     -4.5275726E-08
   40.50000     -4.5236348E-08
   40.56000     -4.5221892E-08
   40.62000     -4.5248978E-08
   40.68000     -4.5315989E-08
   40.74000     -4.5405802E-08
   40.80000     -4.5493000E-08
   40.86000     -4.5553406E-08
   40.92000     -4.5572826E-08
   40.98000     -4.5552095E-08
   41.04000     -4.5506788E-08
   41.10000     -4.5461796E-08
   41.16000     -4.5442814E-08
   41.22000     -4.5467655E-08
   41.28000     -4.5540261E-08
   41.34000     -4.5649038E-08
   41.40000     -4.5769610E-08
   41.46000     -4.5870603E-08
   41.52000     -4.5920412E-08
   41.58000     -4.5892907E-08
   41.64000     -4.5770943E-08
   41.70000     -4.5547420E-08
   41.76000     -4.5224454E-08
   41.82000     -4.4811586E-08
   41.88000     -4.4323635E-08
   41.94000     -4.3778645E-08
   42.00000     -4.3195815E-08
   42.06000     -4.2593523E-08
   42.12000     -4.1987445E-08
   42.18000     -4.1389292E-08
   42.24000     -4.0806512E-08
   42.30000     -4.0243311E-08
   42.36000     -3.9702829E-08
   42.42000     -3.9189867E-08
   42.48000     -3.8713328E-08
   42.54000     -3.8287478E-08
   42.60000     -3.7931510E-08
   42.66000     -3.7667100E-08
   42.72000     -3.7514472E-08
   42.78000     -3.7487574E-08
   42.84000     -3.7589579E-08
   42.90000     -3.7809706E-08
   42.96000     -3.8122536E-08
   43.02000     -3.8490317E-08
   43.08000     -3.8868311E-08
   43.14000     -3.9212441E-08
   43.20000     -3.9487720E-08
   43.26000     -3.9675584E-08
   43.32000     -3.9778133E-08
   43.38000     -3.9817944E-08
   43.44000     -3.9832955E-08
   43.50000     -3.9867412E-08
   43.56000     -3.9961080E-08
   43.62000     -4.0139387E-08
   43.68000     -4.0407404E-08
   43.74000     -4.0749104E-08
   43.80000     -4.1131951E-08
   43.86000     -4.1515229E-08
   43.92000     -4.1859437E-08
   43.98000     -4.2134300E-08
   44.04000     -4.2323521E-08
   44.10000     -4.2425832E-08
   44.16000     -4.2452715E-08
   44.22000     -4.2423764E-08
   44.28000     -4.2360590E-08
   44.34000     -4.2280231E-08
   44.40000     -4.2189267E-08
   44.46000     -4.2080174E-08
   44.52000     -4.1931518E-08
   44.58000     -4.1712990E-08
   44.64000     -4.1394671E-08
   44.70000     -4.0958220E-08
   44.76000     -4.0406118E-08
   44.82000     -3.9765414E-08
   44.88000     -3.9083925E-08
   44.94000     -3.8419579E-08
   45.00000     -3.7826098E-08
   45.06000     -3.7339806E-08
   45.12000     -3.6971766E-08
   45.18000     -3.6707934E-08
   45.24000     -3.6517058E-08
   45.30000     -3.6363907E-08
   45.36000     -3.6223721E-08
   45.42000     -3.6093528E-08
   45.48000     -3.5997225E-08
   45.54000     -3.5983309E-08
   45.60000     -3.6116692E-08
   45.66000     -3.6467966E-08
   45.72000     -3.7104254E-08
   45.78000     -3.8084895E-08
   45.84000     -3.9463242E-08
   45.90000     -4.1293301E-08
   45.96000     -4.3638547E-08
   46.02000     -4.6579991E-08
   46.08000     -5.0221779E-08
   46.14000     -5.4694045E-08
   46.20000     -6.0154122E-08
   46.26000     -6.6787258E-08
   46.32000     -7.4807808E-08
   46.38000     -8.4461213E-08
   46.44000     -9.6027392E-08
   46.50000     -1.0982617E-07
   46.56000     -1.2622519E-07
   46.62000     -1.4565050E-07
   46.68000     -1.6859804E-07
   46.74000     -1.9564416E-07
   46.80000     -2.2745289E-07
   46.86000     -2.6477937E-07
   46.92000     -3.0847136E-07
   46.98000     -3.5947141E-07
   47.04000     -4.1882396E-07
   47.10000     -4.8768828E-07
   47.16000     -5.6735763E-07
   47.22000     -6.5928248E-07
   47.28000     -7.6509400E-07
   47.34000     -8.8662642E-07
   47.40000     -1.0259353E-06
   47.46000     -1.1853116E-06
   47.52000     -1.3672923E-06
   47.58000     -1.5746715E-06
   47.64000     -1.8105119E-06
   47.70000     -2.0781604E-06
   47.76000     -2.3812700E-06
   47.82000     -2.7238257E-06
   47.88000     -3.1101702E-06
   47.94000     -3.5450300E-06
   48.00000     -4.0335344E-06
   48.06000     -4.5812299E-06
   48.12000     -5.1940810E-06
   48.18000     -5.8784817E-06
   48.24000     -6.6412476E-06
   48.30000     -7.4896175E-06
   48.36000     -8.4312551E-06
   48.42000     -9.4742445E-06
   48.48000     -1.0627095E-05
   48.54000     -1.1898739E-05
   48.60000     -1.3298531E-05
   48.66000     -1.4836233E-05
   48.72000     -1.6521995E-05
   48.78000     -1.8366309E-05
   48.84000     -2.0379952E-05
   48.90000     -2.2573922E-05
   48.96000     -2.4959372E-05
   49.02000     -2.7547534E-05
   49.08000     -3.0349653E-05
   49.14000     -3.3376913E-05
   49.20000     -3.6640369E-05
   49.26000     -4.0150855E-05
   49.32000     -4.3918906E-05
   49.38000     -4.7954676E-05
   49.44000     -5.2267780E-05
   49.50000     -5.6867219E-05
   49.56000     -6.1761224E-05
   49.62000     -6.6957116E-05
   49.68000     -7.2461211E-05
   49.74000     -7.8278659E-05
   49.80000     -8.4413383E-05
   49.86000     -9.0867921E-05
   49.92000     -9.7643308E-05
   49.98000     -1.0473901E-04
   50.04000     -1.1215283E-04
   50.10000     -1.1988077E-04
   50.16000     -1.2791697E-04
   50.22000     -1.3625363E-04
   50.28000     -1.4488102E-04
   50.34000     -1.5378735E-04
   50.40000     -1.6295878E-04
   50.46000     -1.7237950E-04
   50.52000     -1.8203162E-04
   50.58000     -1.9189529E-04
   50.64000     -2.0194873E-04
   50.70000     -2.1216839E-04
   50.76000     -2.2252902E-04
   50.82000     -2.3300390E-04
   50.88000     -2.4356482E-04
   50.94000     -2.5418238E-04
   51.00000     -2.6482609E-04
   51.06000     -2.7546452E-04
   51.12000     -2.8606574E-04
   51.18000     -2.9659749E-04
   51.24000     -3.0702731E-04
   51.30000     -3.1732311E-04
   51.36000     -3.2745319E-04
   51.42000     -3.3738659E-04
   51.48000     -3.4709333E-04
   51.54000     -3.5654480E-04
   51.60000     -3.6571381E-04
   51.66000     -3.7457515E-04
   51.72000     -3.8310583E-04
   51.78000     -3.9128505E-04
   51.84000     -3.9909469E-04
   51.90000     -4.0651925E-04
   51.96000     -4.1354634E-04
   52.02000     -4.2016644E-04
   52.08000     -4.2637336E-04
   52.14000     -4.3216406E-04
   52.20000     -4.3753875E-04
   52.26000     -4.4250090E-04
   52.32000     -4.4705722E-04
   52.38000     -4.5121752E-04
   52.44000     -4.5499465E-04
   52.50000     -4.5840425E-04
   52.56000     -4.6146472E-04
   52.62000     -4.6419667E-04
   52.68000     -4.6662314E-04
   52.74000     -4.6876905E-04
   52.80000     -4.7066080E-04
   52.86000     -4.7232615E-04
   52.92000     -4.7379363E-04
   52.98000     -4.7509218E-04
   53.04000     -4.7625095E-04
   53.10000     -4.7729892E-04
   53.16000     -4.7826447E-04
   53.22000     -4.7917501E-04
   53.28000     -4.8005654E-04
   53.34000     -4.8093329E-04
   53.40000     -4.8182739E-04
   53.46000     -4.8275851E-04
   53.52000     -4.8374390E-04
   53.58000     -4.8479810E-04
   53.64000     -4.8593266E-04
   53.70000     -4.8715601E-04
   53.76000     -4.8847334E-04
   53.82000     -4.8988638E-04
   53.88000     -4.9139373E-04
   53.94000     -4.9299037E-04
   54.00000     -4.9466843E-04
   54.06000     -4.9641688E-04
   54.12000     -4.9822161E-04
   54.18000     -5.0006621E-04
   54.24000     -5.0193141E-04
   54.30000     -5.0379604E-04
   54.36000     -5.0563703E-04
   54.42000     -5.0742971E-04
   54.48000     -5.0914829E-04
   54.54000     -5.1076623E-04
   54.60000     -5.1225675E-04
   54.66000     -5.1359332E-04
   54.72000     -5.1474973E-04
   54.78000     -5.1570107E-04
   54.84000     -5.1642349E-04
   54.90000     -5.1689486E-04
   54.96000     -5.1709486E-04
   55.02000     -5.1700545E-04
   55.08000     -5.1661127E-04
   55.14000     -5.1589980E-04
   55.20000     -5.1486172E-04
   55.26000     -5.1349099E-04
   55.32000     -5.1178510E-04
   55.38000     -5.0974474E-04
   55.44000     -5.0737418E-04
   55.50000     -5.0468079E-04
   55.56000     -5.0167547E-04