 -0.750000000       0.00000000    
 -0.689999998       0.00000000    
 -0.629999995       0.00000000    
 -0.569999993       0.00000000    
 -0.509999990       0.00000000    
 -0.449999988       0.00000000    
 -0.389999986       0.00000000    
 -0.330000013       0.00000000    
 -0.270000011      -1.65755441E-25
 -0.209999993      -3.76610716E-24
 -0.150000006      -3.32480448E-23
  -9.00000036E-02  -1.69619231E-22
  -2.99999993E-02  -5.64690668E-22
   2.99999993E-02  -1.21108794E-21
   9.00000036E-02  -1.14194465E-21
  0.150000006       2.80211774E-21
  0.209999993       1.59075847E-20
  0.270000011       4.04403496E-20
  0.330000013       6.23336362E-20
  0.389999986       3.48210500E-20
  0.449999988      -1.19583937E-19
  0.509999990      -4.54741663E-19
  0.569999993      -8.77065187E-19
  0.629999995      -1.00465542E-18
  0.689999998      -1.67772287E-19
  0.750000000       2.23579806E-18
  0.810000002       5.95014879E-18
  0.870000005       8.95682582E-18
  0.930000007       7.30874621E-18
  0.990000010      -3.22907778E-18
   1.04999995      -2.33416026E-17
   1.11000001      -4.55433436E-17
   1.16999996      -5.24270877E-17
   1.23000002      -2.23127950E-17
   1.28999996       5.57547195E-17
   1.35000002       1.62426350E-16
   1.40999997       2.36919006E-16
   1.47000003       1.91089720E-16
   1.52999997      -4.22114171E-17
   1.59000003      -4.38721562E-16
   1.64999998      -8.29689207E-16
   1.71000004      -9.20653875E-16
   1.76999998      -4.19140516E-16
   1.83000004       7.49656769E-16
   1.88999999       2.24002395E-15
   1.95000005       3.25147467E-15
   2.00999999       2.79292153E-15
   2.06999993       2.40066369E-16
   2.13000011      -4.02778566E-15
   2.19000006      -8.30001317E-15
   2.25000000      -9.90565899E-15
   2.30999994      -6.40985110E-15
   2.36999989       2.71861980E-15
   2.43000007       1.48071049E-14
   2.49000001       2.40548954E-14
   2.54999995       2.35936758E-14
   2.60999990       9.17159991E-15
   2.67000008      -1.70747646E-14
   2.73000002      -4.50269433E-14
   2.78999996      -5.90817271E-14
   2.84999990      -4.49836735E-14
   2.91000009       1.25903073E-15
   2.97000003       6.67763913E-14
   3.02999997       1.22339069E-13
   3.08999991       1.32460246E-13
   3.15000010       7.29897913E-14
   3.21000004      -5.09986984E-14
   3.26999998      -1.97030692E-13
   3.32999992      -2.94855042E-13
   3.39000010      -2.74790580E-13
   3.45000005      -1.05571916E-13
   3.50999999       1.75898020E-13
   3.56999993       4.61783010E-13
   3.63000011       6.07665827E-13
   3.69000006       4.97047715E-13
   3.75000000       1.10526382E-13
   3.80999994      -4.35900448E-13
   3.86999989      -9.12624685E-13
   3.93000007      -1.06356059E-12
   3.99000001      -7.30464517E-13
   4.05000019       4.09450983E-14
   4.11000013       9.73146802E-13
   4.17000008       1.64118729E-12
   4.23000002       1.65263116E-12
   4.28999996       8.52622335E-13
   4.34999990      -5.45576279E-13
   4.40999985      -1.98767348E-12
   4.46999979      -2.78267166E-12
   4.53000021      -2.41701776E-12
   4.59000015      -8.41451529E-13
   4.65000010       1.41919235E-12
   4.71000004       3.42094235E-12
   4.76999998       4.18972062E-12
   4.82999992       3.18997780E-12
   4.88999987       6.52070357E-13
   4.94999981      -2.42770821E-12
   5.01000023      -4.66566933E-12
   5.07000017      -4.91686856E-12
   5.13000011      -2.87343326E-12
   5.19000006       6.68009105E-13
   5.25000000       4.05249315E-12
   5.30999994       5.47949056E-12
   5.36999989       3.89585543E-12
   5.42999983      -3.48755774E-13
   5.48999977      -5.44463606E-12
   5.55000019      -8.78104360E-12
   5.61000013      -8.10627433E-12
   5.67000008      -2.70069752E-12
   5.73000002       5.99776565E-12
   5.78999996       1.46890555E-11
   5.84999990       1.94132592E-11
   5.90999985       1.72204820E-11
   5.96999979       7.60323575E-12
   6.03000021      -6.97864119E-12
   6.09000015      -2.18020064E-11
   6.15000010      -3.16073001E-11
   6.21000004      -3.26656688E-11
   6.26999998      -2.43034863E-11
   6.32999992      -9.19115652E-12
   6.38999987       7.77752081E-12
   6.44999981       2.15580123E-11
   6.51000023       2.90653751E-11
   6.57000017       3.03477139E-11
   6.63000011       2.82383769E-11
   6.69000006       2.65894824E-11
   6.75000000       2.78731101E-11
   6.80999994       3.12990155E-11
   6.86999989       3.24504382E-11
   6.92999983       2.48159687E-11
   6.98999977       2.74967635E-12
   7.05000019      -3.53058693E-11
   7.11000013      -8.47235823E-11
   7.17000008      -1.34732669E-10
   7.23000002      -1.70752773E-10
   7.28999996      -1.78199761E-10
   7.34999990      -1.46258686E-10
   7.40999985      -7.00465727E-11
   7.46999979       4.98141424E-11
   7.53000021       2.10142168E-10
   7.59000015       4.09526746E-10
   7.65000010       6.52262133E-10
   7.71000004       9.50189816E-10
   7.76999998       1.32154487E-09
   7.82999992       1.78709592E-09
   7.88999987       2.36498465E-09
   7.94999981       3.06622017E-09
   8.01000023       3.89252319E-09
   8.06999969       4.83721951E-09
   8.13000011       5.88853677E-09
   8.18999958       7.03354841E-09
   8.25000000       8.26061441E-09
   8.31000042       9.55874135E-09
   8.36999989       1.09135971E-08
   8.43000031       1.23015864E-08
   8.48999977       1.36845024E-08
   8.55000019       1.50075632E-08
   8.60999966       1.62026161E-08
   8.67000008       1.71965144E-08
   8.72999954       1.79226074E-08
   8.78999996       1.83320115E-08
   8.85000038       1.84011206E-08
   8.90999985       1.81332851E-08
   8.97000027       1.75545676E-08
   9.02999973       1.67057870E-08
   9.09000015       1.56342530E-08
   9.14999962       1.43882541E-08
   9.21000004       1.30157982E-08
   9.27000046       1.15667103E-08
   9.32999992       1.00954125E-08
   9.39000034       8.66116956E-09
   9.44999981       7.32378647E-09
   9.51000023       6.13507067E-09
   9.56999969       5.12890397E-09
   9.63000011       4.31409308E-09
   9.68999958       3.67376662E-09
   9.75000000       3.17278226E-09
   9.81000042       2.77141354E-09
   9.86999989       2.44081444E-09
   9.93000031       2.17466156E-09
   9.98999977       1.99250616E-09
   10.0500002       1.93336547E-09
   10.1099997       2.04174233E-09
   10.1700001       2.35111508E-09
   10.2299995       2.87081847E-09
   10.2900000       3.58080965E-09
   10.3500004       4.43571135E-09
   10.4099998       5.37604228E-09
   10.4700003       6.34208552E-09
   10.5299997       7.28535499E-09
   10.5900002       8.17413870E-09
   10.6499996       8.99240593E-09
   10.7100000       9.73414771E-09
   10.7700005       1.03968558E-08
   10.8299999       1.09777112E-08
   10.8900003       1.14743166E-08
   10.9499998       1.18893322E-08
   11.0100002       1.22362724E-08
   11.0699997       1.25429320E-08
   11.1300001       1.28496955E-08
   11.1899996       1.32021079E-08
   11.2500000       1.36395082E-08
   11.3100004       1.41833860E-08
   11.3699999       1.48295927E-08
   11.4300003       1.55473785E-08
   11.4899998       1.62859717E-08
   11.5500002       1.69868084E-08
   11.6099997       1.75975607E-08
   11.6700001       1.80835897E-08
   11.7299995       1.84334095E-08
   11.7900000       1.86569196E-08
   11.8500004       1.87776941E-08
   11.9099998       1.88224938E-08
   11.9700003       1.88118250E-08
   12.0299997       1.87545464E-08
   12.0900002       1.86476612E-08
   12.1499996       1.84803248E-08
   12.2100000       1.82396462E-08
   12.2700005       1.79156228E-08
   12.3299999       1.75034831E-08
   12.3900003       1.70034227E-08
   12.4499998       1.64190830E-08
   12.5100002       1.57567008E-08
   12.5699997       1.50261883E-08
   12.6300001       1.42438941E-08
   12.6899996       1.34353018E-08
   12.7500000       1.26352928E-08
   12.8100004       1.18843175E-08
   12.8699999       1.12205978E-08
   12.9300003       1.06705258E-08
   12.9899998       1.02407185E-08
   13.0500002       9.91494087E-09
   13.1099997       9.65742064E-09
   13.1700001       9.42167055E-09
   13.2299995       9.16188903E-09
   13.2900000       8.84327189E-09
   13.3500004       8.44843218E-09
   13.4099998       7.97892152E-09
   13.4700003       7.45285167E-09
   13.5299997       6.90062585E-09
   13.5900002       6.36071729E-09
   13.6499996       5.87635984E-09
   13.7100000       5.49279555E-09
   13.7700005       5.25412958E-09
   13.8299999       5.19911669E-09
   13.8900003       5.35617106E-09
   13.9499998       5.73889825E-09
   14.0100002       6.34382902E-09
   14.0699997       7.15150517E-09
   14.1300001       8.13085865E-09
   14.1899996       9.24544441E-09
   14.2500000       1.04593614E-08
   14.3100004       1.17408510E-08
   14.3699999       1.30626052E-08
   14.4300003       1.43992951E-08
   14.4899998       1.57239270E-08
   14.5500002       1.70049503E-08
   14.6099997       1.82053288E-08
   14.6700001       1.92836218E-08
   14.7299995       2.01959516E-08
   14.7900000       2.08974864E-08
   14.8500004       2.13426485E-08
   14.9099998       2.14846381E-08
   14.9700003       2.12759179E-08
   15.0299997       2.06715889E-08
   15.0900002       1.96364986E-08
   15.1499996       1.81549265E-08
   15.2100000       1.62399179E-08
   15.2700005       1.39384921E-08
   15.3299999       1.13297922E-08
   15.3900003       8.51557491E-09
   15.4499998       5.60505375E-09
   15.5100002       2.69808109E-09
   15.5699997      -1.28917724E-10
   15.6300001      -2.83100876E-09
   15.6899996      -5.39558709E-09
   15.7500000      -7.83683252E-09
   15.8100004      -1.01859197E-08
   15.8699999      -1.24795436E-08
   15.9300003      -1.47489656E-08
   15.9899998      -1.70112919E-08
   16.0499992      -1.92641068E-08
   16.1100006      -2.14841265E-08
   16.1700001      -2.36299300E-08
   16.2299995      -2.56481290E-08
   16.2900009      -2.74816188E-08
   16.3500004      -2.90780520E-08
   16.4099998      -3.03968584E-08
   16.4699993      -3.14135917E-08
   16.5300007      -3.21213136E-08
   16.5900002      -3.25294067E-08
   16.6499996      -3.26605623E-08
   16.7099991      -3.25466836E-08
   16.7700005      -3.22241682E-08
   16.8299999      -3.17291118E-08
   16.8899994      -3.10929877E-08
   16.9500008      -3.03396916E-08
   17.0100002      -2.94849070E-08
   17.0699997      -2.85383468E-08
   17.1299992      -2.75087277E-08
   17.1900005      -2.64102198E-08
   17.2500000      -2.52683918E-08
   17.3099995      -2.41234872E-08
   17.3700008      -2.30294432E-08
   17.4300003      -2.20482796E-08
   17.4899998      -2.12409272E-08
   17.5499992      -2.06567901E-08
   17.6100006      -2.03247676E-08
   17.6700001      -2.02480805E-08
   17.7299995      -2.04041388E-08
   17.7900009      -2.07491606E-08
   17.8500004      -2.12260094E-08
   17.9099998      -2.17729461E-08
   17.9699993      -2.23311041E-08
   18.0300007      -2.28491395E-08
   18.0900002      -2.32846187E-08
   18.1499996      -2.36027358E-08
   18.2099991      -2.37736266E-08
   18.2700005      -2.37698643E-08
   18.3299999      -2.35654127E-08
   18.3899994      -2.31368595E-08
   18.4500008      -2.24669154E-08
   18.5100002      -2.15493401E-08
   18.5699997      -2.03938875E-08
   18.6299992      -1.90295513E-08
   18.6900005      -1.75046218E-08
   18.7500000      -1.58828399E-08
   18.8099995      -1.42359662E-08
   18.8700008      -1.26341373E-08
   18.9300003      -1.11361462E-08
   18.9899998      -9.78182335E-09
   19.0499992      -8.58823679E-09
   19.1100006      -7.55033724E-09
   19.1700001      -6.64549749E-09
   19.2299995      -5.84034154E-09
   19.2900009      -5.09775910E-09
   19.3500004      -4.38220082E-09
   19.4099998      -3.66229647E-09
   19.4699993      -2.91107738E-09
   19.5300007      -2.10523821E-09
   19.5900002      -1.22523625E-09
   19.6499996      -2.57382865E-10
   19.7099991       8.02379885E-10
   19.7700005       1.94491867E-09
   19.8299999       3.14723114E-09
   19.8899994       4.37663550E-09
   19.9500008       5.59974422E-09
   20.0100002       6.79356127E-09
   20.0699997       7.95427813E-09
   20.1299992       9.09947850E-09
   20.1900005       1.02617008E-08
   20.2500000       1.14748202E-08
   20.3099995       1.27579387E-08
   20.3700008       1.41028247E-08
   20.4300003       1.54697908E-08
   20.4899998       1.67936705E-08
   20.5499992       1.79976709E-08
   20.6100006       1.90100664E-08
   20.6700001       1.97781080E-08
   20.7299995       2.02751949E-08
   20.7900009       2.05004849E-08
   20.8500004       2.04730544E-08
   20.9099998       2.02243822E-08
   20.9699993       1.97925445E-08
   21.0300007       1.92196783E-08
   21.0900002       1.85518481E-08
   21.1499996       1.78390103E-08
   21.2099991       1.71326224E-08
   21.2700005       1.64800227E-08
   21.3299999       1.59168092E-08
   21.3899994       1.54601327E-08
   21.4500008       1.51060391E-08
   21.5100002       1.48326054E-08
   21.5699997       1.46082373E-08
   21.6299992       1.44022714E-08
   21.6900005       1.41940975E-08
   21.7500000       1.39777931E-08
   21.8099995       1.37613121E-08
   21.8700008       1.35615963E-08
   21.9300003       1.33983882E-08
   21.9899998       1.32894602E-08
   22.0499992       1.32486155E-08
   22.1100006       1.32859981E-08
   22.1700001       1.34090250E-08
   22.2299995       1.36221825E-08
   22.2900009       1.39250398E-08
   22.3500004       1.43093555E-08
   22.4099998       1.47572967E-08
   22.4699993       1.52427582E-08
   22.5300007       1.57365871E-08
   22.5900002       1.62146421E-08
   22.6499996       1.66658740E-08
   22.7099991       1.70969745E-08
   22.7700005       1.75309509E-08
   22.8299999       1.79991346E-08
   22.8899994       1.85289100E-08
   22.9500008       1.91314413E-08
   23.0100002       1.97943066E-08
   23.0699997       2.04822488E-08
   23.1299992       2.11461924E-08
   23.1900005       2.17371543E-08
   23.2500000       2.22195258E-08
   23.3099995       2.25784067E-08
   23.3700008       2.28183996E-08
   23.4300003       2.29551738E-08
   23.4899998       2.30045174E-08
   23.5499992       2.29745378E-08
   23.6100006       2.28647874E-08
   23.6700001       2.26721877E-08
   23.7299995       2.23998651E-08
   23.7900009       2.20632810E-08
   23.8500004       2.16893596E-08
   23.9099998       2.13081695E-08
   23.9699993       2.09408277E-08
   24.0300007       2.05897503E-08
   24.0900002       2.02366408E-08
   24.1499996       1.98500789E-08
   24.2099991       1.94000283E-08
   24.2700005       1.88730418E-08
   24.3299999       1.82813196E-08
   24.3899994       1.76612147E-08
   24.4500008       1.70611294E-08
   24.5100002       1.65231633E-08
   24.5699997       1.60655187E-08
   24.6299992       1.56723221E-08
   24.6900005       1.52947877E-08
   24.7500000       1.48632679E-08
   24.8099995       1.43057663E-08
   24.8700008       1.35662530E-08
   24.9300003       1.26164474E-08
   24.9899998       1.14575149E-08
   25.0499992       1.01121094E-08
   25.1100006       8.61093863E-09
   25.1700001       6.97989977E-09
   25.2299995       5.23320187E-09
   25.2900009       3.37503137E-09
   25.3500004       1.40845502E-09
   25.4099998      -6.52881804E-10
   25.4699993      -2.77585244E-09
   25.5300007      -4.90600227E-09
   25.5900002      -6.97392144E-09
   25.6499996      -8.90751561E-09
   25.7099991      -1.06455209E-08
   25.7700005      -1.21473800E-08
   25.8299999      -1.33964457E-08
   25.8899994      -1.43965027E-08
   25.9500008      -1.51643107E-08
   26.0100002      -1.57221667E-08
   26.0699997      -1.60936793E-08
   26.1299992      -1.63037370E-08
   26.1900005      -1.63809464E-08
   26.2500000      -1.63593175E-08
   26.3099995      -1.62762657E-08
   26.3700008      -1.61660392E-08
   26.4300003      -1.60505937E-08
   26.4899998      -1.59317963E-08
   26.5499992      -1.57889986E-08
   26.6100006      -1.55839714E-08
   26.6700001      -1.52719419E-08
   26.7299995      -1.48147663E-08
   26.7900009      -1.41912722E-08
   26.8500004      -1.34011415E-08
   26.9099998      -1.24616202E-08
   26.9699993      -1.13994920E-08
   27.0300007      -1.02425517E-08
   27.0900002      -9.01449937E-09
   27.1499996      -7.73503483E-09
   27.2099991      -6.42402398E-09
   27.2700005      -5.10629983E-09
   27.3299999      -3.81317289E-09
   27.3899994      -2.57814570E-09
   27.4500008      -1.42728640E-09
   27.5100002      -3.67787079E-10
   27.5699997       6.19869212E-10
   27.6299992       1.58115288E-09
   27.6900005       2.57603383E-09
   27.7500000       3.65915209E-09
   27.8099995       4.85812546E-09
   27.8700008       6.15846263E-09
   27.9300003       7.50203100E-09
   27.9899998       8.80114825E-09
   28.0499992       9.96401006E-09
   28.1100006       1.09220117E-08
   28.1700001       1.16481349E-08
   28.2299995       1.21588766E-08
   28.2900009       1.24990311E-08
   28.3500004       1.27160913E-08
   28.4099998       1.28355637E-08
   28.4699993       1.28481545E-08
   28.5300007       1.27143887E-08
   28.5900002       1.23843806E-08
   28.6499996       1.18237109E-08
   28.7099991       1.10337517E-08
   28.7700005       1.00575095E-08
   28.8299999       8.96862762E-09
   28.8899994       7.84859555E-09
   28.9500008       6.76200873E-09
   29.0100002       5.73989078E-09
   29.0699997       4.77690465E-09
   29.1299992       3.84186905E-09
   29.1900005       2.89551627E-09
   29.2500000       1.90715976E-09
   29.3099995       8.63674410E-10
   29.3700008      -2.31328151E-10
   29.4300003      -1.36544209E-09
   29.4899998      -2.52695243E-09
   29.5499992      -3.71052811E-09
   29.6100006      -4.91666485E-09
   29.6700001      -6.14622886E-09
   29.7299995      -7.39416839E-09
   29.7900009      -8.64673311E-09
   29.8500004      -9.88437598E-09
   29.9099998      -1.10891891E-08
   29.9699993      -1.22529391E-08
   30.0300007      -1.33811593E-08
   30.0900002      -1.44904551E-08
   30.1499996      -1.55995323E-08
   30.2099991      -1.67175820E-08
   30.2700005      -1.78352177E-08
   30.3299999      -1.89221048E-08
   30.3899994      -1.99325640E-08
   30.4500008      -2.08168647E-08
   30.5100002      -2.15335714E-08
   30.5699997      -2.20579945E-08
   30.6299992      -2.23837091E-08
   30.6900005      -2.25172556E-08
   30.7500000      -2.24689529E-08
   30.8099995      -2.22443592E-08
   30.8700008      -2.18403855E-08
   30.9300003      -2.12479723E-08
   30.9899998      -2.04603534E-08
   31.0499992      -1.94833643E-08
   31.1100006      -1.83429698E-08
   31.1700001      -1.70859149E-08
   31.2299995      -1.57718159E-08
   31.2900009      -1.44584531E-08
   31.3500004      -1.31854048E-08
   31.4099998      -1.19625314E-08
   31.4699993      -1.07687708E-08
   31.5300007      -9.56286073E-09
   31.5900002      -8.30261726E-09
   31.6499996      -6.96529590E-09
   31.7099991      -5.56045299E-09
   31.7700005      -4.12947498E-09
   31.8299999      -2.73149281E-09
   31.8899994      -1.42139234E-09
   31.9500008      -2.29209082E-10
   32.0099983       8.50381709E-10
   32.0699997       1.85427285E-09
   32.1300011       2.83494872E-09
   32.1899986       3.83964105E-09
   32.2500000       4.89365082E-09
   32.3100014       5.99448846E-09
   32.3699989       7.11831083E-09
   32.4300003       8.23466273E-09
   32.4900017       9.32222033E-09
   32.5499992       1.03784386E-08
   32.6100006       1.14193330E-08
   32.6699982       1.24704496E-08
   32.7299995       1.35540885E-08
   32.7900009       1.46792694E-08
   32.8499985       1.58392215E-08
   32.9099998       1.70171184E-08
   32.9700012       1.81964506E-08
   33.0299988       1.93697485E-08
   33.0900002       2.05401065E-08
   33.1500015       2.17135394E-08
   33.2099991       2.28853914E-08
   33.2700005       2.40278712E-08
   33.3300018       2.50862620E-08
   33.3899994       2.59878785E-08
   33.4500008       2.66617093E-08
   33.5099983       2.70609313E-08
   33.5699997       2.71781158E-08
   33.6300011       2.70455622E-08
   33.6899986       2.67196274E-08
   33.7500000       2.62554423E-08
   33.8100014       2.56831179E-08
   33.8699989       2.49961918E-08
   33.9300003       2.41574316E-08
   33.9900017       2.31191031E-08
   34.0499992       2.18480238E-08
   34.1100006       2.03436130E-08
   34.1699982       1.86405202E-08
   34.2299995       1.67949334E-08
   34.2900009       1.48614703E-08
   34.3499985       1.28720306E-08
   34.4099998       1.08270166E-08
   34.4700012       8.70324968E-09
   34.5299988       6.47468257E-09
   34.5900002       4.13569579E-09
   34.6500015       1.71523973E-09
   34.7099991      -7.25598803E-10
   34.7700005      -3.11208503E-09
   34.8300018      -5.38199973E-09
   34.8899994      -7.50722595E-09
   34.9500008      -9.50051948E-09
   35.0099983      -1.14041825E-08
   35.0699997      -1.32658773E-08
   35.1300011      -1.51128070E-08
   35.1899986      -1.69360455E-08
   35.2500000      -1.86918658E-08
   35.3100014      -2.03188950E-08
   35.3699989      -2.17627800E-08
   35.4300003      -2.29970212E-08
   35.4900017      -2.40309941E-08
   35.5499992      -2.49023415E-08
   35.6100006      -2.56581849E-08
   35.6699982      -2.63342610E-08
   35.7299995      -2.69414286E-08
   35.7900009      -2.74651502E-08
   35.8499985      -2.78773111E-08
   35.9099998      -2.81541404E-08
   35.9700012      -2.82915256E-08
   36.0299988      -2.83105148E-08
   36.0900002      -2.82506498E-08
   36.1500015      -2.81545987E-08
   36.2099991      -2.80517174E-08
   36.2700005      -2.79485608E-08
   36.3300018      -2.78310033E-08
   36.3899994      -2.76768066E-08
   36.4500008      -2.74722503E-08
   36.5099983      -2.72243010E-08
   36.5699997      -2.69619367E-08
   36.6300011      -2.67255817E-08
   36.6899986      -2.65496869E-08
   36.7500000      -2.64469779E-08
   36.8100014      -2.64023008E-08
   36.8699989      -2.63793183E-08
   36.9300003      -2.63370250E-08
   36.9900017      -2.62483777E-08
   37.0499992      -2.61123407E-08
   37.1100006      -2.59539519E-08
   37.1699982      -2.58128434E-08
   37.2299995      -2.57259760E-08
   37.2900009      -2.57127084E-08
   37.3499985      -2.57687187E-08
   37.4099998      -2.58706763E-08
   37.4700012      -2.59883599E-08
   37.5299988      -2.60976663E-08
   37.5900002      -2.61882516E-08
   37.6500015      -2.62626756E-08
   37.7099991      -2.63285873E-08
   37.7700005      -2.63888555E-08
   37.8300018      -2.64353091E-08
   37.8899994      -2.64495075E-08
   37.9500008      -2.64100937E-08
   38.0099983      -2.63027253E-08
   38.0699997      -2.61272248E-08
   38.1300011      -2.58978936E-08
   38.1899986      -2.56363233E-08
   38.2500000      -2.53597623E-08
   38.3100014      -2.50703049E-08
   38.3699989      -2.47499976E-08
   38.4300003      -2.43644003E-08
   38.4900017      -2.38734170E-08
   38.5499992      -2.32450290E-08
   38.6100006      -2.24661747E-08
   38.6699982      -2.15461533E-08
   38.7299995      -2.05109068E-08
   38.7900009      -1.93903684E-08
   38.8499985      -1.82039503E-08
   38.9099998      -1.69502190E-08
   38.9700012      -1.56053375E-08
   39.0299988      -1.41314933E-08
   39.0900002      -1.24926087E-08
   39.1500015      -1.06714779E-08
   39.2099991      -8.68166339E-09
   39.2700005      -6.56908483E-09
   39.3300018      -4.40202097E-09
   39.3899994      -2.25271446E-09
   39.4500008      -1.77221307E-10
   39.5099983       1.79882720E-09
   39.5699997       3.68291064E-09
   39.6300011       5.50551649E-09
   39.6899986       7.30117300E-09
   39.7500000       9.08827769E-09
   39.8100014       1.08560352E-08
   39.8699989       1.25639028E-08
   39.9300003       1.41536054E-08
   39.9900017       1.55683164E-08
   40.0499992       1.67704535E-08
   40.1100006       1.77503470E-08
   40.1699982       1.85222948E-08
   40.2299995       1.91105496E-08
   40.2900009       1.95323615E-08
   40.3499985       1.97865386E-08
   40.4099998       1.98530277E-08
   40.4700012       1.97037338E-08
   40.5299988       1.93192413E-08
   40.5900002       1.87033766E-08
   40.6500015       1.78885848E-08
   40.7099991       1.69294001E-08
   40.7700005       1.58866502E-08
   40.8300018       1.48090020E-08
   40.8899994       1.37192586E-08
   40.9500008       1.26104460E-08
   41.0099983       1.14523804E-08
   41.0699997       1.02052686E-08
   41.1300011       8.83461215E-09
   41.1899986       7.32203054E-09
   41.2500000       5.66896574E-09
   41.3100014       3.89336385E-09
   41.3699989       2.02185424E-09
   41.4300003       8.09138728E-11
   41.4900017      -1.91004013E-09
   41.5499992      -3.94205735E-09
   41.6100006      -6.01641803E-09
   41.6699982      -8.14150880E-09
   41.7299995      -1.03278941E-08
   41.7900009      -1.25827144E-08
   41.8499985      -1.49045345E-08
   41.9099998      -1.72798398E-08
   41.9700012      -1.96822629E-08
   42.0299988      -2.20749818E-08
   42.0900002      -2.44157210E-08
   42.1500015      -2.66627112E-08
   42.2099991      -2.87794180E-08
   42.2700005      -3.07365475E-08
   42.3300018      -3.25112062E-08
   42.3899994      -3.40848914E-08
   42.4500008      -3.54425573E-08
   42.5099983      -3.65744768E-08
   42.5699997      -3.74805182E-08
   42.6300011      -3.81744698E-08
   42.6899986      -3.86852399E-08
   42.7500000      -3.90530452E-08
   42.8100014      -3.93213107E-08
   42.8699989      -3.95277624E-08
   42.9300003      -3.96989428E-08
   42.9900017      -3.98508426E-08
   43.0499992      -3.99946032E-08
   43.1100006      -4.01432096E-08
   43.1699982      -4.03139673E-08
   43.2299995      -4.05238545E-08
   43.2900009      -4.07792946E-08
   43.3499985      -4.10659240E-08
   43.4099998      -4.13451744E-08
   43.4700012      -4.15617407E-08
   43.5299988      -4.16604635E-08
   43.5900002      -4.16055812E-08
   43.6500015      -4.13933421E-08
   43.7099991      -4.10512477E-08
   43.7700005      -4.06235117E-08
   43.8300018      -4.01491356E-08
   43.8899994      -3.96428703E-08
   43.9500008      -3.90882278E-08
   44.0099983      -3.84461529E-08
   44.0699997      -3.76752816E-08
   44.1300011      -3.67545780E-08
   44.1899986      -3.56980863E-08
   44.2500000      -3.45554412E-08
   44.3100014      -3.33987487E-08
   44.3699989      -3.23021858E-08
   44.4300003      -3.13235766E-08
   44.4900017      -3.04950696E-08
   44.5499992      -2.98252125E-08
   44.6100006      -2.93091951E-08
   44.6699982      -2.89408053E-08
   44.7299995      -2.87200610E-08
   44.7900009      -2.86534299E-08
   44.8499985      -2.87478574E-08
   44.9099998      -2.90025870E-08
   44.9700012      -2.94032620E-08
   45.0299988      -2.99209297E-08
   45.0900002      -3.05159098E-08
   45.1500015      -3.11442214E-08
   45.2099991      -3.17638538E-08
   45.2700005      -3.23388569E-08
   45.3300018      -3.28409477E-08
   45.3899994      -3.32493926E-08
   45.4500008      -3.35501191E-08
   45.5099983      -3.37346577E-08
   45.5699997      -3.37987807E-08
   45.6300011      -3.37403847E-08
   45.6899986      -3.35567840E-08
   45.7500000      -3.32419319E-08
   45.8100014      -3.27847474E-08
   45.8699989      -3.21693854E-08
   45.9300003      -3.13775850E-08
   45.9900017      -3.03922256E-08
   46.0499992      -2.92008622E-08
   46.1100006      -2.77979453E-08
   46.1699982      -2.61852051E-08
   46.2299995      -2.43704612E-08
   46.2900009      -2.23656453E-08
   46.3499985      -2.01848973E-08
   46.4099998      -1.78431900E-08
   46.4700012      -1.53554112E-08
   46.5299988      -1.27354909E-08
   46.5900002      -9.99511762E-09
   46.6500015      -7.14179560E-09
   46.7099991      -4.17634238E-09
   46.7700005      -1.09006260E-09
   46.8300018       2.13817364E-09
   46.8899994       5.54497293E-09
   46.9500008       9.18579168E-09
   47.0099983       1.31388873E-08
   47.0699997       1.75098585E-08
   47.1300011       2.24363124E-08
   47.1899986       2.80918293E-08
   47.2500000       3.46883056E-08
   47.3100014       4.24762767E-08
   47.3699989       5.17437684E-08
   47.4300003       6.28151611E-08
   47.4900017       7.60524586E-08
   47.5499992       9.18610326E-08
   47.6100006       1.10701023E-07
   47.6699982       1.33104237E-07
   47.7299995       1.59694736E-07
   47.7900009       1.91210958E-07
   47.8499985       2.28527142E-07
   47.9099998       2.72673191E-07
   47.9700012       3.24852977E-07
   48.0299988       3.86463427E-07
   48.0900002       4.59116279E-07
   48.1500015       5.44665511E-07
   48.2099991       6.45242210E-07
   48.2700005       7.63296839E-07
   48.3300018       9.01648207E-07
   48.3899994       1.06353639E-06
   48.4500008       1.25267559E-06
   48.5099983       1.47330672E-06
   48.5699997       1.73024978E-06
   48.6300011       2.02895853E-06
   48.6899986       2.37558015E-06
   48.7500000       2.77702702E-06
   48.8100014       3.24105645E-06
   48.8699989       3.77636206E-06
   48.9300003       4.39267023E-06
   48.9900017       5.10083692E-06
   49.0499992       5.91294929E-06
   49.1100006       6.84242059E-06
   49.1699982       7.90408831E-06
   49.2299995       9.11432107E-06
   49.2900009       1.04911169E-05
   49.3499985       1.20542163E-05
   49.4099998       1.38252090E-05
   49.4700012       1.58276489E-05
   49.5299988       1.80871575E-05
   49.5900002       2.06315308E-05
   49.6500015       2.34908348E-05
   49.7099991       2.66974821E-05
   49.7700005       3.02863118E-05
   49.8300018       3.42946551E-05
   49.8899994       3.87624023E-05
   49.9500008       4.37320014E-05
   50.0099983       4.92484978E-05
   50.0699997       5.53595273E-05
   50.1300011       6.21152649E-05
   50.1899986       6.95683557E-05
   50.2500000       7.77738023E-05
   50.3100014       8.67888521E-05
   50.3699989       9.66728476E-05
   50.4300003       1.07486972E-04
   50.4900017       1.19294105E-04
   50.5499992       1.32158457E-04
   50.6100006       1.46145278E-04