  -2.400000      0.0000000E+00
  -2.340000      0.0000000E+00
  -2.280000      0.0000000E+00
  -2.220000      0.0000000E+00
  -2.160000      0.0000000E+00
  -2.100000      0.0000000E+00
  -2.040000      0.0000000E+00
  -1.980000      0.0000000E+00
  -1.920000     -1.3767707E-25
  -1.860000     -3.5096079E-24
  -1.800000     -3.2333228E-23
  -1.740000     -1.6917804E-22
  -1.680000     -5.7504986E-22
  -1.620000     -1.2652267E-21
  -1.560000     -1.2913370E-21
  -1.500000      2.5744561E-21
  -1.440000      1.5925253E-20
  -1.380000      4.1632902E-20
  -1.320000      6.6114285E-20
  -1.260000      4.1675750E-20
  -1.200000     -1.1329619E-19
  -1.140000     -4.6030094E-19
  -1.080000     -9.1241237E-19
  -1.020000     -1.0822233E-18
 -0.9600000     -2.6893891E-19
 -0.9000000      2.1876692E-18
 -0.8400000      6.0874976E-18
 -0.7800000      9.4002319E-18
 -0.7200000      8.0270624E-18
 -0.6600000     -2.5667135E-18
 -0.6000000     -2.3379966E-17
 -0.5400000     -4.6970951E-17
 -0.4800000     -5.5406688E-17
 -0.4200000     -2.5870692E-17
 -0.3600000      5.3862785E-17
 -0.3000000      1.6487060E-16
 -0.2400000      2.4496042E-16
 -0.1800000      2.0260665E-16
 -0.1200000     -3.3266977E-17
 -5.9999999E-02 -4.4004457E-16
  0.0000000E+00 -8.4562592E-16
  5.9999999E-02 -9.4694525E-16
  0.1200000     -4.4154957E-16
  0.1800000      7.4949292E-16
  0.2400000      2.2722330E-15
  0.3000000      3.3055147E-15
  0.3600000      2.8350627E-15
  0.4200000      2.2809954E-16
  0.4800000     -4.1152346E-15
  0.5400000     -8.4350793E-15
  0.6000000     -1.0006320E-14
  0.6600000     -6.3740203E-15
  0.7200000      2.9466601E-15
  0.7800000      1.5171880E-14
  0.8400000      2.4374522E-14
  0.9000000      2.3627217E-14
  0.9600000      8.7570298E-15
   1.020000     -1.7878238E-14
   1.080000     -4.5886909E-14
   1.140000     -5.9499687E-14
   1.200000     -4.4548255E-14
   1.260000      2.5861064E-15
   1.320000      6.8512606E-14
   1.380000      1.2360773E-13
   1.440000      1.3239541E-13
   1.500000      7.1252445E-14
   1.560000     -5.3872969E-14
   1.620000     -1.9970279E-13
   1.680000     -2.9573623E-13
   1.740000     -2.7287756E-13
   1.800000     -1.0115679E-13
   1.860000      1.8106531E-13
   1.920000      4.6508408E-13
   1.980000      6.0679272E-13
   2.040000      4.9126865E-13
   2.100000      1.0140618E-13
   2.160000     -4.4478283E-13
   2.220000     -9.1698892E-13
   2.280000     -1.0602983E-12
   2.340000     -7.1927403E-13
   2.400000      5.6956067E-14
   2.460000      9.8829755E-13
   2.520000      1.6492962E-12
   2.580000      1.6495312E-12
   2.640000      8.3804307E-13
   2.700000     -5.6765302E-13
   2.760000     -2.0104361E-12
   2.820000     -2.7991075E-12
   2.880000     -2.4225402E-12
   2.940000     -8.3524588E-13
   3.000000      1.4347561E-12
   3.060000      3.4424054E-12
   3.120000      4.2147249E-12
   3.180000      3.2178893E-12
   3.240000      6.8218283E-13
   3.300000     -2.3995935E-12
   3.360000     -4.6499219E-12
   3.420000     -4.9291235E-12
   3.480000     -2.9285845E-12
   3.540000      5.6559797E-13
   3.600000      3.9182190E-12
   3.660000      5.3514103E-12
   3.720000      3.8269908E-12
   3.780000     -3.0859007E-13
   3.840000     -5.2718125E-12
   3.900000     -8.4963139E-12
   3.960000     -7.7786215E-12
   4.020000     -2.4320565E-12
   4.080000      6.1039351E-12
   4.140000      1.4564849E-11
   4.200000      1.9055080E-11
   4.260000      1.6697806E-11
   4.320000      7.0431655E-12
   4.380000     -7.4259592E-12
   4.440000     -2.2005016E-11
   4.500000     -3.1487923E-11
   4.560000     -3.2217617E-11
   4.620000     -2.3591585E-11
   4.680000     -8.3361954E-12
   4.740000      8.6204724E-12
   4.800000      2.2221306E-11
   4.860000      2.9388467E-11
   4.920000      3.0197272E-11
   4.980000      2.7532619E-11
   5.040000      2.5327516E-11
   5.100000      2.6163989E-11
   5.160000      2.9379339E-11
   5.220000      3.0677041E-11
   5.280000      2.3623803E-11
   5.340000      2.5739823E-12
   5.400000     -3.4132197E-11
   5.460000     -8.2075818E-11
   5.520000     -1.3077577E-10
   5.580000     -1.6597233E-10
   5.640000     -1.7336552E-10
   5.700000     -1.4231882E-10
   5.760000     -6.7969734E-11
   5.820000      4.9215729E-11
   5.880000      2.0636697E-10
   5.940000      4.0247683E-10
   6.000000      6.4225320E-10
   6.060000      9.3788288E-10
   6.120000      1.3078275E-09
   6.180000      1.7729597E-09
   6.240000      2.3514337E-09
   6.300000      3.0542331E-09
   6.360000      3.8830490E-09
   6.420000      4.8311724E-09
   6.480000      5.8867489E-09
   6.540000      7.0366739E-09
   6.600000      8.2690041E-09
   6.660000      9.5723474E-09
   6.720000      1.0931973E-08
   6.780000      1.2324008E-08
   6.840000      1.3710193E-08
   6.900000      1.5035937E-08
   6.960000      1.6233445E-08
   7.020000      1.7229944E-08
   7.080000      1.7958989E-08
   7.140000      1.8371601E-08
   7.200000      1.8443766E-08
   7.260000      1.8178177E-08
   7.320000      1.7600176E-08
   7.380000      1.6749997E-08
   7.440000      1.5674646E-08
   7.500000      1.4422477E-08
   7.560000      1.3041880E-08
   7.620000      1.1583267E-08
   7.680000      1.0101699E-08
   7.740000      8.6570120E-09
   7.800000      7.3094588E-09
   7.860000      6.1112067E-09
   7.920000      5.0964823E-09
   7.980000      4.2744999E-09
   8.040000      3.6288654E-09
   8.100000      3.1249054E-09
   8.160000      2.7232052E-09
   8.220000      2.3949278E-09
   8.280000      2.1333857E-09
   8.340000      1.9574344E-09
   8.400000      1.9052107E-09
   8.460000      2.0203399E-09
   8.520000      2.3355797E-09
   8.580000      2.8597653E-09
   8.640000      3.5725520E-09
   8.700000      4.4283941E-09
   8.760000      5.3677263E-09
   8.820000      6.3308332E-09
   8.880000      7.2693722E-09
   8.940000      8.1519813E-09
   9.000000      8.9632168E-09
   9.060000      9.6978594E-09
   9.120000      1.0354300E-08
   9.180000      1.0930612E-08
   9.240000      1.1425168E-08
   9.300000      1.1841173E-08
   9.360000      1.2192401E-08
   9.420000      1.2506582E-08
   9.480000      1.2823723E-08
   9.540000      1.3188729E-08
   9.600000      1.3640117E-08
   9.660000      1.4198513E-08
   9.720000      1.4858965E-08
   9.780000      1.5590073E-08
   9.840000      1.6340602E-08
   9.900000      1.7051690E-08
   9.960000      1.7670837E-08
   10.02000      1.8163320E-08
   10.08000      1.8517616E-08
   10.14000      1.8743620E-08
   10.20000      1.8864910E-08
   10.26000      1.8908255E-08
   10.32000      1.8894179E-08
   10.38000      1.8831596E-08
   10.44000      1.8717666E-08
   10.50000      1.8541835E-08
   10.56000      1.8291670E-08
   10.62000      1.7957754E-08
   10.68000      1.7535942E-08
   10.74000      1.7026990E-08
   10.80000      1.6434898E-08
   10.86000      1.5766000E-08
   10.92000      1.5029995E-08
   10.98000      1.4242736E-08
   11.04000      1.3429033E-08
   11.10000      1.2623094E-08
   11.16000      1.1864921E-08
   11.22000      1.1192704E-08
   11.28000      1.0633325E-08
   11.34000      1.0194348E-08
   11.40000      9.8606980E-09
   11.46000      9.5976400E-09
   11.52000      9.3593018E-09
   11.58000      9.0999146E-09
   11.64000      8.7841778E-09
   11.70000      8.3938660E-09
   11.76000      7.9295734E-09
   11.82000      7.4084627E-09
   11.88000      6.8600414E-09
   11.94000      6.3219430E-09
   12.00000      5.8366796E-09
   12.06000      5.4490754E-09
   12.12000      5.2033351E-09
   12.18000      5.1389462E-09
   12.24000      5.2855840E-09
   12.30000      5.6583049E-09
   12.36000      6.2548624E-09
   12.42000      7.0565060E-09
   12.48000      8.0323437E-09
   12.54000      9.1458281E-09
   12.60000      1.0360984E-08
   12.66000      1.1646145E-08
   12.72000      1.2974118E-08
   12.78000      1.4319368E-08
   12.84000      1.5654102E-08
   12.90000      1.6945378E-08
   12.96000      1.8154562E-08
   13.02000      1.9238966E-08
   13.08000      2.0154275E-08
   13.14000      2.0856106E-08
   13.20000      2.1299918E-08
   13.26000      2.1439984E-08
   13.32000      2.1229432E-08
   13.38000      2.0623451E-08
   13.44000      1.9586516E-08
   13.50000      1.8102360E-08
   13.56000      1.6183568E-08
   13.62000      1.3876888E-08
   13.68000      1.1261456E-08
   13.74000      8.4393132E-09
   13.80000      5.5203038E-09
   13.86000      2.6052180E-09
   13.92000     -2.2851665E-10
   13.98000     -2.9353238E-09
   14.04000     -5.5027543E-09
   14.10000     -7.9460856E-09
   14.16000     -1.0298221E-08
   14.22000     -1.2597502E-08
   14.28000     -1.4876023E-08
   14.34000     -1.7150549E-08
   14.40000     -1.9417380E-08
   14.46000     -2.1651672E-08
   14.52000     -2.3810840E-08
   14.58000     -2.5841004E-08
   14.64000     -2.7684985E-08
   14.70000     -2.9290279E-08
   14.76000     -3.0615727E-08
   14.82000     -3.1635963E-08
   14.88000     -3.2343277E-08
   14.94000     -3.2746929E-08
   15.00000     -3.2870197E-08
   15.06000     -3.2745859E-08
   15.12000     -3.2410806E-08
   15.18000     -3.1900864E-08
   15.24000     -3.1246621E-08
   15.30000     -3.0471195E-08
   15.36000     -2.9590277E-08
   15.42000     -2.8614627E-08
   15.48000     -2.7554609E-08
   15.54000     -2.6425797E-08
   15.60000     -2.5254241E-08
   15.66000     -2.4079696E-08
   15.72000     -2.2955211E-08
   15.78000     -2.1942359E-08
   15.84000     -2.1102640E-08
   15.90000     -2.0486917E-08
   15.96000     -2.0125814E-08
   16.02000     -2.0023780E-08
   16.08000     -2.0158561E-08
   16.14000     -2.0485993E-08
   16.20000     -2.0948365E-08
   16.26000     -2.1483666E-08
   16.32000     -2.2033189E-08
   16.38000     -2.2545935E-08
   16.44000     -2.2979615E-08
   16.50000     -2.3299144E-08
   16.56000     -2.3474078E-08
   16.62000     -2.3476412E-08
   16.68000     -2.3279817E-08
   16.74000     -2.2860855E-08
   16.80000     -2.2202169E-08
   16.86000     -2.1297062E-08
   16.92000     -2.0154269E-08
   16.98000     -1.8801378E-08
   17.04000     -1.7285355E-08
   17.10000     -1.5669185E-08
   17.16000     -1.4024674E-08
   17.22000     -1.2422727E-08
   17.28000     -1.0923245E-08
   17.34000     -9.5670654E-09
   17.40000     -8.3718525E-09
   17.46000     -7.3326802E-09
   17.52000     -6.4267138E-09
   17.58000     -5.6202776E-09
   17.64000     -4.8760649E-09
   17.70000     -4.1585504E-09
   17.76000     -3.4366223E-09
   17.82000     -2.6837796E-09
   17.88000     -1.8773489E-09
   17.94000     -9.9852959E-10
   18.00000     -3.4407567E-11
   18.06000      1.0183860E-09
   18.12000      2.1502562E-09
   18.18000      3.3380925E-09
   18.24000      4.5495234E-09
   18.30000      5.7518670E-09
   18.36000      6.9231172E-09
   18.42000      8.0605727E-09
   18.48000      9.1828563E-09
   18.54000      1.0323303E-08
   18.60000      1.1516205E-08
   18.66000      1.2780624E-08
   18.72000      1.4107840E-08
   18.78000      1.5457344E-08
   18.84000      1.6763016E-08
   18.90000      1.7947240E-08
   18.96000      1.8937838E-08
   19.02000      1.9682087E-08
   19.08000      2.0153859E-08
   19.14000      2.0353033E-08
   19.20000      2.0299412E-08
   19.26000      2.0025007E-08
   19.32000      1.9568141E-08
   19.38000      1.8970937E-08
   19.44000      1.8279337E-08
   19.50000      1.7543222E-08
   19.56000      1.6814152E-08
   19.62000      1.6139843E-08
   19.68000      1.5556539E-08
   19.74000      1.5082209E-08
   19.80000      1.4713699E-08
   19.86000      1.4429613E-08
   19.92000      1.4198394E-08
   19.98000      1.3988830E-08
   20.04000      1.3779323E-08
   20.10000      1.3562883E-08
   20.16000      1.3346753E-08
   20.22000      1.3147854E-08
   20.28000      1.2986644E-08
   20.34000      1.2882049E-08
   20.40000      1.2848971E-08
   20.46000      1.2898121E-08
   20.52000      1.3036732E-08
   20.58000      1.3268483E-08
   20.64000      1.3591902E-08
   20.70000      1.3997919E-08
   20.76000      1.4468357E-08
   20.82000      1.4977255E-08
   20.88000      1.5495871E-08
   20.94000      1.6000445E-08
   21.00000      1.6480072E-08
   21.06000      1.6941351E-08
   21.12000      1.7407128E-08
   21.18000      1.7908745E-08
   21.24000      1.8473887E-08
   21.30000      1.9114262E-08
   21.36000      1.9817985E-08
   21.42000      2.0550019E-08
   21.48000      2.1260936E-08
   21.54000      2.1900796E-08
   21.60000      2.2432614E-08
   21.66000      2.2840061E-08
   21.72000      2.3126553E-08
   21.78000      2.3306976E-08
   21.84000      2.3396618E-08
   21.90000      2.3403144E-08
   21.96000      2.3325532E-08
   22.02000      2.3160046E-08
   22.08000      2.2909388E-08
   22.14000      2.2589187E-08
   22.20000      2.2227354E-08
   22.26000      2.1855604E-08
   22.32000      2.1496836E-08
   22.38000      2.1154740E-08
   22.44000      2.0811337E-08
   22.50000      2.0434566E-08
   22.56000      1.9993209E-08
   22.62000      1.9472676E-08
   22.68000      1.8884514E-08
   22.74000      1.8264950E-08
   22.80000      1.7662490E-08
   22.86000      1.7119149E-08
   22.92000      1.6652617E-08
   22.98000      1.6246201E-08
   23.04000      1.5850397E-08
   23.10000      1.5395416E-08
   23.16000      1.4809983E-08
   23.22000      1.4039571E-08
   23.28000      1.3057806E-08
   23.34000      1.1867640E-08
   23.40000      1.0492958E-08
   23.46000      8.9649328E-09
   23.52000      7.3092470E-09
   23.58000      5.5394986E-09
   23.64000      3.6592183E-09
   23.70000      1.6710355E-09
   23.76000     -4.1156659E-10
   23.82000     -2.5554943E-09
   23.88000     -4.7064539E-09
   23.94000     -6.7955157E-09
   24.00000     -8.7513490E-09
   24.06000     -1.0513435E-08
   24.12000     -1.2041498E-08
   24.18000     -1.3318365E-08
   24.24000     -1.4346467E-08
   24.30000     -1.5140790E-08
   24.36000     -1.5722106E-08
   24.42000     -1.6113370E-08
   24.48000     -1.6339948E-08
   24.54000     -1.6431850E-08
   24.60000     -1.6424842E-08
   24.66000     -1.6357806E-08
   24.72000     -1.6265764E-08
   24.78000     -1.6170681E-08
   24.84000     -1.6073860E-08
   24.90000     -1.5953805E-08
   24.96000     -1.5771343E-08
   25.02000     -1.5480770E-08
   25.08000     -1.5043124E-08
   25.14000     -1.4436660E-08
   25.20000     -1.3660884E-08
   25.26000     -1.2733317E-08
   25.32000     -1.1681314E-08
   25.38000     -1.0533165E-08
   25.44000     -9.3126067E-09
   25.50000     -8.0387359E-09
   25.56000     -6.7303860E-09
   25.62000     -5.4114735E-09
   25.68000     -4.1131001E-09
   25.74000     -2.8696014E-09
   25.80000     -1.7087808E-09
   25.86000     -6.3991723E-10
   25.92000      3.5477052E-10
   25.98000      1.3198762E-09
   26.04000      2.3154638E-09
   26.10000      3.3969612E-09
   26.16000      4.5929962E-09
   26.22000      5.8898983E-09
   26.28000      7.2299686E-09
   26.34000      8.5256096E-09
   26.40000      9.6849204E-09
   26.46000      1.0639192E-08
   26.52000      1.1361359E-08
   26.58000      1.1867911E-08
   26.64000      1.2203587E-08
   26.70000      1.2415685E-08
   26.76000      1.2529363E-08
   26.82000      1.2534912E-08
   26.88000      1.2392557E-08
   26.94000      1.2052464E-08
   27.00000      1.1480791E-08
   27.06000      1.0680010E-08
   27.12000      9.6945048E-09
   27.18000      8.5991099E-09
   27.24000      7.4758706E-09
   27.30000      6.3890639E-09
   27.36000      5.3686859E-09
   27.42000      4.4081911E-09
   27.48000      3.4756655E-09
   27.54000      2.5319906E-09
   27.60000      1.5474423E-09
   27.66000      5.1013294E-10
   27.72000     -5.7554989E-10
   27.78000     -1.6974091E-09
   27.84000     -2.8449385E-09
   27.90000     -4.0145172E-09
   27.96000     -5.2081095E-09
   28.02000     -6.4272343E-09
   28.08000     -7.6665447E-09
   28.14000     -8.9113863E-09
   28.20000     -1.0141282E-08
   28.26000     -1.1337833E-08
   28.32000     -1.2492889E-08
   28.38000     -1.3612408E-08
   28.44000     -1.4713373E-08
   28.50000     -1.5814484E-08
   28.56000     -1.6924496E-08
   28.62000     -1.8033312E-08
   28.68000     -1.9109912E-08
   28.74000     -2.0108178E-08
   28.80000     -2.0978254E-08
   28.86000     -2.1678783E-08
   28.92000     -2.2185198E-08
   28.98000     -2.2491085E-08
   29.04000     -2.2602860E-08
   29.10000     -2.2530680E-08
   29.16000     -2.2280116E-08
   29.22000     -2.1848470E-08
   29.28000     -2.1227548E-08
   29.34000     -2.0411839E-08
   29.40000     -1.9408501E-08
   29.46000     -1.8244489E-08
   29.52000     -1.6966858E-08
   29.58000     -1.5634745E-08
   29.64000     -1.4304900E-08
   29.70000     -1.3015780E-08
   29.76000     -1.1776521E-08
   29.82000     -1.0565991E-08
   29.88000     -9.3433989E-09
   29.94000     -8.0671825E-09
   30.00000     -6.7148984E-09
   30.06000     -5.2958402E-09
   30.12000     -3.8506389E-09
   30.18000     -2.4375313E-09
   30.24000     -1.1107928E-09
   30.30000      9.9597670E-11
   30.36000      1.1984562E-09
   30.42000      2.2218061E-09
   30.48000      3.2211775E-09
   30.54000      4.2429700E-09
   30.60000      5.3118603E-09
   30.66000      6.4249410E-09
   30.72000      7.5581248E-09
   30.78000      8.6808507E-09
   30.84000      9.7717834E-09
   30.90000      1.0828360E-08
   30.96000      1.1866466E-08
   31.02000      1.2911354E-08
   31.08000      1.3984954E-08
   31.14000      1.5096090E-08
   31.20000      1.6238264E-08
   31.26000      1.7395561E-08
   31.32000      1.8552884E-08
   31.38000      1.9704270E-08
   31.44000      2.0853829E-08
   31.50000      2.2007686E-08
   31.56000      2.3160313E-08
   31.62000      2.4282397E-08
   31.68000      2.5317679E-08
   31.74000      2.6192549E-08
   31.80000      2.6836013E-08
   31.86000      2.7202175E-08
   31.92000      2.7285068E-08
   31.98000      2.7118462E-08
   32.04000      2.6759745E-08
   32.10000      2.6264420E-08
   32.16000      2.5662356E-08
   32.22000      2.4946409E-08
   32.28000      2.4078544E-08
   32.34000      2.3010402E-08
   32.40000      2.1708614E-08
   32.46000      2.0172957E-08
   32.52000      1.8438930E-08
   32.58000      1.6563837E-08
   32.64000      1.4603329E-08
   32.70000      1.2589969E-08
   32.76000      1.0524275E-08
   32.82000      8.3826812E-09
   32.88000      6.1384746E-09
   32.94000      3.7853516E-09
   33.00000      1.3517603E-09
   33.06000     -1.1014583E-09
   33.12000     -3.4995877E-09
   33.18000     -5.7802745E-09
   33.24000     -7.9151947E-09
   33.30000     -9.9169046E-09
   33.36000     -1.1827614E-08
   33.42000     -1.3695117E-08
   33.48000     -1.5546998E-08
   33.54000     -1.7374852E-08
   33.60000     -1.9135333E-08
   33.66000     -2.0766999E-08
   33.72000     -2.2214836E-08
   33.78000     -2.3451296E-08
   33.84000     -2.4484777E-08
   33.90000     -2.5352566E-08
   33.96000     -2.6102285E-08
   34.02000     -2.6770815E-08
   34.08000     -2.7370227E-08
   34.14000     -2.7886637E-08
   34.20000     -2.8291725E-08
   34.26000     -2.8560930E-08
   34.32000     -2.8689351E-08
   34.38000     -2.8697833E-08
   34.44000     -2.8626449E-08
   34.50000     -2.8518819E-08
   34.56000     -2.8405044E-08
   34.62000     -2.8291753E-08
   34.68000     -2.8164154E-08
   34.74000     -2.7999002E-08
   34.80000     -2.7781784E-08
   34.86000     -2.7519292E-08
   34.92000     -2.7240974E-08
   34.98000     -2.6988085E-08
   35.04000     -2.6795899E-08
   35.10000     -2.6677736E-08
   35.16000     -2.6618771E-08
   35.22000     -2.6582782E-08
   35.28000     -2.6528697E-08
   35.34000     -2.6429172E-08
   35.40000     -2.6282622E-08
   35.46000     -2.6113451E-08
   35.52000     -2.5960858E-08
   35.58000     -2.5861871E-08
   35.64000     -2.5836464E-08
   35.70000     -2.5881192E-08
   35.76000     -2.5973337E-08
   35.82000     -2.6082581E-08
   35.88000     -2.6184010E-08
   35.94000     -2.6266164E-08
   36.00000     -2.6330914E-08
   36.06000     -2.6386163E-08
   36.12000     -2.6436002E-08
   36.18000     -2.6473909E-08
   36.24000     -2.6482720E-08
   36.30000     -2.6441354E-08
   36.36000     -2.6334712E-08
   36.42000     -2.6161295E-08
   36.48000     -2.5934291E-08
   36.54000     -2.5674954E-08
   36.60000     -2.5401059E-08
   36.66000     -2.5115634E-08
   36.72000     -2.4801388E-08
   36.78000     -2.4423736E-08
   36.84000     -2.3941531E-08
   36.90000     -2.3321164E-08
   36.96000     -2.2548098E-08
   37.02000     -2.1630862E-08
   37.08000     -2.0595593E-08
   37.14000     -1.9473203E-08
   37.20000     -1.8284332E-08
   37.26000     -1.7028398E-08
   37.32000     -1.5681595E-08
   37.38000     -1.4205270E-08
   37.44000     -1.2561981E-08
   37.50000     -1.0733250E-08
   37.56000     -8.7320515E-09
   37.62000     -6.6046781E-09
   37.68000     -4.4205706E-09
   37.74000     -2.2533611E-09
   37.80000     -1.6005834E-10
   37.86000      1.8336165E-09
   37.92000      3.7358601E-09
   37.98000      5.5781815E-09
   38.04000      7.3957520E-09
   38.10000      9.2067554E-09
   38.16000      1.0999320E-08
   38.22000      1.2731455E-08
   38.28000      1.4343744E-08
   38.34000      1.5779039E-08
   38.40000      1.7000307E-08
   38.46000      1.7998911E-08
   38.52000      1.8790091E-08
   38.58000      1.9398495E-08
   38.64000      1.9841169E-08
   38.70000      2.0116328E-08
   38.76000      2.0203339E-08
   38.82000      2.0073738E-08
   38.88000      1.9707931E-08
   38.94000      1.9109578E-08
   39.00000      1.8310798E-08
   39.06000      1.7365640E-08
   39.12000      1.6334434E-08
   39.18000      1.5265512E-08
   39.24000      1.4181543E-08
   39.30000      1.3075546E-08
   39.36000      1.1917330E-08
   39.42000      1.0667099E-08
   39.48000      9.2905115E-09
   39.54000      7.7696951E-09
   39.60000      6.1069763E-09
   39.66000      4.3212776E-09
   39.72000      2.4398217E-09
   39.78000      4.8889476E-10
   39.84000     -1.5130595E-09
   39.90000     -3.5583561E-09
   39.96000     -5.6490634E-09
   40.02000     -7.7932780E-09
   40.08000     -1.0000172E-08
   40.14000     -1.2275014E-08
   40.20000     -1.4614984E-08
   40.26000     -1.7006434E-08
   40.32000     -1.9424172E-08
   40.38000     -2.1833204E-08
   40.44000     -2.4192634E-08
   40.50000     -2.6460766E-08
   40.56000     -2.8599704E-08
   40.62000     -3.0578001E-08
   40.68000     -3.2370920E-08
   40.74000     -3.3959360E-08
   40.80000     -3.5329151E-08
   40.86000     -3.6472397E-08
   40.92000     -3.7390645E-08
   40.98000     -3.8098268E-08
   41.04000     -3.8623266E-08
   41.10000     -3.9003908E-08
   41.16000     -3.9281645E-08
   41.22000     -3.9493262E-08
   41.28000     -3.9666045E-08
   41.34000     -3.9818154E-08
   41.40000     -3.9963478E-08
   41.46000     -4.0117182E-08
   41.52000     -4.0297270E-08
   41.58000     -4.0519801E-08
   41.64000     -4.0789228E-08
   41.70000     -4.1089180E-08
   41.76000     -4.1379970E-08
   41.82000     -4.1606437E-08
   41.88000     -4.1714451E-08
   41.94000     -4.1669345E-08
   42.00000     -4.1467679E-08
   42.06000     -4.1136090E-08
   42.12000     -4.0717033E-08
   42.18000     -4.0247681E-08
   42.24000     -3.9741739E-08
   42.30000     -3.9183039E-08
   42.36000     -3.8534015E-08
   42.42000     -3.7755420E-08
   42.48000     -3.6828123E-08
   42.54000     -3.5767282E-08
   42.60000     -3.4622754E-08
   42.66000     -3.3466204E-08
   42.72000     -3.2371211E-08
   42.78000     -3.1395146E-08
   42.84000     -3.0569939E-08
   42.90000     -2.9904001E-08
   42.96000     -2.9392282E-08
   43.02000     -2.9028229E-08
   43.08000     -2.8811524E-08
   43.14000     -2.8748525E-08
   43.20000     -2.8846342E-08
   43.26000     -2.9104484E-08
   43.32000     -2.9508644E-08
   43.38000     -3.0029486E-08
   43.44000     -3.0626570E-08
   43.50000     -3.1255183E-08
   43.56000     -3.1873071E-08
   43.62000     -3.2444802E-08
   43.68000     -3.2943113E-08
   43.74000     -3.3348147E-08
   43.80000     -3.3645939E-08
   43.86000     -3.3827142E-08
   43.92000     -3.3886060E-08
   43.98000     -3.3819507E-08
   44.04000     -3.3624879E-08
   44.10000     -3.3297624E-08
   44.16000     -3.2828936E-08
   44.22000     -3.2204884E-08
   44.28000     -3.1407748E-08
   44.34000     -3.0419343E-08
   44.40000     -2.9225198E-08
   44.46000     -2.7817929E-08
   44.52000     -2.6198586E-08
   44.58000     -2.4375675E-08
   44.64000     -2.2362558E-08
   44.70000     -2.0174532E-08
   44.76000     -1.7826638E-08
   44.82000     -1.5332608E-08
   44.88000     -1.2704553E-08
   44.94000     -9.9525455E-09
   45.00000     -7.0834099E-09
   45.06000     -4.0984554E-09
   45.12000     -9.9039243E-10
   45.18000      2.2601576E-09
   45.24000      5.6883178E-09
   45.30000      9.3487769E-09
   45.36000      1.3319935E-08
   45.42000      1.7708320E-08
   45.48000      2.2652843E-08
   45.54000      2.8328179E-08
   45.60000      3.4946570E-08
   45.66000      4.2757932E-08
   45.72000      5.2048911E-08
   45.78000      6.3142387E-08
   45.84000      7.6399402E-08
   45.90000      9.2225200E-08
   45.96000      1.1108047E-07
   46.02000      1.3349764E-07
   46.08000      1.6010094E-07
   46.14000      1.9162833E-07
   46.20000      2.2895314E-07
   46.26000      2.7310423E-07
   46.32000      3.2528482E-07
   46.38000      3.8689137E-07
   46.44000      4.5953556E-07
   46.50000      5.4507177E-07
   46.56000      6.4563193E-07
   46.62000      7.6366842E-07
   46.68000      9.0200194E-07
   46.74000      1.0638740E-06
   46.80000      1.2529994E-06
   46.86000      1.4736180E-06
   46.92000      1.7305483E-06
   46.98000      2.0292425E-06
   47.04000      2.3758487E-06
   47.10000      2.7772799E-06
   47.16000      3.2412956E-06
   47.22000      3.7765899E-06
   47.28000      4.3928890E-06
   47.34000      5.1010466E-06
   47.40000      5.9131476E-06
   47.46000      6.8426057E-06
   47.52000      7.9042611E-06
   47.58000      9.1144802E-06
   47.64000      1.0491264E-05
   47.70000      1.2054352E-05
   47.76000      1.3825333E-05
   47.82000      1.5827758E-05
   47.88000      1.8087252E-05
   47.94000      2.0631609E-05
   48.00000      2.3490891E-05
   48.06000      2.6697513E-05
   48.12000      3.0286317E-05
   48.18000      3.4294637E-05
   48.24000      3.8762351E-05
   48.30000      4.3731918E-05
   48.36000      4.9248396E-05
   48.42000      5.5359422E-05
   48.48000      6.2115156E-05
   48.54000      6.9568239E-05
   48.60000      7.7773686E-05
   48.66000      8.6788736E-05
   48.72000      9.6672724E-05
   48.78000      1.0748686E-04
   48.84000      1.1929400E-04
   48.90000      1.3215837E-04
   48.96000      1.4614523E-04
   49.02000      1.6132048E-04
   49.08000      1.7775023E-04
   49.14000      1.9550044E-04
   49.20000      2.1463627E-04
   49.26000      2.3522173E-04
   49.32000      2.5731896E-04
   49.38000      2.8098770E-04
   49.44000      3.0628472E-04
   49.50000      3.3326307E-04
   49.56000      3.6197147E-04
   49.62000      3.9245360E-04
   49.68000      4.2474733E-04
   49.74000      4.5888411E-04
   49.80000      4.9488829E-04
   49.86000      5.3277641E-04
   49.92000      5.7255634E-04
   49.98000      6.1422714E-04
   50.04000      6.5777812E-04
   50.10000      7.0318842E-04
   50.16000      7.5042673E-04
   50.22000      7.9945079E-04
   50.28000      8.5020735E-04
   50.34000      9.0263126E-04
   50.40000      9.5664628E-04
   50.46000      1.0121645E-03
   50.52000      1.0690870E-03
   50.58000      1.1273033E-03
   50.64000      1.1866932E-03
   50.70000      1.2471257E-03
   50.76000      1.3084605E-03
   50.82000      1.3705485E-03
   50.88000      1.4332328E-03
   50.94000      1.4963499E-03
   51.00000      1.5597306E-03
   51.06000      1.6232011E-03
   51.12000      1.6865850E-03
   51.18000      1.7497037E-03
   51.24000      1.8123784E-03
   51.30000      1.8744316E-03
   51.36000      1.9356885E-03
   51.42000      1.9959791E-03
   51.48000      2.0551397E-03
   51.54000      2.1130133E-03
   51.60000      2.1694524E-03
   51.66000      2.2243196E-03
   51.72000      2.2774907E-03
   51.78000      2.3288524E-03
   51.84000      2.3783080E-03
   51.90000      2.4257740E-03
   51.96000      2.4711844E-03
   52.02000      2.5144892E-03
   52.08000      2.5556558E-03
   52.14000      2.5946687E-03
   52.20000      2.6315309E-03
   52.26000      2.6662629E-03
   52.32000      2.6989023E-03
   52.38000      2.7295034E-03
   52.44000      2.7581367E-03
   52.50000      2.7848871E-03
   52.56000      2.8098540E-03
   52.62000      2.8331492E-03
   52.68000      2.8548962E-03
   52.74000      2.8752277E-03
   52.80000      2.8942840E-03
   52.86000      2.9122117E-03
   52.92000      2.9291613E-03
   52.98000      2.9452851E-03
   53.04000      2.9607362E-03
   53.10000      2.9756655E-03
   53.16000      2.9902207E-03
   53.22000      3.0045426E-03
   53.28000      3.0187638E-03
   53.34000      3.0330077E-03
   53.40000      3.0473864E-03
   53.46000      3.0619996E-03
   53.52000      3.0769326E-03
   53.58000      3.0922566E-03
   53.64000      3.1080260E-03
   53.70000      3.1242776E-03
   53.76000      3.1410316E-03
   53.82000      3.1582895E-03
   53.88000      3.1760356E-03
   53.94000      3.1942360E-03
   54.00000      3.2128417E-03
   54.06000      3.2317860E-03
   54.12000      3.2509873E-03
   54.18000      3.2703492E-03
   54.24000      3.2897622E-03
   54.30000      3.3091053E-03
   54.36000      3.3282470E-03
   54.42000      3.3470481E-03
   54.48000      3.3653628E-03
   54.54000      3.3830414E-03
   54.60000      3.3999318E-03
   54.66000      3.4158810E-03
   54.72000      3.4307386E-03
   54.78000      3.4443559E-03
   54.84000      3.4565909E-03
   54.90000      3.4673095E-03
   54.96000      3.4763853E-03
   55.02000      3.4837038E-03
   55.08000      3.4891628E-03
   55.14000      3.4926729E-03
   55.20000      3.4941602E-03
   55.26000      3.4935656E-03
   55.32000      3.4908461E-03
   55.38000      3.4859758E-03
   55.44000      3.4789445E-03
   55.50000      3.4697598E-03
   55.56000      3.4584459E-03