  -2.400000      0.0000000E+00
  -2.340000      0.0000000E+00
  -2.280000      0.0000000E+00
  -2.220000      0.0000000E+00
  -2.160000      0.0000000E+00
  -2.100000      0.0000000E+00
  -2.040000      0.0000000E+00
  -1.980000      0.0000000E+00
  -1.920000     -6.1611547E-26
  -1.860000     -6.1865973E-25
  -1.800000     -2.6152234E-24
  -1.740000     -3.8822985E-24
  -1.680000      1.6205568E-23
  -1.620000      1.2347678E-22
  -1.560000      4.2070356E-22
  -1.500000      8.7888394E-22
  -1.440000      8.8367265E-22
  -1.380000     -1.3153536E-21
  -1.320000     -8.3307411E-21
  -1.260000     -2.0965959E-20
  -1.200000     -3.2404697E-20
  -1.140000     -2.2275244E-20
  -1.080000      4.0565176E-20
  -1.020000      1.7525544E-19
 -0.9600000      3.4464242E-19
 -0.9000000      4.1397797E-19
 -0.8400000      1.6705286E-19
 -0.7800000     -5.6480084E-19
 -0.7200000     -1.6692236E-18
 -0.6600000     -2.5498723E-18
 -0.6000000     -2.2010192E-18
 -0.5400000      2.3542320E-19
 -0.4800000      4.5264680E-18
 -0.4200000      8.5964993E-18
 -0.3600000      8.8718587E-18
 -0.3000000      2.3292595E-18
 -0.2400000     -1.0286422E-17
 -0.1800000     -2.2160918E-17
 -0.1200000     -2.1902666E-17
 -5.9999999E-02 -4.1578151E-19
  0.0000000E+00  3.8961534E-17
  5.9999999E-02  7.3649720E-17
  0.1200000      6.6773149E-17
  0.1800000     -1.1901131E-17
  0.2400000     -1.5529971E-16
  0.3000000     -2.9699590E-16
  0.3600000     -3.2094563E-16
  0.4200000     -1.1577864E-16
  0.4800000      3.3960825E-16
  0.5400000      9.0286015E-16
  0.6000000      1.2659895E-15
  0.6600000      1.0641196E-15
  0.7200000      8.0155826E-17
  0.7800000     -1.5396102E-15
  0.8400000     -3.1895822E-15
  0.9000000     -3.9417123E-15
  0.9600000     -2.9344664E-15
   1.020000      1.0788326E-16
   1.080000      4.4696493E-15
   1.140000      8.4232023E-15
   1.200000      9.7514160E-15
   1.260000      6.7331742E-15
   1.320000     -7.6335594E-16
   1.380000     -1.0616864E-14
   1.440000     -1.8720428E-14
   1.500000     -2.0376121E-14
   1.560000     -1.2497527E-14
   1.620000      4.2338798E-15
   1.680000      2.4398530E-14
   1.740000      3.8987934E-14
   1.800000      3.8824999E-14
   1.860000      1.9248656E-14
   1.920000     -1.5991672E-14
   1.980000     -5.3994437E-14
   2.040000     -7.6586835E-14
   2.100000     -6.8253915E-14
   2.160000     -2.5091865E-14
   2.220000      3.9824958E-14
   2.280000      9.8765031E-14
   2.340000      1.2041735E-13
   2.400000      8.6152419E-14
   2.460000      3.8223721E-15
   2.520000     -8.9488401E-14
   2.580000     -1.4064539E-13
   2.640000     -1.0683572E-13
   2.700000      1.5940586E-14
   2.760000      1.7780818E-13
   2.820000      2.8595415E-13
   2.880000      2.4334289E-13
   2.940000      2.2849885E-15
   3.000000     -3.9164050E-13
   3.060000     -7.9127433E-13
   3.120000     -9.8934793E-13
   3.180000     -8.0205710E-13
   3.240000     -1.6424012E-13
   3.300000      8.0676167E-13
   3.360000      1.8153680E-12
   3.420000      2.4720122E-12
   3.480000      2.4344619E-12
   3.540000      1.5537876E-12
   3.600000     -3.6950308E-14
   3.660000     -1.9357027E-12
   3.720000     -3.5909700E-12
   3.780000     -4.4870726E-12
   3.840000     -4.3231516E-12
   3.900000     -3.1128232E-12
   3.960000     -1.1633252E-12
   4.020000      1.0547019E-12
   4.080000      3.0863912E-12
   4.140000      4.6379411E-12
   4.200000      5.6222041E-12
   4.260000      6.0892767E-12
   4.320000      6.0874908E-12
   4.380000      5.5405376E-12
   4.440000      4.2233847E-12
   4.500000      1.8704832E-12
   4.560000     -1.6242125E-12
   4.620000     -6.0176313E-12
   4.680000     -1.0654736E-11
   4.740000     -1.4600461E-11
   4.800000     -1.6939847E-11
   4.860000     -1.7121872E-11
   4.920000     -1.5172988E-11
   4.980000     -1.1639593E-11
   5.040000     -7.2329729E-12
   5.100000     -2.3024527E-12
   5.160000      3.6156080E-12
   5.220000      1.1897823E-11
   5.280000      2.4403981E-11
   5.340000      4.2535527E-11
   5.400000      6.6027239E-11
   5.460000      9.1881912E-11
   5.520000      1.1388621E-10
   5.580000      1.2301257E-10
   5.640000      1.0875618E-10
   5.700000      6.1166162E-11
   5.760000     -2.6886592E-11
   5.820000     -1.5773033E-10
   5.880000     -3.2762115E-10
   5.940000     -5.2637095E-10
   6.000000     -7.3780632E-10
   6.060000     -9.4080743E-10
   6.120000     -1.1106313E-09
   6.180000     -1.2203263E-09
   6.240000     -1.2422270E-09
   6.300000     -1.1496778E-09
   6.360000     -9.1918201E-10
   6.420000     -5.3305743E-10
   6.480000      1.7565508E-11
   6.540000      7.2984097E-10
   6.600000      1.5870348E-09
   6.660000      2.5577236E-09
   6.720000      3.5968040E-09
   6.780000      4.6483990E-09
   6.840000      5.6503429E-09
   6.900000      6.5396280E-09
   6.960000      7.2580617E-09
   7.020000      7.7574649E-09
   7.080000      8.0039095E-09
   7.140000      7.9807494E-09
   7.200000      7.6902777E-09
   7.260000      7.1539135E-09
   7.320000      6.4107293E-09
   7.380000      5.5141456E-09
   7.440000      4.5267359E-09
   7.500000      3.5134147E-09
   7.560000      2.5337239E-09
   7.620000      1.6343775E-09
   7.680000      8.4347024E-10
   7.740000      1.6763586E-10
   7.800000     -4.0703196E-10
   7.860000     -9.1026803E-10
   7.920000     -1.3799497E-09
   7.980000     -1.8529405E-09
   8.040000     -2.3562889E-09
   8.100000     -2.9004905E-09
   8.160000     -3.4760215E-09
   8.220000     -4.0536254E-09
   8.280000     -4.5880970E-09
   8.340000     -5.0247304E-09
   8.400000     -5.3072644E-09
   8.460000     -5.3860738E-09
   8.520000     -5.2254592E-09
   8.580000     -4.8090705E-09
   8.640000     -4.1427173E-09
   8.700000     -3.2541063E-09
   8.760000     -2.1893616E-09
   8.820000     -1.0066550E-09
   8.880000      2.3218508E-10
   8.940000      1.4707074E-09
   9.000000      2.6658031E-09
   9.060000      3.7929544E-09
   9.120000      4.8476361E-09
   9.180000      5.8426681E-09
   9.240000      6.8023711E-09
   9.300000      7.7552693E-09
   9.360000      8.7274215E-09
   9.420000      9.7381037E-09
   9.480000      1.0798649E-08
   9.540000      1.1913995E-08
   9.600000      1.3085503E-08
   9.660000      1.4313214E-08
   9.720000      1.5596061E-08
   9.780000      1.6929681E-08
   9.840000      1.8302661E-08
   9.900000      1.9693131E-08
   9.960000      2.1067796E-08
   10.02000      2.2384821E-08
   10.08000      2.3600620E-08
   10.14000      2.4679057E-08
   10.20000      2.5600357E-08
   10.26000      2.6366839E-08
   10.32000      2.7003262E-08
   10.38000      2.7551287E-08
   10.44000      2.8059317E-08
   10.50000      2.8570518E-08
   10.56000      2.9112453E-08
   10.62000      2.9691224E-08
   10.68000      3.0291719E-08
   10.74000      3.0883591E-08
   10.80000      3.1430897E-08
   10.86000      3.1902349E-08
   10.92000      3.2278955E-08
   10.98000      3.2556841E-08
   11.04000      3.2744797E-08
   11.10000      3.2857766E-08
   11.16000      3.2908964E-08
   11.22000      3.2903774E-08
   11.28000      3.2837914E-08
   11.34000      3.2700811E-08
   11.40000      3.2483271E-08
   11.46000      3.2186584E-08
   11.52000      3.1829707E-08
   11.58000      3.1451293E-08
   11.64000      3.1104978E-08
   11.70000      3.0848550E-08
   11.76000      3.0729677E-08
   11.82000      3.0772419E-08
   11.88000      3.0968735E-08
   11.94000      3.1278088E-08
   12.00000      3.1635977E-08
   12.06000      3.1969524E-08
   12.12000      3.2216057E-08
   12.18000      3.2339532E-08
   12.24000      3.2339962E-08
   12.30000      3.2253002E-08
   12.36000      3.2139528E-08
   12.42000      3.2068129E-08
   12.48000      3.2095365E-08
   12.54000      3.2249435E-08
   12.60000      3.2521811E-08
   12.66000      3.2868904E-08
   12.72000      3.3223014E-08
   12.78000      3.3509153E-08
   12.84000      3.3662857E-08
   12.90000      3.3644202E-08
   12.96000      3.3444564E-08
   13.02000      3.3084952E-08
   13.08000      3.2606941E-08
   13.14000      3.2059123E-08
   13.20000      3.1482713E-08
   13.26000      3.0899805E-08
   13.32000      3.0306840E-08
   13.38000      2.9674174E-08
   13.44000      2.8951458E-08
   13.50000      2.8077201E-08
   13.56000      2.6990408E-08
   13.62000      2.5642100E-08
   13.68000      2.4004809E-08
   13.74000      2.2078673E-08
   13.80000      1.9893239E-08
   13.86000      1.7504588E-08
   13.92000      1.4987979E-08
   13.98000      1.2426863E-08
   14.04000      9.8999289E-09
   14.10000      7.4686382E-09
   14.16000      5.1679763E-09
   14.22000      3.0028826E-09
   14.28000      9.5168751E-10
   14.34000     -1.0238276E-09
   14.40000     -2.9639267E-09
   14.46000     -4.8955138E-09
   14.52000     -6.8197932E-09
   14.58000     -8.7063246E-09
   14.64000     -1.0495245E-08
   14.70000     -1.2107443E-08
   14.76000     -1.3460526E-08
   14.82000     -1.4486952E-08
   14.88000     -1.5150150E-08
   14.94000     -1.5454740E-08
   15.00000     -1.5448203E-08
   15.06000     -1.5213313E-08
   15.12000     -1.4852866E-08
   15.18000     -1.4470235E-08
   15.24000     -1.4150503E-08
   15.30000     -1.3946893E-08
   15.36000     -1.3875797E-08
   15.42000     -1.3921271E-08
   15.48000     -1.4047136E-08
   15.54000     -1.4212544E-08
   15.60000     -1.4386017E-08
   15.66000     -1.4553626E-08
   15.72000     -1.4719172E-08
   15.78000     -1.4897037E-08
   15.84000     -1.5100992E-08
   15.90000     -1.5333649E-08
   15.96000     -1.5581042E-08
   16.02000     -1.5815043E-08
   16.08000     -1.6003501E-08
   16.14000     -1.6125256E-08
   16.20000     -1.6185220E-08
   16.26000     -1.6224307E-08
   16.32000     -1.6320341E-08
   16.38000     -1.6578465E-08
   16.44000     -1.7112672E-08
   16.50000     -1.8022570E-08
   16.56000     -1.9370971E-08
   16.62000     -2.1167759E-08
   16.68000     -2.3363970E-08
   16.74000     -2.5857341E-08
   16.80000     -2.8507808E-08
   16.86000     -3.1158990E-08
   16.92000     -3.3660516E-08
   16.98000     -3.5886156E-08
   17.04000     -3.7744510E-08
   17.10000     -3.9181224E-08
   17.16000     -4.0174370E-08
   17.22000     -4.0726324E-08
   17.28000     -4.0855920E-08
   17.34000     -4.0593847E-08
   17.40000     -3.9982183E-08
   17.46000     -3.9076884E-08
   17.52000     -3.7950397E-08
   17.58000     -3.6691173E-08
   17.64000     -3.5398070E-08
   17.70000     -3.4169581E-08
   17.76000     -3.3090256E-08
   17.82000     -3.2218249E-08
   17.88000     -3.1578168E-08
   17.94000     -3.1161967E-08
   18.00000     -3.0938086E-08
   18.06000     -3.0866211E-08
   18.12000     -3.0913018E-08
   18.18000     -3.1063912E-08
   18.24000     -3.1326952E-08
   18.30000     -3.1727811E-08
   18.36000     -3.2297581E-08
   18.42000     -3.3057297E-08
   18.48000     -3.4004170E-08
   18.54000     -3.5103671E-08
   18.60000     -3.6289794E-08
   18.66000     -3.7473466E-08
   18.72000     -3.8556784E-08
   18.78000     -3.9449340E-08
   18.84000     -4.0082519E-08
   18.90000     -4.0418357E-08
   18.96000     -4.0451201E-08
   19.02000     -4.0202309E-08
   19.08000     -3.9709601E-08
   19.14000     -3.9015866E-08
   19.20000     -3.8159143E-08
   19.26000     -3.7167805E-08
   19.32000     -3.6061174E-08
   19.38000     -3.4854441E-08
   19.44000     -3.3565055E-08
   19.50000     -3.2217368E-08
   19.56000     -3.0843076E-08
   19.62000     -2.9477004E-08
   19.68000     -2.8149467E-08
   19.74000     -2.6878244E-08
   19.80000     -2.5663205E-08
   19.86000     -2.4485812E-08
   19.92000     -2.3313873E-08
   19.98000     -2.2109949E-08
   20.04000     -2.0840629E-08
   20.10000     -1.9483647E-08
   20.16000     -1.8030894E-08
   20.22000     -1.6486894E-08
   20.28000     -1.4864028E-08
   20.34000     -1.3176784E-08
   20.40000     -1.1437247E-08
   20.46000     -9.6533475E-09
   20.52000     -7.8300202E-09
   20.58000     -5.9723035E-09
   20.64000     -4.0887396E-09
   20.70000     -2.1935231E-09
   20.76000     -3.0648020E-10
   20.82000      1.5490869E-09
   20.88000      3.3497765E-09
   20.94000      5.0753295E-09
   21.00000      6.7104580E-09
   21.06000      8.2445935E-09
   21.12000      9.6698125E-09
   21.18000      1.0978042E-08
   21.24000      1.2159107E-08
   21.30000      1.3200964E-08
   21.36000      1.4092612E-08
   21.42000      1.4828951E-08
   21.48000      1.5415836E-08
   21.54000      1.5873111E-08
   21.60000      1.6233944E-08
   21.66000      1.6539982E-08
   21.72000      1.6833427E-08
   21.78000      1.7148361E-08
   21.84000      1.7504025E-08
   21.90000      1.7902227E-08
   21.96000      1.8329617E-08
   22.02000      1.8763979E-08
   22.08000      1.9182352E-08
   22.14000      1.9568153E-08
   22.20000      1.9914909E-08
   22.26000      2.0225238E-08
   22.32000      2.0505452E-08
   22.38000      2.0757593E-08
   22.44000      2.0971763E-08
   22.50000      2.1121661E-08
   22.56000      2.1165301E-08
   22.62000      2.1051267E-08
   22.68000      2.0728958E-08
   22.74000      2.0159929E-08
   22.80000      1.9326885E-08
   22.86000      1.8237611E-08
   22.92000      1.6922629E-08
   22.98000      1.5427315E-08
   23.04000      1.3800820E-08
   23.10000      1.2085096E-08
   23.16000      1.0307068E-08
   23.22000      8.4760137E-09
   23.28000      6.5865042E-09
   23.34000      4.6256345E-09
   23.40000      2.5820535E-09
   23.46000      4.5394613E-10
   23.52000     -1.7463433E-09
   23.58000     -3.9921293E-09
   23.64000     -6.2462919E-09
   23.70000     -8.4677438E-09
   23.76000     -1.0618410E-08
   23.82000     -1.2668822E-08
   23.88000     -1.4601129E-08
   23.94000     -1.6409169E-08
   24.00000     -1.8095983E-08
   24.06000     -1.9669667E-08
   24.12000     -2.1138648E-08
   24.18000     -2.2507571E-08
   24.24000     -2.3774756E-08
   24.30000     -2.4931905E-08
   24.36000     -2.5966088E-08
   24.42000     -2.6863390E-08
   24.48000     -2.7613138E-08
   24.54000     -2.8211467E-08
   24.60000     -2.8663374E-08
   24.66000     -2.8983019E-08
   24.72000     -2.9192568E-08
   24.78000     -2.9320113E-08
   24.84000     -2.9396944E-08
   24.90000     -2.9454249E-08
   24.96000     -2.9519141E-08
   25.02000     -2.9610336E-08
   25.08000     -2.9734361E-08
   25.14000     -2.9883712E-08
   25.20000     -3.0038304E-08
   25.26000     -3.0170757E-08
   25.32000     -3.0254750E-08
   25.38000     -3.0274439E-08
   25.44000     -3.0232211E-08
   25.50000     -3.0152336E-08
   25.56000     -3.0079093E-08
   25.62000     -3.0069707E-08
   25.68000     -3.0183784E-08
   25.74000     -3.0472158E-08
   25.80000     -3.0968206E-08
   25.86000     -3.1684007E-08
   25.92000     -3.2612189E-08
   25.98000     -3.3732615E-08
   26.04000     -3.5021323E-08
   26.10000     -3.6458434E-08
   26.16000     -3.8032336E-08
   26.22000     -3.9738691E-08
   26.28000     -4.1575241E-08
   26.34000     -4.3534833E-08
   26.40000     -4.5599904E-08
   26.46000     -4.7740819E-08
   26.52000     -4.9918761E-08
   26.58000     -5.2092020E-08
   26.64000     -5.4223054E-08
   26.70000     -5.6283813E-08
   26.76000     -5.8257594E-08
   26.82000     -6.0137303E-08
   26.88000     -6.1921384E-08
   26.94000     -6.3609562E-08
   27.00000     -6.5200268E-08
   27.06000     -6.6691030E-08
   27.12000     -6.8081540E-08
   27.18000     -6.9378018E-08
   27.24000     -7.0596464E-08
   27.30000     -7.1762422E-08
   27.36000     -7.2905955E-08
   27.42000     -7.4052217E-08
   27.48000     -7.5210302E-08
   27.54000     -7.6364330E-08
   27.60000     -7.7470858E-08
   27.66000     -7.8464971E-08
   27.72000     -7.9274521E-08
   27.78000     -7.9838713E-08
   27.84000     -8.0125254E-08
   27.90000     -8.0139984E-08
   27.96000     -7.9925158E-08
   28.02000     -7.9546190E-08
   28.08000     -7.9070503E-08
   28.14000     -7.8544993E-08
   28.20000     -7.7979458E-08
   28.26000     -7.7341774E-08
   28.32000     -7.6566955E-08
   28.38000     -7.5577816E-08
   28.44000     -7.4311039E-08
   28.50000     -7.2740427E-08
   28.56000     -7.0889470E-08
   28.62000     -6.8828662E-08
   28.68000     -6.6657769E-08
   28.74000     -6.4478471E-08
   28.80000     -6.2366226E-08
   28.86000     -6.0350786E-08
   28.92000     -5.8412041E-08
   28.98000     -5.6493029E-08
   29.04000     -5.4525827E-08
   29.10000     -5.2461733E-08
   29.16000     -5.0295256E-08
   29.22000     -4.8073350E-08
   29.28000     -4.5886047E-08
   29.34000     -4.3840778E-08
   29.40000     -4.2028535E-08
   29.46000     -4.0493035E-08
   29.52000     -3.9213607E-08
   29.58000     -3.8108407E-08
   29.64000     -3.7057927E-08
   29.70000     -3.5941905E-08
   29.76000     -3.4677978E-08
   29.82000     -3.3249457E-08
   29.88000     -3.1712773E-08
   29.94000     -3.0181667E-08
   30.00000     -2.8792741E-08
   30.06000     -2.7663079E-08
   30.12000     -2.6853412E-08
   30.18000     -2.6348758E-08
   30.24000     -2.6063182E-08
   30.30000     -2.5867793E-08
   30.36000     -2.5633737E-08
   30.42000     -2.5276849E-08
   30.48000     -2.4789601E-08
   30.54000     -2.4249356E-08
   30.60000     -2.3799148E-08
   30.66000     -2.3605942E-08
   30.72000     -2.3808903E-08
   30.78000     -2.4474058E-08
   30.84000     -2.5570097E-08
   30.90000     -2.6973654E-08
   30.96000     -2.8502855E-08
   31.02000     -2.9968799E-08
   31.08000     -3.1228812E-08
   31.14000     -3.2224818E-08
   31.20000     -3.2995153E-08
   31.26000     -3.3656626E-08
   31.32000     -3.4363040E-08
   31.38000     -3.5253592E-08
   31.44000     -3.6407307E-08
   31.50000     -3.7817582E-08
   31.56000     -3.9394124E-08
   31.62000     -4.0991083E-08
   31.68000     -4.2451742E-08
   31.74000     -4.3655067E-08
   31.80000     -4.4549157E-08
   31.86000     -4.5161165E-08
   31.92000     -4.5581224E-08
   31.98000     -4.5926605E-08
   32.04000     -4.6298695E-08
   32.10000     -4.6747328E-08
   32.16000     -4.7254002E-08
   32.22000     -4.7738901E-08
   32.28000     -4.8088445E-08
   32.34000     -4.8193542E-08
   32.40000     -4.7985672E-08
   32.46000     -4.7458997E-08
   32.52000     -4.6671701E-08
   32.58000     -4.5726640E-08
   32.64000     -4.4738016E-08
   32.70000     -4.3795101E-08
   32.76000     -4.2934836E-08
   32.82000     -4.2131859E-08
   32.88000     -4.1308837E-08
   32.94000     -4.0363201E-08
   33.00000     -3.9201236E-08
   33.06000     -3.7768430E-08
   33.12000     -3.6066691E-08
   33.18000     -3.4153739E-08
   33.24000     -3.2125975E-08
   33.30000     -3.0091247E-08
   33.36000     -2.8140645E-08
   33.42000     -2.6328079E-08
   33.48000     -2.4663173E-08
   33.54000     -2.3118616E-08
   33.60000     -2.1648262E-08
   33.66000     -2.0209331E-08
   33.72000     -1.8781124E-08
   33.78000     -1.7374301E-08
   33.84000     -1.6028322E-08
   33.90000     -1.4798797E-08
   33.96000     -1.3739803E-08
   34.02000     -1.2887693E-08
   34.08000     -1.2251849E-08
   34.14000     -1.1814976E-08
   34.20000     -1.1541918E-08
   34.26000     -1.1393189E-08
   34.32000     -1.1338216E-08
   34.38000     -1.1364091E-08
   34.44000     -1.1477658E-08
   34.50000     -1.1701189E-08
   34.56000     -1.2063788E-08
   34.62000     -1.2591555E-08
   34.68000     -1.3299423E-08
   34.74000     -1.4186644E-08
   34.80000     -1.5236569E-08
   34.86000     -1.6419937E-08
   34.92000     -1.7699811E-08
   34.98000     -1.9035999E-08
   35.04000     -2.0387192E-08
   35.10000     -2.1710576E-08
   35.16000     -2.2960046E-08
   35.22000     -2.4085356E-08
   35.28000     -2.5034330E-08
   35.34000     -2.5758945E-08
   35.40000     -2.6223990E-08
   35.46000     -2.6415197E-08
   35.52000     -2.6343262E-08
   35.58000     -2.6041265E-08
   35.64000     -2.5555360E-08
   35.70000     -2.4931325E-08
   35.76000     -2.4201222E-08
   35.82000     -2.3374653E-08
   35.88000     -2.2437561E-08
   35.94000     -2.1358954E-08
   36.00000     -2.0103375E-08
   36.06000     -1.8645085E-08
   36.12000     -1.6979472E-08
   36.18000     -1.5128137E-08
   36.24000     -1.3136169E-08
   36.30000     -1.1062466E-08
   36.36000     -8.9661922E-09
   36.42000     -6.8936212E-09
   36.48000     -4.8695874E-09
   36.54000     -2.8962863E-09
   36.60000     -9.5982866E-10
   36.66000      9.5770669E-10
   36.72000      2.8649256E-09
   36.78000      4.7513047E-09
   36.84000      6.5846359E-09
   36.90000      8.3169533E-09
   36.96000      9.8970858E-09
   37.02000      1.1285419E-08
   37.08000      1.2465454E-08
   37.14000      1.3447808E-08
   37.20000      1.4265030E-08
   37.26000      1.4959108E-08
   37.32000      1.5566400E-08
   37.38000      1.6105703E-08
   37.44000      1.6573923E-08
   37.50000      1.6950757E-08
   37.56000      1.7210157E-08
   37.62000      1.7333726E-08
   37.68000      1.7320609E-08
   37.74000      1.7190022E-08
   37.80000      1.6975768E-08
   37.86000      1.6715294E-08
   37.92000      1.6437927E-08
   37.98000      1.6157003E-08
   38.04000      1.5868814E-08
   38.10000      1.5558481E-08
   38.16000      1.5210196E-08
   38.22000      1.4817648E-08
   38.28000      1.4390481E-08
   38.34000      1.3954032E-08
   38.40000      1.3542054E-08
   38.46000      1.3184591E-08
   38.52000      1.2895129E-08
   38.58000      1.2661775E-08
   38.64000      1.2446306E-08
   38.70000      1.2192497E-08
   38.76000      1.1841943E-08
   38.82000      1.1352578E-08
   38.88000      1.0713542E-08
   38.94000      9.9507371E-09
   39.00000      9.1204360E-09
   39.06000      8.2925249E-09
   39.12000      7.5289481E-09
   39.18000      6.8648567E-09
   39.24000      6.2990626E-09
   39.30000      5.7969332E-09
   39.36000      5.3042144E-09
   39.42000      4.7664019E-09
   39.48000      4.1465498E-09
   39.54000      3.4354795E-09
   39.60000      2.6515017E-09
   39.66000      1.8306295E-09
   39.72000      1.0114095E-09
   39.78000      2.1990024E-10
   39.84000     -5.4021104E-10
   39.90000     -1.2893955E-09
   39.96000     -2.0657220E-09
   40.02000     -2.9122578E-09
   40.08000     -3.8625143E-09
   40.14000     -4.9286055E-09
   40.20000     -6.0960783E-09
   40.26000     -7.3274542E-09
   40.32000     -8.5738554E-09
   40.38000     -9.7913446E-09
   40.44000     -1.0956725E-08
   40.50000     -1.2077231E-08
   40.56000     -1.3190186E-08
   40.62000     -1.4351948E-08
   40.68000     -1.5619213E-08
   40.74000     -1.7028720E-08
   40.80000     -1.8582393E-08
   40.86000     -2.0243307E-08
   40.92000     -2.1944333E-08
   40.98000     -2.3606818E-08
   41.04000     -2.5163303E-08
   41.10000     -2.6576739E-08
   41.16000     -2.7850046E-08
   41.22000     -2.9023161E-08
   41.28000     -3.0158823E-08
   41.34000     -3.1321925E-08
   41.40000     -3.2558876E-08
   41.46000     -3.3883229E-08
   41.52000     -3.5271455E-08
   41.58000     -3.6669729E-08
   41.64000     -3.8009400E-08
   41.70000     -3.9226425E-08
   41.76000     -4.0279101E-08
   41.82000     -4.1159073E-08
   41.88000     -4.1892463E-08
   41.94000     -4.2530978E-08
   42.00000     -4.3135810E-08
   42.06000     -4.3759343E-08
   42.12000     -4.4430358E-08
   42.18000     -4.5147278E-08
   42.24000     -4.5881290E-08
   42.30000     -4.6587942E-08
   42.36000     -4.7223157E-08
   42.42000     -4.7758238E-08
   42.48000     -4.8189250E-08
   42.54000     -4.8538229E-08
   42.60000     -4.8846562E-08
   42.66000     -4.9163223E-08
   42.72000     -4.9531845E-08
   42.78000     -4.9980450E-08
   42.84000     -5.0516341E-08
   42.90000     -5.1126889E-08
   42.96000     -5.1785449E-08
   43.02000     -5.2460383E-08
   43.08000     -5.3124928E-08
   43.14000     -5.3765490E-08
   43.20000     -5.4386380E-08
   43.26000     -5.5009728E-08
   43.32000     -5.5670270E-08
   43.38000     -5.6406037E-08
   43.44000     -5.7247224E-08
   43.50000     -5.8206449E-08
   43.56000     -5.9273461E-08
   43.62000     -6.0416262E-08
   43.68000     -6.1588423E-08
   43.74000     -6.2740426E-08
   43.80000     -6.3831344E-08
   43.86000     -6.4836932E-08
   43.92000     -6.5751919E-08
   43.98000     -6.6585805E-08
   44.04000     -6.7354243E-08
   44.10000     -6.8068786E-08
   44.16000     -6.8728433E-08
   44.22000     -6.9315234E-08
   44.28000     -6.9794780E-08
   44.34000     -7.0121210E-08
   44.40000     -7.0245207E-08
   44.46000     -7.0122901E-08
   44.52000     -6.9723967E-08
   44.58000     -6.9036993E-08
   44.64000     -6.8071117E-08
   44.70000     -6.6853197E-08
   44.76000     -6.5421148E-08
   44.82000     -6.3814852E-08
   44.88000     -6.2067400E-08
   44.94000     -6.0199504E-08
   45.00000     -5.8219367E-08
   45.06000     -5.6128666E-08
   45.12000     -5.3932737E-08
   45.18000     -5.1651341E-08
   45.24000     -4.9325671E-08
   45.30000     -4.7018681E-08
   45.36000     -4.4808441E-08
   45.42000     -4.2777252E-08
   45.48000     -4.1001147E-08
   45.54000     -3.9544155E-08
   45.60000     -3.8459589E-08
   45.66000     -3.7797687E-08
   45.72000     -3.7616196E-08
   45.78000     -3.7990027E-08
   45.84000     -3.9016694E-08
   45.90000     -4.0816690E-08
   45.96000     -4.3530186E-08
   46.02000     -4.7312678E-08
   46.08000     -5.2332702E-08
   46.14000     -5.8773747E-08
   46.20000     -6.6841174E-08
   46.26000     -7.6773517E-08
   46.32000     -8.8856240E-08
   46.38000     -1.0343557E-07
   46.44000     -1.2092991E-07
   46.50000     -1.4183736E-07
   46.56000     -1.6673945E-07
   46.62000     -1.9630271E-07
   46.68000     -2.3128131E-07
   46.74000     -2.7252349E-07
   46.80000     -3.2098416E-07
   46.86000     -3.7774325E-07
   46.92000     -4.4402884E-07
   46.98000     -5.2124125E-07
   47.04000     -6.1097501E-07
   47.10000     -7.1503683E-07
   47.16000     -8.3545882E-07
   47.22000     -9.7450970E-07
   47.28000     -1.1347071E-06
   47.34000     -1.3188364E-06
   47.40000     -1.5299777E-06
   47.46000     -1.7715438E-06
   47.52000     -2.0473240E-06
   47.58000     -2.3615294E-06
   47.64000     -2.7188330E-06
   47.70000     -3.1243987E-06
   47.76000     -3.5838987E-06
   47.82000     -4.1035228E-06
   47.88000     -4.6899836E-06
   47.94000     -5.3505273E-06
   48.00000     -6.0929483E-06
   48.06000     -6.9256203E-06
   48.12000     -7.8575276E-06
   48.18000     -8.8983097E-06
   48.24000     -1.0058294E-05
   48.30000     -1.1348524E-05
   48.36000     -1.2780771E-05
   48.42000     -1.4367521E-05
   48.48000     -1.6121950E-05
   48.54000     -1.8057886E-05
   48.60000     -2.0189744E-05
   48.66000     -2.2532497E-05
   48.72000     -2.5101608E-05
   48.78000     -2.7913025E-05
   48.84000     -3.0983105E-05
   48.90000     -3.4328608E-05
   48.96000     -3.7966598E-05
   49.02000     -4.1914380E-05
   49.08000     -4.6189376E-05
   49.14000     -5.0808991E-05
   49.20000     -5.5790482E-05
   49.26000     -6.1150786E-05
   49.32000     -6.6906345E-05
   49.38000     -7.3072973E-05
   49.44000     -7.9665660E-05
   49.50000     -8.6698456E-05
   49.56000     -9.4184288E-05
   49.62000     -1.0213481E-04
   49.68000     -1.1056022E-04
   49.74000     -1.1946906E-04
   49.80000     -1.2886807E-04
   49.86000     -1.3876193E-04
   49.92000     -1.4915310E-04
   49.98000     -1.6004170E-04
   50.04000     -1.7142524E-04
   50.10000     -1.8329862E-04
   50.16000     -1.9565389E-04
   50.22000     -2.0848036E-04
   50.28000     -2.2176431E-04
   50.34000     -2.3548910E-04
   50.40000     -2.4963508E-04
   50.46000     -2.6417960E-04
   50.52000     -2.7909700E-04
   50.58000     -2.9435870E-04
   50.64000     -3.0993330E-04
   50.70000     -3.2578659E-04
   50.76000     -3.4188197E-04
   50.82000     -3.5818032E-04
   50.88000     -3.7464060E-04
   50.94000     -3.9121989E-04
   51.00000     -4.0787380E-04
   51.06000     -4.2455675E-04
   51.12000     -4.4122222E-04
   51.18000     -4.5782328E-04
   51.24000     -4.7431272E-04
   51.30000     -4.9064372E-04
   51.36000     -5.0677010E-04
   51.42000     -5.2264682E-04
   51.48000     -5.3823058E-04
   51.54000     -5.5347994E-04
   51.60000     -5.6835584E-04
   51.66000     -5.8282219E-04
   51.72000     -5.9684605E-04
   51.78000     -6.1039772E-04
   51.84000     -6.2345160E-04
   51.90000     -6.3598622E-04
   51.96000     -6.4798427E-04
   52.02000     -6.5943308E-04
   52.08000     -6.7032472E-04
   52.14000     -6.8065617E-04
   52.20000     -6.9042936E-04
   52.26000     -6.9965119E-04
   52.32000     -7.0833327E-04
   52.38000     -7.1649213E-04
   52.44000     -7.2414882E-04
   52.50000     -7.3132891E-04
   52.56000     -7.3806167E-04
   52.62000     -7.4438046E-04
   52.68000     -7.5032166E-04
   52.74000     -7.5592491E-04
   52.80000     -7.6123216E-04
   52.86000     -7.6628727E-04
   52.92000     -7.7113562E-04
   52.98000     -7.7582349E-04
   53.04000     -7.8039756E-04
   53.10000     -7.8490446E-04
   53.16000     -7.8939000E-04
   53.22000     -7.9389883E-04
   53.28000     -7.9847372E-04
   53.34000     -8.0315501E-04
   53.40000     -8.0798013E-04
   53.46000     -8.1298343E-04
   53.52000     -8.1819546E-04
   53.58000     -8.2364283E-04
   53.64000     -8.2934764E-04
   53.70000     -8.3532761E-04
   53.76000     -8.4159529E-04
   53.82000     -8.4815861E-04
   53.88000     -8.5502019E-04
   53.94000     -8.6217787E-04
   54.00000     -8.6962437E-04
   54.06000     -8.7734760E-04
   54.12000     -8.8533072E-04
   54.18000     -8.9355226E-04
   54.24000     -9.0198690E-04
   54.30000     -9.1060548E-04
   54.36000     -9.1937545E-04
   54.42000     -9.2826149E-04
   54.48000     -9.3722553E-04
   54.54000     -9.4622764E-04
   54.60000     -9.5522654E-04
   54.66000     -9.6417964E-04
   54.72000     -9.7304437E-04
   54.78000     -9.8177802E-04
   54.84000     -9.9033874E-04
   54.90000     -9.9868583E-04
   54.96000     -1.0067800E-03
   55.02000     -1.0145837E-03
   55.08000     -1.0220621E-03
   55.14000     -1.0291835E-03
   55.20000     -1.0359188E-03
   55.26000     -1.0422431E-03
   55.32000     -1.0481349E-03
   55.38000     -1.0535766E-03
   55.44000     -1.0585546E-03
   55.50000     -1.0630597E-03
   55.56000     -1.0670864E-03