 -0.750000000       0.00000000    
 -0.689999998       0.00000000    
 -0.629999995       0.00000000    
 -0.569999993       0.00000000    
 -0.509999990       0.00000000    
 -0.449999988      -7.10280411E-20
 -0.389999986      -4.41093700E-19
 -0.330000013      -1.17614702E-18
 -0.270000011      -1.12772852E-18
 -0.209999993       2.97621652E-18
 -0.150000006       1.49096510E-17
  -9.00000036E-02   3.29573737E-17
  -2.99999993E-02   4.19669323E-17
   2.99999993E-02   1.17604040E-17
   9.00000036E-02  -8.81584811E-17
  0.150000006      -2.55859590E-16
  0.209999993      -4.21345449E-16
  0.270000011      -4.38447123E-16
  0.330000013      -1.34017540E-16
  0.389999986       5.80502754E-16
  0.449999988       1.57234207E-15
  0.509999990       2.40245882E-15
  0.569999993       2.38237355E-15
  0.629999995       8.31311063E-16
  0.689999998      -2.48843330E-15
  0.750000000      -6.89845528E-15
  0.810000002      -1.05553629E-14
  0.870000005      -1.07430112E-14
  0.930000007      -4.91615763E-15
  0.990000010       7.63309331E-15
   1.04999995       2.41356160E-14
   1.11000001       3.78349492E-14
   1.16999996       3.96859296E-14
   1.23000002       2.25045778E-14
   1.28999996      -1.37592074E-14
   1.35000002      -5.85308440E-14
   1.40999997      -9.21876982E-14
   1.47000003      -9.41842226E-14
   1.52999997      -5.53557037E-14
   1.59000003       1.20859701E-14
   1.64999998       7.48261519E-14
   1.71000004       9.34037529E-14
   1.76999998       4.78799502E-14
   1.83000004      -3.91564358E-14
   1.88999999      -9.97968594E-14
   1.95000005      -4.94850776E-14
   2.00999999       1.58433921E-13
   2.06999993       4.78031568E-13
   2.13000011       7.52844347E-13
   2.19000006       7.62628404E-13
   2.25000000       3.32180111E-13
   2.30999994      -5.40818800E-13
   2.36999989      -1.60978370E-12
   2.43000007      -2.41935400E-12
   2.49000001      -2.47806550E-12
   2.54999995      -1.50724171E-12
   2.60999990       3.51057291E-13
   2.67000008       2.49341888E-12
   2.73000002       4.04658728E-12
   2.78999996       4.24174541E-12
   2.84999990       2.80949049E-12
   2.91000009       1.87881178E-13
   2.97000003      -2.60140889E-12
   3.02999997      -4.39645933E-12
   3.08999991      -4.46516825E-12
   3.15000010      -2.90492825E-12
   3.21000004      -6.21198514E-13
   3.26999998       1.16743280E-12
   3.32999992       1.68555805E-12
   3.39000010       1.21471670E-12
   3.45000005       1.16332974E-12
   3.50999999       3.42136085E-12
   3.56999993       9.19706498E-12
   3.63000011       1.78628640E-11
   3.69000006       2.64458750E-11
   3.75000000       3.01966993E-11
   3.80999994       2.42202629E-11
   3.86999989       5.64983390E-12
   3.93000007      -2.44721413E-11
   3.99000001      -6.04129802E-11
   4.05000019      -9.24972876E-11
   4.11000013      -1.09252760E-10
   4.17000008      -1.00334588E-10
   4.23000002      -5.94026425E-11
   4.28999996       1.37322428E-11
   4.34999990       1.11993033E-10
   4.40999985       2.20852656E-10
   4.46999979       3.18775645E-10
   4.53000021       3.78065246E-10
   4.59000015       3.66183778E-10
   4.65000010       2.47900894E-10
   4.71000004      -1.13209641E-11
   4.76999998      -4.40587594E-10
   4.82999992      -1.05793407E-09
   4.88999987      -1.86486449E-09
   4.94999981      -2.84251289E-09
   5.01000023      -3.95077393E-09
   5.07000017      -5.13112575E-09
   5.13000011      -6.31293773E-09
   5.19000006      -7.42206430E-09
   5.25000000      -8.38993230E-09
   5.30999994      -9.16122911E-09
   5.36999989      -9.69887370E-09
   5.42999983      -9.98581395E-09
   5.48999977      -1.00242081E-08
   5.55000019      -9.83315740E-09
   5.61000013      -9.44631040E-09
   5.67000008      -8.91017660E-09
   5.73000002      -8.28315283E-09
   5.78999996      -7.63438912E-09
   5.84999990      -7.04114589E-09
   5.90999985      -6.58339161E-09
   5.96999979      -6.33524566E-09
   6.03000021      -6.35414432E-09
   6.09000015      -6.66990196E-09
   6.15000010      -7.27659177E-09
   6.21000004      -8.13002909E-09
   6.26999998      -9.15245657E-09
   6.32999992      -1.02441726E-08
   6.38999987      -1.12998606E-08
   6.44999981      -1.22259998E-08
   6.51000023      -1.29554412E-08
   6.57000017      -1.34560896E-08
   6.63000011      -1.37323761E-08
   6.69000006      -1.38200713E-08
   6.75000000      -1.37764626E-08
   6.80999994      -1.36684717E-08
   6.86999989      -1.35610438E-08
   6.92999983      -1.35073588E-08
   6.98999977      -1.35416549E-08
   7.05000019      -1.36750087E-08
   7.11000013      -1.38942955E-08
   7.17000008      -1.41646570E-08
   7.23000002      -1.44355852E-08
   7.28999996      -1.46501602E-08
   7.34999990      -1.47561217E-08
   7.40999985      -1.47165560E-08
   7.46999979      -1.45176458E-08
   7.53000021      -1.41713823E-08
   7.59000015      -1.37123619E-08
   7.65000010      -1.31894495E-08
   7.71000004      -1.26546151E-08
   7.76999998      -1.21520554E-08
   7.82999992      -1.17105357E-08
   7.88999987      -1.13408190E-08
   7.94999981      -1.10382663E-08
   8.01000023      -1.07890523E-08
   8.06999969      -1.05772493E-08
   8.13000011      -1.03898872E-08
   8.18999958      -1.02179900E-08
   8.25000000      -1.00533697E-08
   8.31000042      -9.88279059E-09
   8.36999989      -9.68255787E-09
   8.43000031      -9.41667988E-09
   8.48999977      -9.04057806E-09
   8.55000019      -8.51012683E-09
   8.60999966      -7.79345388E-09
   8.67000008      -6.88153223E-09
   8.72999954      -5.79373971E-09
   8.78999996      -4.57622296E-09
   8.85000038      -3.29350192E-09
   8.90999985      -2.01597183E-09
   8.97000027      -8.07071243E-10
   9.02999973       2.86587781E-10
   9.09000015       1.24036126E-09
   9.14999962       2.05197970E-09
   9.21000004       2.73834355E-09
   9.27000046       3.33004690E-09
   9.32999992       3.86458421E-09
   9.39000034       4.37885594E-09
   9.44999981       4.90171903E-09
   9.51000023       5.44795453E-09
   9.56999969       6.01552097E-09
   9.63000011       6.58768062E-09
   9.68999958       7.14024573E-09
   9.75000000       7.65221664E-09
   9.81000042       8.11641687E-09
   9.86999989       8.54626414E-09
   9.93000031       8.97604036E-09
   9.98999977       9.45428891E-09
   10.0500002       1.00325046E-08
   10.1099997       1.07527764E-08
   10.1700001       1.16380967E-08
   10.2299995       1.26877548E-08
   10.2900000       1.38784095E-08
   10.3500004       1.51698227E-08
   10.4099998       1.65132974E-08
   10.4700003       1.78607475E-08
   10.5299997       1.91725054E-08
   10.5900002       2.04224619E-08
   10.6499996       2.15996021E-08
   10.7100000       2.27056702E-08
   10.7700005       2.37497026E-08
   10.8299999       2.47410199E-08
   10.8900003       2.56830397E-08
   10.9499998       2.65700599E-08
   11.0100002       2.73882410E-08
   11.0699997       2.81204340E-08
   11.1300001       2.87529929E-08
   11.1899996       2.92818569E-08
   11.2500000       2.97155083E-08
   11.3100004       3.00735863E-08
   11.3699999       3.03817593E-08
   11.4300003       3.06648360E-08
   11.4899998       3.09406936E-08
   11.5500002       3.12170378E-08
   11.6099997       3.14917266E-08
   11.6700001       3.17559028E-08
   11.7299995       3.19982405E-08
   11.7900000       3.22084794E-08
   11.8500004       3.23792797E-08
   11.9099998       3.25063496E-08
   11.9700003       3.25875327E-08
   12.0299997       3.26217311E-08
   12.0900002       3.26080283E-08
   12.1499996       3.25450387E-08
   12.2100000       3.24304281E-08
   12.2700005       3.22608678E-08
   12.3299999       3.20330358E-08
   12.3900003       3.17459943E-08
   12.4499998       3.14044826E-08
   12.5100002       3.10214645E-08
   12.5699997       3.06178158E-08
   12.6300001       3.02179117E-08
   12.6899996       2.98419245E-08
   12.7500000       2.94977536E-08
   12.8100004       2.91765048E-08
   12.8699999       2.88541600E-08
   12.9300003       2.84991835E-08
   12.9899998       2.80828374E-08
   13.0500002       2.75875980E-08
   13.1099997       2.70101488E-08
   13.1700001       2.63585065E-08
   13.2299995       2.56457557E-08
   13.2900000       2.48842049E-08
   13.3500004       2.40826381E-08
   13.4099998       2.32469315E-08
   13.4700003       2.23821317E-08
   13.5299997       2.14936904E-08
   13.5900002       2.05869473E-08
   13.6499996       1.96657393E-08
   13.7100000       1.87318392E-08
   13.7700005       1.77861406E-08
   13.8299999       1.68306897E-08
   13.8900003       1.58695403E-08
   13.9499998       1.49068438E-08
   14.0100002       1.39426701E-08
   14.0699997       1.29690525E-08
   14.1300001       1.19693198E-08
   14.1899996       1.09221361E-08
   14.2500000       9.80872095E-09
   14.3100004       8.61951222E-09
   14.3699999       7.35648387E-09
   14.4300003       6.02971539E-09
   14.4899998       4.65015404E-09
   14.5500002       3.22268079E-09
   14.6099997       1.74331383E-09
   14.6700001       2.01836728E-10
   14.7299995      -1.41201650E-09
   14.7900000      -3.10247783E-09
   14.8500004      -4.86489249E-09
   14.9099998      -6.68696920E-09
   14.9700003      -8.55259152E-09
   15.0299997      -1.04456799E-08
   15.0900002      -1.23524373E-08
   15.1499996      -1.42621026E-08
   15.2100000      -1.61676130E-08
   15.2700005      -1.80672384E-08
   15.3299999      -1.99666932E-08
   15.3900003      -2.18797194E-08
   15.4499998      -2.38250522E-08
   15.5100002      -2.58195794E-08
   15.5699997      -2.78702057E-08
   15.6300001      -2.99687350E-08
   15.6899996      -3.20932543E-08
   15.7500000      -3.42162565E-08
   15.8100004      -3.63157113E-08
   15.8699999      -3.83831669E-08
   15.9300003      -4.04240375E-08
   15.9899998      -4.24497557E-08
   16.0499992      -4.44660486E-08
   16.1100006      -4.64642120E-08
   16.1700001      -4.84206488E-08
   16.2299995      -5.03049051E-08
   16.2900009      -5.20913837E-08
   16.3500004      -5.37676499E-08
   16.4099998      -5.53345458E-08
   16.4699993      -5.67985765E-08
   16.5300007      -5.81619304E-08
   16.5900002      -5.94169585E-08
   16.6499996      -6.05487145E-08
   16.7099991      -6.15437159E-08
   16.7700005      -6.23986338E-08
   16.8299999      -6.31225845E-08
   16.8899994      -6.37308162E-08
   16.9500008      -6.42333333E-08
   17.0100002      -6.46257945E-08
   17.0699997      -6.48886882E-08
   17.1299992      -6.49960086E-08
   17.1900005      -6.49285710E-08
   17.2500000      -6.46844072E-08
   17.3099995      -6.42800160E-08
   17.3700008      -6.37424264E-08
   17.4300003      -6.30970192E-08
   17.4899998      -6.23584668E-08
   17.5499992      -6.15299243E-08
   17.6100006      -6.06098780E-08
   17.6700001      -5.96015255E-08
   17.7299995      -5.85178093E-08
   17.7900009      -5.73786849E-08
   17.8500004      -5.62020901E-08
   17.9099998      -5.49945511E-08
   17.9699993      -5.37477014E-08
   18.0300007      -5.24434718E-08
   18.0900002      -5.10652747E-08
   18.1499996      -4.96088823E-08
   18.2099991      -4.80865907E-08
   18.2700005      -4.65221710E-08
   18.3299999      -4.49395579E-08
   18.3899994      -4.33515055E-08
   18.4500008      -4.17544399E-08
   18.5100002      -4.01317557E-08
   18.5699997      -3.84628613E-08
   18.6299992      -3.67324482E-08
   18.6900005      -3.49349207E-08
   18.7500000      -3.30726522E-08
   18.8099995      -3.11509893E-08
   18.8700008      -2.91746094E-08
   18.9300003      -2.71485394E-08
   18.9899998      -2.50832901E-08
   19.0499992      -2.30000534E-08
   19.1100006      -2.09313722E-08
   19.1700001      -1.89154026E-08
   19.2299995      -1.69862933E-08
   19.2900009      -1.51662167E-08
   19.3500004      -1.34641418E-08
   19.4099998      -1.18824994E-08
   19.4699993      -1.04278355E-08
   19.5300007      -9.11856102E-09
   19.5900002      -7.98415645E-09
   19.6499996      -7.05490022E-09
   19.7099991      -6.34681996E-09
   19.7700005      -5.84952620E-09
   19.8299999      -5.52324986E-09
   19.8899994      -5.30645439E-09
   19.9500008      -5.12996357E-09
   20.0100002      -4.93072783E-09
   20.0699997      -4.65969441E-09
   20.1299992      -4.28256230E-09
   20.1900005      -3.77660347E-09
   20.2500000      -3.12845883E-09
   20.3099995      -2.33598341E-09
   20.3700008      -1.41337786E-09
   20.4300003      -3.95682931E-10
   20.4899998       6.61615818E-10
   20.5499992       1.68949466E-09
   20.6100006       2.61672617E-09
   20.6700001       3.38121420E-09
   20.7299995       3.93735444E-09
   20.7900009       4.25811830E-09
   20.8500004       4.33348024E-09
   20.9099998       4.16800550E-09
   20.9699993       3.77936127E-09
   21.0300007       3.19735971E-09
   21.0900002       2.46169352E-09
   21.1499996       1.61703018E-09
   21.2099991       7.06103731E-10
   21.2700005      -2.36640818E-10
   21.3299999      -1.18804633E-09
   21.3899994      -2.13477103E-09
   21.4500008      -3.06867842E-09
   21.5100002      -3.98190902E-09
   21.5699997      -4.86397056E-09
   21.6299992      -5.70122927E-09
   21.6900005      -6.47737020E-09
   21.7500000      -7.17317539E-09
   21.8099995      -7.76545050E-09
   21.8700008      -8.22688850E-09
   21.9300003      -8.52925908E-09
   21.9899998      -8.65075300E-09
   22.0499992      -8.58538574E-09
   22.1100006      -8.35003711E-09
   22.1700001      -7.98492827E-09
   22.2299995      -7.54620633E-09
   22.2900009      -7.09343295E-09
   22.3500004      -6.67755229E-09
   22.4099998      -6.33456798E-09
   22.4699993      -6.08679240E-09
   22.5300007      -5.94914074E-09
   22.5900002      -5.93517280E-09
   22.6499996      -6.05814110E-09
   22.7099991      -6.32585184E-09
   22.7700005      -6.73246081E-09
   22.8299999      -7.25276639E-09
   22.8899994      -7.84346810E-09
   22.9500008      -8.45192094E-09
   23.0100002      -9.02834785E-09
   23.0699997      -9.53526946E-09
   23.1299992      -9.94944749E-09
   23.1900005      -1.02562119E-08
   23.2500000      -1.04408988E-08
   23.3099995      -1.04841531E-08
   23.3700008      -1.03655697E-08
   23.4300003      -1.00746549E-08
   23.4899998      -9.62281721E-09
   23.5499992      -9.04832120E-09
   23.6100006      -8.40951930E-09
   23.6700001      -7.76832465E-09
   23.7299995      -7.17189463E-09
   23.7900009      -6.64196165E-09
   23.8500004      -6.17703044E-09
   23.9099998      -5.76516523E-09
   23.9699993      -5.39893730E-09
   24.0300007      -5.08318498E-09
   24.0900002      -4.83121010E-09
   24.1499996      -4.65267247E-09
   24.2099991      -4.54182780E-09
   24.2700005      -4.47442616E-09
   24.3299999      -4.41577397E-09
   24.3899994      -4.33511227E-09
   24.4500008      -4.21743884E-09
   24.5100002      -4.06577927E-09
   24.5699997      -3.89339583E-09
   24.6299992      -3.71197761E-09
   24.6900005      -3.52416318E-09
   24.7500000      -3.32525629E-09
   24.8099995      -3.11221537E-09
   24.8700008      -2.89260682E-09
   24.9300003      -2.68593370E-09
   24.9899998      -2.51480747E-09
   25.0499992      -2.39050446E-09
   25.1100006      -2.30181674E-09
   25.1700001      -2.21479635E-09
   25.2299995      -2.08477524E-09
   25.2900009      -1.87473814E-09
   25.3500004      -1.57032110E-09
   25.4099998      -1.18366605E-09
   25.4699993      -7.44812600E-10
   25.5300007      -2.86243473E-10
   25.5900002       1.70524081E-10
   25.6499996       6.19536145E-10
   25.7099991       1.06534814E-09
   25.7700005       1.51331370E-09
   25.8299999       1.96239291E-09
   25.8899994       2.40500464E-09
   25.9500008       2.83295365E-09
   26.0100002       3.24387917E-09
   26.0699997       3.64211794E-09
   26.1299992       4.03177491E-09
   26.1900005       4.40562387E-09
   26.2500000       4.73724526E-09
   26.3099995       4.98283548E-09
   26.3700008       5.09366460E-09
   26.4300003       5.03351405E-09
   26.4899998       4.79187445E-09
   26.5499992       4.38565317E-09
   26.6100006       3.84856991E-09
   26.6700001       3.21438742E-09
   26.7299995       2.50318744E-09
   26.7900009       1.71725589E-09
   26.8500004       8.46609616E-10
   26.9099998      -1.21757618E-10
   26.9699993      -1.19827293E-09
   27.0300007      -2.39232256E-09
   27.0900002      -3.71819220E-09
   27.1499996      -5.19870014E-09
   27.2099991      -6.86110502E-09
   27.2700005      -8.72569039E-09
   27.3299999      -1.07935589E-08
   27.3899994      -1.30420803E-08
   27.4500008      -1.54322990E-08
   27.5100002      -1.79249486E-08
   27.5699997      -2.04957384E-08
   27.6299992      -2.31405224E-08
   27.6900005      -2.58672426E-08
   27.7500000      -2.86801676E-08
   27.8099995      -3.15671755E-08
   27.8700008      -3.44990454E-08
   27.9300003      -3.74419038E-08
   27.9899998      -4.03752445E-08
   28.0499992      -4.33040093E-08
   28.1100006      -4.62566270E-08
   28.1700001      -4.92697083E-08
   28.2299995      -5.23682857E-08
   28.2900009      -5.55530590E-08
   28.3500004      -5.88013869E-08
   28.4099998      -6.20798488E-08
   28.4699993      -6.53592735E-08
   28.5300007      -6.86220858E-08
   28.5900002      -7.18577269E-08
   28.6499996      -7.50502522E-08
   28.7099991      -7.81679859E-08
   28.7700005      -8.11638401E-08
   28.8299999      -8.39882048E-08
   28.8899994      -8.66074927E-08
   28.9500008      -8.90172984E-08
   29.0100002      -9.12414677E-08
   29.0699997      -9.33165296E-08
   29.1299992      -9.52694137E-08
   29.1900005      -9.71006955E-08
   29.2500000      -9.87818112E-08
   29.3099995      -1.00267144E-07
   29.3700008      -1.01512960E-07
   29.4300003      -1.02492393E-07
   29.4899998      -1.03199092E-07
   29.5499992      -1.03639799E-07
   29.6100006      -1.03822998E-07
   29.6700001      -1.03752484E-07
   29.7299995      -1.03429727E-07
   29.7900009      -1.02862003E-07
   29.8500004      -1.02068228E-07
   29.9099998      -1.01075436E-07
   29.9699993      -9.99055345E-08
   30.0300007      -9.85591839E-08
   30.0900002      -9.70075362E-08
   30.1499996      -9.51988923E-08
   30.2099991      -9.30792581E-08
   30.2700005      -9.06173909E-08
   30.3299999      -8.78221158E-08
   30.3899994      -8.47435260E-08
   30.4500008      -8.14585732E-08
   30.5100002      -7.80492257E-08
   30.5699997      -7.45838307E-08
   30.6299992      -7.11087935E-08
   30.6900005      -6.76504897E-08
   30.7500000      -6.42220712E-08
   30.8099995      -6.08290023E-08
   30.8700008      -5.74711514E-08
   30.9300003      -5.41437402E-08
   30.9899998      -5.08414075E-08
   31.0499992      -4.75671342E-08
   31.1100006      -4.43426948E-08
   31.1700001      -4.12137418E-08
   31.2299995      -3.82437264E-08
   31.2900009      -3.54963348E-08
   31.3500004      -3.30133041E-08
   31.4099998      -3.07982972E-08
   31.4699993      -2.88156521E-08
   31.5300007      -2.70057789E-08
   31.5900002      -2.53107988E-08
   31.6499996      -2.36991937E-08
   31.7099991      -2.21793641E-08
   31.7700005      -2.07980690E-08
   31.8299999      -1.96268974E-08
   31.8899994      -1.87443288E-08
   31.9500008      -1.82203816E-08
   32.0099983      -1.81070110E-08
   32.0699997      -1.84331093E-08
   32.1300011      -1.92016234E-08
   32.1899986      -2.03878745E-08
   32.2500000      -2.19413092E-08
   32.3100014      -2.37939659E-08
   32.3699989      -2.58765169E-08
   32.4300003      -2.81378156E-08
   32.4900017      -3.05598178E-08
   32.5499992      -3.31598180E-08
   32.6100006      -3.59772123E-08
   32.6699982      -3.90497092E-08
   32.7299995      -4.23898889E-08
   32.7900009      -4.59730884E-08
   32.8499985      -4.97416579E-08
   32.9099998      -5.36220384E-08
   32.9700012      -5.75448205E-08
   33.0299988      -6.14575981E-08
   33.0900002      -6.53260130E-08
   33.1500015      -6.91257327E-08
   33.2099991      -7.28326697E-08
   33.2700005      -7.64180328E-08
   33.3300018      -7.98495634E-08
   33.3899994      -8.30954576E-08
   33.4500008      -8.61261924E-08
   33.5099983      -8.89126568E-08
   33.5699997      -9.14239848E-08
   33.6300011      -9.36309235E-08
   33.6899986      -9.55172439E-08
   33.7500000      -9.70950396E-08
   33.8100014      -9.84140058E-08
   33.8699989      -9.95545619E-08
   33.9300003      -1.00602342E-07
   33.9900017      -1.01612400E-07
   34.0499992      -1.02579413E-07
   34.1100006      -1.03429684E-07
   34.1699982      -1.04040865E-07
   34.2299995      -1.04281902E-07
   34.2900009      -1.04055303E-07
   34.3499985      -1.03324041E-07
   34.4099998      -1.02113717E-07
   34.4700012      -1.00493729E-07
   34.5299988      -9.85499256E-08
   34.5900002      -9.63617452E-08
   34.6500015      -9.39899678E-08
   34.7099991      -9.14726854E-08
   34.7700005      -8.88233416E-08
   34.8300018      -8.60276117E-08
   34.8899994      -8.30426714E-08
   34.9500008      -7.98060569E-08
   35.0099983      -7.62586936E-08
   35.0699997      -7.23768423E-08
   35.1300011      -6.81985100E-08
   35.1899986      -6.38278905E-08
   35.2500000      -5.94098886E-08
   35.3100014      -5.50823529E-08
   35.3699989      -5.09272233E-08
   35.4300003      -4.69445318E-08
   35.4900017      -4.30626486E-08
   35.5499992      -3.91796817E-08
   35.6100006      -3.52150558E-08
   35.6699982      -3.11462927E-08
   35.7299995      -2.70157745E-08
   35.7900009      -2.29094770E-08
   35.8499985      -1.89238509E-08
   35.9099998      -1.51399870E-08
   35.9700012      -1.16154562E-08
   36.0299988      -8.39059222E-09
   36.0900002      -5.49711121E-09
   36.1500015      -2.95823033E-09
   36.2099991      -7.79243114E-10
   36.2700005       1.06220566E-09
   36.3300018       2.61409161E-09
   36.3899994       3.93151156E-09
   36.4500008       5.04953901E-09
   36.5099983       5.96400263E-09
   36.5699997       6.63464217E-09
   36.6300011       7.01243374E-09
   36.6899986       7.07717929E-09
   36.7500000       6.86312918E-09
   36.8100014       6.45545217E-09
   36.8699989       5.95655347E-09
   36.9300003       5.43903145E-09
   36.9900017       4.91057772E-09
   37.0499992       4.31002123E-09
   37.1100006       3.53660257E-09
   37.1699982       2.49664978E-09
   37.2299995       1.14356657E-09
   37.2900009      -5.07304532E-10
   37.3499985      -2.39211406E-09
   37.4099998      -4.42822312E-09
   37.4700012      -6.54197674E-09
   37.5299988      -8.68156125E-09
   37.5900002      -1.08138956E-08
   37.6500015      -1.29146294E-08
   37.7099991      -1.49623052E-08
   37.7700005      -1.69414101E-08
   37.8300018      -1.88498781E-08
   37.8899994      -2.07017745E-08
   37.9500008      -2.25188366E-08
   38.0099983      -2.43131328E-08
   38.0699997      -2.60709818E-08
   38.1300011      -2.77494099E-08
   38.1899986      -2.92897369E-08
   38.2500000      -3.06423296E-08
   38.3100014      -3.17890425E-08
   38.3699989      -3.27505205E-08
   38.4300003      -3.35738513E-08
   38.4900017      -3.43072735E-08
   38.5499992      -3.49756490E-08
   38.6100006      -3.55694141E-08
   38.6699982      -3.60515351E-08
   38.7299995      -3.63769495E-08
   38.7900009      -3.65128585E-08
   38.8499985      -3.64493147E-08
   38.9099998      -3.61965995E-08
   38.9700012      -3.57736347E-08
   39.0299988      -3.51962406E-08
   39.0900002      -3.44724036E-08
   39.1500015      -3.36061809E-08
   39.2099991      -3.26061738E-08
   39.2700005      -3.14921138E-08
   39.3300018      -3.02952827E-08
   39.3899994      -2.90532665E-08
   39.4500008      -2.78033259E-08
   39.5099983      -2.65791478E-08
   39.5699997      -2.54127102E-08
   39.6300011      -2.43387319E-08
   39.6899986      -2.33968329E-08
   39.7500000      -2.26278676E-08
   39.8100014      -2.20649543E-08
   39.8699989      -2.17238654E-08
   39.9300003      -2.15987637E-08
   39.9900017      -2.16664997E-08
   40.0499992      -2.18978116E-08
   40.1100006      -2.22694787E-08
   40.1699982      -2.27710242E-08
   40.2299995      -2.34029223E-08
   40.2900009      -2.41684539E-08
   40.3499985      -2.50649421E-08
   40.4099998      -2.60798618E-08
   40.4700012      -2.71934990E-08
   40.5299988      -2.83853065E-08
   40.5900002      -2.96387981E-08
   40.6500015      -3.09413224E-08
   40.7099991      -3.22791678E-08
   40.7700005      -3.36319594E-08
   40.8300018      -3.49711193E-08
   40.8899994      -3.62642574E-08
   40.9500008      -3.74833355E-08
   41.0099983      -3.86116206E-08
   41.0699997      -3.96452648E-08
   41.1300011      -4.05885316E-08
   41.1899986      -4.14454497E-08
   41.2500000      -4.22124415E-08
   41.3100014      -4.28751541E-08
   41.3699989      -4.34099121E-08
   41.4300003      -4.37878285E-08
   41.4900017      -4.39791457E-08
   41.5499992      -4.39567636E-08
   41.6100006      -4.36993730E-08
   41.6699982      -4.31950617E-08
   41.7299995      -4.24451194E-08
   41.7900009      -4.14662580E-08
   41.8499985      -4.02890734E-08
   41.9099998      -3.89520523E-08
   41.9700012      -3.74925797E-08
   42.0299988      -3.59384487E-08
   42.0900002      -3.43031914E-08
   42.1500015      -3.25868470E-08
   42.2099991      -3.07813508E-08
   42.2700005      -2.88781354E-08
   42.3300018      -2.68752576E-08
   42.3899994      -2.47823877E-08
   42.4500008      -2.26230235E-08
   42.5099983      -2.04338289E-08
   42.5699997      -1.82613231E-08
   42.6300011      -1.61563420E-08
   42.6899986      -1.41673491E-08
   42.7500000      -1.23344943E-08
   42.8100014      -1.06863025E-08
   42.8699989      -9.24007981E-09
   42.9300003      -8.00542477E-09
   42.9900017      -6.98890457E-09
   43.0499992      -6.19769258E-09
   43.1100006      -5.64091884E-09
   43.1699982      -5.32888977E-09
   43.2299995      -5.27117860E-09
   43.2900009      -5.47442225E-09
   43.3499985      -5.94002936E-09
   43.4099998      -6.66175115E-09
   43.4700012      -7.62366348E-09
   43.5299988      -8.80003270E-09
   43.5900002      -1.01586020E-08
   43.6500015      -1.16672849E-08
   43.7099991      -1.33018156E-08
   43.7700005      -1.50501567E-08
   43.8300018      -1.69103611E-08
   43.8899994      -1.88821581E-08
   43.9500008      -2.09568292E-08
   44.0099983      -2.31121131E-08
   44.0699997      -2.53165684E-08
   44.1300011      -2.75422032E-08
   44.1899986      -2.97782030E-08
   44.2500000      -3.20367270E-08
   44.3100014      -3.43455504E-08
   44.3699989      -3.67302242E-08
   44.4300003      -3.91953066E-08
   44.4900017      -4.17157437E-08
   44.5499992      -4.42439791E-08
   44.6100006      -4.67291379E-08
   44.6699982      -4.91376042E-08
   44.7299995      -5.14636191E-08
   44.7900009      -5.37250386E-08
   44.8499985      -5.59484761E-08
   44.9099998      -5.81537307E-08
   44.9700012      -6.03459753E-08
   45.0299988      -6.25172802E-08
   45.0900002      -6.46517009E-08
   45.1500015      -6.67261872E-08
   45.2099991      -6.87045585E-08
   45.2700005      -7.05302412E-08
   45.3300018      -7.21278184E-08
   45.3899994      -7.34204590E-08
   45.4500008      -7.43595265E-08
   45.5099983      -7.49521263E-08
   45.5699997      -7.52686873E-08
   45.6300011      -7.54211200E-08
   45.6899986      -7.55177396E-08
   45.7500000      -7.56154179E-08
   45.8100014      -7.56931513E-08
   45.8699989      -7.56611911E-08
   45.9300003      -7.54014309E-08
   45.9900017      -7.48187574E-08
   46.0499992      -7.38783967E-08
   46.1100006      -7.26138083E-08
   46.1699982      -7.11065340E-08
   46.2299995      -6.94531934E-08
   46.2900009      -6.77380640E-08
   46.3499985      -6.60213644E-08
   46.4099998      -6.43406395E-08
   46.4700012      -6.27146477E-08
   46.5299988      -6.11409874E-08
   46.5900002      -5.95881779E-08
   46.6500015      -5.79920751E-08
   46.7099991      -5.62676910E-08
   46.7700005      -5.43384822E-08
   46.8300018      -5.21718349E-08
   46.8899994      -4.98013364E-08
   46.9500008      -4.73200572E-08
   47.0099983      -4.48441391E-08
   47.0699997      -4.24633591E-08
   47.1300011      -4.02044869E-08
   47.1899986      -3.80271636E-08
   47.2500000      -3.58543844E-08
   47.3100014      -3.36201218E-08
   47.3699989      -3.13077990E-08
   47.4300003      -2.89598798E-08
   47.4900017      -2.66566129E-08
   47.5499992      -2.44796894E-08
   47.6100006      -2.24827730E-08
   47.6699982      -2.06831974E-08
   47.7299995      -1.90730436E-08
   47.7900009      -1.76354913E-08
   47.8499985      -1.63515583E-08
   47.9099998      -1.51932742E-08
   47.9700012      -1.41129961E-08
   48.0299988      -1.30441027E-08
   48.0900002      -1.19209993E-08
   48.1500015      -1.07108100E-08
   48.2099991      -9.43687350E-09
   48.2700005      -8.17508727E-09
   48.3300018      -7.01934022E-09
   48.3899994      -6.03247186E-09
   48.4500008      -5.21072607E-09
   48.5099983      -4.48395276E-09
   48.5699997      -3.75334519E-09
   48.6300011      -2.94597524E-09
   48.6899986      -2.05523087E-09
   48.7500000      -1.14506471E-09
   48.8100014      -3.18023885E-10
   48.8699989       3.31851796E-10
   48.9300003       7.53366758E-10
   48.9900017       9.42843359E-10
   49.0499992       9.22775023E-10
   49.1100006       7.14001747E-10
   49.1699982       3.21948579E-10
   49.2299995      -2.55977128E-10
   49.2900009      -1.01208431E-09
   49.3499985      -1.91785854E-09
   49.4099998      -2.93321389E-09
   49.4700012      -4.03097777E-09
   49.5299988      -5.21790700E-09
   49.5900002      -6.53292087E-09
   49.6500015      -8.01766564E-09
   49.7099991      -9.67464775E-09
   49.7700005      -1.14398997E-08
   49.8300018      -1.31913733E-08
   49.8899994      -1.47934633E-08
   49.9500008      -1.61551039E-08
   50.0099983      -1.72687482E-08
   50.0699997      -1.82073929E-08
   50.1300011      -1.90812024E-08
   50.1899986      -1.99789838E-08
   50.2500000      -2.09281321E-08
   50.3100014      -2.18945360E-08
   50.3699989      -2.28190977E-08
   50.4300003      -2.36659652E-08
   50.4900017      -2.44523974E-08
   50.5499992      -2.52441037E-08
   50.6100006      -2.61229243E-08