  -2.400000      0.0000000E+00
  -2.340000      0.0000000E+00
  -2.280000      0.0000000E+00
  -2.220000      0.0000000E+00
  -2.160000      0.0000000E+00
  -2.100000     -4.8931950E-20
  -2.040000     -2.9736763E-19
  -1.980000     -7.5993295E-19
  -1.920000     -5.9823532E-19
  -1.860000      2.3823033E-18
  -1.800000      1.0353550E-17
  -1.740000      2.1186853E-17
  -1.680000      2.3476059E-17
  -1.620000     -3.0372064E-18
  -1.560000     -7.5345109E-17
  -1.500000     -1.8396826E-16
  -1.440000     -2.7128507E-16
  -1.380000     -2.3298893E-16
  -1.320000      3.9436415E-17
  -1.260000      5.7723972E-16
  -1.200000      1.2450460E-15
  -1.140000      1.6981902E-15
  -1.080000      1.4442444E-15
  -1.020000      4.0397155E-17
 -0.9600000     -2.5966206E-15
 -0.9000000     -5.8684200E-15
 -0.8400000     -8.3405801E-15
 -0.7800000     -7.9752650E-15
 -0.7200000     -2.9024147E-15
 -0.6600000      7.3509627E-15
 -0.6000000      2.0628510E-14
 -0.5400000      3.1713249E-14
 -0.4800000      3.3524991E-14
 -0.4200000      2.0199489E-14
 -0.3600000     -8.8557295E-15
 -0.3000000     -4.6070701E-14
 -0.2400000     -7.6540140E-14
 -0.1800000     -8.3888747E-14
 -0.1200000     -5.9610221E-14
 -5.9999999E-02 -1.1049090E-14
  0.0000000E+00  3.8196378E-14
  5.9999999E-02  5.9183947E-14
  0.1200000      3.7133653E-14
  0.1800000     -1.0754119E-14
  0.2400000     -3.3126012E-14
  0.3000000      3.2776858E-14
  0.3600000      2.1762453E-13
  0.4200000      4.7647807E-13
  0.4800000      6.7542483E-13
  0.5400000      6.3154777E-13
  0.6000000      2.0415833E-13
  0.6600000     -5.9850969E-13
  0.7200000     -1.5563643E-12
  0.7800000     -2.2721699E-12
  0.8400000     -2.3177361E-12
  0.9000000     -1.4446232E-12
  0.9600000      2.3823662E-13
   1.020000      2.2250786E-12
   1.080000      3.7660938E-12
   1.140000      4.1730443E-12
   1.200000      3.1470224E-12
   1.260000      9.6166076E-13
   1.320000     -1.6142735E-12
   1.380000     -3.6466342E-12
   1.440000     -4.4696404E-12
   1.500000     -3.9967695E-12
   1.560000     -2.7201978E-12
   1.620000     -1.3628170E-12
   1.680000     -3.4586589E-13
   1.740000      6.2488057E-13
   1.800000      2.5599312E-12
   1.860000      6.6577763E-12
   1.920000      1.3411010E-11
   1.980000      2.1757887E-11
   2.040000      2.8769678E-11
   2.100000      3.0207701E-11
   2.160000      2.1935211E-11
   2.220000      1.7716335E-12
   2.280000     -2.8889132E-11
   2.340000     -6.4377073E-11
   2.400000     -9.5364709E-11
   2.460000     -1.1076465E-10
   2.520000     -1.0043922E-10
   2.580000     -5.8026327E-11
   2.640000      1.6771572E-11
   2.700000      1.1682445E-10
   2.760000      2.2720079E-10
   2.820000      3.2562505E-10
   2.880000      3.8359149E-10
   2.940000      3.6811201E-10
   3.000000      2.4426144E-10
   3.060000     -2.1276170E-11
   3.120000     -4.5566603E-10
   3.180000     -1.0748108E-09
   3.240000     -1.8785751E-09
   3.300000     -2.8475353E-09
   3.360000     -3.9423749E-09
   3.420000     -5.1065334E-09
   3.480000     -6.2719478E-09
   3.540000     -7.3668822E-09
   3.600000     -8.3243279E-09
   3.660000     -9.0893248E-09
   3.720000     -9.6239914E-09
   3.780000     -9.9097868E-09
   3.840000     -9.9473443E-09
   3.900000     -9.7548023E-09
   3.960000     -9.3657038E-09
   4.020000     -8.8272198E-09
   4.080000     -8.1987439E-09
   4.140000     -7.5502227E-09
   4.200000     -6.9591009E-09
   4.260000     -6.5048442E-09
   4.320000     -6.2606840E-09
   4.380000     -6.2833396E-09
   4.440000     -6.6026367E-09
   4.500000     -7.2136794E-09
   4.560000     -8.0741840E-09
   4.620000     -9.1085726E-09
   4.680000     -1.0218737E-08
   4.740000     -1.1299546E-08
   4.800000     -1.2255783E-08
   4.860000     -1.3016798E-08
   4.920000     -1.3545858E-08
   4.980000     -1.3842667E-08
   5.040000     -1.3939314E-08
   5.100000     -1.3891271E-08
   5.160000     -1.3765793E-08
   5.220000     -1.3629976E-08
   5.280000     -1.3540232E-08
   5.340000     -1.3534271E-08
   5.400000     -1.3626241E-08
   5.460000     -1.3805471E-08
   5.520000     -1.4039039E-08
   5.580000     -1.4278092E-08
   5.640000     -1.4467208E-08
   5.700000     -1.4555310E-08
   5.760000     -1.4505954E-08
   5.820000     -1.4304669E-08
   5.880000     -1.3961508E-08
   5.940000     -1.3508106E-08
   6.000000     -1.2990043E-08
   6.060000     -1.2456576E-08
   6.120000     -1.1950552E-08
   6.180000     -1.1501153E-08
   6.240000     -1.1121170E-08
   6.300000     -1.0808971E-08
   6.360000     -1.0553832E-08
   6.420000     -1.0342188E-08
   6.480000     -1.0162181E-08
   6.540000     -1.0004657E-08
   6.600000     -9.8602690E-09
   6.660000     -9.7141877E-09
   6.720000     -9.5411439E-09
   6.780000     -9.3038341E-09
   6.840000     -8.9565857E-09
   6.900000     -8.4541680E-09
   6.960000     -7.7634050E-09
   7.020000     -6.8738082E-09
   7.080000     -5.8034706E-09
   7.140000     -4.5980162E-09
   7.200000     -3.3227341E-09
   7.260000     -2.0502597E-09
   7.320000     -8.4731322E-10
   7.380000      2.3620822E-10
   7.440000      1.1737162E-09
   7.500000      1.9634405E-09
   7.560000      2.6255313E-09
   7.620000      3.1958047E-09
   7.680000      3.7172736E-09
   7.740000      4.2306887E-09
   7.800000      4.7656510E-09
   7.860000      5.3342708E-09
   7.920000      5.9293175E-09
   7.980000      6.5280363E-09
   8.040000      7.1011637E-09
   8.100000      7.6248146E-09
   8.160000      8.0915390E-09
   8.220000      8.5168166E-09
   8.280000      8.9385628E-09
   8.340000      9.4095647E-09
   8.400000      9.9851558E-09
   8.460000      1.0709927E-08
   8.520000      1.1607383E-08
   8.580000      1.2675213E-08
   8.640000      1.3886909E-08
   8.700000      1.5198539E-08
   8.760000      1.6558333E-08
   8.820000      1.7916483E-08
   8.880000      1.9233013E-08
   8.940000      2.0482467E-08
   9.000000      2.1654865E-08
   9.060000      2.2753108E-08
   9.120000      2.3787578E-08
   9.180000      2.4769296E-08
   9.240000      2.5703573E-08
   9.300000      2.6586219E-08
   9.360000      2.7403869E-08
   9.420000      2.8138489E-08
   9.480000      2.8774579E-08
   9.540000      2.9306126E-08
   9.600000      2.9740363E-08
   9.660000      3.0096661E-08
   9.720000      3.0400958E-08
   9.780000      3.0678123E-08
   9.840000      3.0945461E-08
   9.900000      3.1209659E-08
   9.960000      3.1467778E-08
   10.02000      3.1710989E-08
   10.08000      3.1928884E-08
   10.14000      3.2112524E-08
   10.20000      3.2255642E-08
   10.26000      3.2354464E-08
   10.32000      3.2407137E-08
   10.38000      3.2413180E-08
   10.44000      3.2373016E-08
   10.50000      3.2287073E-08
   10.56000      3.2154595E-08
   10.62000      3.1972906E-08
   10.68000      3.1738175E-08
   10.74000      3.1448263E-08
   10.80000      3.1106712E-08
   10.86000      3.0725786E-08
   10.92000      3.0326220E-08
   10.98000      2.9932483E-08
   11.04000      2.9564790E-08
   11.10000      2.9231146E-08
   11.16000      2.8923155E-08
   11.22000      2.8617894E-08
   11.28000      2.8285234E-08
   11.34000      2.7897379E-08
   11.40000      2.7436407E-08
   11.46000      2.6896956E-08
   11.52000      2.6283812E-08
   11.58000      2.5606759E-08
   11.64000      2.4875829E-08
   11.70000      2.4099092E-08
   11.76000      2.3282972E-08
   11.82000      2.2433509E-08
   11.88000      2.1556849E-08
   11.94000      2.0658451E-08
   12.00000      1.9741966E-08
   12.06000      1.8809125E-08
   12.12000      1.7861085E-08
   12.18000      1.6900159E-08
   12.24000      1.5930079E-08
   12.30000      1.4953715E-08
   12.36000      1.3969157E-08
   12.42000      1.2966718E-08
   12.48000      1.1929470E-08
   12.54000      1.0838018E-08
   12.60000      9.6774464E-09
   12.66000      8.4426501E-09
   12.72000      7.1389050E-09
   12.78000      5.7772058E-09
   12.84000      4.3670445E-09
   12.90000      2.9108034E-09
   12.96000      1.4028400E-09
   13.02000     -1.6659156E-10
   13.08000     -1.8052625E-09
   13.14000     -3.5143743E-09
   13.20000     -5.2876623E-09
   13.26000     -7.1138277E-09
   13.32000     -8.9799883E-09
   13.38000     -1.0873856E-08
   13.44000     -1.2784032E-08
   13.50000     -1.4699785E-08
   13.56000     -1.6612216E-08
   13.62000     -1.8517454E-08
   13.68000     -2.0420252E-08
   13.74000     -2.2334978E-08
   13.80000     -2.4281810E-08
   13.86000     -2.6278540E-08
   13.92000     -2.8331634E-08
   13.98000     -3.0431309E-08
   14.04000     -3.2553967E-08
   14.10000     -3.4671313E-08
   14.16000     -3.6761733E-08
   14.22000     -3.8817799E-08
   14.28000     -4.0845705E-08
   14.34000     -4.2856978E-08
   14.40000     -4.4857124E-08
   14.46000     -4.6837783E-08
   14.52000     -4.8776855E-08
   14.58000     -5.0646403E-08
   14.64000     -5.2423456E-08
   14.70000     -5.4097267E-08
   14.76000     -5.5668824E-08
   14.82000     -5.7143481E-08
   14.88000     -5.8521774E-08
   14.94000     -5.9794743E-08
   15.00000     -6.0946888E-08
   15.06000     -6.1964755E-08
   15.12000     -6.2845231E-08
   15.18000     -6.3597341E-08
   15.24000     -6.4235707E-08
   15.30000     -6.4769111E-08
   15.36000     -6.5191379E-08
   15.42000     -6.5480634E-08
   15.48000     -6.5608290E-08
   15.54000     -6.5552847E-08
   15.60000     -6.5310800E-08
   15.66000     -6.4898487E-08
   15.72000     -6.4344256E-08
   15.78000     -6.3675998E-08
   15.84000     -6.2911610E-08
   15.90000     -6.2057431E-08
   15.96000     -6.1114676E-08
   16.02000     -6.0088261E-08
   16.08000     -5.8991724E-08
   16.14000     -5.7844311E-08
   16.20000     -5.6662117E-08
   16.26000     -5.5449135E-08
   16.32000     -5.4194491E-08
   16.38000     -5.2878335E-08
   16.44000     -5.1483507E-08
   16.50000     -5.0006360E-08
   16.56000     -4.8460389E-08
   16.62000     -4.6870500E-08
   16.68000     -4.5261110E-08
   16.74000     -4.3644736E-08
   16.80000     -4.2017188E-08
   16.86000     -4.0361375E-08
   16.92000     -3.8656836E-08
   16.98000     -3.6889144E-08
   17.04000     -3.5054075E-08
   17.10000     -3.3155448E-08
   17.16000     -3.1199637E-08
   17.22000     -2.9191691E-08
   17.28000     -2.7136412E-08
   17.34000     -2.5043777E-08
   17.40000     -2.2934470E-08
   17.46000     -2.0840776E-08
   17.52000     -1.8800852E-08
   17.58000     -1.6848960E-08
   17.64000     -1.5007425E-08
   17.70000     -1.3285507E-08
   17.76000     -1.1686270E-08
   17.82000     -1.0217347E-08
   17.88000     -8.8984926E-09
   17.94000     -7.7602476E-09
   18.00000     -6.8330728E-09
   18.06000     -6.1320300E-09
   18.12000     -5.6449232E-09
   18.18000     -5.3300475E-09
   18.24000     -5.1244702E-09
   18.30000     -4.9583151E-09
   18.36000     -4.7680873E-09
   18.42000     -4.5038848E-09
   18.48000     -4.1298680E-09
   18.54000     -3.6215015E-09
   18.60000     -2.9642742E-09
   18.66000     -2.1563347E-09
   18.72000     -1.2136770E-09
   18.78000     -1.7383019E-10
   18.84000      9.0571733E-10
   18.90000      1.9552617E-09
   18.96000      2.9042533E-09
   19.02000      3.6919761E-09
   19.08000      4.2740811E-09
   19.14000      4.6241704E-09
   19.20000      4.7321400E-09
   19.26000      4.6018429E-09
   19.32000      4.2495465E-09
   19.38000      3.7028305E-09
   19.44000      2.9984577E-09
   19.50000      2.1781776E-09
   19.56000      1.2829539E-09
   19.62000      3.4749403E-10
   19.68000     -6.0282251E-10
   19.74000     -1.5516635E-09
   19.80000     -2.4887998E-09
   19.86000     -3.4062368E-09
   19.92000     -4.2950159E-09
   19.98000     -5.1432627E-09
   20.04000     -5.9350991E-09
   20.10000     -6.6498971E-09
   20.16000     -7.2621003E-09
   20.22000     -7.7427140E-09
   20.28000     -8.0636413E-09
   20.34000     -8.2048333E-09
   20.40000     -8.1623064E-09
   20.46000     -7.9537044E-09
   20.52000     -7.6182456E-09
   20.58000     -7.2100956E-09
   20.64000     -6.7872721E-09
   20.70000     -6.4005201E-09
   20.76000     -6.0867342E-09
   20.82000     -5.8690870E-09
   20.88000     -5.7622858E-09
   20.94000     -5.7785350E-09
   21.00000     -5.9295084E-09
   21.06000     -6.2223915E-09
   21.12000     -6.6521681E-09
   21.18000     -7.1953417E-09
   21.24000     -7.8100362E-09
   21.30000     -8.4438980E-09
   21.36000     -9.0463921E-09
   21.42000     -9.5790513E-09
   21.48000     -1.0018264E-08
   21.54000     -1.0349731E-08
   21.60000     -1.0559240E-08
   21.66000     -1.0627098E-08
   21.72000     -1.0531422E-08
   21.78000     -1.0259595E-08
   21.84000     -9.8212070E-09
   21.90000     -9.2537160E-09
   21.96000     -8.6156904E-09
   22.02000     -7.9697413E-09
   22.08000     -7.3637074E-09
   22.14000     -6.8200228E-09
   22.20000     -6.3384560E-09
   22.26000     -5.9093939E-09
   22.32000     -5.5286304E-09
   22.38000     -5.2041833E-09
   22.44000     -4.9512243E-09
   22.50000     -4.7791535E-09
   22.56000     -4.6799462E-09
   22.62000     -4.6259672E-09
   22.68000     -4.5791775E-09
   22.74000     -4.5062900E-09
   22.80000     -4.3907997E-09
   22.86000     -4.2351456E-09
   22.92000     -4.0528487E-09
   22.98000     -3.8567802E-09
   23.04000     -3.6516754E-09
   23.10000     -3.4354384E-09
   23.16000     -3.2072895E-09
   23.22000     -2.9758302E-09
   23.28000     -2.7600049E-09
   23.34000     -2.5807219E-09
   23.40000     -2.4474378E-09
   23.46000     -2.3479654E-09
   23.52000     -2.2485112E-09
   23.58000     -2.1052080E-09
   23.64000     -1.8816628E-09
   23.70000     -1.5634560E-09
   23.76000     -1.1621861E-09
   23.82000     -7.0756473E-10
   23.88000     -2.3258841E-10
   23.94000      2.3984473E-10
   24.00000      7.0217465E-10
   24.06000      1.1579824E-09
   24.12000      1.6127473E-09
   24.18000      2.0663935E-09
   24.24000      2.5123246E-09
   24.30000      2.9425151E-09
   24.36000      3.3536394E-09
   24.42000      3.7482963E-09
   24.48000      4.1288808E-09
   24.54000      4.4872634E-09
   24.60000      4.7973185E-09
   24.66000      5.0166600E-09
   24.72000      5.0986904E-09
   24.78000      5.0095301E-09
   24.84000      4.7407243E-09
   24.90000      4.3105297E-09
   24.96000      3.7529961E-09
   25.02000      3.1010814E-09
   25.08000      2.3731295E-09
   25.14000      1.5693087E-09
   25.20000      6.7789946E-10
   25.26000     -3.1477856E-10
   25.32000     -1.4184464E-09
   25.38000     -2.6405802E-09
   25.44000     -3.9929238E-09
   25.50000     -5.4958291E-09
   25.56000     -7.1747617E-09
   25.62000     -9.0491978E-09
   25.68000     -1.1120463E-08
   25.74000     -1.3367005E-08
   25.80000     -1.5751501E-08
   25.86000     -1.8236502E-08
   25.92000     -2.0799318E-08
   25.98000     -2.3436812E-08
   26.04000     -2.6157117E-08
   26.10000     -2.8963859E-08
   26.16000     -3.1843630E-08
   26.22000     -3.4765662E-08
   26.28000     -3.7694665E-08
   26.34000     -4.0609166E-08
   26.40000     -4.3513708E-08
   26.46000     -4.6436885E-08
   26.52000     -4.9415871E-08
   26.58000     -5.2476523E-08
   26.64000     -5.5620436E-08
   26.70000     -5.8825819E-08
   26.76000     -6.2060018E-08
   26.82000     -6.5294451E-08
   26.88000     -6.8511987E-08
   26.94000     -7.1702317E-08
   27.00000     -7.4849623E-08
   27.06000     -7.7922294E-08
   27.12000     -8.0873370E-08
   27.18000     -8.3653426E-08
   27.24000     -8.6229143E-08
   27.30000     -8.8596423E-08
   27.36000     -9.0779359E-08
   27.42000     -9.2814680E-08
   27.48000     -9.4729558E-08
   27.54000     -9.6525042E-08
   27.60000     -9.8173388E-08
   27.66000     -9.9630043E-08
   27.72000     -1.0085236E-07
   27.78000     -1.0181417E-07
   27.84000     -1.0250913E-07
   27.90000     -1.0294329E-07
   27.96000     -1.0312404E-07
   28.02000     -1.0305415E-07
   28.08000     -1.0273450E-07
   28.14000     -1.0217255E-07
   28.20000     -1.0138811E-07
   28.26000     -1.0040956E-07
   28.32000     -9.9260156E-08
   28.38000     -9.7941417E-08
   28.44000     -9.6424436E-08
   28.50000     -9.4656428E-08
   28.56000     -9.2581502E-08
   28.62000     -9.0166388E-08
   28.68000     -8.7418471E-08
   28.74000     -8.4387516E-08
   28.80000     -8.1151185E-08
   28.86000     -7.7792421E-08
   28.92000     -7.4379976E-08
   28.98000     -7.0959437E-08
   29.04000     -6.7555341E-08
   29.10000     -6.4178735E-08
   29.16000     -6.0833777E-08
   29.22000     -5.7520314E-08
   29.28000     -5.4234555E-08
   29.34000     -5.0972282E-08
   29.40000     -4.7736872E-08
   29.46000     -4.4549424E-08
   29.52000     -4.1454285E-08
   29.58000     -3.8513818E-08
   29.64000     -3.5791569E-08
   29.70000     -3.3330245E-08
   29.76000     -3.1135134E-08
   29.82000     -2.9172117E-08
   29.88000     -2.7382479E-08
   29.94000     -2.5708310E-08
   30.00000     -2.4117305E-08
   30.06000     -2.2616680E-08
   30.12000     -2.1251942E-08
   30.18000     -2.0093628E-08
   30.24000     -1.9219460E-08
   30.30000     -1.8698987E-08
   30.36000     -1.8583885E-08
   30.42000     -1.8902888E-08
   30.48000     -1.9658920E-08
   30.54000     -2.0827610E-08
   30.60000     -2.2359332E-08
   30.66000     -2.4187692E-08
   30.72000     -2.6245225E-08
   30.78000     -2.8482219E-08
   30.84000     -3.0880930E-08
   30.90000     -3.3457667E-08
   30.96000     -3.6250185E-08
   31.02000     -3.9294957E-08
   31.08000     -4.2604579E-08
   31.14000     -4.6155499E-08
   31.20000     -4.9891245E-08
   31.26000     -5.3738237E-08
   31.32000     -5.7625360E-08
   31.38000     -6.1497751E-08
   31.44000     -6.5319611E-08
   31.50000     -6.9067653E-08
   31.56000     -7.2721448E-08
   31.62000     -7.6256889E-08
   31.68000     -7.9645197E-08
   31.74000     -8.2855465E-08
   31.80000     -8.5856648E-08
   31.86000     -8.8617242E-08
   31.92000     -9.1104887E-08
   31.98000     -9.3290211E-08
   32.04000     -9.5157368E-08
   32.10000     -9.6717919E-08
   32.16000     -9.8019370E-08
   32.22000     -9.9139228E-08
   32.28000     -1.0016139E-07
   32.34000     -1.0114196E-07
   32.40000     -1.0207938E-07
   32.46000     -1.0290476E-07
   32.52000     -1.0349912E-07
   32.58000     -1.0373189E-07
   32.64000     -1.0350356E-07
   32.70000     -1.0277431E-07
   32.76000     -1.0156791E-07
   32.82000     -9.9953454E-08
   32.88000     -9.8017154E-08
   32.94000     -9.5838146E-08
   33.00000     -9.3475641E-08
   33.06000     -9.0965663E-08
   33.12000     -8.8320647E-08
   33.18000     -8.5527496E-08
   33.24000     -8.2546542E-08
   33.30000     -7.9318816E-08
   33.36000     -7.5787177E-08
   33.42000     -7.1927275E-08
   33.48000     -6.7774685E-08
   33.54000     -6.3430932E-08
   33.60000     -5.9039586E-08
   33.66000     -5.4738852E-08
   33.72000     -5.0611874E-08
   33.78000     -4.6659398E-08
   33.84000     -4.2809216E-08
   33.90000     -3.8957737E-08
   33.96000     -3.5022570E-08
   34.02000     -3.0980264E-08
   34.08000     -2.6873398E-08
   34.14000     -2.2788937E-08
   34.20000     -1.8824473E-08
   34.26000     -1.5061993E-08
   34.32000     -1.1559758E-08
   34.38000     -8.3588212E-09
   34.44000     -5.4916587E-09
   34.50000     -2.9819458E-09
   34.56000     -8.3465562E-10
   34.62000      9.7383357E-10
   34.68000      2.4933327E-09
   34.74000      3.7805883E-09
   34.80000      4.8714957E-09
   34.86000      5.7617502E-09
   34.92000      6.4104340E-09
   34.98000      6.7679538E-09
   35.04000      6.8139703E-09
   35.10000      6.5828765E-09
   35.16000      6.1598304E-09
   35.22000      5.6467617E-09
   35.28000      5.1154165E-09
   35.34000      4.5726751E-09
   35.40000      3.9570049E-09
   35.46000      3.1678395E-09
   35.52000      2.1120330E-09
   35.58000      7.4356704E-10
   35.64000     -9.2164676E-10
   35.70000     -2.8190208E-09
   35.76000     -4.8648552E-09
   35.82000     -6.9842954E-09
   35.88000     -9.1247561E-09
   35.94000     -1.1253414E-08
   36.00000     -1.3347365E-08
   36.06000     -1.5387256E-08
   36.12000     -1.7359364E-08
   36.18000     -1.9262258E-08
   36.24000     -2.1109315E-08
   36.30000     -2.2920812E-08
   36.36000     -2.4707434E-08
   36.42000     -2.6454767E-08
   36.48000     -2.8119782E-08
   36.54000     -2.9644061E-08
   36.60000     -3.0978239E-08
   36.66000     -3.2104552E-08
   36.72000     -3.3044447E-08
   36.78000     -3.3846455E-08
   36.84000     -3.4560571E-08
   36.90000     -3.5213020E-08
   36.96000     -3.5794578E-08
   37.02000     -3.6267494E-08
   37.08000     -3.6585508E-08
   37.14000     -3.6714983E-08
   37.20000     -3.6646025E-08
   37.26000     -3.6389601E-08
   37.32000     -3.5965279E-08
   37.38000     -3.5388862E-08
   37.44000     -3.4667575E-08
   37.50000     -3.3804504E-08
   37.56000     -3.2807716E-08
   37.62000     -3.1697184E-08
   37.68000     -3.0504982E-08
   37.74000     -2.9269552E-08
   37.80000     -2.8028632E-08
   37.86000     -2.6815981E-08
   37.92000     -2.5663399E-08
   37.98000     -2.4605322E-08
   38.04000     -2.3680942E-08
   38.10000     -2.2930388E-08
   38.16000     -2.2385795E-08
   38.22000     -2.2061995E-08
   38.28000     -2.1952618E-08
   38.34000     -2.2034564E-08
   38.40000     -2.2278922E-08
   38.46000     -2.2662679E-08
   38.52000     -2.3175176E-08
   38.58000     -2.3816524E-08
   38.64000     -2.4589960E-08
   38.70000     -2.5493385E-08
   38.76000     -2.6515160E-08
   38.82000     -2.7635965E-08
   38.88000     -2.8834430E-08
   38.94000     -3.0092078E-08
   39.00000     -3.1394027E-08
   39.06000     -3.2725328E-08
   39.12000     -3.4066069E-08
   39.18000     -3.5389423E-08
   39.24000     -3.6664812E-08
   39.30000     -3.7864858E-08
   39.36000     -3.8972171E-08
   39.42000     -3.9981707E-08
   39.48000     -4.0897181E-08
   39.54000     -4.1723382E-08
   39.60000     -4.2458318E-08
   39.66000     -4.3088910E-08
   39.72000     -4.3591619E-08
   39.78000     -4.3936684E-08
   39.84000     -4.4093486E-08
   39.90000     -4.4035101E-08
   39.96000     -4.3741583E-08
   40.02000     -4.3202586E-08
   40.08000     -4.2419874E-08
   40.14000     -4.1408889E-08
   40.20000     -4.0198010E-08
   40.26000     -3.8824151E-08
   40.32000     -3.7325201E-08
   40.38000     -3.5731588E-08
   40.44000     -3.4060225E-08
   40.50000     -3.2313341E-08
   40.56000     -3.0482727E-08
   40.62000     -2.8557691E-08
   40.68000     -2.6533815E-08
   40.74000     -2.4419595E-08
   40.80000     -2.2239249E-08
   40.86000     -2.0031292E-08
   40.92000     -1.7843725E-08
   40.98000     -1.5727366E-08
   41.04000     -1.3729151E-08
   41.10000     -1.1887165E-08
   41.16000     -1.0228503E-08
   41.22000     -8.7702521E-09
   41.28000     -7.5226811E-09
   41.34000     -6.4931571E-09
   41.40000     -5.6892531E-09
   41.46000     -5.1202278E-09
   41.52000     -4.7968269E-09
   41.58000     -4.7298014E-09
   41.64000     -4.9274949E-09
   41.70000     -5.3927023E-09
   41.76000     -6.1193277E-09
   41.82000     -7.0900930E-09
   41.88000     -8.2770946E-09
   41.94000     -9.6463992E-09
   42.00000     -1.1165894E-08
   42.06000     -1.2813160E-08
   42.12000     -1.4579016E-08
   42.18000     -1.6463881E-08
   42.24000     -1.8468125E-08
   42.30000     -2.0581682E-08
   42.36000     -2.2779711E-08
   42.42000     -2.5028262E-08
   42.48000     -2.7297904E-08
   42.54000     -2.9577642E-08
   42.60000     -3.1880059E-08
   42.66000     -3.4233128E-08
   42.72000     -3.6661891E-08
   42.78000     -3.9169930E-08
   42.84000     -4.1731422E-08
   42.90000     -4.4298766E-08
   42.96000     -4.6821725E-08
   43.02000     -4.9267353E-08
   43.08000     -5.1629822E-08
   43.14000     -5.3925994E-08
   43.20000     -5.6181040E-08
   43.26000     -5.8413846E-08
   43.32000     -6.0629951E-08
   43.38000     -6.2822991E-08
   43.44000     -6.4978892E-08
   43.50000     -6.7075497E-08
   43.56000     -6.9075831E-08
   43.62000     -7.0921061E-08
   43.68000     -7.2533147E-08
   43.74000     -7.3833604E-08
   43.80000     -7.4773993E-08
   43.86000     -7.5363324E-08
   43.92000     -7.5674699E-08
   43.98000     -7.5822278E-08
   44.04000     -7.5915267E-08
   44.10000     -7.6010011E-08
   44.16000     -7.6084063E-08
   44.22000     -7.6046170E-08
   44.28000     -7.5777237E-08
   44.34000     -7.5181831E-08
   44.40000     -7.4225262E-08
   44.46000     -7.2941091E-08
   44.52000     -7.1410824E-08
   44.58000     -6.9730987E-08
   44.64000     -6.7986178E-08
   44.70000     -6.6237689E-08
   44.76000     -6.4524784E-08
   44.82000     -6.2868047E-08
   44.88000     -6.1266142E-08
   44.94000     -5.9687373E-08
   45.00000     -5.8066345E-08
   45.06000     -5.6316743E-08
   45.12000     -5.4361827E-08
   45.18000     -5.2170599E-08
   45.24000     -4.9779615E-08
   45.30000     -4.7284914E-08
   45.36000     -4.4804022E-08
   45.42000     -4.2425768E-08
   45.48000     -4.0174118E-08
   45.54000     -3.8005560E-08
   45.60000     -3.5841182E-08
   45.66000     -3.3615049E-08
   45.72000     -3.1312297E-08
   45.78000     -2.8977546E-08
   45.84000     -2.6692557E-08
   45.90000     -2.4539355E-08
   45.96000     -2.2571001E-08
   46.02000     -2.0803773E-08
   46.08000     -1.9228606E-08
   46.14000     -1.7827441E-08
   46.20000     -1.6579872E-08
   46.26000     -1.5456417E-08
   46.32000     -1.4408181E-08
   46.38000     -1.3367998E-08
   46.44000     -1.2270624E-08
   46.50000     -1.1084206E-08
   46.56000     -9.8332835E-09
   46.62000     -8.5946521E-09
   46.68000     -7.4625737E-09
   46.74000     -6.4997705E-09
   46.80000     -5.7019962E-09
   46.86000     -4.9983191E-09
   46.92000     -4.2889066E-09
   46.98000     -3.4996932E-09
   47.04000     -2.6230955E-09
   47.10000     -1.7225761E-09
   47.16000     -9.0083274E-10
   47.22000     -2.5257332E-10
   47.28000      1.7017086E-10
   47.34000      3.6308337E-10
   47.40000      3.4839318E-10
   47.46000      1.4699676E-10
   47.52000     -2.3549451E-10
   47.58000     -8.0152596E-10
   47.64000     -1.5433566E-09
   47.70000     -2.4324642E-09
   47.76000     -3.4287022E-09
   47.82000     -4.5047011E-09
   47.88000     -5.6668892E-09
   47.94000     -6.9538664E-09
   48.00000     -8.4072385E-09
   48.06000     -1.0030023E-08
   48.12000     -1.1759353E-08
   48.18000     -1.3474515E-08
   48.24000     -1.5040825E-08
   48.30000     -1.6367190E-08
   48.36000     -1.7445151E-08
   48.42000     -1.8346690E-08
   48.48000     -1.9181849E-08
   48.54000     -2.0040616E-08
   48.60000     -2.0952209E-08
   48.66000     -2.1883606E-08
   48.72000     -2.2775090E-08
   48.78000     -2.3588859E-08
   48.84000     -2.4340601E-08
   48.90000     -2.5096600E-08
   48.96000     -2.5941684E-08
   49.02000     -2.6941263E-08
   49.08000     -2.8122759E-08
   49.14000     -2.9486754E-08
   49.20000     -3.1037334E-08
   49.26000     -3.2808021E-08
   49.32000     -3.4863767E-08
   49.38000     -3.7277619E-08
   49.44000     -4.0100044E-08
   49.50000     -4.3345977E-08
   49.56000     -4.7013657E-08
   49.62000     -5.1127266E-08
   49.68000     -5.5777761E-08
   49.74000     -6.1135616E-08
   49.80000     -6.7427358E-08
   49.86000     -7.4892441E-08
   49.92000     -8.3751750E-08
   49.98000     -9.4212552E-08
   50.04000     -1.0651093E-07
   50.10000     -1.2096736E-07
   50.16000     -1.3802199E-07
   50.22000     -1.5822950E-07
   50.28000     -1.8222126E-07
   50.34000     -2.1066512E-07
   50.40000     -2.4425535E-07
   50.46000     -2.8374606E-07
   50.52000     -3.3001339E-07
   50.58000     -3.8411483E-07
   50.64000     -4.4731888E-07
   50.70000     -5.2110107E-07
   50.76000     -6.0712534E-07
   50.82000     -7.0723985E-07
   50.88000     -8.2350340E-07
   50.94000     -9.5823816E-07
   51.00000     -1.1140855E-06
   51.06000     -1.2940448E-06
   51.12000     -1.5014888E-06
   51.18000     -1.7401693E-06
   51.24000     -2.0142347E-06
   51.30000     -2.3282694E-06
   51.36000     -2.6873547E-06
   51.42000     -3.0971332E-06
   51.48000     -3.5638548E-06
   51.54000     -4.0944074E-06
   51.60000     -4.6963355E-06
   51.66000     -5.3778626E-06
   51.72000     -6.1479368E-06
   51.78000     -7.0162891E-06
   51.84000     -7.9935016E-06
   51.90000     -9.0910598E-06
   51.96000     -1.0321391E-05
   52.02000     -1.1697872E-05
   52.08000     -1.3234844E-05
   52.14000     -1.4947608E-05
   52.20000     -1.6852446E-05
   52.26000     -1.8966637E-05
   52.32000     -2.1308491E-05
   52.38000     -2.3897350E-05
   52.44000     -2.6753574E-05
   52.50000     -2.9898498E-05
   52.56000     -3.3354379E-05
   52.62000     -3.7144335E-05
   52.68000     -4.1292285E-05
   52.74000     -4.5822893E-05
   52.80000     -5.0761471E-05
   52.86000     -5.6133867E-05
   52.92000     -6.1966333E-05
   52.98000     -6.8285342E-05
   53.04000     -7.5117416E-05
   53.10000     -8.2488979E-05
   53.16000     -9.0426169E-05
   53.22000     -9.8954682E-05
   53.28000     -1.0809962E-04
   53.34000     -1.1788521E-04
   53.40000     -1.2833449E-04
   53.46000     -1.3946905E-04
   53.52000     -1.5130875E-04
   53.58000     -1.6387147E-04
   53.64000     -1.7717300E-04
   53.70000     -1.9122669E-04
   53.76000     -2.0604326E-04
   53.82000     -2.2163044E-04
   53.88000     -2.3799267E-04
   53.94000     -2.5513087E-04
   54.00000     -2.7304227E-04
   54.06000     -2.9172012E-04
   54.12000     -3.1115380E-04
   54.18000     -3.3132837E-04
   54.24000     -3.5222477E-04
   54.30000     -3.7381929E-04
   54.36000     -3.9608381E-04
   54.42000     -4.1898552E-04
   54.48000     -4.4248722E-04
   54.54000     -4.6654732E-04
   54.60000     -4.9112004E-04
   54.66000     -5.1615556E-04
   54.72000     -5.4160005E-04
   54.78000     -5.6739588E-04
   54.84000     -5.9348217E-04
   54.90000     -6.1979459E-04
   54.96000     -6.4626668E-04
   55.02000     -6.7282974E-04
   55.08000     -6.9941342E-04
   55.14000     -7.2594627E-04
   55.20000     -7.5235585E-04
   55.26000     -7.7856943E-04
   55.32000     -8.0451474E-04
   55.38000     -8.3012047E-04
   55.44000     -8.5531716E-04
   55.50000     -8.8003778E-04
   55.56000     -9.0421812E-04