 -0.750000000       0.00000000    
 -0.689999998       0.00000000    
 -0.629999995       0.00000000    
 -0.569999993       0.00000000    
 -0.509999990       0.00000000    
 -0.449999988       5.66344264E-20
 -0.389999986       5.17223578E-19
 -0.330000013       2.43870567E-18
 -0.270000011       7.60526068E-18
 -0.209999993       1.67058455E-17
 -0.150000006       2.45752746E-17
  -9.00000036E-02   1.46635316E-17
  -2.99999993E-02  -3.98817986E-17
   2.99999993E-02  -1.59514674E-16
   9.00000036E-02  -3.25793515E-16
  0.150000006      -4.51962910E-16
  0.209999993      -3.91358921E-16
  0.270000011      -1.00412538E-17
  0.330000013       6.92696980E-16
  0.389999986       1.49029391E-15
  0.449999988       1.96181534E-15
  0.509999990       1.70162863E-15
  0.569999993       6.29918445E-16
  0.629999995      -8.02548259E-16
  0.689999998      -1.74701435E-15
  0.750000000      -1.50231966E-15
  0.810000002      -2.48772412E-16
  0.870000005       5.32433158E-16
  0.930000007      -1.51001072E-15
  0.990000010      -8.13254459E-15
   1.04999995      -1.84783727E-14
   1.11000001      -2.76514905E-14
   1.16999996      -2.72512878E-14
   1.23000002      -8.66757126E-15
   1.28999996       3.14301739E-14
   1.35000002       8.56642367E-14
   1.40999997       1.33961296E-13
   1.47000003       1.47990534E-13
   1.52999997       1.02601392E-13
   1.59000003      -9.08506194E-15
   1.64999998      -1.64017657E-13
   1.71000004      -3.09231807E-13
   1.76999998      -3.78420629E-13
   1.83000004      -3.22093535E-13
   1.88999999      -1.38964402E-13
   1.95000005       1.09444592E-13
   2.00999999       3.15726395E-13
   2.06999993       3.75992802E-13
   2.13000011       2.52977598E-13
   2.19000006       1.87056672E-14
   2.25000000      -1.56906823E-13
   2.30999994      -8.32654258E-14
   2.36999989       3.33115886E-13
   2.43000007       9.89335783E-13
   2.49000001       1.57264533E-12
   2.54999995       1.66921056E-12
   2.60999990       9.68469987E-13
   2.67000008      -5.29265163E-13
   2.73000002      -2.42281802E-12
   2.78999996      -4.02183582E-12
   2.84999990      -4.64678469E-12
   2.91000009      -3.98904824E-12
   2.97000003      -2.33567007E-12
   3.02999997      -4.95761310E-13
   3.08999991       5.97850437E-13
   3.15000010       4.54375198E-13
   3.21000004      -5.32914153E-13
   3.26999998      -1.05535925E-12
   3.32999992       6.11935958E-13
   3.39000010       5.72692154E-12
   3.45000005       1.41940253E-11
   3.50999999       2.41234723E-11
   3.56999993       3.21288621E-11
   3.63000011       3.43300527E-11
   3.69000006       2.76906952E-11
   3.75000000       1.11479055E-11
   3.80999994      -1.39134442E-11
   3.86999989      -4.39663479E-11
   3.93000007      -7.41715370E-11
   3.99000001      -9.92520025E-11
   4.05000019      -1.14003432E-10
   4.11000013      -1.13372645E-10
   4.17000008      -9.24566396E-11
   4.23000002      -4.70152042E-11
   4.28999996       2.50393751E-11
   4.34999990       1.21210278E-10
   4.40999985       2.31733896E-10
   4.46999979       3.37821660E-10
   4.53000021       4.12023221E-10
   4.59000015       4.21376822E-10
   4.65000010       3.33097216E-10
   4.71000004       1.21610264E-10
   4.76999998      -2.24837648E-10
   4.82999992      -6.99748370E-10
   4.88999987      -1.27727107E-09
   4.94999981      -1.91465510E-09
   5.01000023      -2.55757859E-09
   5.07000017      -3.14710213E-09
   5.13000011      -3.62686547E-09
   5.19000006      -3.94938748E-09
   5.25000000      -4.08073308E-09
   5.30999994      -4.00319999E-09
   5.36999989      -3.71597708E-09
   5.42999983      -3.23388560E-09
   5.48999977      -2.58451083E-09
   5.55000019      -1.80419424E-09
   5.61000013      -9.33543021E-10
   5.67000008      -1.31842193E-11
   5.73000002       9.19591348E-10
   5.78999996       1.83290949E-09
   5.84999990       2.70107026E-09
   5.90999985       3.50425156E-09
   5.96999979       4.22760049E-09
   6.03000021       4.86021046E-09
   6.09000015       5.39439426E-09
   6.15000010       5.82556758E-09
   6.21000004       6.15289730E-09
   6.26999998       6.38065289E-09
   6.32999992       6.51991794E-09
   6.38999987       6.59000010E-09
   6.44999981       6.61869315E-09
   6.51000023       6.64067645E-09
   6.57000017       6.69384637E-09
   6.63000011       6.81415147E-09
   6.69000006       7.03028880E-09
   6.75000000       7.35992289E-09
   6.80999994       7.80879006E-09
   6.86999989       8.37303382E-09
   6.92999983       9.04393804E-09
   6.98999977       9.81327020E-09
   7.05000019       1.06772351E-08
   7.11000013       1.16377050E-08
   7.17000008       1.27005215E-08
   7.23000002       1.38718228E-08
   7.28999996       1.51539510E-08
   7.34999990       1.65423515E-08
   7.40999985       1.80241777E-08
   7.46999979       1.95785397E-08
   7.53000021       2.11778506E-08
   7.59000015       2.27898020E-08
   7.65000010       2.43798599E-08
   7.71000004       2.59144137E-08
   7.76999998       2.73645551E-08
   7.82999992       2.87099304E-08
   7.88999987       2.99414644E-08
   7.94999981       3.10615889E-08
   8.01000023       3.20812603E-08
   8.06999969       3.30142811E-08
   8.13000011       3.38708901E-08
   8.18999958       3.46532509E-08
   8.25000000       3.53551641E-08
   8.31000042       3.59666004E-08
   8.36999989       3.64816835E-08
   8.43000031       3.69072097E-08
   8.48999977       3.72682862E-08
   8.55000019       3.76089808E-08
   8.60999966       3.79876042E-08
   8.67000008       3.84684711E-08
   8.72999954       3.91126349E-08
   8.78999996       3.99698799E-08
   8.85000038       4.10730294E-08
   8.90999985       4.24343689E-08
   8.97000027       4.40435670E-08
   9.02999973       4.58669120E-08
   9.09000015       4.78485767E-08
   9.14999962       4.99150232E-08
   9.21000004       5.19829619E-08
   9.27000046       5.39695222E-08
   9.32999992       5.58017881E-08
   9.39000034       5.74221737E-08
   9.44999981       5.87876734E-08
   9.51000023       5.98637229E-08
   9.56999969       6.06163368E-08
   9.63000011       6.10074906E-08
   9.68999958       6.09973441E-08
   9.75000000       6.05532975E-08
   9.81000042       5.96622627E-08
   9.86999989       5.83400137E-08
   9.93000031       5.66325333E-08
   9.98999977       5.46078169E-08
   10.0500002       5.23409831E-08
   10.1099997       4.98986239E-08
   10.1700001       4.73284842E-08
   10.2299995       4.46576323E-08
   10.2900000       4.18982893E-08
   10.3500004       3.90574506E-08
   10.4099998       3.61456713E-08
   10.4700003       3.31819940E-08
   10.5299997       3.01947622E-08
   10.5900002       2.72199348E-08
   10.6499996       2.42987355E-08
   10.7100000       2.14754721E-08
   10.7700005       1.87948128E-08
   10.8299999       1.62974878E-08
   10.8900003       1.40143666E-08
   10.9499998       1.19604024E-08
   11.0100002       1.01310675E-08
   11.0699997       8.50343440E-09
   11.1300001       7.04227388E-09
   11.1899996       5.70923930E-09
   11.2500000       4.47183179E-09
   11.3100004       3.30904504E-09
   11.3699999       2.21239027E-09
   11.4300003       1.18323651E-09
   11.4899998       2.28976255E-10
   11.5500002      -6.39482578E-10
   11.6099997      -1.40786360E-09
   11.6700001      -2.05731743E-09
   11.7299995      -2.56434007E-09
   11.7900000      -2.90418578E-09
   11.8500004      -3.05841219E-09
   11.9099998      -3.02455705E-09
   11.9700003      -2.82388002E-09
   12.0299997      -2.50283860E-09
   12.0900002      -2.12603535E-09
   12.1499996      -1.76201620E-09
   12.2100000      -1.46675849E-09
   12.2700005      -1.27111155E-09
   12.3299999      -1.17689813E-09
   12.3900003      -1.16254761E-09
   12.4499998      -1.19499799E-09
   12.5100002      -1.24239508E-09
   12.5699997      -1.28291322E-09
   12.6300001      -1.30805533E-09
   12.6899996      -1.32197298E-09
   12.7500000      -1.33959688E-09
   12.8100004      -1.38516731E-09
   12.8699999      -1.49031565E-09
   12.9300003      -1.68945324E-09
   12.9899998      -2.01131223E-09
   13.0500002      -2.46855691E-09
   13.1099997      -3.05021897E-09
   13.1700001      -3.72186704E-09
   13.2299995      -4.43513315E-09
   13.2900000      -5.14314502E-09
   13.3500004      -5.81480242E-09
   13.4099998      -6.44112319E-09
   13.4700003      -7.03128755E-09
   13.5299997      -7.60181074E-09
   13.5900002      -8.16589196E-09
   13.6499996      -8.72913741E-09
   13.7100000      -9.29313426E-09
   13.7700005      -9.86295756E-09
   13.8299999      -1.04521058E-08
   13.8900003      -1.10801475E-08
   13.9499998      -1.17633201E-08
   14.0100002      -1.25030546E-08
   14.0699997      -1.32789681E-08
   14.1300001      -1.40504461E-08
   14.1899996      -1.47662842E-08
   14.2500000      -1.53778288E-08
   14.3100004      -1.58499809E-08
   14.3699999      -1.61664122E-08
   14.4300003      -1.63287961E-08
   14.4899998      -1.63526206E-08
   14.5500002      -1.62627405E-08
   14.6099997      -1.60905724E-08
   14.6700001      -1.58728266E-08
   14.7299995      -1.56501727E-08
   14.7900000      -1.54640691E-08
   14.8500004      -1.53509649E-08
   14.9099998      -1.53345798E-08
   14.9700003      -1.54185553E-08
   15.0299997      -1.55825095E-08
   15.0900002      -1.57842930E-08
   15.1499996      -1.59694782E-08
   15.2100000      -1.60863465E-08
   15.2700005      -1.61017990E-08
   15.3299999      -1.60122688E-08
   15.3900003      -1.58449982E-08
   15.4499998      -1.56488156E-08
   15.5100002      -1.54780810E-08
   15.5699997      -1.53764788E-08
   15.6300001      -1.53668474E-08
   15.6899996      -1.54497339E-08
   15.7500000      -1.56086433E-08
   15.8100004      -1.58171414E-08
   15.8699999      -1.60435309E-08
   15.9300003      -1.62520877E-08
   15.9899998      -1.64034599E-08
   16.0499992      -1.64579319E-08
   16.1100006      -1.63831526E-08
   16.1700001      -1.61639342E-08
   16.2299995      -1.58089151E-08
   16.2900009      -1.53493378E-08
   16.3500004      -1.48290411E-08
   16.4099998      -1.42896655E-08
   16.4699993      -1.37578446E-08
   16.5300007      -1.32401050E-08
   16.5900002      -1.27269244E-08
   16.6499996      -1.22025527E-08
   16.7099991      -1.16547794E-08
   16.7700005      -1.10799627E-08
   16.8299999      -1.04823821E-08
   16.8899994      -9.87059678E-09
   16.9500008      -9.25469656E-09
   17.0100002      -8.64663185E-09
   17.0699997      -8.06247247E-09
   17.1299992      -7.52309326E-09
   17.1900005      -7.05010716E-09
   17.2500000      -6.65695232E-09
   17.3099995      -6.33895691E-09
   17.3700008      -6.06848838E-09
   17.4300003      -5.80007775E-09
   17.4899998      -5.48592327E-09
   17.5499992      -5.09651432E-09
   17.6100006      -4.63736560E-09
   17.6700001      -4.15332879E-09
   17.7299995      -3.71697650E-09
   17.7900009      -3.40494966E-09
   17.8500004      -3.27218230E-09
   17.9099998      -3.33537997E-09
   17.9699993      -3.57284269E-09
   18.0300007      -3.93970634E-09
   18.0900002      -4.39011538E-09
   18.1499996      -4.89484098E-09
   18.2099991      -5.44616086E-09
   18.2700005      -6.04953510E-09
   18.3299999      -6.70922340E-09
   18.3899994      -7.41794448E-09
   18.4500008      -8.15713097E-09
   18.5100002      -8.90662211E-09
   18.5699997      -9.65564606E-09
   18.6299992      -1.04054916E-08
   18.6900005      -1.11595870E-08
   18.7500000      -1.19056427E-08
   18.8099995      -1.26013555E-08
   18.8700008      -1.31749562E-08
   18.9300003      -1.35441631E-08
   18.9899998      -1.36460532E-08
   19.0499992      -1.34627047E-08
   19.1100006      -1.30283047E-08
   19.1700001      -1.24127402E-08
   19.2299995      -1.16894441E-08
   19.2900009      -1.09039098E-08
   19.3500004      -1.00588293E-08
   19.4099998      -9.12231979E-09
   19.4699993      -8.05291034E-09
   19.5300007      -6.82622270E-09
   19.5900002      -5.44863976E-09
   19.6499996      -3.95200495E-09
   19.7099991      -2.37498932E-09
   19.7700005      -7.44153517E-10
   19.8299999       9.33304656E-10
   19.8899994       2.66141642E-09
   19.9500008       4.43827908E-09
   20.0100002       6.24175334E-09
   20.0699997       8.02771272E-09
   20.1299992       9.74239001E-09
   20.1900005       1.13416583E-08
   20.2500000       1.28061819E-08
   20.3099995       1.41444767E-08
   20.3700008       1.53836268E-08
   20.4300003       1.65546439E-08
   20.4899998       1.76817370E-08
   20.5499992       1.87810851E-08
   20.6100006       1.98677146E-08
   20.6700001       2.09636397E-08
   20.7299995       2.20999468E-08
   20.7900009       2.33099868E-08
   20.8500004       2.46172434E-08
   20.9099998       2.60253064E-08
   20.9699993       2.75162488E-08
   21.0300007       2.90583291E-08
   21.0900002       3.06178691E-08
   21.1499996       3.21675699E-08
   21.2099991       3.36858896E-08
   21.2700005       3.51483251E-08
   21.3299999       3.65171928E-08
   21.3899994       3.77382818E-08
   21.4500008       3.87489258E-08
   21.5100002       3.94950099E-08
   21.5699997       3.99483611E-08
   21.6299992       4.01146814E-08
   21.6900005       4.00269577E-08
   21.7500000       3.97273823E-08
   21.8099995       3.92473645E-08
   21.8700008       3.85965322E-08
   21.9300003       3.77664229E-08
   21.9899998       3.67460622E-08
   22.0499992       3.55396885E-08
   22.1100006       3.41759581E-08
   22.1700001       3.27034577E-08
   22.2299995       3.11760608E-08
   22.2900009       2.96380094E-08
   22.3500004       2.81185990E-08
   22.4099998       2.66397393E-08
   22.4699993       2.52306211E-08
   22.5300007       2.39381315E-08
   22.5900002       2.28232651E-08
   22.6499996       2.19421015E-08
   22.7099991       2.13199165E-08
   22.7700005       2.09325073E-08
   22.8299999       2.07061088E-08
   22.8899994       2.05377333E-08
   22.9500008       2.03269632E-08
   23.0100002       2.00043626E-08
   23.0699997       1.95442542E-08
   23.1299992       1.89586142E-08
   23.1900005       1.82789197E-08
   23.2500000       1.75378254E-08
   23.3099995       1.67603531E-08
   23.3700008       1.59666467E-08
   23.4300003       1.51807189E-08
   23.4899998       1.44365497E-08
   23.5499992       1.37758596E-08
   23.6100006       1.32383251E-08
   23.6700001       1.28504638E-08
   23.7299995       1.26203261E-08
   23.7900009       1.25413724E-08
   23.8500004       1.26030821E-08
   23.9099998       1.28018884E-08
   23.9699993       1.31462139E-08
   24.0300007       1.36532394E-08
   24.0900002       1.43398484E-08
   24.1499996       1.52129918E-08
   24.2099991       1.62641154E-08
   24.2700005       1.74691746E-08
   24.3299999       1.87924574E-08
   24.3899994       2.01910897E-08
   24.4500008       2.16180922E-08
   24.5100002       2.30241355E-08
   24.5699997       2.43597320E-08
   24.6299992       2.55792489E-08
   24.6900005       2.66462123E-08
   24.7500000       2.75372951E-08
   24.8099995       2.82420718E-08
   24.8700008       2.87576949E-08
   24.9300003       2.90808000E-08
   24.9899998       2.92015745E-08
   25.0499992       2.91044291E-08
   25.1100006       2.87763431E-08
   25.1700001       2.82190218E-08
   25.2299995       2.74576362E-08
   25.2900009       2.65394764E-08
   25.3500004       2.55207393E-08
   25.4099998       2.44462441E-08
   25.4699993       2.33318111E-08
   25.5300007       2.21587122E-08
   25.5900002       2.08840145E-08
   25.6499996       1.94624423E-08
   25.7099991       1.78691977E-08
   25.7700005       1.61126152E-08
   25.8299999       1.42310812E-08
   25.8899994       1.22772219E-08
   25.9500008       1.02988418E-08
   26.0100002       8.32701730E-09
   26.0699997       6.37643360E-09
   26.1299992       4.45519266E-09
   26.1900005       2.57565680E-09
   26.2500000       7.57942376E-10
   26.3099995      -9.76771108E-10
   26.3700008      -2.61861421E-09
   26.4300003      -4.17819512E-09
   26.4899998      -5.68512704E-09
   26.5499992      -7.17488602E-09
   26.6100006      -8.67029559E-09
   26.6700001      -1.01676720E-08
   26.7299995      -1.16353496E-08
   26.7900009      -1.30255158E-08
   26.8500004      -1.42929357E-08
   26.9099998      -1.54107340E-08
   26.9699993      -1.63756528E-08
   27.0300007      -1.72015735E-08
   27.0900002      -1.79066255E-08
   27.1499996      -1.85019839E-08
   27.2099991      -1.89884002E-08
   27.2700005      -1.93610141E-08
   27.3299999      -1.96179375E-08
   27.3899994      -1.97663415E-08
   27.4500008      -1.98221368E-08
   27.5100002      -1.98038208E-08
   27.5699997      -1.97246930E-08
   27.6299992      -1.95880787E-08
   27.6900005      -1.93876772E-08
   27.7500000      -1.91116083E-08
   27.8099995      -1.87468476E-08
   27.8700008      -1.82816606E-08
   27.9300003      -1.77063537E-08
   27.9899998      -1.70147558E-08
   28.0499992      -1.62084000E-08
   28.1100006      -1.53025344E-08
   28.1700001      -1.43298209E-08
   28.2299995      -1.33369351E-08
   28.2900009      -1.23723094E-08
   28.3500004      -1.14687984E-08
   28.4099998      -1.06295053E-08
   28.4699993      -9.82508741E-09
   28.5300007      -9.00575348E-09
   28.5900002      -8.12338552E-09
   28.6499996      -7.15336368E-09
   28.7099991      -6.10534912E-09
   28.7700005      -5.01818631E-09
   28.8299999      -3.94260180E-09
   28.8899994      -2.92167535E-09
   28.9500008      -1.97931338E-09
   29.0100002      -1.12129028E-09
   29.0699997      -3.45540596E-10
   29.1299992       3.46657952E-10
   29.1900005       9.46296264E-10
   29.2500000       1.44114776E-09
   29.3099995       1.82485582E-09
   29.3700008       2.10331952E-09
   29.4300003       2.29346031E-09
   29.4899998       2.41516429E-09
   29.5499992       2.48208165E-09
   29.6100006       2.49764764E-09
   29.6700001       2.45873211E-09
   29.7299995       2.36373476E-09
   29.7900009       2.21873941E-09
   29.8500004       2.03691242E-09
   29.9099998       1.83140481E-09
   29.9699993       1.60705649E-09
   30.0300007       1.35732536E-09
   30.0900002       1.06924514E-09
   30.1499996       7.33316297E-10
   30.2099991       3.51319474E-10
   30.2700005      -6.39162195E-11
   30.3299999      -4.97235642E-10
   30.3899994      -9.42575462E-10
   30.4500008      -1.40883916E-09
   30.5100002      -1.91525062E-09
   30.5699997      -2.47833953E-09
   30.6299992      -3.09881276E-09
   30.6900005      -3.75739173E-09
   30.7500000      -4.42316272E-09
   30.8099995      -5.06961362E-09
   30.8700008      -5.68778624E-09
   30.9300003      -6.28707753E-09
   30.9899998      -6.88182178E-09
   31.0499992      -7.47141193E-09
   31.1100006      -8.02696754E-09
   31.1700001      -8.49477022E-09
   31.2299995      -8.81699957E-09
   31.2900009      -8.95946251E-09
   31.3500004      -8.93075303E-09
   31.4099998      -8.78110917E-09
   31.4699993      -8.58025828E-09
   31.5300007      -8.38530756E-09
   31.5900002      -8.21528356E-09
   31.6499996      -8.04500022E-09
   31.7099991      -7.81995979E-09
   31.7700005      -7.48254347E-09
   31.8299999      -6.99462754E-09
   31.8899994      -6.34560715E-09
   31.9500008      -5.54480906E-09
   32.0099983      -4.60683180E-09
   32.0699997      -3.54145757E-09
   32.1300011      -2.35485809E-09
   32.1899986      -1.05950160E-09
   32.2500000       3.16953491E-10
   32.3100014       1.73348580E-09
   32.3699989       3.15056670E-09
   32.4300003       4.55054128E-09
   32.4900017       5.95055205E-09
   32.5499992       7.39794093E-09
   32.6100006       8.94807961E-09
   32.6699982       1.06354623E-08
   32.7299995       1.24536950E-08
   32.7900009       1.43554200E-08
   32.8499985       1.62717857E-08
   32.9099998       1.81400015E-08
   32.9700012       1.99235206E-08
   33.0299988       2.16149036E-08
   33.0900002       2.32227908E-08
   33.1500015       2.47540459E-08
   33.2099991       2.62041464E-08
   33.2700005       2.75621197E-08
   33.3300018       2.88254149E-08
   33.3899994       3.00127638E-08
   33.4500008       3.11638821E-08
   33.5099983       3.23237472E-08
   33.5699997       3.35198429E-08
   33.6300011       3.47463889E-08
   33.6899986       3.59659538E-08
   33.7500000       3.71283519E-08
   33.8100014       3.81957292E-08
   33.8699989       3.91585360E-08
   33.9300003       4.00324716E-08
   33.9900017       4.08381204E-08
   34.0499992       4.15760653E-08
   34.1100006       4.22132835E-08
   34.1699982       4.26903632E-08
   34.2299995       4.29464819E-08
   34.2900009       4.29481908E-08
   34.3499985       4.27054481E-08
   34.4099998       4.22652029E-08
   34.4700012       4.16857695E-08
   34.5299988       4.10062846E-08
   34.5900002       4.02284002E-08
   34.6500015       3.93206534E-08
   34.7099991       3.82431651E-08
   34.7700005       3.69792197E-08
   34.8300018       3.55565604E-08
   34.8899994       3.40470727E-08
   34.9500008       3.25450387E-08
   35.0099983       3.11350874E-08
   35.0699997       2.98653902E-08
   35.1300011       2.87376114E-08
   35.1899986       2.77160392E-08
   35.2500000       2.67487543E-08
   35.3100014       2.57895998E-08
   35.3699989       2.48116319E-08
   35.4300003       2.38090916E-08
   35.4900017       2.27910135E-08
   35.5499992       2.17724434E-08
   35.6100006       2.07677378E-08
   35.6699982       1.97869348E-08
   35.7299995       1.88335409E-08
   35.7900009       1.79020763E-08
   35.8499985       1.69759176E-08
   35.9099998       1.60281974E-08
   35.9700012       1.50284905E-08
   36.0299988       1.39553080E-08
   36.0900002       1.28103563E-08
   36.1500015       1.16278915E-08
   36.2099991       1.04730988E-08
   36.2700005       9.42759293E-09
   36.3300018       8.56588844E-09
   36.3899994       7.93132493E-09
   36.4500008       7.52103624E-09
   36.5099983       7.28643457E-09
   36.5699997       7.14959514E-09
   36.6300011       7.02945790E-09
   36.6899986       6.86767132E-09
   36.7500000       6.64413813E-09
   36.8100014       6.37674802E-09
   36.8699989       6.10665030E-09
   36.9300003       5.87652371E-09
   36.9900017       5.71182657E-09
   37.0499992       5.61270630E-09
   37.1100006       5.55835200E-09
   37.1699982       5.51926238E-09
   37.2299995       5.46957457E-09
   37.2900009       5.39303713E-09
   37.3499985       5.28122213E-09
   37.4099998       5.12788612E-09
   37.4700012       4.92547425E-09
   37.5299988       4.66737804E-09
   37.5900002       4.35438441E-09
   37.6500015       3.99969169E-09
   37.7099991       3.62697627E-09
   37.7700005       3.26064731E-09
   37.8300018       2.91353031E-09
   37.8899994       2.58038346E-09
   37.9500008       2.24308461E-09
   38.0099983       1.88604887E-09
   38.0699997       1.51294810E-09
   38.1300011       1.15323084E-09
   38.1899986       8.51714421E-10
   38.2500000       6.44404696E-10
   38.3100014       5.32951183E-10
   38.3699989       4.72923534E-10
   38.4300003       3.85088739E-10
   38.4900017       1.86984483E-10
   38.5499992      -1.69195991E-10
   38.6100006      -6.70682065E-10
   38.6699982      -1.24320854E-09
   38.7299995      -1.77612047E-09
   38.7900009      -2.16210205E-09
   38.8499985      -2.33370878E-09
   38.9099998      -2.28145036E-09
   38.9700012      -2.04781592E-09
   39.0299988      -1.70298864E-09
   39.0900002      -1.31534883E-09
   39.1500015      -9.30045652E-10
   39.2099991      -5.62855762E-10
   39.2700005      -2.08054407E-10
   39.3300018       1.47279661E-10
   39.3899994       5.11453713E-10
   39.4500008       8.84331330E-10
   39.5099983       1.26133104E-09
   39.5699997       1.64063296E-09
   39.6300011       2.02789052E-09
   39.6899986       2.43518650E-09
   39.7500000       2.87505864E-09
   39.8100014       3.35361028E-09
   39.8699989       3.86719679E-09
   39.9300003       4.40479564E-09
   39.9900017       4.95447772E-09
   40.0499992       5.50970025E-09
   40.1100006       6.07111339E-09
   40.1699982       6.64234046E-09
   40.2299995       7.22215798E-09
   40.2900009       7.79822962E-09
   40.3499985       8.34718961E-09
   40.4099998       8.84229490E-09
   40.4700012       9.26496924E-09
   40.5299988       9.61333768E-09
   40.5900002       9.90150895E-09
   40.6500015       1.01481135E-08
   40.7099991       1.03590088E-08
   40.7700005       1.05133733E-08
   40.8300018       1.05618092E-08
   40.8899994       1.04392166E-08
   40.9500008       1.00872315E-08
   41.0099983       9.47535739E-09
   41.0699997       8.61020411E-09
   41.1300011       7.52861595E-09
   41.1899986       6.27935481E-09
   41.2500000       4.90425656E-09
   41.3100014       3.42942430E-09
   41.3699989       1.87030258E-09
   41.4300003       2.45438031E-10
   41.4900017      -1.41182277E-09
   41.5499992      -3.05296011E-09
   41.6100006      -4.62669547E-09
   41.6699982      -6.09667650E-09
   41.7299995      -7.45265538E-09
   41.7900009      -8.70696848E-09
   41.8499985      -9.87753968E-09
   41.9099998      -1.09678675E-08
   41.9700012      -1.19572645E-08
   42.0299988      -1.28087585E-08
   42.0900002      -1.34908005E-08
   42.1500015      -1.39994256E-08
   42.2099991      -1.43660719E-08
   42.2700005      -1.46443204E-08
   42.3300018      -1.48818025E-08
   42.3899994      -1.50932848E-08
   42.4500008      -1.52512936E-08
   42.5099983      -1.53007456E-08
   42.5699997      -1.51898796E-08
   42.6300011      -1.48998405E-08
   42.6899986      -1.44559200E-08
   42.7500000      -1.39145051E-08
   42.8100014      -1.33345601E-08
   42.8699989      -1.27518529E-08
   42.9300003      -1.21723112E-08
   42.9900017      -1.15885967E-08
   43.0499992      -1.10089493E-08
   43.1100006      -1.04787681E-08
   43.1699982      -1.00789883E-08
   43.2299995      -9.89919435E-09
   43.2900009      -9.99924232E-09
   43.3499985      -1.03813500E-08
   43.4099998      -1.09896297E-08
   43.4700012      -1.17387495E-08
   43.5299988      -1.25567041E-08
   43.5900002      -1.34185942E-08
   43.6500015      -1.43538470E-08
   43.7099991      -1.54248703E-08
   43.7700005      -1.66914358E-08
   43.8300018      -1.81820656E-08
   43.8899994      -1.98874890E-08
   43.9500008      -2.17761027E-08
   44.0099983      -2.38173428E-08
   44.0699997      -2.59949466E-08
   44.1300011      -2.83006791E-08
   44.1899986      -3.07143146E-08
   44.2500000      -3.31868399E-08
   44.3100014      -3.56432786E-08
   44.3699989      -3.80087606E-08
   44.4300003      -4.02447071E-08
   44.4900017      -4.23725943E-08
   44.5499992      -4.44675265E-08
   44.6100006      -4.66207482E-08
   44.6699982      -4.88893903E-08
   44.7299995      -5.12607556E-08
   44.7900009      -5.36514975E-08
   44.8499985      -5.59428415E-08
   44.9099998      -5.80326684E-08
   44.9700012      -5.98763918E-08
   45.0299988      -6.14957472E-08
   45.0900002      -6.29534824E-08
   45.1500015      -6.43109033E-08
   45.2099991      -6.55929639E-08
   45.2700005      -6.67789237E-08
   45.3300018      -6.78196201E-08
   45.3899994      -6.86673900E-08
   45.4500008      -6.92992259E-08
   45.5099983      -6.97211178E-08
   45.5699997      -6.99550426E-08
   45.6300011      -7.00208389E-08
   45.6899986      -6.99266565E-08
   45.7500000      -6.96732272E-08
   45.8100014      -6.92662496E-08
   45.8699989      -6.87245461E-08
   45.9300003      -6.80748897E-08
   45.9900017      -6.73343905E-08
   46.0499992      -6.64916158E-08
   46.1100006      -6.55009984E-08
   46.1699982      -6.42983338E-08
   46.2299995      -6.28327754E-08
   46.2900009      -6.10994491E-08
   46.3499985      -5.91544698E-08
   46.4099998      -5.71021488E-08
   46.4700012      -5.50586599E-08
   46.5299988      -5.31090372E-08
   46.5900002      -5.12784446E-08
   46.6500015      -4.95311419E-08
   46.7099991      -4.77967568E-08
   46.7700005      -4.60097951E-08
   46.8300018      -4.41428760E-08
   46.8899994      -4.22189252E-08
   46.9500008      -4.02995326E-08
   47.0099983      -3.84587722E-08
   47.0699997      -3.67575126E-08
   47.1300011      -3.52304035E-08
   47.1899986      -3.38883659E-08
   47.2500000      -3.27301635E-08
   47.3100014      -3.17525100E-08
   47.3699989      -3.09512380E-08
   47.4300003      -3.03138314E-08
   47.4900017      -2.98106464E-08
   47.5499992      -2.93937799E-08
   47.6100006      -2.90081132E-08
   47.6699982      -2.86106836E-08
   47.7299995      -2.81883921E-08
   47.7900009      -2.77633845E-08
   47.8499985      -2.73814251E-08
   47.9099998      -2.70878573E-08
   47.9700012      -2.69029776E-08
   48.0299988      -2.68098255E-08
   48.0900002      -2.67612972E-08
   48.1500015      -2.67036526E-08
   48.2099991      -2.66047007E-08
   48.2700005      -2.64721436E-08
   48.3300018      -2.63522608E-08
   48.3899994      -2.63089603E-08
   48.4500008      -2.63931526E-08
   48.5099983      -2.66173572E-08
   48.5699997      -2.69478981E-08
   48.6300011      -2.73181993E-08
   48.6899986      -2.76563323E-08
   48.7500000      -2.79132806E-08
   48.8100014      -2.80788051E-08
   48.8699989      -2.81787358E-08
   48.9300003      -2.82571353E-08
   48.9900017      -2.83536714E-08
   49.0499992      -2.84875217E-08
   49.1100006      -2.86539414E-08
   49.1699982      -2.88321207E-08
   49.2299995      -2.89974924E-08
   49.2900009      -2.91311419E-08
   49.3499985      -2.92229458E-08
   49.4099998      -2.92702698E-08
   49.4700012      -2.92766611E-08
   49.5299988      -2.92534512E-08
   49.5900002      -2.92230453E-08
   49.6500015      -2.92194180E-08
   49.7099991      -2.92818552E-08
   49.7700005      -2.94423987E-08
   49.8300018      -2.97129201E-08
   49.8899994      -3.00797822E-08
   49.9500008      -3.05110532E-08
   50.0099983      -3.09737587E-08
   50.0699997      -3.14517585E-08
   50.1300011      -3.19530642E-08
   50.1899986      -3.25007790E-08
   50.2500000      -3.31116006E-08
   50.3100014      -3.37742776E-08
   50.3699989      -3.44416264E-08
   50.4300003      -3.50424116E-08
   50.4900017      -3.55070604E-08
   50.5499992      -3.57914871E-08
   50.6100006      -3.58826675E-08