 -0.750000000       0.00000000    
 -0.689999998       0.00000000    
 -0.629999995       0.00000000    
 -0.569999993       0.00000000    
 -0.509999990       0.00000000    
 -0.449999988      -4.01377792E-20
 -0.389999986      -3.08943067E-19
 -0.330000013      -1.15343512E-18
 -0.270000011      -2.57158831E-18
 -0.209999993      -2.97001598E-18
 -0.150000006       1.93903440E-18
  -9.00000036E-02   1.78440576E-17
  -2.99999993E-02   4.61165599E-17
   2.99999993E-02   7.51474330E-17
   9.00000036E-02   7.57333349E-17
  0.150000006       9.94765668E-18
  0.209999993      -1.43203162E-16
  0.270000011      -3.56349064E-16
  0.330000013      -5.40457895E-16
  0.389999986      -5.71320917E-16
  0.449999988      -3.54155354E-16
  0.509999990       1.08396408E-16
  0.569999993       6.97181913E-16
  0.629999995       1.23902275E-15
  0.689999998       1.62777413E-15
  0.750000000       1.91986307E-15
  0.810000002       2.29905791E-15
  0.870000005       2.85707728E-15
  0.930000007       3.25809211E-15
  0.990000010       2.49753933E-15
   1.04999995      -9.55036424E-16
   1.11000001      -8.41424403E-15
   1.16999996      -1.97026420E-14
   1.23000002      -3.18370581E-14
   1.28999996      -3.85653898E-14
   1.35000002      -3.16856526E-14
   1.40999997      -4.51073928E-15
   1.47000003       4.33297095E-14
   1.52999997       1.01881746E-13
   1.59000003       1.50437266E-13
   1.64999998       1.62668612E-13
   1.71000004       1.16920579E-13
   1.76999998       8.13569301E-15
   1.83000004      -1.44258357E-13
   1.88999999      -2.97692833E-13
   1.95000005      -3.98643493E-13
   2.00999999      -4.01928355E-13
   2.06999993      -2.89070417E-13
   2.13000011      -7.71142725E-14
   2.19000006       1.86608988E-13
   2.25000000       4.41296142E-13
   2.30999994       6.32565994E-13
   2.36999989       7.25542402E-13
   2.43000007       7.05675590E-13
   2.49000001       5.69775835E-13
   2.54999995       3.16344336E-13
   2.60999990      -5.48275380E-14
   2.67000008      -5.29852909E-13
   2.73000002      -1.06060885E-12
   2.78999996      -1.55081991E-12
   2.84999990      -1.86225970E-12
   2.91000009      -1.84668556E-12
   2.97000003      -1.39603953E-12
   3.02999997      -4.92504312E-13
   3.08999991       7.62599565E-13
   3.15000010       2.15462565E-12
   3.21000004       3.39588665E-12
   3.26999998       4.18723823E-12
   3.32999992       4.28207469E-12
   3.39000010       3.53722910E-12
   3.45000005       1.94420456E-12
   3.50999999      -3.57811518E-13
   3.56999993      -3.08372100E-12
   3.63000011      -5.81994435E-12
   3.69000006      -8.06402601E-12
   3.75000000      -9.29333780E-12
   3.80999994      -9.06125348E-12
   3.86999989      -7.10450058E-12
   3.93000007      -3.43290023E-12
   3.99000001       1.62845475E-12
   4.05000019       7.46077679E-12
   4.11000013       1.32299180E-11
   4.17000008       1.79944341E-11
   4.23000002       2.08122478E-11
   4.28999996       2.08307139E-11
   4.34999990       1.73719494E-11
   4.40999985       1.00447775E-11
   4.46999979      -1.09164880E-12
   4.53000021      -1.53244639E-11
   4.59000015      -3.11085671E-11
   4.65000010      -4.60161978E-11
   4.71000004      -5.69123776E-11
   4.76999998      -6.03925729E-11
   4.82999992      -5.34201364E-11
   4.88999987      -3.40059127E-11
   4.94999981      -1.72799578E-12
   5.01000023       4.20771404E-11
   5.07000017       9.45206621E-11
   5.13000011       1.51705495E-10
   5.19000006       2.09448722E-10
   5.25000000       2.63985916E-10
   5.30999994       3.12492671E-10
   5.36999989       3.53334390E-10
   5.42999983       3.86038423E-10
   5.48999977       4.11043310E-10
   5.55000019       4.29316915E-10
   5.61000013       4.41949588E-10
   5.67000008       4.49833698E-10
   5.73000002       4.53528687E-10
   5.78999996       4.53374172E-10
   5.84999990       4.49837306E-10
   5.90999985       4.43988790E-10
   5.96999979       4.37917452E-10
   6.03000021       4.34868447E-10
   6.09000015       4.38943493E-10
   6.15000010       4.54333210E-10
   6.21000004       4.84222162E-10
   6.26999998       5.29652711E-10
   6.32999992       5.88708193E-10
   6.38999987       6.56333932E-10
   6.44999981       7.24962312E-10
   6.51000023       7.85876142E-10
   6.57000017       8.31005764E-10
   6.63000011       8.54689208E-10
   6.69000006       8.54905147E-10
   6.75000000       8.33636438E-10
   6.80999994       7.96295641E-10
   6.86999989       7.50431828E-10
   6.92999983       7.04126923E-10
   6.98999977       6.64509725E-10
   7.05000019       6.36669328E-10
   7.11000013       6.23049834E-10
   7.17000008       6.23259777E-10
   7.23000002       6.34202135E-10
   7.28999996       6.50504428E-10
   7.34999990       6.65291877E-10
   7.40999985       6.71316336E-10
   7.46999979       6.62297328E-10
   7.53000021       6.34151398E-10
   7.59000015       5.85704207E-10
   7.65000010       5.18606269E-10
   7.71000004       4.36486514E-10
   7.76999998       3.43725853E-10
   7.82999992       2.44435971E-10
   7.88999987       1.42134485E-10
   7.94999981       4.02418342E-11
   8.01000023      -5.69410456E-11
   8.06999969      -1.43448239E-10
   8.13000011      -2.11733062E-10
   8.18999958      -2.53926685E-10
   8.25000000      -2.63992189E-10
   8.31000042      -2.39970155E-10
   8.36999989      -1.85309906E-10
   8.43000031      -1.08558780E-10
   8.48999977      -2.13252627E-11
   8.55000019       6.48078466E-11
   8.60999966       1.41248527E-10
   8.67000008       2.04080822E-10
   8.72999954       2.53851606E-10
   8.78999996       2.93665869E-10
   8.85000038       3.26490196E-10
   8.90999985       3.52803703E-10
   8.97000027       3.69396236E-10
   9.02999973       3.69435010E-10
   9.09000015       3.43268136E-10
   9.14999962       2.79186757E-10
   9.21000004       1.63644889E-10
   9.27000046      -1.89866282E-11
   9.32999992      -2.86507568E-10
   9.39000034      -6.58079813E-10
   9.44999981      -1.15215626E-09
   9.51000023      -1.78346937E-09
   9.56999969      -2.55999755E-09
   9.63000011      -3.48100215E-09
   9.68999958      -4.53687843E-09
   9.75000000      -5.71085756E-09
   9.81000042      -6.98189417E-09
   9.86999989      -8.32768343E-09
   9.93000031      -9.72686465E-09
   9.98999977      -1.11599299E-08
   10.0500002      -1.26089752E-08
   10.1099997      -1.40568162E-08
   10.1700001      -1.54861244E-08
   10.2299995      -1.68789711E-08
   10.2900000      -1.82167756E-08
   10.3500004      -1.94803693E-08
   10.4099998      -2.06497610E-08
   10.4700003      -2.17035012E-08
   10.5299997      -2.26177619E-08
   10.5900002      -2.33657502E-08
   10.6499996      -2.39181013E-08
   10.7100000      -2.42447591E-08
   10.7700005      -2.43184335E-08
   10.8299999      -2.41191636E-08
   10.8900003      -2.36390783E-08
   10.9499998      -2.28862600E-08
   11.0100002      -2.18866809E-08
   11.0699997      -2.06836290E-08
   11.1300001      -1.93344967E-08
   11.1899996      -1.79054087E-08
   11.2500000      -1.64646323E-08
   11.3100004      -1.50758570E-08
   11.3699999      -1.37924019E-08
   11.4300003      -1.26531923E-08
   11.4899998      -1.16808518E-08
   11.5500002      -1.08819620E-08
   11.6099997      -1.02491917E-08
   11.6700001      -9.76486803E-09
   11.7299995      -9.40543554E-09
   11.7900000      -9.14617448E-09
   11.8500004      -8.96543817E-09
   11.9099998      -8.84772877E-09
   11.9700003      -8.78508821E-09
   12.0299997      -8.77677664E-09
   12.0900002      -8.82763818E-09
   12.1499996      -8.94594532E-09
   12.2100000      -9.14142717E-09
   12.2700005      -9.42373912E-09
   12.3299999      -9.80106307E-09
   12.3900003      -1.02782254E-08
   12.4499998      -1.08539373E-08
   12.5100002      -1.15174696E-08
   12.5699997      -1.22458745E-08
   12.6300001      -1.30031443E-08
   12.6899996      -1.37423770E-08
   12.7500000      -1.44109178E-08
   12.8100004      -1.49574095E-08
   12.8699999      -1.53390172E-08
   12.9300003      -1.55272399E-08
   12.9899998      -1.55113273E-08
   13.0500002      -1.52991415E-08
   13.1099997      -1.49156083E-08
   13.1700001      -1.43990091E-08
   13.2299995      -1.37952405E-08
   13.2900000      -1.31504256E-08
   13.3500004      -1.25028112E-08
   13.4099998      -1.18755876E-08
   13.4700003      -1.12725473E-08
   13.5299997      -1.06778986E-08
   13.5900002      -1.00604849E-08
   13.6499996      -9.38123979E-09
   13.7100000      -8.60193694E-09
   13.7700005      -7.69321229E-09
   13.8299999      -6.64040201E-09
   13.8900003      -5.44644241E-09
   13.9499998      -4.13161860E-09
   14.0100002      -2.73020984E-09
   14.0699997      -1.28444955E-09
   14.1300001       1.63175820E-10
   14.1899996       1.57749502E-09
   14.2500000       2.93586555E-09
   14.3100004       4.22926671E-09
   14.3699999       5.45893286E-09
   14.4300003       6.63005073E-09
   14.4899998       7.74537945E-09
   14.5500002       8.80168827E-09
   14.6099997       9.79049641E-09
   14.6700001       1.07025269E-08
   14.7299995       1.15334791E-08
   14.7900000       1.22882611E-08
   14.8500004       1.29816762E-08
   14.9099998       1.36352192E-08
   14.9700003       1.42712349E-08
   15.0299997       1.49065009E-08
   15.0900002       1.55472719E-08
   15.1499996       1.61871814E-08
   15.2100000       1.68085261E-08
   15.2700005       1.73866948E-08
   15.3299999       1.78966548E-08
   15.3900003       1.83197173E-08
   15.4499998       1.86483806E-08
   15.5100002       1.88872882E-08
   15.5699997       1.90495211E-08
   15.6300001       1.91492404E-08
   15.6899996       1.91935463E-08
   15.7500000       1.91771381E-08
   15.8100004       1.90825116E-08
   15.8699999       1.88862739E-08
   15.9300003       1.85694127E-08
   15.9899998       1.81275546E-08
   16.0499992       1.75770740E-08
   16.1100006       1.69545160E-08
   16.1700001       1.63092722E-08
   16.2299995       1.56918691E-08
   16.2900009       1.51414685E-08
   16.3500004       1.46761021E-08
   16.4099998       1.42881342E-08
   16.4699993       1.39459519E-08
   16.5300007       1.36013876E-08
   16.5900002       1.32011673E-08
   16.6499996       1.26997657E-08
   16.7099991       1.20705081E-08
   16.7700005       1.13119736E-08
   16.8299999       1.04478071E-08
   16.8899994       9.51981782E-09
   16.9500008       8.57630589E-09
   17.0100002       7.65898811E-09
   17.0699997       6.79222500E-09
   17.1299992       5.97736394E-09
   17.1900005       5.19334487E-09
   17.2500000       4.40301440E-09
   17.3099995       3.56332941E-09
   17.3700008       2.63700151E-09
   17.4300003       1.60292024E-09
   17.4899998       4.62838434E-10
   17.5499992      -7.57635121E-10
   17.6100006      -2.01450479E-09
   17.6700001      -3.25626459E-09
   17.7299995      -4.43719372E-09
   17.7900009      -5.52889645E-09
   17.8500004      -6.52620624E-09
   17.9099998      -7.44548734E-09
   17.9699993      -8.31608915E-09
   18.0300007      -9.16810183E-09
   18.0900002      -1.00205693E-08
   18.1499996      -1.08737197E-08
   18.2099991      -1.17071481E-08
   18.2700005      -1.24840440E-08
   18.3299999      -1.31601334E-08
   18.3899994      -1.36951037E-08
   18.4500008      -1.40637031E-08
   18.5100002      -1.42634438E-08
   18.5699997      -1.43162655E-08
   18.6299992      -1.42628753E-08
   18.6900005      -1.41508654E-08
   18.7500000      -1.40201495E-08
   18.8099995      -1.38906211E-08
   18.8700008      -1.37562877E-08
   18.9300003      -1.35876848E-08
   18.9899998      -1.33411620E-08
   19.0499992      -1.29714754E-08
   19.1100006      -1.24436186E-08
   19.1700001      -1.17411254E-08
   19.2299995      -1.08697522E-08
   19.2900009      -9.85674209E-09
   19.3500004      -8.74626593E-09
   19.4099998      -7.59173613E-09
   19.4699993      -6.44619869E-09
   19.5300007      -5.35299938E-09
   19.5900002      -4.33966374E-09
   19.6499996      -3.41745165E-09
   19.7099991      -2.58700994E-09
   19.7700005      -1.84773907E-09
   19.8299999      -1.20659571E-09
   19.8899994      -6.82266632E-10
   19.9500008      -3.03061354E-10
   20.0100002      -1.00044487E-10
   20.0699997      -9.90309293E-11
   20.1299992      -3.14945903E-10
   20.1900005      -7.50117246E-10
   20.2500000      -1.39577627E-09
   20.3099995      -2.23490404E-09
   20.3700008      -3.24501892E-09
   20.4300003      -4.40077619E-09
   20.4899998      -5.67704950E-09
   20.5499992      -7.05274905E-09
   20.6100006      -8.51442561E-09
   20.6700001      -1.00578257E-08
   20.7299995      -1.16859615E-08
   20.7900009      -1.34038931E-08
   20.8500004      -1.52122333E-08
   20.9099998      -1.71021295E-08
   20.9699993      -1.90536991E-08
   21.0300007      -2.10380158E-08
   21.0900002      -2.30211068E-08
   21.1499996      -2.49678607E-08
   21.2099991      -2.68445799E-08
   21.2700005      -2.86201463E-08
   21.3299999      -3.02666869E-08
   21.3899994      -3.17606563E-08
   21.4500008      -3.30845076E-08
   21.5100002      -3.42285738E-08
   21.5699997      -3.51923042E-08
   21.6299992      -3.59844634E-08
   21.6900005      -3.66218487E-08
   21.7500000      -3.71266076E-08
   21.8099995      -3.75220353E-08
   21.8700008      -3.78273306E-08
   21.9300003      -3.80522742E-08
   21.9899998      -3.81937291E-08
   22.0499992      -3.82357257E-08
   22.1100006      -3.81541092E-08
   22.1700001      -3.79248064E-08
   22.2299995      -3.75329954E-08
   22.2900009      -3.69798201E-08
   22.3500004      -3.62839430E-08
   22.4099998      -3.54775018E-08
   22.4699993      -3.45980560E-08
   22.5300007      -3.36794628E-08
   22.5900002      -3.27445377E-08
   22.6499996      -3.18011999E-08
   22.7099991      -3.08425463E-08
   22.7700005      -2.98504368E-08
   22.8299999      -2.88016206E-08
   22.8899994      -2.76753305E-08
   22.9500008      -2.64607500E-08
   23.0100002      -2.51624570E-08
   23.0699997      -2.38019773E-08
   23.1299992      -2.24145378E-08
   23.1900005      -2.10418136E-08
   23.2500000      -1.97231440E-08
   23.3099995      -1.84884499E-08
   23.3700008      -1.73553314E-08
   23.4300003      -1.63310112E-08
   23.4899998      -1.54176902E-08
   23.5499992      -1.46187125E-08
   23.6100006      -1.39431151E-08
   23.6700001      -1.34072922E-08
   23.7299995      -1.30338353E-08
   23.7900009      -1.28484388E-08
   23.8500004      -1.28758249E-08
   23.9099998      -1.31353213E-08
   23.9699993      -1.36365408E-08
   24.0300007      -1.43757388E-08
   24.0900002      -1.53337361E-08
   24.1499996      -1.64761982E-08
   24.2099991      -1.77566069E-08
   24.2700005      -1.91213392E-08
   24.3299999      -2.05156105E-08
   24.3899994      -2.18889475E-08
   24.4500008      -2.31993145E-08
   24.5100002      -2.44157636E-08
   24.5699997      -2.55199328E-08
   24.6299992      -2.65066866E-08
   24.6900005      -2.73837628E-08
   24.7500000      -2.81700316E-08
   24.8099995      -2.88919839E-08
   24.8700008      -2.95785920E-08
   24.9300003      -3.02552507E-08
   24.9899998      -3.09379402E-08
   25.0499992      -3.16286837E-08
   25.1100006      -3.23131530E-08
   25.1700001      -3.29608945E-08
   25.2299995      -3.35284263E-08
   25.2900009      -3.39651258E-08
   25.3500004      -3.42213227E-08
   25.4099998      -3.42573188E-08
   25.4699993      -3.40514035E-08
   25.5300007      -3.36046888E-08
   25.5900002      -3.29412586E-08
   25.6499996      -3.21034399E-08
   25.7099991      -3.11434682E-08
   25.7700005      -3.01139309E-08
   25.8299999      -2.90594144E-08
   25.8899994      -2.80110921E-08
   25.9500008      -2.69847913E-08
   26.0100002      -2.59821302E-08
   26.0699997      -2.49938079E-08
   26.1299992      -2.40041516E-08
   26.1900005      -2.29960992E-08
   26.2500000      -2.19558540E-08
   26.3099995      -2.08762696E-08
   26.3700008      -1.97581063E-08
   26.4300003      -1.86087501E-08
   26.4899998      -1.74387864E-08
   26.5499992      -1.62577312E-08
   26.6100006      -1.50706594E-08
   26.6700001      -1.38771448E-08
   26.7299995      -1.26729693E-08
   26.7900009      -1.14539551E-08
   26.8500004      -1.02203943E-08
   26.9099998      -8.98045194E-09
   26.9699993      -7.75133291E-09
   27.0300007      -6.55781562E-09
   27.0900002      -5.42849010E-09
   27.1499996      -4.39066961E-09
   27.2099991      -3.46527362E-09
   27.2700005      -2.66303224E-09
   27.3299999      -1.98306793E-09
   27.3899994      -1.41418988E-09
   27.4500008      -9.38307099E-10
   27.5100002      -5.34569056E-10
   27.5699997      -1.82658055E-10
   27.6299992       1.35735881E-10
   27.6900005       4.37094444E-10
   27.7500000       7.36730843E-10
   27.8099995       1.04853315E-09
   27.8700008       1.38310108E-09
   27.9300003       1.74478509E-09
   27.9899998       2.12903184E-09
   28.0499992       2.52143617E-09
   28.1100006       2.89904323E-09
   28.1700001       3.23335136E-09
   28.2299995       3.49393448E-09
   28.2900009       3.65185704E-09
   28.3500004       3.68276298E-09
   28.4099998       3.56995566E-09
   28.4699993       3.30746630E-09
   28.5300007       2.90229707E-09
   28.5900002       2.37447906E-09
   28.6499996       1.75397297E-09
   28.7099991       1.07480502E-09
   28.7700005       3.68322123E-10
   28.8299999      -3.41963374E-10
   28.8899994      -1.04233211E-09
   28.9500008      -1.72785308E-09
   29.0100002      -2.40023890E-09
   29.0699997      -3.06666581E-09
   29.1299992      -3.74039422E-09
   29.1900005      -4.44213022E-09
   29.2500000      -5.19987209E-09
   29.3099995      -6.04540018E-09
   29.3700008      -7.00736535E-09
   29.4300003      -8.10297252E-09
   29.4899998      -9.33130107E-09
   29.5499992      -1.06708198E-08
   29.6100006      -1.20820118E-08
   29.6700001      -1.35143230E-08
   29.7299995      -1.49156332E-08
   29.7900009      -1.62422555E-08
   29.8500004      -1.74677091E-08
   29.9099998      -1.85885796E-08
   29.9699993      -1.96259116E-08
   30.0300007      -2.06208739E-08
   30.0900002      -2.16247216E-08
   30.1499996      -2.26850005E-08
   30.2099991      -2.38317597E-08
   30.2700005      -2.50681698E-08
   30.3299999      -2.63688822E-08
   30.3899994      -2.76867400E-08
   30.4500008      -2.89656121E-08
   30.5100002      -3.01549186E-08
   30.5699997      -3.12212372E-08
   30.6299992      -3.21535971E-08
   30.6900005      -3.29615020E-08
   30.7500000      -3.36668720E-08
   30.8099995      -3.42930413E-08
   30.8700008      -3.48543701E-08
   30.9300003      -3.53499559E-08
   30.9899998      -3.57633354E-08
   31.0499992      -3.60680836E-08
   31.1100006      -3.62371573E-08
   31.1700001      -3.62523167E-08
   31.2299995      -3.61102082E-08
   31.2900009      -3.58231347E-08
   31.3500004      -3.54149776E-08
   31.4099998      -3.49145992E-08
   31.4699993      -3.43497213E-08
   31.5300007      -3.37432517E-08
   31.5900002      -3.31124568E-08
   31.6499996      -3.24699769E-08
   31.7099991      -3.18254685E-08
   31.7700005      -3.11870956E-08
   31.8299999      -3.05628873E-08
   31.8899994      -2.99620133E-08
   31.9500008      -2.93955615E-08
   32.0099983      -2.88761317E-08
   32.0699997      -2.84156503E-08
   32.1300011      -2.80221446E-08
   32.1899986      -2.76972276E-08
   32.2500000      -2.74363607E-08
   32.3100014      -2.72327476E-08
   32.3699989      -2.70835372E-08
   32.4300003      -2.69953837E-08
   32.4900017      -2.69861982E-08
   32.5499992      -2.70817981E-08
   32.6100006      -2.73085803E-08
   32.6699982      -2.76854220E-08
   32.7299995      -2.82181318E-08
   32.7900009      -2.88982811E-08
   32.8499985      -2.97061522E-08
   32.9099998      -3.06160395E-08
   32.9700012      -3.16018642E-08
   33.0299988      -3.26417755E-08
   33.0900002      -3.37211965E-08
   33.1500015      -3.48341835E-08
   33.2099991      -3.59829215E-08
   33.2700005      -3.71752549E-08
   33.3300018      -3.84206089E-08
   33.3899994      -3.97256343E-08
   33.4500008      -4.10911731E-08
   33.5099983      -4.25119140E-08
   33.5699997      -4.39786803E-08
   33.6300011      -4.54818192E-08
   33.6899986      -4.70137245E-08
   33.7500000      -4.85688432E-08
   33.8100014      -5.01412103E-08
   33.8699989      -5.17209919E-08
   33.9300003      -5.32919593E-08
   33.9900017      -5.48314212E-08
   34.0499992      -5.63127607E-08
   34.1100006      -5.77097907E-08
   34.1699982      -5.90015219E-08
   34.2299995      -6.01761272E-08
   34.2900009      -6.12332656E-08
   34.3499985      -6.21841352E-08
   34.4099998      -6.30488799E-08
   34.4700012      -6.38516084E-08
   34.5299988      -6.46136442E-08
   34.5900002      -6.53470877E-08
   34.6500015      -6.60507524E-08
   34.7099991      -6.67102000E-08
   34.7700005      -6.73022171E-08
   34.8300018      -6.78023042E-08
   34.8899994      -6.81924348E-08
   34.9500008      -6.84663419E-08
   35.0099983      -6.86305697E-08
   35.0699997      -6.87013397E-08
   35.1300011      -6.86985757E-08
   35.1899986      -6.86396078E-08
   35.2500000      -6.85346109E-08
   35.3100014      -6.83851695E-08
   35.3699989      -6.81859404E-08
   35.4300003      -6.79283971E-08
   35.4900017      -6.76048089E-08
   35.5499992      -6.72108271E-08
   35.6100006      -6.67456135E-08
   35.6699982      -6.62096582E-08
   35.7299995      -6.56016539E-08
   35.7900009      -6.49161507E-08
   35.8499985      -6.41433715E-08
   35.9099998      -6.32718127E-08
   35.9700012      -6.22925214E-08
   36.0299988      -6.12035080E-08
   36.0900002      -6.00124253E-08
   36.1500015      -5.87365072E-08
   36.2099991      -5.73995891E-08
   36.2700005      -5.60273570E-08
   36.3300018      -5.46422037E-08
   36.3899994      -5.32592814E-08
   36.4500008      -5.18848786E-08
   36.5099983      -5.05176629E-08
   36.5699997      -4.91524581E-08
   36.6300011      -4.77854734E-08
   36.6899986      -4.64190748E-08
   36.7500000      -4.50642084E-08
   36.8100014      -4.37390248E-08
   36.8699989      -4.24637072E-08
   36.9300003      -4.12531307E-08
   36.9900017      -4.01101374E-08
   37.0499992      -3.90224777E-08
   37.1100006      -3.79652576E-08
   37.1699982      -3.69086273E-08
   37.2299995      -3.58283856E-08
   37.2900009      -3.47157645E-08
   37.3499985      -3.35828076E-08
   37.4099998      -3.24612728E-08
   37.4700012      -3.13952917E-08
   37.5299988      -3.04301082E-08
   37.5900002      -2.96004856E-08
   37.6500015      -2.89223454E-08
   37.7099991      -2.83898096E-08
   37.7700005      -2.79781585E-08
   37.8300018      -2.76514189E-08
   37.8899994      -2.73721348E-08
   37.9500008      -2.71106764E-08
   38.0099983      -2.68518274E-08
   38.0699997      -2.65973590E-08
   38.1300011      -2.63644377E-08
   38.1899986      -2.61806417E-08
   38.2500000      -2.60771209E-08
   38.3100014      -2.60816915E-08
   38.3699989      -2.62135806E-08
   38.4300003      -2.64808637E-08
   38.4900017      -2.68808193E-08
   38.5499992      -2.74025265E-08
   38.6100006      -2.80302803E-08
   38.6699982      -2.87463653E-08
   38.7299995      -2.95321172E-08
   38.7900009      -3.03671506E-08
   38.8499985      -3.12275681E-08
   38.9099998      -3.20847420E-08
   38.9700012      -3.29061258E-08
   39.0299988      -3.36589636E-08
   39.0900002      -3.43163045E-08
   39.1500015      -3.48634934E-08
   39.2099991      -3.53024490E-08
   39.2700005      -3.56512579E-08
   39.3300018      -3.59380579E-08
   39.3899994      -3.61903716E-08
   39.4500008      -3.64231205E-08
   39.5099983      -3.66297286E-08
   39.5699997      -3.67800297E-08
   39.6300011      -3.68264672E-08
   39.6899986      -3.67168802E-08
   39.7500000      -3.64097055E-08
   39.8100014      -3.58861918E-08
   39.8699989      -3.51556935E-08
   39.9300003      -3.42525226E-08
   39.9900017      -3.32260655E-08
   40.0499992      -3.21278151E-08
   40.1100006      -3.09994590E-08
   40.1699982      -2.98651237E-08
   40.2299995      -2.87292394E-08
   40.2900009      -2.75798495E-08
   40.3499985      -2.63962665E-08
   40.4099998      -2.51591921E-08
   40.4700012      -2.38608564E-08
   40.5299988      -2.25122641E-08
   40.5900002      -2.11447748E-08
   40.6500015      -1.98046006E-08
   40.7099991      -1.85412556E-08
   40.7700005      -1.73937345E-08
   40.8300018      -1.63798681E-08
   40.8899994      -1.54935638E-08
   40.9500008      -1.47117136E-08
   41.0099983      -1.40083589E-08
   41.0699997      -1.33704665E-08
   41.1300011      -1.28090276E-08
   41.1899986      -1.23611539E-08
   41.2500000      -1.20827179E-08
   41.3100014      -1.20346355E-08
   41.3699989      -1.22678037E-08
   41.4300003      -1.28114248E-08
   41.4900017      -1.36675400E-08
   41.5499992      -1.48123309E-08
   41.6100006      -1.62029128E-08
   41.6699982      -1.77874373E-08
   41.7299995      -1.95159657E-08
   41.7900009      -2.13497451E-08
   41.8499985      -2.32668178E-08
   41.9099998      -2.52626418E-08
   41.9700012      -2.73455107E-08
   42.0299988      -2.95278433E-08
   42.0900002      -3.18156346E-08
   42.1500015      -3.41989939E-08
   42.2099991      -3.66466324E-08
   42.2700005      -3.91061583E-08
   42.3300018      -4.15105958E-08
   42.3899994      -4.37895693E-08
   42.4500008      -4.58819365E-08
   42.5099983      -4.77458002E-08
   42.5699997      -4.93624164E-08
   42.6300011      -5.07326163E-08
   42.6899986      -5.18673353E-08
   42.7500000      -5.27763078E-08
   42.8100014      -5.34597895E-08
   42.8699989      -5.39068097E-08
   42.9300003      -5.41001874E-08
   42.9900017      -5.40258611E-08
   43.0499992      -5.36823563E-08
   43.1100006      -5.30868434E-08
   43.1699982      -5.22762456E-08
   43.2299995      -5.13035907E-08
   43.2900009      -5.02308524E-08
   43.3499985      -4.91194356E-08
   43.4099998      -4.80192739E-08
   43.4700012      -4.69582240E-08
   43.5299988      -4.59344953E-08
   43.5900002      -4.49156197E-08
   43.6500015      -4.38464873E-08
   43.7099991      -4.26658282E-08
   43.7700005      -4.13268602E-08
   43.8300018      -3.98150029E-08
   43.8899994      -3.81560881E-08
   43.9500008      -3.64118193E-08
   44.0099983      -3.46640867E-08
   44.0699997      -3.29940306E-08
   44.1300011      -3.14630739E-08
   44.1899986      -3.01018090E-08
   44.2500000      -2.89092874E-08
   44.3100014      -2.78616543E-08
   44.3699989      -2.69264913E-08
   44.4300003      -2.60780517E-08
   44.4900017      -2.53087720E-08
   44.5499992      -2.46337351E-08
   44.6100006      -2.40869387E-08
   44.6699982      -2.37107489E-08
   44.7299995      -2.35421940E-08
   44.7900009      -2.36008919E-08
   44.8499985      -2.38826203E-08
   44.9099998      -2.43603893E-08
   44.9700012      -2.49920173E-08
   45.0299988      -2.57311399E-08
   45.0900002      -2.65379718E-08
   45.1500015      -2.73869496E-08
   45.2099991      -2.82697208E-08
   45.2700005      -2.91931723E-08
   45.3300018      -3.01730161E-08
   45.3899994      -3.12241930E-08
   45.4500008      -3.23502753E-08
   45.5099983      -3.35349633E-08
   45.5699997      -3.47389815E-08
   45.6300011      -3.59044421E-08
   45.6899986      -3.69661031E-08
   45.7500000      -3.78661937E-08
   45.8100014      -3.85678369E-08
   45.8699989      -3.90626269E-08
   45.9300003      -3.93703239E-08
   45.9900017      -3.95318303E-08
   46.0499992      -3.95984934E-08
   46.1100006      -3.96212236E-08
   46.1699982      -3.96418045E-08
   46.2299995      -3.96871904E-08
   46.2900009      -3.97667641E-08
   46.3499985      -3.98724573E-08
   46.4099998      -3.99817708E-08
   46.4700012      -4.00636431E-08
   46.5299988      -4.00862596E-08
   46.5900002      -4.00248616E-08
   46.6500015      -3.98672135E-08
   46.7099991      -3.96148820E-08
   46.7700005      -3.92801418E-08
   46.8300018      -3.88799393E-08
   46.8899994      -3.84294836E-08
   46.9500008      -3.79379266E-08
   47.0099983      -3.74076166E-08
   47.0699997      -3.68367417E-08
   47.1300011      -3.62239945E-08
   47.1899986      -3.55731586E-08
   47.2500000      -3.48958693E-08
   47.3100014      -3.42115527E-08
   47.3699989      -3.35447865E-08
   47.4300003      -3.29211396E-08
   47.4900017      -3.23629621E-08
   47.5499992      -3.18863158E-08
   47.6100006      -3.14996385E-08
   47.6699982      -3.12040456E-08
   47.7299995      -3.09946593E-08
   47.7900009      -3.08624770E-08
   47.8499985      -3.07962580E-08
   47.9099998      -3.07842711E-08
   47.9700012      -3.08157446E-08
   48.0299988      -3.08817896E-08
   48.0900002      -3.09757411E-08
   48.1500015      -3.10927497E-08
   48.2099991      -3.12289075E-08
   48.2700005      -3.13801323E-08
   48.3300018      -3.15411022E-08
   48.3899994      -3.17044986E-08
   48.4500008      -3.18606261E-08
   48.5099983      -3.19976543E-08
   48.5699997      -3.21026867E-08
   48.6300011      -3.21636868E-08
   48.6899986      -3.21719220E-08
   48.7500000      -3.21240421E-08
   48.8100014      -3.20228466E-08
   48.8699989      -3.18759810E-08
   48.9300003      -3.16926325E-08
   48.9900017      -3.14791819E-08
   49.0499992      -3.12351247E-08
   49.1100006      -3.09507087E-08
   49.1699982      -3.06072039E-08
   49.2299995      -3.01801109E-08
   49.2900009      -2.96447631E-08
   49.3499985      -2.89831128E-08
   49.4099998      -2.81895325E-08
   49.4700012      -2.72733409E-08
   49.5299988      -2.62562594E-08
   49.5900002      -2.51648675E-08
   49.6500015      -2.40205704E-08
   49.7099991      -2.28313013E-08
   49.7700005      -2.15891660E-08
   49.8300018      -2.02757580E-08
   49.8899994      -1.88733917E-08
   49.9500008      -1.73775430E-08
   50.0099983      -1.58053304E-08
   50.0699997      -1.41968597E-08
   50.1300011      -1.26096387E-08
   50.1899986      -1.11087726E-08
   50.2500000      -9.75635484E-09
   50.3100014      -8.60235705E-09
   50.3699989      -7.67801911E-09
   50.4300003      -6.99225611E-09
   50.4900017      -6.53198073E-09
   50.5499992      -6.26745278E-09
   50.6100006      -6.16255580E-09