  -2.400000      0.0000000E+00
  -2.340000      0.0000000E+00
  -2.280000      0.0000000E+00
  -2.220000      0.0000000E+00
  -2.160000      0.0000000E+00
  -2.100000      5.5161392E-20
  -2.040000      4.6237003E-19
  -1.980000      2.0093778E-18
  -1.920000      5.8202802E-18
  -1.860000      1.1923227E-17
  -1.800000      1.6095750E-17
  -1.740000      6.6820126E-18
  -1.680000     -3.3824180E-17
  -1.620000     -1.1701593E-16
  -1.560000     -2.2720809E-16
  -1.500000     -3.0335005E-16
  -1.440000     -2.4701831E-16
  -1.380000      2.6879854E-17
  -1.320000      5.0908422E-16
  -1.260000      1.0360800E-15
  -1.200000      1.3196141E-15
  -1.140000      1.0974016E-15
  -1.080000      3.4777929E-16
  -1.020000     -5.8041509E-16
 -0.9600000     -1.0857177E-15
 -0.9000000     -7.2513935E-16
 -0.8400000      2.5723319E-16
 -0.7800000      6.5991410E-16
 -0.7200000     -1.2989198E-15
 -0.6600000     -6.8416575E-15
 -0.6000000     -1.5113809E-14
 -0.5400000     -2.2161436E-14
 -0.4800000     -2.1422076E-14
 -0.4200000     -6.3036281E-15
 -0.3600000      2.5602733E-14
 -0.3000000      6.8387834E-14
 -0.2400000      1.0632234E-13
 -0.1800000      1.1726262E-13
 -0.1200000      8.1454862E-14
 -5.9999999E-02 -6.7390005E-15
  0.0000000E+00 -1.2959630E-13
  5.9999999E-02 -2.4572429E-13
  0.1200000     -3.0272733E-13
  0.1800000     -2.6085137E-13
  0.2400000     -1.1808488E-13
  0.3000000      7.7642658E-14
  0.3600000      2.4133264E-13
  0.4200000      2.9018376E-13
  0.4800000      1.9451614E-13
  0.5400000      1.2713809E-14
  0.6000000     -1.1755347E-13
  0.6600000     -4.1936493E-14
  0.7200000      3.1445351E-13
  0.7800000      8.6575007E-13
  0.8400000      1.3542194E-12
  0.9000000      1.4391862E-12
  0.9600000      8.6386941E-13
   1.020000     -3.7582586E-13
   1.080000     -1.9591336E-12
   1.140000     -3.3322089E-12
   1.200000     -3.9508986E-12
   1.260000     -3.5685307E-12
   1.320000     -2.4102625E-12
   1.380000     -1.1047779E-12
   1.440000     -3.5665760E-13
   1.500000     -4.9094724E-13
   1.560000     -1.1067493E-12
   1.620000     -1.0699957E-12
   1.680000      1.0609869E-12
   1.740000      6.2975263E-12
   1.800000      1.4478341E-11
   1.860000      2.3888069E-11
   1.920000      3.1481182E-11
   1.980000      3.3701618E-11
   2.040000      2.7619079E-11
   2.100000      1.1955939E-11
   2.160000     -1.2366724E-11
   2.220000     -4.2303171E-11
   2.280000     -7.3230783E-11
   2.340000     -9.9645583E-11
   2.400000     -1.1571324E-10
   2.460000     -1.1561729E-10
   2.520000     -9.3944331E-11
   2.580000     -4.6512214E-11
   2.640000      2.8062677E-11
   2.700000      1.2615639E-10
   2.760000      2.3689814E-10
   2.820000      3.4089001E-10
   2.880000      4.1087753E-10
   2.940000      4.1490894E-10
   3.000000      3.2173503E-10
   3.060000      1.0737940E-10
   3.120000     -2.3871322E-10
   3.180000     -7.0955064E-10
   3.240000     -1.2795677E-09
   3.300000     -1.9069442E-09
   3.360000     -2.5386733E-09
   3.420000     -3.1172254E-09
   3.480000     -3.5874981E-09
   3.540000     -3.9029389E-09
   3.600000     -4.0301082E-09
   3.660000     -3.9513228E-09
   3.720000     -3.6653183E-09
   3.780000     -3.1860619E-09
   3.840000     -2.5400224E-09
   3.900000     -1.7623758E-09
   3.960000     -8.9276592E-10
   4.020000      2.8688912E-11
   4.080000      9.6457820E-10
   4.140000      1.8822375E-09
   4.200000      2.7546316E-09
   4.260000      3.5603152E-09
   4.320000      4.2828496E-09
   4.380000      4.9100617E-09
   4.440000      5.4334834E-09
   4.500000      5.8482650E-09
   4.560000      6.1537500E-09
   4.620000      6.3547416E-09
   4.680000      6.4631922E-09
   4.740000      6.4996697E-09
   4.800000      6.4937171E-09
   4.860000      6.4822911E-09
   4.920000      6.5059877E-09
   4.980000      6.6036105E-09
   5.040000      6.8064483E-09
   5.100000      7.1340436E-09
   5.160000      7.5928845E-09
   5.220000      8.1785219E-09
   5.280000      8.8803258E-09
   5.340000      9.6871355E-09
   5.400000      1.0591782E-08
   5.460000      1.1593000E-08
   5.520000      1.2694350E-08
   5.580000      1.3900860E-08
   5.640000      1.5214837E-08
   5.700000      1.6632264E-08
   5.760000      1.8140714E-08
   5.820000      1.9719057E-08
   5.880000      2.1338623E-08
   5.940000      2.2965512E-08
   6.000000      2.4563668E-08
   6.060000      2.6098641E-08
   6.120000      2.7541702E-08
   6.180000      2.8873620E-08
   6.240000      3.0087048E-08
   6.300000      3.1186332E-08
   6.360000      3.2184182E-08
   6.420000      3.3095823E-08
   6.480000      3.3932448E-08
   6.540000      3.4696658E-08
   6.600000      3.5382069E-08
   6.660000      3.5977894E-08
   6.720000      3.6477221E-08
   6.780000      3.6885915E-08
   6.840000      3.7228695E-08
   6.900000      3.7549945E-08
   6.960000      3.7908862E-08
   7.020000      3.8370654E-08
   7.080000      3.8996735E-08
   7.140000      3.9836397E-08
   7.200000      4.0921151E-08
   7.260000      4.2261611E-08
   7.320000      4.3845958E-08
   7.380000      4.5639755E-08
   7.440000      4.7587569E-08
   7.500000      4.9617515E-08
   7.560000      5.1648986E-08
   7.620000      5.3602353E-08
   7.680000      5.5407604E-08
   7.740000      5.7008869E-08
   7.800000      5.8363014E-08
   7.860000      5.9433599E-08
   7.920000      6.0183915E-08
   7.980000      6.0573655E-08
   8.040000      6.0562243E-08
   8.100000      6.0118140E-08
   8.160000      5.9230281E-08
   8.220000      5.7916065E-08
   8.280000      5.6221641E-08
   8.340000      5.4213523E-08
   8.400000      5.1964516E-08
   8.460000      4.9539238E-08
   8.520000      4.6984415E-08
   8.580000      4.4326768E-08
   8.640000      4.1578037E-08
   8.700000      3.8743963E-08
   8.760000      3.5833331E-08
   8.820000      3.2864026E-08
   8.880000      2.9865056E-08
   8.940000      2.6875183E-08
   9.000000      2.3939737E-08
   9.060000      2.1106793E-08
   9.120000      1.8423146E-08
   9.180000      1.5929839E-08
   9.240000      1.3657146E-08
   9.300000      1.1619692E-08
   9.360000      9.8133199E-09
   9.420000      8.2155625E-09
   9.480000      6.7906227E-09
   9.540000      5.4980283E-09
   9.600000      4.3022639E-09
   9.660000      3.1800165E-09
   9.720000      2.1225934E-09
   9.780000      1.1334030E-09
   9.840000      2.2275935E-10
   9.900000     -5.9663652E-10
   9.960000     -1.3111947E-09
   10.02000     -1.9051063E-09
   10.08000     -2.3588873E-09
   10.14000     -2.6512281E-09
   10.20000     -2.7658122E-09
   10.26000     -2.7013520E-09
   10.32000     -2.4801050E-09
   10.38000     -2.1496089E-09
   10.44000     -1.7749642E-09
   10.50000     -1.4235563E-09
   10.56000     -1.1480425E-09
   10.62000     -9.7452635E-10
   10.68000     -9.0036867E-10
   10.74000     -9.0147789E-10
   10.80000     -9.4478569E-10
   10.86000     -1.0001775E-09
   10.92000     -1.0478789E-09
   10.98000     -1.0807114E-09
   11.04000     -1.1033534E-09
   11.10000     -1.1311478E-09
   11.16000     -1.1892013E-09
   11.22000     -1.3102783E-09
   11.28000     -1.5293463E-09
   11.34000     -1.8743662E-09
   11.40000     -2.3560065E-09
   11.46000     -2.9611105E-09
   11.52000     -3.6541168E-09
   11.58000     -4.3870840E-09
   11.64000     -5.1144733E-09
   11.70000     -5.8060903E-09
   11.76000     -6.4524746E-09
   11.82000     -7.0610966E-09
   11.88000     -7.6466877E-09
   11.94000     -8.2218170E-09
   12.00000     -8.7929299E-09
   12.06000     -9.3630765E-09
   12.12000     -9.9380930E-09
   12.18000     -1.0530802E-08
   12.24000     -1.1159173E-08
   12.30000     -1.1838308E-08
   12.36000     -1.2570139E-08
   12.42000     -1.3336423E-08
   12.48000     -1.4099103E-08
   12.54000     -1.4808365E-08
   12.60000     -1.5415049E-08
   12.66000     -1.5882355E-08
   12.72000     -1.6192701E-08
   12.78000     -1.6348316E-08
   12.84000     -1.6367089E-08
   12.90000     -1.6276722E-08
   12.96000     -1.6110075E-08
   13.02000     -1.5902875E-08
   13.08000     -1.5692917E-08
   13.14000     -1.5518658E-08
   13.20000     -1.5415170E-08
   13.26000     -1.5407077E-08
   13.32000     -1.5500342E-08
   13.38000     -1.5676619E-08
   13.44000     -1.5894109E-08
   13.50000     -1.6096829E-08
   13.56000     -1.6230526E-08
   13.62000     -1.6259921E-08
   13.68000     -1.6180403E-08
   13.74000     -1.6019099E-08
   13.80000     -1.5824742E-08
   13.86000     -1.5650850E-08
   13.92000     -1.5539488E-08
   13.98000     -1.5511985E-08
   14.04000     -1.5568613E-08
   14.10000     -1.5694468E-08
   14.16000     -1.5866249E-08
   14.22000     -1.6055747E-08
   14.28000     -1.6229826E-08
   14.34000     -1.6350146E-08
   14.40000     -1.6376724E-08
   14.46000     -1.6276651E-08
   14.52000     -1.6034884E-08
   14.58000     -1.5661234E-08
   14.64000     -1.5188618E-08
   14.70000     -1.4661982E-08
   14.76000     -1.4122578E-08
   14.82000     -1.3594943E-08
   14.88000     -1.3082461E-08
   14.94000     -1.2572616E-08
   15.00000     -1.2047921E-08
   15.06000     -1.1496184E-08
   15.12000     -1.0915256E-08
   15.18000     -1.0311567E-08
   15.24000     -9.6955981E-09
   15.30000     -9.0785841E-09
   15.36000     -8.4727461E-09
   15.42000     -7.8937710E-09
   15.48000     -7.3617903E-09
   15.54000     -6.8974901E-09
   15.60000     -6.5132761E-09
   15.66000     -6.2034551E-09
   15.72000     -5.9396248E-09
   15.78000     -5.6761018E-09
   15.84000     -5.3655871E-09
   15.90000     -4.9796318E-09
   15.96000     -4.5248618E-09
   16.02000     -4.0466621E-09
   16.08000     -3.6171570E-09
   16.14000     -3.3116268E-09
   16.20000     -3.1833078E-09
   16.26000     -3.2476619E-09
   16.32000     -3.4827852E-09
   16.38000     -3.8447188E-09
   16.44000     -4.2891459E-09
   16.50000     -4.7882320E-09
   16.56000     -5.3348530E-09
   16.62000     -5.9340675E-09
   16.68000     -6.5890737E-09
   16.74000     -7.2915367E-09
   16.80000     -8.0224796E-09
   16.86000     -8.7622558E-09
   16.92000     -9.5013339E-09
   16.98000     -1.0242467E-08
   17.04000     -1.0990256E-08
   17.10000     -1.1733063E-08
   17.16000     -1.2428821E-08
   17.22000     -1.3005845E-08
   17.28000     -1.3381936E-08
   17.34000     -1.3494042E-08
   17.40000     -1.3323477E-08
   17.46000     -1.2902657E-08
   17.52000     -1.2298807E-08
   17.58000     -1.1582522E-08
   17.64000     -1.0797335E-08
   17.70000     -9.9457278E-09
   17.76000     -8.9974943E-09
   17.82000     -7.9140072E-09
   17.88000     -6.6736798E-09
   17.94000     -5.2845852E-09
   18.00000     -3.7788195E-09
   18.06000     -2.1943631E-09
   18.12000     -5.5703980E-10
   18.18000      1.1260466E-09
   18.24000      2.8583045E-09
   18.30000      4.6369730E-09
   18.36000      6.4393788E-09
   18.42000      8.2213711E-09
   18.48000      9.9293578E-09
   18.54000      1.1519107E-08
   18.60000      1.2970711E-08
   18.66000      1.4291996E-08
   18.72000      1.5509878E-08
   18.78000      1.6656106E-08
   18.84000      1.7756282E-08
   18.90000      1.8827791E-08
   18.96000      1.9885883E-08
   19.02000      2.0951704E-08
   19.08000      2.2055163E-08
   19.14000      2.3229408E-08
   19.20000      2.4499524E-08
   19.26000      2.5872241E-08
   19.32000      2.7332948E-08
   19.38000      2.8851716E-08
   19.44000      3.0394343E-08
   19.50000      3.1931215E-08
   19.56000      3.3438369E-08
   19.62000      3.4890530E-08
   19.68000      3.6251546E-08
   19.74000      3.7470144E-08
   19.80000      3.8486061E-08
   19.86000      3.9245254E-08
   19.92000      3.9716760E-08
   19.98000      3.9901757E-08
   20.04000      3.9829068E-08
   20.10000      3.9539021E-08
   20.16000      3.9064158E-08
   20.22000      3.8417475E-08
   20.28000      3.7594376E-08
   20.34000      3.6586442E-08
   20.40000      3.5398227E-08
   20.46000      3.4056626E-08
   20.52000      3.2607499E-08
   20.58000      3.1102353E-08
   20.64000      2.9584434E-08
   20.70000      2.8083646E-08
   20.76000      2.6623647E-08
   20.82000      2.5235584E-08
   20.88000      2.3967610E-08
   20.94000      2.2880755E-08
   21.00000      2.2029987E-08
   21.06000      2.1438888E-08
   21.12000      2.1081734E-08
   21.18000      2.0883904E-08
   21.24000      2.0742299E-08
   21.30000      2.0556737E-08
   21.36000      2.0257923E-08
   21.42000      1.9820012E-08
   21.48000      1.9254733E-08
   21.54000      1.8593658E-08
   21.60000      1.7870182E-08
   21.66000      1.7110514E-08
   21.72000      1.6335814E-08
   21.78000      1.5570201E-08
   21.84000      1.4846512E-08
   21.90000      1.4204358E-08
   21.96000      1.3681095E-08
   22.02000      1.3301511E-08
   22.08000      1.3072947E-08
   22.14000      1.2989096E-08
   22.20000      1.3040292E-08
   22.26000      1.3224226E-08
   22.32000      1.3551070E-08
   22.38000      1.4040453E-08
   22.44000      1.4712326E-08
   22.50000      1.5576651E-08
   22.56000      1.6626679E-08
   22.62000      1.7837886E-08
   22.68000      1.9171511E-08
   22.74000      2.0579895E-08
   22.80000      2.2011236E-08
   22.86000      2.3413104E-08
   22.92000      2.4735565E-08
   22.98000      2.5934851E-08
   23.04000      2.6977307E-08
   23.10000      2.7841836E-08
   23.16000      2.8518823E-08
   23.22000      2.9005053E-08
   23.28000      2.9296693E-08
   23.34000      2.9384422E-08
   23.40000      2.9254396E-08
   23.46000      2.8895871E-08
   23.52000      2.8312016E-08
   23.58000      2.7527575E-08
   23.64000      2.6587438E-08
   23.70000      2.5544514E-08
   23.76000      2.4441206E-08
   23.82000      2.3293222E-08
   23.88000      2.2084333E-08
   23.94000      2.0775715E-08
   24.00000      1.9325958E-08
   24.06000      1.7712194E-08
   24.12000      1.5942108E-08
   24.18000      1.4051531E-08
   24.24000      1.2090250E-08
   24.30000      1.0104596E-08
   24.36000      8.1263272E-09
   24.42000      6.1724994E-09
   24.48000      4.2538644E-09
   24.54000      2.3841451E-09
   24.60000      5.8264671E-10
   24.66000     -1.1321921E-09
   24.72000     -2.7540044E-09
   24.78000     -4.2962345E-09
   24.84000     -5.7897354E-09
   24.90000     -7.2696063E-09
   24.96000     -8.7574632E-09
   25.02000     -1.0248616E-08
   25.08000     -1.1711256E-08
   25.14000     -1.3098232E-08
   25.20000     -1.4365113E-08
   25.26000     -1.5485192E-08
   25.32000     -1.6454379E-08
   25.38000     -1.7285021E-08
   25.44000     -1.7993818E-08
   25.50000     -1.8591480E-08
   25.56000     -1.9079684E-08
   25.62000     -1.9455650E-08
   25.68000     -1.9719963E-08
   25.74000     -1.9881762E-08
   25.80000     -1.9957776E-08
   25.86000     -1.9966002E-08
   25.92000     -1.9918147E-08
   25.98000     -1.9815326E-08
   26.04000     -1.9648848E-08
   26.10000     -1.9404659E-08
   26.16000     -1.9068121E-08
   26.22000     -1.8626785E-08
   26.28000     -1.8071399E-08
   26.34000     -1.7397362E-08
   26.40000     -1.6608514E-08
   26.46000     -1.5722355E-08
   26.52000     -1.4772838E-08
   26.58000     -1.3806361E-08
   26.64000     -1.2869526E-08
   26.70000     -1.1992509E-08
   26.76000     -1.1175987E-08
   26.82000     -1.0389388E-08
   26.88000     -9.5832275E-09
   26.94000     -8.7107788E-09
   27.00000     -7.7488655E-09
   27.06000     -6.7076145E-09
   27.12000     -5.6248526E-09
   27.18000     -4.5491579E-09
   27.24000     -3.5213841E-09
   27.30000     -2.5644027E-09
   27.36000     -1.6849483E-09
   27.42000     -8.8382351E-10
   27.48000     -1.6602411E-10
   27.54000      4.5643683E-10
   27.60000      9.7038488E-10
   27.66000      1.3710173E-09
   27.72000      1.6675803E-09
   27.78000      1.8805859E-09
   27.84000      2.0320992E-09
   27.90000      2.1356015E-09
   27.96000      2.1922126E-09
   28.02000      2.1954947E-09
   28.08000      2.1409741E-09
   28.14000      2.0332465E-09
   28.20000      1.8854189E-09
   28.26000      1.7113696E-09
   28.32000      1.5166735E-09
   28.38000      1.2951995E-09
   28.44000      1.0343180E-09
   28.50000      7.2529005E-10
   28.56000      3.7128037E-10
   28.62000     -1.3273781E-11
   28.68000     -4.1220877E-10
   28.74000     -8.1975965E-10
   28.80000     -1.2464724E-09
   28.86000     -1.7138706E-09
   28.92000     -2.2404565E-09
   28.98000     -2.8279648E-09
   29.04000     -3.4573198E-09
   29.10000     -4.0976755E-09
   29.16000     -4.7230992E-09
   29.22000     -5.3257496E-09
   29.28000     -5.9159384E-09
   29.34000     -6.5077264E-09
   29.40000     -7.0985355E-09
   29.46000     -7.6563200E-09
   29.52000     -8.1243767E-09
   29.58000     -8.4436085E-09
   29.64000     -8.5810727E-09
   29.70000     -8.5487519E-09
   29.76000     -8.4009972E-09
   29.82000     -8.2106633E-09
   29.88000     -8.0358289E-09
   29.94000     -7.8942017E-09
   30.00000     -7.7578211E-09
   30.06000     -7.5692626E-09
   30.12000     -7.2688948E-09
   30.18000     -6.8178654E-09
   30.24000     -6.2057106E-09
   30.30000     -5.4418847E-09
   30.36000     -4.5402886E-09
   30.42000     -3.5089640E-09
   30.48000     -2.3518913E-09
   30.54000     -1.0800363E-09
   30.60000      2.7870364E-10
   30.66000      1.6810499E-09
   30.72000      3.0840470E-09
   30.78000      4.4671000E-09
   30.84000      5.8464549E-09
   30.90000      7.2710749E-09
   30.96000      8.7994350E-09
   31.02000      1.0468561E-08
   31.08000      1.2272206E-08
   31.14000      1.4160380E-08
   31.20000      1.6060266E-08
   31.26000      1.7906249E-08
   31.32000      1.9662043E-08
   31.38000      2.1323697E-08
   31.44000      2.2904672E-08
   31.50000      2.4415222E-08
   31.56000      2.5850838E-08
   31.62000      2.7197256E-08
   31.68000      2.8447353E-08
   31.74000      2.9616613E-08
   31.80000      3.0744463E-08
   31.86000      3.1878294E-08
   31.92000      3.3049073E-08
   31.98000      3.4253762E-08
   32.04000      3.5456214E-08
   32.10000      3.6606615E-08
   32.16000      3.7667633E-08
   32.22000      3.8630844E-08
   32.28000      3.9513083E-08
   32.34000      4.0334832E-08
   32.40000      4.1094552E-08
   32.46000      4.1755605E-08
   32.52000      4.2255099E-08
   32.58000      4.2530495E-08
   32.64000      4.2549040E-08
   32.70000      4.2322849E-08
   32.76000      4.1900776E-08
   32.82000      4.1341504E-08
   32.88000      4.0683034E-08
   32.94000      3.9925620E-08
   33.00000      3.9037481E-08
   33.06000      3.7979859E-08
   33.12000      3.6737635E-08
   33.18000      3.5339031E-08
   33.24000      3.3854395E-08
   33.30000      3.2375013E-08
   33.36000      3.0982829E-08
   33.42000      2.9725367E-08
   33.48000      2.8606220E-08
   33.54000      2.7592954E-08
   33.60000      2.6636213E-08
   33.66000      2.5690083E-08
   33.72000      2.4725479E-08
   33.78000      2.3733550E-08
   33.84000      2.2721261E-08
   33.90000      2.1703743E-08
   33.96000      2.0697295E-08
   34.02000      1.9714371E-08
   34.08000      1.8759918E-08
   34.14000      1.7828350E-08
   34.20000      1.6901888E-08
   34.26000      1.5952491E-08
   34.32000      1.4949265E-08
   34.38000      1.3870967E-08
   34.44000      1.2719799E-08
   34.50000      1.1530360E-08
   34.56000      1.0368154E-08
   34.62000      9.3156016E-09
   34.68000      8.4488851E-09
   34.74000      7.8136404E-09
   34.80000      7.4090449E-09
   34.86000      7.1873267E-09
   34.92000      7.0697341E-09
   34.98000      6.9731967E-09
   35.04000      6.8372334E-09
   35.10000      6.6404620E-09
   35.16000      6.4006360E-09
   35.22000      6.1594694E-09
   35.28000      5.9601448E-09
   35.34000      5.8280527E-09
   35.40000      5.7627356E-09
   35.46000      5.7426459E-09
   35.52000      5.7377338E-09
   35.58000      5.7217417E-09
   35.64000      5.6778644E-09
   35.70000      5.5967466E-09
   35.76000      5.4710338E-09
   35.82000      5.2924163E-09
   35.88000      5.0543432E-09
   35.94000      4.7584479E-09
   36.00000      4.4189599E-09
   36.06000      4.0600101E-09
   36.12000      3.7055352E-09
   36.18000      3.3673486E-09
   36.24000      3.0395428E-09
   36.30000      2.7044176E-09
   36.36000      2.3479021E-09
   36.42000      1.9754629E-09
   36.48000      1.6175138E-09
   36.54000      1.3183624E-09
   36.60000      1.1123208E-09
   36.66000      9.9922426E-10
   36.72000      9.3385211E-10
   36.78000      8.3768897E-10
   36.84000      6.3002570E-10
   36.90000      2.6473726E-10
   36.96000     -2.4484309E-10
   37.02000     -8.2539275E-10
   37.08000     -1.3682665E-09
   37.14000     -1.7682679E-09
   37.20000     -1.9592419E-09
   37.26000     -1.9316431E-09
   37.32000     -1.7265992E-09
   37.38000     -1.4121067E-09
   37.44000     -1.0542179E-09
   37.50000     -6.9630868E-10
   37.56000     -3.5343611E-10
   37.62000     -2.0353656E-11
   37.68000      3.1450156E-10
   37.74000      6.5791295E-10
   37.80000      1.0088713E-09
   37.86000      1.3630741E-09
   37.92000      1.7199833E-09
   37.98000      2.0867854E-09
   38.04000      2.4764191E-09
   38.10000      2.9010836E-09
   38.16000      3.3656147E-09
   38.22000      3.8650692E-09
   38.28000      4.3880481E-09
   38.34000      4.9235149E-09
   38.40000      5.4665552E-09
   38.46000      6.0190644E-09
   38.52000      6.5845369E-09
   38.58000      7.1600197E-09
   38.64000      7.7305540E-09
   38.70000      8.2704821E-09
   38.76000      8.7521048E-09
   38.82000      9.1574908E-09
   38.88000      9.4864632E-09
   38.94000      9.7549746E-09
   39.00000      9.9829354E-09
   39.06000      1.0176747E-08
   39.12000      1.0315699E-08
   39.18000      1.0350446E-08
   39.24000      1.0216024E-08
   39.30000      9.8541300E-09
   39.36000      9.2340340E-09
   39.42000      8.3618144E-09
   39.48000      7.2737931E-09
   39.54000      6.0186141E-09
   39.60000      4.6385633E-09
   39.66000      3.1605076E-09
   39.72000      1.6004412E-09
   39.78000     -2.3174469E-11
   39.84000     -1.6776927E-09
   39.90000     -3.3154233E-09
   39.96000     -4.8854636E-09
   40.02000     -6.3511694E-09
   40.08000     -7.7017193E-09
   40.14000     -8.9493435E-09
   40.20000     -1.0112888E-08
   40.26000     -1.1197661E-08
   40.32000     -1.2184786E-08
   40.38000     -1.3037968E-08
   40.44000     -1.3724576E-08
   40.50000     -1.4238163E-08
   40.56000     -1.4607477E-08
   40.62000     -1.4884513E-08
   40.68000     -1.5117008E-08
   40.74000     -1.5321055E-08
   40.80000     -1.5470500E-08
   40.86000     -1.5510551E-08
   40.92000     -1.5388551E-08
   40.98000     -1.5084447E-08
   41.04000     -1.4623260E-08
   41.10000     -1.4062693E-08
   41.16000     -1.3464078E-08
   41.22000     -1.2865166E-08
   41.28000     -1.2272065E-08
   41.34000     -1.1675464E-08
   41.40000     -1.1080575E-08
   41.46000     -1.0530685E-08
   41.52000     -1.0107171E-08
   41.58000     -9.9028377E-09
   41.64000     -9.9821102E-09
   41.70000     -1.0350790E-08
   41.76000     -1.0953686E-08
   41.82000     -1.1702846E-08
   41.88000     -1.2521594E-08
   41.94000     -1.3380548E-08
   42.00000     -1.4306801E-08
   42.06000     -1.5363401E-08
   42.12000     -1.6613155E-08
   42.18000     -1.8088553E-08
   42.24000     -1.9783712E-08
   42.30000     -2.1668900E-08
   42.36000     -2.3713721E-08
   42.42000     -2.5900764E-08
   42.48000     -2.8219914E-08
   42.54000     -3.0648881E-08
   42.60000     -3.3136860E-08
   42.66000     -3.5607702E-08
   42.72000     -3.7986165E-08
   42.78000     -4.0234134E-08
   42.84000     -4.2374058E-08
   42.90000     -4.4482046E-08
   42.96000     -4.6649895E-08
   43.02000     -4.8934545E-08
   43.08000     -5.1322360E-08
   43.14000     -5.3728648E-08
   43.20000     -5.6033301E-08
   43.26000     -5.8133320E-08
   43.32000     -5.9983975E-08
   43.38000     -6.1607601E-08
   43.44000     -6.3068107E-08
   43.50000     -6.4428001E-08
   43.56000     -6.5713031E-08
   43.62000     -6.6902373E-08
   43.68000     -6.7946004E-08
   43.74000     -6.8795060E-08
   43.80000     -6.9425816E-08
   43.86000     -6.9844582E-08
   43.92000     -7.0074641E-08
   43.98000     -7.0137432E-08
   44.04000     -7.0041899E-08
   44.10000     -6.9788207E-08
   44.16000     -6.9380270E-08
   44.22000     -6.8834950E-08
   44.28000     -6.8178103E-08
   44.34000     -6.7427479E-08
   44.40000     -6.6573328E-08
   44.46000     -6.5571513E-08
   44.52000     -6.4357849E-08
   44.58000     -6.2879870E-08
   44.64000     -6.1130287E-08
   44.70000     -5.9163614E-08
   44.76000     -5.7084414E-08
   44.82000     -5.5010904E-08
   44.88000     -5.3030831E-08
   44.94000     -5.1171138E-08
   45.00000     -4.9396050E-08
   45.06000     -4.7633680E-08
   45.12000     -4.5816794E-08
   45.18000     -4.3917431E-08
   45.24000     -4.1959730E-08
   45.30000     -4.0007812E-08
   45.36000     -3.8138392E-08
   45.42000     -3.6413994E-08
   45.48000     -3.4869512E-08
   45.54000     -3.3515061E-08
   45.60000     -3.2348318E-08
   45.66000     -3.1365119E-08
   45.72000     -3.0560706E-08
   45.78000     -2.9921999E-08
   45.84000     -2.9418691E-08
   45.90000     -2.9002464E-08
   45.96000     -2.8618510E-08
   46.02000     -2.8225211E-08
   46.08000     -2.7811422E-08
   46.14000     -2.7400782E-08
   46.20000     -2.7038960E-08
   46.26000     -2.6769287E-08
   46.32000     -2.6608983E-08
   46.38000     -2.6538585E-08
   46.44000     -2.6510552E-08
   46.50000     -2.6473090E-08
   46.56000     -2.6397165E-08
   46.62000     -2.6292893E-08
   46.68000     -2.6206763E-08
   46.74000     -2.6200679E-08
   46.80000     -2.6322814E-08
   46.86000     -2.6584187E-08
   46.92000     -2.6951968E-08
   46.98000     -2.7362265E-08
   47.04000     -2.7745912E-08
   47.10000     -2.8054885E-08
   47.16000     -2.8277427E-08
   47.22000     -2.8436068E-08
   47.28000     -2.8571346E-08
   47.34000     -2.8720603E-08
   47.40000     -2.8902379E-08
   47.46000     -2.9112652E-08
   47.52000     -2.9332071E-08
   47.58000     -2.9537771E-08
   47.64000     -2.9712483E-08
   47.70000     -2.9847275E-08
   47.76000     -2.9939667E-08
   47.82000     -2.9991906E-08
   47.88000     -3.0012856E-08
   47.94000     -3.0022345E-08
   48.00000     -3.0052988E-08
   48.06000     -3.0144459E-08
   48.12000     -3.0330241E-08
   48.18000     -3.0623134E-08
   48.24000     -3.1008870E-08
   48.30000     -3.1453624E-08
   48.36000     -3.1922880E-08
   48.42000     -3.2400838E-08
   48.48000     -3.2897795E-08
   48.54000     -3.3439459E-08
   48.60000     -3.4043346E-08
   48.66000     -3.4696559E-08
   48.72000     -3.5349274E-08
   48.78000     -3.5929109E-08
   48.84000     -3.6368181E-08
   48.90000     -3.6625799E-08
   48.96000     -3.6691066E-08
   49.02000     -3.6561175E-08
   49.08000     -3.6205481E-08
   49.14000     -3.5534235E-08
   49.20000     -3.4388631E-08
   49.26000     -3.2556851E-08
   49.32000     -2.9806138E-08
   49.38000     -2.5912140E-08
   49.44000     -2.0668367E-08
   49.50000     -1.3869395E-08
   49.56000     -5.2749454E-09
   49.62000      5.4291003E-09
   49.68000      1.8657150E-08
   49.74000      3.4930821E-08
   49.80000      5.4871148E-08
   49.86000      7.9189093E-08
   49.92000      1.0868762E-07
   49.98000      1.4428136E-07
   50.04000      1.8702954E-07
   50.10000      2.3817174E-07
   50.16000      2.9915640E-07
   50.22000      3.7166120E-07
   50.28000      4.5761317E-07
   50.34000      5.5922061E-07
   50.40000      6.7902465E-07
   50.46000      8.1996552E-07
   50.52000      9.8545058E-07
   50.58000      1.1794097E-06
   50.64000      1.4063343E-06
   50.70000      1.6713133E-06
   50.76000      1.9800855E-06
   50.82000      2.3391260E-06
   50.88000      2.7557692E-06
   50.94000      3.2383450E-06
   51.00000      3.7963057E-06
   51.06000      4.4403205E-06
   51.12000      5.1823440E-06
   51.18000      6.0356779E-06
   51.24000      7.0150618E-06
   51.30000      8.1368044E-06
   51.36000      9.4189527E-06
   51.42000      1.0881484E-05
   51.48000      1.2546484E-05
   51.54000      1.4438315E-05
   51.60000      1.6583761E-05
   51.66000      1.9012159E-05
   51.72000      2.1755559E-05
   51.78000      2.4848849E-05
   51.84000      2.8329907E-05
   51.90000      3.2239710E-05
   51.96000      3.6622452E-05
   52.02000      4.1525629E-05
   52.08000      4.7000154E-05
   52.14000      5.3100452E-05
   52.20000      5.9884595E-05
   52.26000      6.7414338E-05
   52.32000      7.5755175E-05
   52.38000      8.4976302E-05
   52.44000      9.5150564E-05
   52.50000      1.0635429E-04
   52.56000      1.1866714E-04
   52.62000      1.3217189E-04
   52.68000      1.4695420E-04
   52.74000      1.6310248E-04
   52.80000      1.8070741E-04
   52.86000      1.9986174E-04
   52.92000      2.2065983E-04
   52.98000      2.4319709E-04
   53.04000      2.6756956E-04
   53.10000      2.9387299E-04
   53.16000      3.2220245E-04
   53.22000      3.5265149E-04
   53.28000      3.8531129E-04
   53.34000      4.2027014E-04
   53.40000      4.5761248E-04
   53.46000      4.9741799E-04
   53.52000      5.3976063E-04
   53.58000      5.8470789E-04
   53.64000      6.3231960E-04
   53.70000      6.8264717E-04
   53.76000      7.3573226E-04
   53.82000      7.9160638E-04
   53.88000      8.5028954E-04
   53.94000      9.1178971E-04
   54.00000      9.7610179E-04
   54.06000      1.0432071E-03
   54.12000      1.1130727E-03
   54.18000      1.1856505E-03
   54.24000      1.2608769E-03
   54.30000      1.3386725E-03
   54.36000      1.4189420E-03
   54.42000      1.5015734E-03
   54.48000      1.5864389E-03
   54.54000      1.6733940E-03
   54.60000      1.7622786E-03
   54.66000      1.8529169E-03
   54.72000      1.9451188E-03
   54.78000      2.0386791E-03
   54.84000      2.1333809E-03
   54.90000      2.2289935E-03
   54.96000      2.3252764E-03
   55.02000      2.4219784E-03
   55.08000      2.5188404E-03
   55.14000      2.6155962E-03
   55.20000      2.7119748E-03
   55.26000      2.8077015E-03
   55.32000      2.9025001E-03
   55.38000      2.9960950E-03
   55.44000      3.0882119E-03
   55.50000      3.1785804E-03
   55.56000      3.2669362E-03