  -2.400000      0.0000000E+00
  -2.340000      0.0000000E+00
  -2.280000      0.0000000E+00
  -2.220000      0.0000000E+00
  -2.160000      0.0000000E+00
  -2.100000     -1.8094831E-20
  -2.040000     -1.3263567E-19
  -1.980000     -4.5970552E-19
  -1.920000     -8.9187513E-19
  -1.860000     -5.9303499E-19
  -1.800000      2.2326455E-18
  -1.740000      9.3348771E-18
  -1.680000      1.9712025E-17
  -1.620000      2.6580719E-17
  -1.560000      1.7424765E-17
  -1.500000     -1.9732458E-17
  -1.440000     -8.4917925E-17
  -1.380000     -1.5712665E-16
  -1.320000     -1.9795932E-16
  -1.260000     -1.7235086E-16
  -1.200000     -7.6390632E-17
  -1.140000      5.1034003E-17
  -1.080000      1.5459693E-16
  -1.020000      2.2547183E-16
 -0.9600000      3.6290002E-16
 -0.9000000      7.7030796E-16
 -0.8400000      1.6327833E-15
 -0.7800000      2.8825821E-15
 -0.7200000      3.9525289E-15
 -0.6600000      3.6994931E-15
 -0.6000000      6.9183841E-16
 -0.5400000     -6.0543166E-15
 -0.4800000     -1.6041782E-14
 -0.4200000     -2.6409901E-14
 -0.3600000     -3.1855554E-14
 -0.3000000     -2.5932334E-14
 -0.2400000     -3.8175966E-15
 -0.1800000      3.4184918E-14
 -0.1200000      7.9961950E-14
 -5.9999999E-02  1.1759041E-13
  0.0000000E+00  1.2724159E-13
  5.9999999E-02  9.2596409E-14
  0.1200000      9.3665378E-15
  0.1800000     -1.0886068E-13
  0.2400000     -2.3098643E-13
  0.3000000     -3.1632067E-13
  0.3600000     -3.2801954E-13
  0.4200000     -2.4702183E-13
  0.4800000     -8.0580338E-14
  0.5400000      1.3851249E-13
  0.6000000      3.6175091E-13
  0.6600000      5.3929306E-13
  0.7200000      6.3239854E-13
  0.7800000      6.1899167E-13
  0.8400000      4.9181243E-13
  0.9000000      2.5336880E-13
  0.9600000     -8.5993299E-14
   1.020000     -5.0282548E-13
   1.080000     -9.4978203E-13
   1.140000     -1.3469610E-12
   1.200000     -1.5853310E-12
   1.260000     -1.5484161E-12
   1.320000     -1.1495963E-12
   1.380000     -3.7280907E-13
   1.440000      7.0046708E-13
   1.500000      1.8918617E-12
   1.560000      2.9578150E-12
   1.620000      3.6430247E-12
   1.680000      3.7379592E-12
   1.740000      3.1230942E-12
   1.800000      1.7909375E-12
   1.860000     -1.5201069E-13
   1.920000     -2.4943062E-12
   1.980000     -4.9318388E-12
   2.040000     -7.0834740E-12
   2.100000     -8.5184932E-12
   2.160000     -8.8062084E-12
   2.220000     -7.5908585E-12
   2.280000     -4.6821115E-12
   2.340000     -1.4058165E-13
   2.400000      5.6644849E-12
   2.460000      1.2041048E-11
   2.520000      1.8008475E-11
   2.580000      2.2378739E-11
   2.640000      2.3885638E-11
   2.700000      2.1369658E-11
   2.760000      1.4025055E-11
   2.820000      1.6962252E-12
   2.880000     -1.4828081E-11
   2.940000     -3.3616231E-11
   3.000000     -5.1603950E-11
   3.060000     -6.4899648E-11
   3.120000     -6.9392506E-11
   3.180000     -6.1562665E-11
   3.240000     -3.9296542E-11
   3.300000     -2.4714044E-12
   3.360000      4.6881807E-11
   3.420000      1.0491136E-10
   3.480000      1.6669674E-10
   3.540000      2.2721726E-10
   3.600000      2.8227623E-10
   3.660000      3.2914732E-10
   3.720000      3.6680481E-10
   3.780000      3.9572826E-10
   3.840000      4.1738898E-10
   3.900000      4.3360102E-10
   3.960000      4.4593859E-10
   4.020000      4.5538548E-10
   4.080000      4.6230214E-10
   4.140000      4.6669713E-10
   4.200000      4.6869381E-10
   4.260000      4.6902082E-10
   4.320000      4.6933790E-10
   4.380000      4.7224596E-10
   4.440000      4.8091359E-10
   4.500000      4.9835963E-10
   4.560000      5.2654375E-10
   4.620000      5.6550559E-10
   4.680000      6.1282968E-10
   4.740000      6.6367800E-10
   4.800000      7.1150297E-10
   4.860000      7.4935885E-10
   4.920000      7.7151913E-10
   4.980000      7.7495643E-10
   5.040000      7.6023654E-10
   5.100000      7.3152662E-10
   5.160000      6.9568951E-10
   5.220000      6.6072253E-10
   5.280000      6.3398625E-10
   5.340000      6.2069760E-10
   5.400000      6.2302735E-10
   5.460000      6.3993100E-10
   5.520000      6.6762701E-10
   5.580000      7.0050238E-10
   5.640000      7.3217721E-10
   5.700000      7.5649115E-10
   5.760000      7.6825096E-10
   5.820000      7.6366696E-10
   5.880000      7.4049533E-10
   5.940000      6.9796907E-10
   6.000000      6.3662881E-10
   6.060000      5.5815469E-10
   6.120000      4.6526547E-10
   6.180000      3.6171133E-10
   6.240000      2.5234762E-10
   6.300000      1.4323279E-10
   6.360000      4.1623233E-11
   6.420000     -4.4334713E-11
   6.480000     -1.0642846E-10
   6.540000     -1.3780427E-10
   6.600000     -1.3478316E-10
   6.660000     -9.8503518E-11
   6.720000     -3.5618453E-11
   6.780000      4.2573493E-11
   6.840000      1.2263306E-10
   6.900000      1.9244545E-10
   6.960000      2.4440253E-10
   7.020000      2.7702471E-10
   7.080000      2.9433533E-10
   7.140000      3.0323674E-10
   7.200000      3.0996730E-10
   7.260000      3.1700195E-10
   7.320000      3.2139386E-10
   7.380000      3.1478842E-10
   7.440000      2.8462260E-10
   7.500000      2.1570414E-10
   7.560000      9.1539547E-11
   7.620000     -1.0477312E-10
   7.680000     -3.8988821E-10
   7.740000     -7.7945783E-10
   7.800000     -1.2870833E-09
   7.860000     -1.9230331E-09
   7.920000     -2.6929923E-09
   7.980000     -3.5971448E-09
   8.040000     -4.6298285E-09
   8.100000     -5.7798513E-09
   8.160000     -7.0314132E-09
   8.220000     -8.3654195E-09
   8.280000     -9.7608623E-09
   8.340000     -1.1195963E-08
   8.400000     -1.2648887E-08
   8.460000     -1.4098098E-08
   8.520000     -1.5522611E-08
   8.580000     -1.6902355E-08
   8.640000     -1.8218627E-08
   8.700000     -1.9454300E-08
   8.760000     -2.0593262E-08
   8.820000     -2.1618860E-08
   8.880000     -2.2511689E-08
   8.940000     -2.3247708E-08
   9.000000     -2.3797869E-08
   9.060000     -2.4130125E-08
   9.120000     -2.4213829E-08
   9.180000     -2.4025596E-08
   9.240000     -2.3555117E-08
   9.300000     -2.2809425E-08
   9.360000     -2.1814579E-08
   9.420000     -2.0614506E-08
   9.480000     -1.9267313E-08
   9.540000     -1.7839824E-08
   9.600000     -1.6401174E-08
   9.660000     -1.5016356E-08
   9.720000     -1.3740556E-08
   9.780000     -1.2614896E-08
   9.840000     -1.1664073E-08
   9.900000     -1.0896041E-08
   9.960000     -1.0303635E-08
   10.02000     -9.8678532E-09
   10.08000     -9.5623252E-09
   10.14000     -9.3583719E-09
   10.20000     -9.2298418E-09
   10.26000     -9.1568815E-09
   10.32000     -9.1279500E-09
   10.38000     -9.1398649E-09
   10.44000     -9.1963122E-09
   10.50000     -9.3056851E-09
   10.56000     -9.4790851E-09
   10.62000     -9.7287716E-09
   10.68000     -1.0066663E-08
   10.74000     -1.0502086E-08
   10.80000     -1.1038328E-08
   10.86000     -1.1668405E-08
   10.92000     -1.2371460E-08
   10.98000     -1.3111531E-08
   11.04000     -1.3839882E-08
   11.10000     -1.4500879E-08
   11.16000     -1.5040005E-08
   11.22000     -1.5411990E-08
   11.28000     -1.5587153E-08
   11.34000     -1.5554921E-08
   11.40000     -1.5324316E-08
   11.46000     -1.4921858E-08
   11.52000     -1.4387261E-08
   11.58000     -1.3767365E-08
   11.64000     -1.3108787E-08
   11.70000     -1.2450197E-08
   11.76000     -1.1815610E-08
   11.82000     -1.1210236E-08
   11.88000     -1.0620019E-08
   11.94000     -1.0015066E-08
   12.00000     -9.3562234E-09
   12.06000     -8.6033252E-09
   12.12000     -7.7234654E-09
   12.18000     -6.6978099E-09
   12.24000     -5.5257994E-09
   12.30000     -4.2259347E-09
   12.36000     -2.8327811E-09
   12.42000     -1.3905509E-09
   12.48000      5.5415773E-11
   12.54000      1.4670611E-09
   12.60000      2.8193967E-09
   12.66000      4.1018584E-09
   12.72000      5.3150284E-09
   12.78000      6.4643859E-09
   12.84000      7.5539850E-09
   12.90000      8.5828429E-09
   12.96000      9.5454231E-09
   13.02000      1.0435542E-08
   13.08000      1.1251444E-08
   13.14000      1.1999356E-08
   13.20000      1.2693738E-08
   13.26000      1.3354078E-08
   13.32000      1.3999544E-08
   13.38000      1.4643532E-08
   13.44000      1.5289858E-08
   13.50000      1.5931635E-08
   13.56000      1.6552903E-08
   13.62000      1.7132509E-08
   13.68000      1.7649269E-08
   13.74000      1.8087121E-08
   13.80000      1.8438756E-08
   13.86000      1.8706350E-08
   13.92000      1.8898696E-08
   13.98000      1.9025443E-08
   14.04000      1.9090495E-08
   14.10000      1.9087574E-08
   14.16000      1.9000391E-08
   14.22000      1.8808159E-08
   14.28000      1.8494779E-08
   14.34000      1.8058213E-08
   14.40000      1.7516136E-08
   14.46000      1.6905297E-08
   14.52000      1.6274413E-08
   14.58000      1.5672741E-08
   14.64000      1.5137902E-08
   14.70000      1.4686473E-08
   14.76000      1.4309839E-08
   14.82000      1.3976152E-08
   14.88000      1.3637817E-08
   14.94000      1.3242696E-08
   15.00000      1.2746481E-08
   15.06000      1.2123314E-08
   15.12000      1.1371866E-08
   15.18000      1.0515133E-08
   15.24000      9.5937320E-09
   15.30000      8.6544665E-09
   15.36000      7.7374063E-09
   15.42000      6.8651782E-09
   15.48000      6.0374248E-09
   15.54000      5.2317417E-09
   15.60000      4.4105439E-09
   15.66000      3.5318368E-09
   15.72000      2.5611122E-09
   15.78000      1.4814191E-09
   15.84000      2.9908509E-10
   15.90000     -9.5658459E-10
   15.96000     -2.2398909E-09
   16.02000     -3.5001126E-09
   16.08000     -4.6944826E-09
   16.14000     -5.7987126E-09
   16.20000     -6.8115420E-09
   16.26000     -7.7517424E-09
   16.32000     -8.6487031E-09
   16.38000     -9.5299688E-09
   16.44000     -1.0410033E-08
   16.50000     -1.1283886E-08
   16.56000     -1.2126964E-08
   16.62000     -1.2900982E-08
   16.68000     -1.3563622E-08
   16.74000     -1.4079351E-08
   16.80000     -1.4428626E-08
   16.86000     -1.4613220E-08
   16.92000     -1.4656136E-08
   16.98000     -1.4595793E-08
   17.04000     -1.4475670E-08
   17.10000     -1.4332159E-08
   17.16000     -1.4184175E-08
   17.22000     -1.4027779E-08
   17.28000     -1.3837372E-08
   17.34000     -1.3572935E-08
   17.40000     -1.3190881E-08
   17.46000     -1.2655416E-08
   17.52000     -1.1947582E-08
   17.58000     -1.1070250E-08
   17.64000     -1.0048386E-08
   17.70000     -8.9247099E-09
   17.76000     -7.7517335E-09
   17.82000     -6.5818897E-09
   17.88000     -5.4583835E-09
   17.94000     -4.4095763E-09
   18.00000     -3.4488647E-09
   18.06000     -2.5800311E-09
   18.12000     -1.8056840E-09
   18.18000     -1.1350081E-09
   18.24000     -5.8739114E-10
   18.30000     -1.9055557E-10
   18.36000      2.5543666E-11
   18.42000      3.6040344E-11
   18.48000     -1.7333006E-10
   18.54000     -6.0410066E-10
   18.60000     -1.2460660E-09
   18.66000     -2.0800923E-09
   18.72000     -3.0815686E-09
   18.78000     -4.2240589E-09
   18.84000     -5.4831828E-09
   18.90000     -6.8404589E-09
   18.96000     -8.2860403E-09
   19.02000     -9.8189057E-09
   19.08000     -1.1443683E-08
   19.14000     -1.3164823E-08
   19.20000     -1.4980261E-08
   19.26000     -1.6877225E-08
   19.32000     -1.8831804E-08
   19.38000     -2.0811997E-08
   19.44000     -2.2782521E-08
   19.50000     -2.4709035E-08
   19.56000     -2.6560489E-08
   19.62000     -2.8309548E-08
   19.68000     -2.9932252E-08
   19.74000     -3.1408067E-08
   19.80000     -3.2720948E-08
   19.86000     -3.3861145E-08
   19.92000     -3.4826911E-08
   19.98000     -3.5625266E-08
   20.04000     -3.6271281E-08
   20.10000     -3.6785494E-08
   20.16000     -3.7189707E-08
   20.22000     -3.7501714E-08
   20.28000     -3.7730217E-08
   20.34000     -3.7871740E-08
   20.40000     -3.7911146E-08
   20.46000     -3.7826336E-08
   20.52000     -3.7596038E-08
   20.58000     -3.7208164E-08
   20.64000     -3.6665604E-08
   20.70000     -3.5987259E-08
   20.76000     -3.5203975E-08
   20.82000     -3.4350897E-08
   20.88000     -3.3459013E-08
   20.94000     -3.2548382E-08
   21.00000     -3.1624808E-08
   21.06000     -3.0680301E-08
   21.12000     -2.9696920E-08
   21.18000     -2.8652945E-08
   21.24000     -2.7530069E-08
   21.30000     -2.6320057E-08
   21.36000     -2.5029175E-08
   21.42000     -2.3679009E-08
   21.48000     -2.2303229E-08
   21.54000     -2.0941167E-08
   21.60000     -1.9630264E-08
   21.66000     -1.8399909E-08
   21.72000     -1.7268617E-08
   21.78000     -1.6245140E-08
   21.84000     -1.5332645E-08
   21.90000     -1.4534121E-08
   21.96000     -1.3857051E-08
   22.02000     -1.3315931E-08
   22.08000     -1.2932126E-08
   22.14000     -1.2731294E-08
   22.20000     -1.2739153E-08
   22.26000     -1.2976556E-08
   22.32000     -1.3454824E-08
   22.38000     -1.4172170E-08
   22.44000     -1.5111842E-08
   22.50000     -1.6242319E-08
   22.56000     -1.7519524E-08
   22.62000     -1.8890825E-08
   22.68000     -2.0300158E-08
   22.74000     -2.1693644E-08
   22.80000     -2.3024816E-08
   22.86000     -2.4258787E-08
   22.92000     -2.5374815E-08
   22.98000     -2.6367054E-08
   23.04000     -2.7243582E-08
   23.10000     -2.8023999E-08
   23.16000     -2.8735787E-08
   23.22000     -2.9409589E-08
   23.28000     -3.0073565E-08
   23.34000     -3.0747248E-08
   23.40000     -3.1435885E-08
   23.46000     -3.2126600E-08
   23.52000     -3.2787845E-08
   23.58000     -3.3372860E-08
   23.64000     -3.3826932E-08
   23.70000     -3.4096999E-08
   23.76000     -3.4141443E-08
   23.82000     -3.3937969E-08
   23.88000     -3.3487805E-08
   23.94000     -3.2815507E-08
   24.00000     -3.1964564E-08
   24.06000     -3.0989671E-08
   24.12000     -2.9947302E-08
   24.18000     -2.8886451E-08
   24.24000     -2.7841493E-08
   24.30000     -2.6828603E-08
   24.36000     -2.5846383E-08
   24.42000     -2.4880174E-08
   24.48000     -2.3908660E-08
   24.54000     -2.2910871E-08
   24.60000     -2.1871859E-08
   24.66000     -2.0785889E-08
   24.72000     -1.9656708E-08
   24.78000     -1.8495207E-08
   24.84000     -1.7315266E-08
   24.90000     -1.6129050E-08
   24.96000     -1.4943243E-08
   25.02000     -1.3757522E-08
   25.08000     -1.2566023E-08
   25.14000     -1.1361515E-08
   25.20000     -1.0140901E-08
   25.26000     -8.9099812E-09
   25.32000     -7.6855997E-09
   25.38000     -6.4941630E-09
   25.44000     -5.3669509E-09
   25.50000     -4.3337751E-09
   25.56000     -3.4170180E-09
   25.62000     -2.6277727E-09
   25.68000     -1.9648803E-09
   25.74000     -1.4166426E-09
   25.80000     -9.6422381E-10
   25.86000     -5.8546340E-10
   25.92000     -2.5802591E-10
   25.98000      3.8684726E-11
   26.04000      3.2278133E-10
   26.10000      6.0975236E-10
   26.16000      9.1215407E-10
   26.22000      1.2385761E-09
   26.28000      1.5918578E-09
   26.34000      1.9671189E-09
   26.40000      2.3505260E-09
   26.46000      2.7196043E-09
   26.52000      3.0454208E-09
   26.58000      3.2963250E-09
   26.64000      3.4424708E-09
   26.70000      3.4602050E-09
   26.76000      3.3355489E-09
   26.82000      3.0662306E-09
   26.88000      2.6619338E-09
   26.94000      2.1426496E-09
   27.00000      1.5353201E-09
   27.06000      8.6942836E-10
   27.12000      1.7254968E-10
   27.18000     -5.3306404E-10
   27.24000     -1.2322530E-09
   27.30000     -1.9172468E-09
   27.36000     -2.5873192E-09
   27.42000     -3.2487284E-09
   27.48000     -3.9152361E-09
   27.54000     -4.6085300E-09
   27.60000     -5.3572018E-09
   27.66000     -6.1931140E-09
   27.72000     -7.1450343E-09
   27.78000     -8.2308542E-09
   27.84000     -9.4507877E-09
   27.90000     -1.0784039E-08
   27.96000     -1.2190534E-08
   28.02000     -1.3617750E-08
   28.08000     -1.5011155E-08
   28.14000     -1.6325737E-08
   28.20000     -1.7535799E-08
   28.26000     -1.8640554E-08
   28.32000     -1.9663986E-08
   28.38000     -2.0648740E-08
   28.44000     -2.1645203E-08
   28.50000     -2.2698362E-08
   28.56000     -2.3835700E-08
   28.62000     -2.5059466E-08
   28.68000     -2.6345496E-08
   28.74000     -2.7649032E-08
   28.80000     -2.8915906E-08
   28.86000     -3.0095872E-08
   28.92000     -3.1154130E-08
   28.98000     -3.2077615E-08
   29.04000     -3.2874286E-08
   29.10000     -3.3565772E-08
   29.16000     -3.4176153E-08
   29.22000     -3.4720898E-08
   29.28000     -3.5199935E-08
   29.34000     -3.5597363E-08
   29.40000     -3.5887396E-08
   29.46000     -3.6044025E-08
   29.52000     -3.6050231E-08
   29.58000     -3.5903419E-08
   29.64000     -3.5615628E-08
   29.70000     -3.5209421E-08
   29.76000     -3.4711963E-08
   29.82000     -3.4149782E-08
   29.88000     -3.3545611E-08
   29.94000     -3.2917349E-08
   30.00000     -3.2278336E-08
   30.06000     -3.1638297E-08
   30.12000     -3.1004713E-08
   30.18000     -3.0384648E-08
   30.24000     -2.9786758E-08
   30.30000     -2.9222489E-08
   30.36000     -2.8705486E-08
   30.42000     -2.8248893E-08
   30.48000     -2.7861626E-08
   30.54000     -2.7545674E-08
   30.60000     -2.7296451E-08
   30.66000     -2.7106717E-08
   30.72000     -2.6972700E-08
   30.78000     -2.6899514E-08
   30.84000     -2.6903155E-08
   30.90000     -2.7007832E-08
   30.96000     -2.7239576E-08
   31.02000     -2.7618663E-08
   31.08000     -2.8153703E-08
   31.14000     -2.8839303E-08
   31.20000     -2.9657683E-08
   31.26000     -3.0583340E-08
   31.32000     -3.1589018E-08
   31.38000     -3.2651307E-08
   31.44000     -3.3754471E-08
   31.50000     -3.4891769E-08
   31.56000     -3.6064197E-08
   31.62000     -3.7277346E-08
   31.68000     -3.8537600E-08
   31.74000     -3.9849052E-08
   31.80000     -4.1212012E-08
   31.86000     -4.2623363E-08
   31.92000     -4.4077979E-08
   31.98000     -4.5570228E-08
   32.04000     -4.7094680E-08
   32.10000     -4.8645592E-08
   32.16000     -5.0215480E-08
   32.22000     -5.1793307E-08
   32.28000     -5.3363035E-08
   32.34000     -5.4903172E-08
   32.40000     -5.6387954E-08
   32.46000     -5.7790349E-08
   32.52000     -5.9086798E-08
   32.58000     -6.0262451E-08
   32.64000     -6.1315269E-08
   32.70000     -6.2257065E-08
   32.76000     -6.3110548E-08
   32.82000     -6.3902647E-08
   32.88000     -6.4656433E-08
   32.94000     -6.5384071E-08
   33.00000     -6.6083487E-08
   33.06000     -6.6739503E-08
   33.12000     -6.7328898E-08
   33.18000     -6.7827514E-08
   33.24000     -6.8217126E-08
   33.30000     -6.8490166E-08
   33.36000     -6.8651268E-08
   33.42000     -6.8715309E-08
   33.48000     -6.8702626E-08
   33.54000     -6.8632858E-08
   33.60000     -6.8519292E-08
   33.66000     -6.8365850E-08
   33.72000     -6.8167509E-08
   33.78000     -6.7913994E-08
   33.84000     -6.7594797E-08
   33.90000     -6.7203160E-08
   33.96000     -6.6737144E-08
   34.02000     -6.6197622E-08
   34.08000     -6.5584615E-08
   34.14000     -6.4894202E-08
   34.20000     -6.4117977E-08
   34.26000     -6.3245366E-08
   34.32000     -6.2267922E-08
   34.38000     -6.1183606E-08
   34.44000     -5.9999451E-08
   34.50000     -5.8731558E-08
   34.56000     -5.7402687E-08
   34.62000     -5.6038001E-08
   34.68000     -5.4660269E-08
   34.74000     -5.3285731E-08
   34.80000     -5.1921955E-08
   34.86000     -5.0568460E-08
   34.92000     -4.9220269E-08
   34.98000     -4.7873279E-08
   35.04000     -4.6529426E-08
   35.10000     -4.5199275E-08
   35.16000     -4.3900542E-08
   35.22000     -4.2652648E-08
   35.28000     -4.1469296E-08
   35.34000     -4.0352074E-08
   35.40000     -3.9287990E-08
   35.46000     -3.8252278E-08
   35.52000     -3.7215884E-08
   35.58000     -3.6155324E-08
   35.64000     -3.5061593E-08
   35.70000     -3.3945234E-08
   35.76000     -3.2835739E-08
   35.82000     -3.1775311E-08
   35.88000     -3.0808661E-08
   35.94000     -2.9971826E-08
   36.00000     -2.9283237E-08
   36.06000     -2.8739729E-08
   36.12000     -2.8318516E-08
   36.18000     -2.7984395E-08
   36.24000     -2.7699786E-08
   36.30000     -2.7434540E-08
   36.36000     -2.7172833E-08
   36.42000     -2.6915679E-08
   36.48000     -2.6679064E-08
   36.54000     -2.6488934E-08
   36.60000     -2.6374749E-08
   36.66000     -2.6363356E-08
   36.72000     -2.6474332E-08
   36.78000     -2.6717528E-08
   36.84000     -2.7092824E-08
   36.90000     -2.7591746E-08
   36.96000     -2.8200080E-08
   37.02000     -2.8900368E-08
   37.08000     -2.9673302E-08
   37.14000     -3.0497528E-08
   37.20000     -3.1348332E-08
   37.26000     -3.2196471E-08
   37.32000     -3.3008813E-08
   37.38000     -3.3751846E-08
   37.44000     -3.4397782E-08
   37.50000     -3.4931396E-08
   37.56000     -3.5354617E-08
   37.62000     -3.5686192E-08
   37.68000     -3.5955274E-08
   37.74000     -3.6190322E-08
   37.80000     -3.6406867E-08
   37.86000     -3.6598731E-08
   37.92000     -3.6736289E-08
   37.98000     -3.6772867E-08
   38.04000     -3.6657365E-08
   38.10000     -3.6348759E-08
   38.16000     -3.5827718E-08
   38.22000     -3.5101724E-08
   38.28000     -3.4202614E-08
   38.34000     -3.3177923E-08
   38.40000     -3.2079058E-08
   38.46000     -3.0949693E-08
   38.52000     -2.9817166E-08
   38.58000     -2.8688753E-08
   38.64000     -2.7553504E-08
   38.70000     -2.6389348E-08
   38.76000     -2.5173890E-08
   38.82000     -2.3896009E-08
   38.88000     -2.2564507E-08
   38.94000     -2.1210347E-08
   39.00000     -1.9880831E-08
   39.06000     -1.8627203E-08
   39.12000     -1.7490036E-08
   39.18000     -1.6488258E-08
   39.24000     -1.5616472E-08
   39.30000     -1.4852009E-08
   39.36000     -1.4168966E-08
   39.42000     -1.3553673E-08
   39.48000     -1.3015543E-08
   39.54000     -1.2589381E-08
   39.60000     -1.2328699E-08
   39.66000     -1.2292849E-08
   39.72000     -1.2532519E-08
   39.78000     -1.3078073E-08
   39.84000     -1.3933599E-08
   39.90000     -1.5077578E-08
   39.96000     -1.6469153E-08
   40.02000     -1.8057895E-08
   40.08000     -1.9794451E-08
   40.14000     -2.1639618E-08
   40.20000     -2.3569942E-08
   40.26000     -2.5578718E-08
   40.32000     -2.7672197E-08
   40.38000     -2.9861742E-08
   40.44000     -3.2153661E-08
   40.50000     -3.4539308E-08
   40.56000     -3.6988428E-08
   40.62000     -3.9448434E-08
   40.68000     -4.1850775E-08
   40.74000     -4.4123066E-08
   40.80000     -4.6203240E-08
   40.86000     -4.8050531E-08
   40.92000     -4.9648989E-08
   40.98000     -5.1002353E-08
   41.04000     -5.2122754E-08
   41.10000     -5.3018642E-08
   41.16000     -5.3687323E-08
   41.22000     -5.4115098E-08
   41.28000     -5.4284037E-08
   41.34000     -5.4181726E-08
   41.40000     -5.3809615E-08
   41.46000     -5.3187271E-08
   41.52000     -5.2352082E-08
   41.58000     -5.1355478E-08
   41.64000     -5.0256798E-08
   41.70000     -4.9115137E-08
   41.76000     -4.7979444E-08
   41.82000     -4.6878103E-08
   41.88000     -4.5811046E-08
   41.94000     -4.4748283E-08
   42.00000     -4.3637531E-08
   42.06000     -4.2420236E-08
   42.12000     -4.1051489E-08
   42.18000     -3.9516969E-08
   42.24000     -3.7840735E-08
   42.30000     -3.6081051E-08
   42.36000     -3.4315978E-08
   42.42000     -3.2624012E-08
   42.48000     -3.1066204E-08
   42.54000     -2.9675119E-08
   42.60000     -2.8453266E-08
   42.66000     -2.7380496E-08
   42.72000     -2.6427314E-08
   42.78000     -2.5569635E-08
   42.84000     -2.4800203E-08
   42.90000     -2.4133120E-08
   42.96000     -2.3600290E-08
   43.02000     -2.3241236E-08
   43.08000     -2.3090200E-08
   43.14000     -2.3165002E-08
   43.20000     -2.3461357E-08
   43.26000     -2.3953882E-08
   43.32000     -2.4602773E-08
   43.38000     -2.5363473E-08
   43.44000     -2.6196480E-08
   43.50000     -2.7074876E-08
   43.56000     -2.7988106E-08
   43.62000     -2.8941139E-08
   43.68000     -2.9948861E-08
   43.74000     -3.1026619E-08
   43.80000     -3.2179166E-08
   43.86000     -3.3391487E-08
   43.92000     -3.4625177E-08
   43.98000     -3.5822413E-08
   44.04000     -3.6917115E-08
   44.10000     -3.7849812E-08
   44.16000     -3.8581430E-08
   44.22000     -3.9101504E-08
   44.28000     -3.9428748E-08
   44.34000     -3.9604551E-08
   44.40000     -3.9682185E-08
   44.46000     -3.9715093E-08
   44.52000     -3.9747071E-08
   44.58000     -3.9805755E-08
   44.64000     -3.9899863E-08
   44.70000     -4.0019994E-08
   44.76000     -4.0142517E-08
   44.82000     -4.0235911E-08
   44.88000     -4.0268446E-08
   44.94000     -4.0215504E-08
   45.00000     -4.0064663E-08
   45.06000     -3.9817042E-08
   45.12000     -3.9484561E-08
   45.18000     -3.9084220E-08
   45.24000     -3.8631654E-08
   45.30000     -3.8136474E-08
   45.36000     -3.7601112E-08
   45.42000     -3.7023405E-08
   45.48000     -3.6401509E-08
   45.54000     -3.5738879E-08
   45.60000     -3.5047169E-08
   45.66000     -3.4346066E-08
   45.72000     -3.3660402E-08
   45.78000     -3.3015890E-08
   45.84000     -3.2435107E-08
   45.90000     -3.1934775E-08
   45.96000     -3.1524571E-08
   46.02000     -3.1207179E-08
   46.08000     -3.0979002E-08
   46.14000     -3.0831377E-08
   46.20000     -3.0752176E-08
   46.26000     -3.0727808E-08
   46.32000     -3.0745376E-08
   46.38000     -3.0794471E-08
   46.44000     -3.0868101E-08
   46.50000     -3.0962379E-08
   46.56000     -3.1075164E-08
   46.62000     -3.1204145E-08
   46.68000     -3.1345092E-08
   46.74000     -3.1490842E-08
   46.80000     -3.1631334E-08
   46.86000     -3.1754624E-08
   46.92000     -3.1848558E-08
   46.98000     -3.1902648E-08
   47.04000     -3.1909682E-08
   47.10000     -3.1866676E-08
   47.16000     -3.1775024E-08
   47.22000     -3.1639569E-08
   47.28000     -3.1466694E-08
   47.34000     -3.1261337E-08
   47.40000     -3.1023536E-08
   47.46000     -3.0745451E-08
   47.52000     -3.0410312E-08
   47.58000     -2.9994585E-08
   47.64000     -2.9473528E-08
   47.70000     -2.8828760E-08
   47.76000     -2.8054881E-08
   47.82000     -2.7161953E-08
   47.88000     -2.6172088E-08
   47.94000     -2.5110957E-08
   48.00000     -2.3997703E-08
   48.06000     -2.2837749E-08
   48.12000     -2.1621855E-08
   48.18000     -2.0332001E-08
   48.24000     -1.8951745E-08
   48.30000     -1.7477030E-08
   48.36000     -1.5923705E-08
   48.42000     -1.4329641E-08
   48.48000     -1.2751161E-08
   48.54000     -1.1254934E-08
   48.60000     -9.9070849E-09
   48.66000     -8.7617771E-09
   48.72000     -7.8518250E-09
   48.78000     -7.1840209E-09
   48.84000     -6.7410144E-09
   48.90000     -6.4896701E-09
   48.96000     -6.3934276E-09
   49.02000     -6.4246013E-09
   49.08000     -6.5728267E-09
   49.14000     -6.8479213E-09
   49.20000     -7.2780555E-09
   49.26000     -7.9058413E-09
   49.32000     -8.7847729E-09
   49.38000     -9.9769775E-09
   49.44000     -1.1551770E-08
   49.50000     -1.3584094E-08
   49.56000     -1.6152780E-08
   49.62000     -1.9339597E-08
   49.68000     -2.3230337E-08
   49.74000     -2.7918466E-08
   49.80000     -3.3510712E-08
   49.86000     -4.0133461E-08
   49.92000     -4.7939086E-08
   49.98000     -5.7112217E-08
   50.04000     -6.7875980E-08
   50.10000     -8.0498125E-08
   50.16000     -9.5296485E-08
   50.22000     -1.1264380E-07
   50.28000     -1.3297287E-07
   50.34000     -1.5678441E-07
   50.40000     -1.8465892E-07
   50.46000     -2.1727210E-07
   50.52000     -2.5541041E-07
   50.58000     -2.9998330E-07
   50.64000     -3.5203041E-07
   50.70000     -4.1272713E-07
   50.76000     -4.8339331E-07
   50.82000     -5.6551085E-07
   50.88000     -6.6074995E-07
   50.94000     -7.7100094E-07
   51.00000     -8.9840495E-07
   51.06000     -1.0453812E-06
   51.12000     -1.2146520E-06
   51.18000     -1.4092700E-06
   51.24000     -1.6326510E-06
   51.30000     -1.8886083E-06
   51.36000     -2.1813860E-06
   51.42000     -2.5156867E-06
   51.48000     -2.8966926E-06
   51.54000     -3.3300910E-06
   51.60000     -3.8221065E-06
   51.66000     -4.3795499E-06
   51.72000     -5.0098674E-06
   51.78000     -5.7211910E-06
   51.84000     -6.5223726E-06
   51.90000     -7.4230093E-06
   51.96000     -8.4334642E-06
   52.02000     -9.5648893E-06
   52.08000     -1.0829255E-05
   52.14000     -1.2239369E-05
   52.20000     -1.3808894E-05
   52.26000     -1.5552350E-05
   52.32000     -1.7485112E-05
   52.38000     -1.9623385E-05
   52.44000     -2.1984210E-05
   52.50000     -2.4585446E-05
   52.56000     -2.7445754E-05
   52.62000     -3.0584553E-05
   52.68000     -3.4021959E-05
   52.74000     -3.7778711E-05
   52.80000     -4.1876072E-05
   52.86000     -4.6335750E-05
   52.92000     -5.1179792E-05
   52.98000     -5.6430465E-05
   53.04000     -6.2110106E-05
   53.10000     -6.8240974E-05
   53.16000     -7.4845026E-05
   53.22000     -8.1943770E-05
   53.28000     -8.9558089E-05
   53.34000     -9.7708027E-05
   53.40000     -1.0641263E-04
   53.46000     -1.1568963E-04
   53.52000     -1.2555534E-04
   53.58000     -1.3602427E-04
   53.64000     -1.4710904E-04
   53.70000     -1.5882000E-04
   53.76000     -1.7116511E-04
   53.82000     -1.8414960E-04
   53.88000     -1.9777578E-04
   53.94000     -2.1204283E-04
   54.00000     -2.2694655E-04
   54.06000     -2.4247925E-04
   54.12000     -2.5862950E-04
   54.18000     -2.7538207E-04
   54.24000     -2.9271774E-04
   54.30000     -3.1061316E-04
   54.36000     -3.2904069E-04
   54.42000     -3.4796857E-04
   54.48000     -3.6736080E-04
   54.54000     -3.8717731E-04
   54.60000     -4.0737406E-04
   54.66000     -4.2790303E-04
   54.72000     -4.4871244E-04
   54.78000     -4.6974682E-04
   54.84000     -4.9094728E-04
   54.90000     -5.1225181E-04
   54.96000     -5.3359574E-04
   55.02000     -5.5491203E-04
   55.08000     -5.7613174E-04
   55.14000     -5.9718417E-04
   55.20000     -6.1799737E-04
   55.26000     -6.3849869E-04
   55.32000     -6.5861520E-04
   55.38000     -6.7827455E-04
   55.44000     -6.9740537E-04
   55.50000     -7.1593758E-04
   55.56000     -7.3380314E-04