  -2.400000      0.0000000E+00
  -2.340000      0.0000000E+00
  -2.280000      0.0000000E+00
  -2.220000      0.0000000E+00
  -2.160000      0.0000000E+00
  -2.100000     -6.4183151E-19
  -2.040000     -2.9666754E-18
  -1.980000     -2.0071986E-18
  -1.920000      2.4577486E-17
  -1.860000      1.0932088E-16
  -1.800000      2.3335199E-16
  -1.740000      2.1944016E-16
  -1.680000     -3.0185517E-16
  -1.620000     -1.6552665E-15
  -1.560000     -3.5310154E-15
  -1.500000     -4.3440915E-15
  -1.440000     -1.2963714E-15
  -1.380000      8.0617809E-15
  -1.320000      2.2778906E-14
  -1.260000      3.5521109E-14
  -1.200000      3.2595095E-14
  -1.140000     -3.4153861E-16
  -1.080000     -6.7022539E-14
  -1.020000     -1.4863314E-13
 -0.9600000     -2.0001972E-13
 -0.9000000     -1.6249847E-13
 -0.8400000      5.2194805E-15
 -0.7800000      2.8842553E-13
 -0.7200000      5.9166810E-13
 -0.6600000      7.5157935E-13
 -0.6000000      5.9861128E-13
 -0.5400000      5.3590948E-14
 -0.4800000     -7.8294473E-13
 -0.4200000     -1.6048219E-12
 -0.3600000     -1.9800611E-12
 -0.3000000     -1.5344096E-12
 -0.2400000     -1.7619452E-13
 -0.1800000      1.7468162E-12
 -0.1200000      3.4696694E-12
 -5.9999999E-02  4.0627232E-12
  0.0000000E+00  2.8567782E-12
  5.9999999E-02 -1.2930888E-13
  0.1200000     -3.9836407E-12
  0.1800000     -7.0934010E-12
  0.2400000     -7.7488033E-12
  0.3000000     -4.9607939E-12
  0.3600000      8.7031830E-13
  0.4200000      7.8129803E-12
  0.4800000      1.2986063E-11
  0.5400000      1.3733750E-11
  0.6000000      8.9307129E-12
  0.6600000     -2.0822778E-13
  0.7200000     -1.0311338E-11
  0.7800000     -1.7113604E-11
  0.8400000     -1.7358039E-11
  0.9000000     -1.0495487E-11
  0.9600000      6.9122339E-13
   1.020000      1.1010840E-11
   1.080000      1.5106406E-11
   1.140000      1.0101835E-11
   1.200000     -2.5890956E-12
   1.260000     -1.7289753E-11
   1.320000     -2.6162048E-11
   1.380000     -2.2657444E-11
   1.440000     -4.8712562E-12
   1.500000      2.2757646E-11
   1.560000      5.0356316E-11
   1.620000      6.5999581E-11
   1.680000      6.0320984E-11
   1.740000      3.0494170E-11
   1.800000     -1.8093192E-11
   1.860000     -7.3223948E-11
   1.920000     -1.1976445E-10
   1.980000     -1.4450553E-10
   2.040000     -1.3995213E-10
   2.100000     -1.0556958E-10
   2.160000     -4.6132910E-11
   2.220000      3.1895892E-11
   2.280000      1.2419370E-10
   2.340000      2.3080389E-10
   2.400000      3.5575026E-10
   2.460000      5.0426296E-10
   2.520000      6.7897338E-10
   2.580000      8.7694768E-10
   2.640000      1.0891026E-09
   2.700000      1.3025342E-09
   2.760000      1.5050493E-09
   2.820000      1.6902418E-09
   2.880000      1.8612142E-09
   2.940000      2.0315396E-09
   3.000000      2.2230977E-09
   3.060000      2.4615194E-09
   3.120000      2.7707590E-09
   3.180000      3.1684730E-09
   3.240000      3.6634904E-09
   3.300000      4.2558219E-09
   3.360000      4.9387956E-09
   3.420000      5.7022120E-09
   3.480000      6.5351995E-09
   3.540000      7.4276350E-09
   3.600000      8.3696392E-09
   3.660000      9.3494297E-09
   3.720000      1.0350542E-08
   3.780000      1.1349826E-08
   3.840000      1.2317460E-08
   3.900000      1.3219596E-08
   3.960000      1.4023184E-08
   4.020000      1.4701594E-08
   4.080000      1.5239086E-08
   4.140000      1.5632413E-08
   4.200000      1.5888814E-08
   4.260000      1.6021097E-08
   4.320000      1.6041792E-08
   4.380000      1.5958857E-08
   4.440000      1.5774990E-08
   4.500000      1.5490995E-08
   4.560000      1.5111855E-08
   4.620000      1.4652640E-08
   4.680000      1.4141074E-08
   4.740000      1.3614688E-08
   4.800000      1.3112684E-08
   4.860000      1.2665003E-08
   4.920000      1.2282631E-08
   4.980000      1.1953149E-08
   5.040000      1.1643809E-08
   5.100000      1.1311603E-08
   5.160000      1.0917138E-08
   5.220000      1.0437564E-08
   5.280000      9.8741344E-09
   5.340000      9.2519343E-09
   5.400000      8.6121181E-09
   5.460000      7.9996214E-09
   5.520000      7.4506268E-09
   5.580000      6.9838277E-09
   5.640000      6.5979142E-09
   5.700000      6.2753966E-09
   5.760000      5.9907950E-09
   5.820000      5.7199743E-09
   5.880000      5.4473812E-09
   5.940000      5.1689288E-09
   6.000000      4.8900057E-09
   6.060000      4.6198729E-09
   6.120000      4.3650288E-09
   6.180000      4.1245034E-09
   6.240000      3.8893302E-09
   6.300000      3.6468260E-09
   6.360000      3.3883587E-09
   6.420000      3.1176877E-09
   6.480000      2.8564331E-09
   6.540000      2.6440405E-09
   6.600000      2.5315223E-09
   6.660000      2.5705724E-09
   6.720000      2.8014648E-09
   6.780000      3.2436782E-09
   6.840000      3.8922203E-09
   6.900000      4.7204920E-09
   6.960000      5.6881415E-09
   7.020000      6.7506427E-09
   7.080000      7.8670750E-09
   7.140000      9.0038252E-09
   7.200000      1.0134104E-08
   7.260000      1.1235235E-08
   7.320000      1.2286543E-08
   7.380000      1.3269981E-08
   7.440000      1.4173493E-08
   7.500000      1.4994889E-08
   7.560000      1.5742836E-08
   7.620000      1.6432450E-08
   7.680000      1.7075592E-08
   7.740000      1.7669290E-08
   7.800000      1.8187553E-08
   7.860000      1.8581407E-08
   7.920000      1.8788713E-08
   7.980000      1.8750944E-08
   8.040000      1.8430605E-08
   8.100000      1.7822332E-08
   8.160000      1.6953276E-08
   8.220000      1.5872921E-08
   8.280000      1.4636973E-08
   8.340000      1.3291918E-08
   8.400000      1.1865834E-08
   8.460000      1.0367611E-08
   8.520000      8.7929246E-09
   8.580000      7.1329609E-09
   8.640000      5.3818945E-09
   8.700000      3.5409096E-09
   8.760000      1.6189133E-09
   8.820000     -3.6853795E-10
   8.880000     -2.4005802E-09
   8.940000     -4.4522226E-09
   9.000000     -6.4960979E-09
   9.060000     -8.5058138E-09
   9.120000     -1.0461167E-08
   9.180000     -1.2354051E-08
   9.240000     -1.4192717E-08
   9.300000     -1.6001863E-08
   9.360000     -1.7817209E-08
   9.420000     -1.9675205E-08
   9.480000     -2.1600782E-08
   9.540000     -2.3597186E-08
   9.600000     -2.5641866E-08
   9.660000     -2.7690326E-08
   9.720000     -2.9687191E-08
   9.780000     -3.1580935E-08
   9.840000     -3.3337418E-08
   9.900000     -3.4947703E-08
   9.960000     -3.6428055E-08
   10.02000     -3.7812686E-08
   10.08000     -3.9142336E-08
   10.14000     -4.0452601E-08
   10.20000     -4.1765201E-08
   10.26000     -4.3083599E-08
   10.32000     -4.4392952E-08
   10.38000     -4.5663274E-08
   10.44000     -4.6854762E-08
   10.50000     -4.7924459E-08
   10.56000     -4.8833432E-08
   10.62000     -4.9553318E-08
   10.68000     -5.0070675E-08
   10.74000     -5.0387815E-08
   10.80000     -5.0519809E-08
   10.86000     -5.0488886E-08
   10.92000     -5.0318572E-08
   10.98000     -5.0029751E-08
   11.04000     -4.9639457E-08
   11.10000     -4.9161439E-08
   11.16000     -4.8606143E-08
   11.22000     -4.7978467E-08
   11.28000     -4.7273215E-08
   11.34000     -4.6470692E-08
   11.40000     -4.5535806E-08
   11.46000     -4.4423260E-08
   11.52000     -4.3088534E-08
   11.58000     -4.1501327E-08
   11.64000     -3.9656108E-08
   11.70000     -3.7575226E-08
   11.76000     -3.5302751E-08
   11.82000     -3.2891357E-08
   11.88000     -3.0387586E-08
   11.94000     -2.7821407E-08
   12.00000     -2.5204191E-08
   12.06000     -2.2535236E-08
   12.12000     -1.9813404E-08
   12.18000     -1.7048322E-08
   12.24000     -1.4266023E-08
   12.30000     -1.1506780E-08
   12.36000     -8.8163281E-09
   12.42000     -6.2345880E-09
   12.48000     -3.7866812E-09
   12.54000     -1.4796365E-09
   12.60000      6.9471295E-10
   12.66000      2.7528142E-09
   12.72000      4.7119948E-09
   12.78000      6.5855277E-09
   12.84000      8.3812326E-09
   12.90000      1.0102647E-08
   12.96000      1.1750810E-08
   13.02000      1.3325137E-08
   13.08000      1.4823234E-08
   13.14000      1.6240843E-08
   13.20000      1.7573420E-08
   13.26000      1.8819946E-08
   13.32000      1.9988018E-08
   13.38000      2.1097970E-08
   13.44000      2.2183647E-08
   13.50000      2.3288617E-08
   13.56000      2.4458426E-08
   13.62000      2.5731271E-08
   13.68000      2.7130122E-08
   13.74000      2.8658818E-08
   13.80000      3.0303102E-08
   13.86000      3.2035782E-08
   13.92000      3.3823774E-08
   13.98000      3.5634539E-08
   14.04000      3.7439975E-08
   14.10000      3.9217174E-08
   14.16000      4.0946873E-08
   14.22000      4.2611155E-08
   14.28000      4.4191921E-08
   14.34000      4.5670873E-08
   14.40000      4.7030646E-08
   14.46000      4.8256229E-08
   14.52000      4.9335700E-08
   14.58000      5.0260130E-08
   14.64000      5.1023111E-08
   14.70000      5.1620646E-08
   14.76000      5.2051782E-08
   14.82000      5.2319567E-08
   14.88000      5.2431503E-08
   14.94000      5.2398615E-08
   15.00000      5.2233201E-08
   15.06000      5.1945943E-08
   15.12000      5.1543569E-08
   15.18000      5.1027872E-08
   15.24000      5.0396185E-08
   15.30000      4.9642743E-08
   15.36000      4.8760295E-08
   15.42000      4.7741796E-08
   15.48000      4.6582393E-08
   15.54000      4.5281865E-08
   15.60000      4.3847127E-08
   15.66000      4.2293518E-08
   15.72000      4.0643581E-08
   15.78000      3.8922654E-08
   15.84000      3.7152358E-08
   15.90000      3.5344254E-08
   15.96000      3.3496409E-08
   16.02000      3.1594730E-08
   16.08000      2.9618663E-08
   16.14000      2.7549307E-08
   16.20000      2.5376758E-08
   16.26000      2.3104322E-08
   16.32000      2.0748633E-08
   16.38000      1.8336451E-08
   16.44000      1.5900032E-08
   16.50000      1.3472978E-08
   16.56000      1.1087754E-08
   16.62000      8.7749887E-09
   16.68000      6.5638726E-09
   16.74000      4.4825308E-09
   16.80000      2.5574283E-09
   16.86000      8.1141255E-10
   16.92000     -7.3923351E-10
   16.98000     -2.0876598E-09
   17.04000     -3.2378771E-09
   17.10000     -4.2037263E-09
   17.16000     -5.0053446E-09
   17.22000     -5.6642566E-09
   17.28000     -6.1990013E-09
   17.34000     -6.6230448E-09
   17.40000     -6.9455739E-09
   17.46000     -7.1741977E-09
   17.52000     -7.3175075E-09
   17.58000     -7.3855255E-09
   17.64000     -7.3874209E-09
   17.70000     -7.3277073E-09
   17.76000     -7.2033486E-09
   17.82000     -7.0040542E-09
   17.88000     -6.7164860E-09
   17.94000     -6.3310055E-09
   18.00000     -5.8481131E-09
   18.06000     -5.2817248E-09
   18.12000     -4.6578532E-09
   18.18000     -4.0093320E-09
   18.24000     -3.3688528E-09
   18.30000     -2.7630023E-09
   18.36000     -2.2091664E-09
   18.42000     -1.7156947E-09
   18.48000     -1.2843736E-09
   18.54000     -9.1363100E-10
   18.60000     -6.0106031E-10
   18.66000     -3.4454833E-10
   18.72000     -1.4208311E-10
   18.78000      9.0945324E-12
   18.84000      1.1312656E-10
   18.90000      1.7527949E-10
   18.96000      2.0065957E-10
   19.02000      1.9249734E-10
   19.08000      1.5118337E-10
   19.14000      7.5282877E-11
   19.20000     -3.5005648E-11
   19.26000     -1.7286493E-10
   19.32000     -3.2062561E-10
   19.38000     -4.4901588E-10
   19.44000     -5.2159799E-10
   19.50000     -5.0383525E-10
   19.56000     -3.7376593E-10
   19.62000     -1.2998923E-10
   19.68000      2.0652983E-10
   19.74000      5.9769761E-10
   19.80000      9.9825381E-10
   19.86000      1.3661265E-09
   19.92000      1.6690578E-09
   19.98000      1.8856086E-09
   20.04000      2.0015918E-09
   20.10000      2.0049744E-09
   20.16000      1.8823774E-09
   20.22000      1.6187047E-09
   20.28000      1.1993566E-09
   20.34000      6.1318012E-10
   20.40000     -1.4555228E-10
   20.46000     -1.0767186E-09
   20.52000     -2.1748696E-09
   20.58000     -3.4296801E-09
   20.64000     -4.8258135E-09
   20.70000     -6.3425514E-09
   20.76000     -7.9540090E-09
   20.82000     -9.6305195E-09
   20.88000     -1.1340989E-08
   20.94000     -1.3055416E-08
   21.00000     -1.4746782E-08
   21.06000     -1.6392047E-08
   21.12000     -1.7972818E-08
   21.18000     -1.9476396E-08
   21.24000     -2.0897621E-08
   21.30000     -2.2241057E-08
   21.36000     -2.3522478E-08
   21.42000     -2.4768504E-08
   21.48000     -2.6013860E-08
   21.54000     -2.7296664E-08
   21.60000     -2.8652783E-08
   21.66000     -3.0110602E-08
   21.72000     -3.1687307E-08
   21.78000     -3.3387209E-08
   21.84000     -3.5202191E-08
   21.90000     -3.7113846E-08
   21.96000     -3.9096729E-08
   22.02000     -4.1121918E-08
   22.08000     -4.3160199E-08
   22.14000     -4.5184215E-08
   22.20000     -4.7169390E-08
   22.26000     -4.9093558E-08
   22.32000     -5.0935725E-08
   22.38000     -5.2674366E-08
   22.44000     -5.4285941E-08
   22.50000     -5.5744216E-08
   22.56000     -5.7021015E-08
   22.62000     -5.8088570E-08
   22.68000     -5.8923227E-08
   22.74000     -5.9509322E-08
   22.80000     -5.9841732E-08
   22.86000     -5.9925625E-08
   22.92000     -5.9773043E-08
   22.98000     -5.9397177E-08
   23.04000     -5.8806648E-08
   23.10000     -5.8002087E-08
   23.16000     -5.6976493E-08
   23.22000     -5.5719131E-08
   23.28000     -5.4221189E-08
   23.34000     -5.2480917E-08
   23.40000     -5.0506536E-08
   23.46000     -4.8316600E-08
   23.52000     -4.5938560E-08
   23.58000     -4.3406391E-08
   23.64000     -4.0757776E-08
   23.70000     -3.8030397E-08
   23.76000     -3.5257010E-08
   23.82000     -3.2459642E-08
   23.88000     -2.9644580E-08
   23.94000     -2.6800544E-08
   24.00000     -2.3901885E-08
   24.06000     -2.0916952E-08
   24.12000     -1.7819469E-08
   24.18000     -1.4599374E-08
   24.24000     -1.1269521E-08
   24.30000     -7.8662605E-09
   24.36000     -4.4441637E-09
   24.42000     -1.0670616E-09
   24.48000      2.2017206E-09
   24.54000      5.3075211E-09
   24.60000      8.2096596E-09
   24.66000      1.0883791E-08
   24.72000      1.3321735E-08
   24.78000      1.5529258E-08
   24.84000      1.7522092E-08
   24.90000      1.9320501E-08
   24.96000      2.0943078E-08
   25.02000      2.2401025E-08
   25.08000      2.3694440E-08
   25.14000      2.4811962E-08
   25.20000      2.5734204E-08
   25.26000      2.6440134E-08
   25.32000      2.6914281E-08
   25.38000      2.7152236E-08
   25.44000      2.7162178E-08
   25.50000      2.6961700E-08
   25.56000      2.6570921E-08
   25.62000      2.6004404E-08
   25.68000      2.5264887E-08
   25.74000      2.4341089E-08
   25.80000      2.3210115E-08
   25.86000      2.1843173E-08
   25.92000      2.0212244E-08
   25.98000      1.8295360E-08
   26.04000      1.6079294E-08
   26.10000      1.3559865E-08
   26.16000      1.0741064E-08
   26.22000      7.6342275E-09
   26.28000      4.2578465E-09
   26.34000      6.3772448E-10
   26.40000     -3.1932390E-09
   26.46000     -7.1960744E-09
   26.52000     -1.1327387E-08
   26.58000     -1.5540895E-08
   26.64000     -1.9788196E-08
   26.70000     -2.4018762E-08
   26.76000     -2.8179990E-08
   26.82000     -3.2218487E-08
   26.88000     -3.6083385E-08
   26.94000     -3.9731283E-08
   27.00000     -4.3131241E-08
   27.06000     -4.6267562E-08
   27.12000     -4.9138588E-08
   27.18000     -5.1751130E-08
   27.24000     -5.4111997E-08
   27.30000     -5.6219527E-08
   27.36000     -5.8058301E-08
   27.42000     -5.9599234E-08
   27.48000     -6.0805334E-08
   27.54000     -6.1641394E-08
   27.60000     -6.2084403E-08
   27.66000     -6.2131384E-08
   27.72000     -6.1802169E-08
   27.78000     -6.1136717E-08
   27.84000     -6.0187865E-08
   27.90000     -5.9011860E-08
   27.96000     -5.7659147E-08
   28.02000     -5.6167291E-08
   28.08000     -5.4557155E-08
   28.14000     -5.2832529E-08
   28.20000     -5.0982820E-08
   28.26000     -4.8988088E-08
   28.32000     -4.6825484E-08
   28.38000     -4.4475943E-08
   28.44000     -4.1929955E-08
   28.50000     -3.9191182E-08
   28.56000     -3.6277314E-08
   28.62000     -3.3218040E-08
   28.68000     -3.0050860E-08
   28.74000     -2.6815998E-08
   28.80000     -2.3551792E-08
   28.86000     -2.0291639E-08
   28.92000     -1.7062883E-08
   28.98000     -1.3887386E-08
   29.04000     -1.0782887E-08
   29.10000     -7.7641626E-09
   29.16000     -4.8432613E-09
   29.22000     -2.0286912E-09
   29.28000      6.7587608E-10
   29.34000      3.2723733E-09
   29.40000      5.7675957E-09
   29.46000      8.1705336E-09
   29.52000      1.0488216E-08
   29.58000      1.2721251E-08
   29.64000      1.4860516E-08
   29.70000      1.6886036E-08
   29.76000      1.8768253E-08
   29.82000      2.0471054E-08
   29.88000      2.1955447E-08
   29.94000      2.3183066E-08
   30.00000      2.4119196E-08
   30.06000      2.4735613E-08
   30.12000      2.5013591E-08
   30.18000      2.4947012E-08
   30.24000      2.4544759E-08
   30.30000      2.3831289E-08
   30.36000      2.2844452E-08
   30.42000      2.1630534E-08
   30.48000      2.0237586E-08
   30.54000      1.8708811E-08
   30.60000      1.7077801E-08
   30.66000      1.5366640E-08
   30.72000      1.3586904E-08
   30.78000      1.1742752E-08
   30.84000      9.8348956E-09
   30.90000      7.8644131E-09
   30.96000      5.8357377E-09
   31.02000      3.7584327E-09
   31.08000      1.6476148E-09
   31.14000     -4.7702259E-10
   31.20000     -2.5933566E-09
   31.26000     -4.6795678E-09
   31.32000     -6.7165300E-09
   31.38000     -8.6888852E-09
   31.44000     -1.0584261E-08
   31.50000     -1.2390868E-08
   31.56000     -1.4094507E-08
   31.62000     -1.5676440E-08
   31.68000     -1.7113276E-08
   31.74000     -1.8379295E-08
   31.80000     -1.9450617E-08
   31.86000     -2.0309999E-08
   31.92000     -2.0950884E-08
   31.98000     -2.1379849E-08
   32.04000     -2.1617195E-08
   32.10000     -2.1696000E-08
   32.16000     -2.1660133E-08
   32.22000     -2.1561544E-08
   32.28000     -2.1456897E-08
   32.34000     -2.1403473E-08
   32.40000     -2.1454454E-08
   32.46000     -2.1654069E-08
   32.52000     -2.2033523E-08
   32.58000     -2.2608670E-08
   32.64000     -2.3380114E-08
   32.70000     -2.4335828E-08
   32.76000     -2.5455542E-08
   32.82000     -2.6715632E-08
   32.88000     -2.8093078E-08
   32.94000     -2.9567394E-08
   33.00000     -3.1120194E-08
   33.06000     -3.2732935E-08
   33.12000     -3.4383945E-08
   33.18000     -3.6046135E-08
   33.24000     -3.7686412E-08
   33.30000     -3.9267182E-08
   33.36000     -4.0749491E-08
   33.42000     -4.2096836E-08
   33.48000     -4.3278416E-08
   33.54000     -4.4270813E-08
   33.60000     -4.5057742E-08
   33.66000     -4.5627971E-08
   33.72000     -4.5972300E-08
   33.78000     -4.6080839E-08
   33.84000     -4.5941526E-08
   33.90000     -4.5540933E-08
   33.96000     -4.4867132E-08
   34.02000     -4.3914032E-08
   34.08000     -4.2685695E-08
   34.14000     -4.1199161E-08
   34.20000     -3.9484739E-08
   34.26000     -3.7583668E-08
   34.32000     -3.5543945E-08
   34.38000     -3.3415755E-08
   34.44000     -3.1247676E-08
   34.50000     -2.9084223E-08
   34.56000     -2.6964408E-08
   34.62000     -2.4920629E-08
   34.68000     -2.2977472E-08
   34.74000     -2.1150578E-08
   34.80000     -1.9446462E-08
   34.86000     -1.7864188E-08
   34.92000     -1.6399047E-08
   34.98000     -1.5047327E-08
   35.04000     -1.3810405E-08
   35.10000     -1.2696338E-08
   35.16000     -1.1718072E-08
   35.22000     -1.0888861E-08
   35.28000     -1.0216711E-08
   35.34000     -9.7000488E-09
   35.40000     -9.3262233E-09
   35.46000     -9.0731067E-09
   35.52000     -8.9128589E-09
   35.58000     -8.8161922E-09
   35.64000     -8.7557135E-09
   35.70000     -8.7076391E-09
   35.76000     -8.6521643E-09
   35.82000     -8.5733332E-09
   35.88000     -8.4592884E-09
   35.94000     -8.3033127E-09
   36.00000     -8.1053617E-09
   36.06000     -7.8732301E-09
   36.12000     -7.6223730E-09
   36.18000     -7.3737594E-09
   36.24000     -7.1499699E-09
   36.30000     -6.9705237E-09
   36.36000     -6.8479618E-09
   36.42000     -6.7860753E-09
   36.48000     -6.7809238E-09
   36.54000     -6.8242363E-09
   36.60000     -6.9078565E-09
   36.66000     -7.0275532E-09
   36.72000     -7.1848119E-09
   36.78000     -7.3860611E-09
   36.84000     -7.6396400E-09
   36.90000     -7.9514608E-09
   36.96000     -8.3205691E-09
   37.02000     -8.7357872E-09
   37.08000     -9.1744230E-09
   37.14000     -9.6037516E-09
   37.20000     -9.9854072E-09
   37.26000     -1.0282006E-08
   37.32000     -1.0464372E-08
   37.38000     -1.0517108E-08
   37.44000     -1.0440480E-08
   37.50000     -1.0247773E-08
   37.56000     -9.9591322E-09
   37.62000     -9.5945110E-09
   37.68000     -9.1688310E-09
   37.74000     -8.6915160E-09
   37.80000     -8.1704572E-09
   37.86000     -7.6183992E-09
   37.92000     -7.0585999E-09
   37.98000     -6.5270296E-09
   38.04000     -6.0699987E-09
   38.10000     -5.7379905E-09
   38.16000     -5.5777547E-09
   38.22000     -5.6248779E-09
   38.28000     -5.8983352E-09
   38.34000     -6.3976011E-09
   38.40000     -7.1022987E-09
   38.46000     -7.9742755E-09
   38.52000     -8.9621395E-09
   38.58000     -1.0008146E-08
   38.64000     -1.1056793E-08
   38.70000     -1.2063676E-08
   38.76000     -1.3002580E-08
   38.82000     -1.3868882E-08
   38.88000     -1.4678290E-08
   38.94000     -1.5461284E-08
   39.00000     -1.6254935E-08
   39.06000     -1.7094395E-08
   39.12000     -1.8006276E-08
   39.18000     -1.9005240E-08
   39.24000     -2.0094092E-08
   39.30000     -2.1266629E-08
   39.36000     -2.2511989E-08
   39.42000     -2.3819023E-08
   39.48000     -2.5179533E-08
   39.54000     -2.6589603E-08
   39.60000     -2.8048815E-08
   39.66000     -2.9557645E-08
   39.72000     -3.1113760E-08
   39.78000     -3.2708222E-08
   39.84000     -3.4322795E-08
   39.90000     -3.5929432E-08
   39.96000     -3.7492601E-08
   40.02000     -3.8974335E-08
   40.08000     -4.0340993E-08
   40.14000     -4.1569866E-08
   40.20000     -4.2653387E-08
   40.26000     -4.3599290E-08
   40.32000     -4.4426230E-08
   40.38000     -4.5156163E-08
   40.44000     -4.5806022E-08
   40.50000     -4.6381611E-08
   40.56000     -4.6875847E-08
   40.62000     -4.7271563E-08
   40.68000     -4.7547452E-08
   40.74000     -4.7684619E-08
   40.80000     -4.7671442E-08
   40.86000     -4.7505647E-08
   40.92000     -4.7194010E-08
   40.98000     -4.6750774E-08
   41.04000     -4.6195879E-08
   41.10000     -4.5553126E-08
   41.16000     -4.4847585E-08
   41.22000     -4.4101583E-08
   41.28000     -4.3329418E-08
   41.34000     -4.2532399E-08
   41.40000     -4.1696573E-08
   41.46000     -4.0795335E-08
   41.52000     -3.9797133E-08
   41.58000     -3.8676475E-08
   41.64000     -3.7424311E-08
   41.70000     -3.6053812E-08
   41.76000     -3.4599079E-08
   41.82000     -3.3107018E-08
   41.88000     -3.1625369E-08
   41.94000     -3.0191284E-08
   42.00000     -2.8824326E-08
   42.06000     -2.7525838E-08
   42.12000     -2.6284036E-08
   42.18000     -2.5082258E-08
   42.24000     -2.3907097E-08
   42.30000     -2.2753888E-08
   42.36000     -2.1628443E-08
   42.42000     -2.0545283E-08
   42.48000     -1.9523586E-08
   42.54000     -1.8582151E-08
   42.60000     -1.7734621E-08
   42.66000     -1.6985870E-08
   42.72000     -1.6330471E-08
   42.78000     -1.5753807E-08
   42.84000     -1.5236118E-08
   42.90000     -1.4758681E-08
   42.96000     -1.4310485E-08
   43.02000     -1.3893054E-08
   43.08000     -1.3521422E-08
   43.14000     -1.3220517E-08
   43.20000     -1.3018064E-08
   43.26000     -1.2936674E-08
   43.32000     -1.2988214E-08
   43.38000     -1.3172631E-08
   43.44000     -1.3481420E-08
   43.50000     -1.3903894E-08
   43.56000     -1.4433264E-08
   43.62000     -1.5069780E-08
   43.68000     -1.5819740E-08
   43.74000     -1.6691116E-08
   43.80000     -1.7688027E-08
   43.86000     -1.8806537E-08
   43.92000     -2.0033461E-08
   43.98000     -2.1348244E-08
   44.04000     -2.2726674E-08
   44.10000     -2.4144564E-08
   44.16000     -2.5579917E-08
   44.22000     -2.7013069E-08
   44.28000     -2.8425511E-08
   44.34000     -2.9798720E-08
   44.40000     -3.1114418E-08
   44.46000     -3.2356873E-08
   44.52000     -3.3516883E-08
   44.58000     -3.4596042E-08
   44.64000     -3.5609482E-08
   44.70000     -3.6585611E-08
   44.76000     -3.7562227E-08
   44.82000     -3.8579735E-08
   44.88000     -3.9673221E-08
   44.94000     -4.0865583E-08
   45.00000     -4.2163595E-08
   45.06000     -4.3557979E-08
   45.12000     -4.5027491E-08
   45.18000     -4.6546297E-08
   45.24000     -4.8093312E-08
   45.30000     -4.9662010E-08
   45.36000     -5.1268938E-08
   45.42000     -5.2959280E-08
   45.48000     -5.4808055E-08
   45.54000     -5.6916402E-08
   45.60000     -5.9403877E-08
   45.66000     -6.2398946E-08
   45.72000     -6.6030751E-08
   45.78000     -7.0424981E-08
   45.84000     -7.5705380E-08
   45.90000     -8.2000483E-08
   45.96000     -8.9454026E-08
   46.02000     -9.8236477E-08
   46.08000     -1.0855580E-07
   46.14000     -1.2066585E-07
   46.20000     -1.3487229E-07
   46.26000     -1.5153572E-07
   46.32000     -1.7107293E-07
   46.38000     -1.9395758E-07
   46.44000     -2.2072207E-07
   46.50000     -2.5196277E-07
   46.56000     -2.8834970E-07
   46.62000     -3.3064063E-07
   46.68000     -3.7969758E-07
   46.74000     -4.3650283E-07
   46.80000     -5.0217244E-07
   46.86000     -5.7796535E-07
   46.92000     -6.6529026E-07
   46.98000     -7.6571172E-07
   47.04000     -8.8095800E-07
   47.10000     -1.0129326E-06
   47.16000     -1.1637285E-06
   47.22000     -1.3356450E-06
   47.28000     -1.5312044E-06
   47.34000     -1.7531712E-06
   47.40000     -2.0045698E-06
   47.46000     -2.2887004E-06
   47.52000     -2.6091577E-06
   47.58000     -2.9698449E-06
   47.64000     -3.3749859E-06
   47.70000     -3.8291400E-06
   47.76000     -4.3372065E-06
   47.82000     -4.9044356E-06
   47.88000     -5.5364253E-06
   47.94000     -6.2391259E-06
   48.00000     -7.0188330E-06
   48.06000     -7.8821840E-06
   48.12000     -8.8361512E-06
   48.18000     -9.8880355E-06
   48.24000     -1.1045452E-05
   48.30000     -1.2316318E-05
   48.36000     -1.3708830E-05
   48.42000     -1.5231433E-05
   48.48000     -1.6892784E-05
   48.54000     -1.8701712E-05
   48.60000     -2.0667168E-05
   48.66000     -2.2798160E-05
   48.72000     -2.5103685E-05
   48.78000     -2.7592678E-05
   48.84000     -3.0273908E-05
   48.90000     -3.3155920E-05
   48.96000     -3.6246947E-05
   49.02000     -3.9554830E-05
   49.08000     -4.3086930E-05
   49.14000     -4.6850033E-05
   49.20000     -5.0850264E-05
   49.26000     -5.5092984E-05
   49.32000     -5.9582690E-05
   49.38000     -6.4322907E-05
   49.44000     -6.9316084E-05
   49.50000     -7.4563482E-05
   49.56000     -8.0065096E-05
   49.62000     -8.5819564E-05
   49.68000     -9.1824106E-05
   49.74000     -9.8074503E-05
   49.80000     -1.0456496E-04
   49.86000     -1.1128814E-04
   49.92000     -1.1823504E-04
   49.98000     -1.2539506E-04
   50.04000     -1.3275591E-04
   50.10000     -1.4030372E-04
   50.16000     -1.4802306E-04
   50.22000     -1.5589694E-04
   50.28000     -1.6390692E-04
   50.34000     -1.7203321E-04
   50.40000     -1.8025466E-04
   50.46000     -1.8854905E-04
   50.52000     -1.9689307E-04
   50.58000     -2.0526262E-04
   50.64000     -2.1363297E-04
   50.70000     -2.2197889E-04
   50.76000     -2.3027488E-04
   50.82000     -2.3849544E-04
   50.88000     -2.4661521E-04
   50.94000     -2.5460913E-04
   51.00000     -2.6245299E-04
   51.06000     -2.7012339E-04
   51.12000     -2.7759813E-04
   51.18000     -2.8485639E-04
   51.24000     -2.9187888E-04
   51.30000     -2.9864808E-04
   51.36000     -3.0514845E-04
   51.42000     -3.1136678E-04
   51.48000     -3.1729203E-04
   51.54000     -3.2291585E-04
   51.60000     -3.2823248E-04
   51.66000     -3.3323883E-04
   51.72000     -3.3793470E-04
   51.78000     -3.4232257E-04
   51.84000     -3.4640776E-04
   51.90000     -3.5019842E-04
   51.96000     -3.5370540E-04
   52.02000     -3.5694224E-04
   52.08000     -3.5992503E-04
   52.14000     -3.6267217E-04
   52.20000     -3.6520394E-04
   52.26000     -3.6754255E-04
   52.32000     -3.6971169E-04
   52.38000     -3.7173647E-04
   52.44000     -3.7364327E-04
   52.50000     -3.7545917E-04
   52.56000     -3.7721187E-04
   52.62000     -3.7892902E-04
   52.68000     -3.8063788E-04
   52.74000     -3.8236525E-04
   52.80000     -3.8413701E-04
   52.86000     -3.8597788E-04
   52.92000     -3.8791125E-04
   52.98000     -3.8995864E-04
   53.04000     -3.9213954E-04
   53.10000     -3.9447108E-04
   53.16000     -3.9696781E-04
   53.22000     -3.9964155E-04
   53.28000     -4.0250129E-04
   53.34000     -4.0555294E-04
   53.40000     -4.0879962E-04
   53.46000     -4.1224132E-04
   53.52000     -4.1587514E-04
   53.58000     -4.1969516E-04
   53.64000     -4.2369263E-04
   53.70000     -4.2785591E-04
   53.76000     -4.3217078E-04
   53.82000     -4.3662058E-04
   53.88000     -4.4118668E-04
   53.94000     -4.4584851E-04
   54.00000     -4.5058399E-04
   54.06000     -4.5536968E-04
   54.12000     -4.6018118E-04
   54.18000     -4.6499335E-04
   54.24000     -4.6978079E-04
   54.30000     -4.7451814E-04
   54.36000     -4.7918063E-04
   54.42000     -4.8374405E-04
   54.48000     -4.8818532E-04
   54.54000     -4.9248262E-04
   54.60000     -4.9661571E-04
   54.66000     -5.0056621E-04
   54.72000     -5.0431787E-04
   54.78000     -5.0785666E-04
   54.84000     -5.1117089E-04
   54.90000     -5.1425141E-04
   54.96000     -5.1709166E-04
   55.02000     -5.1968760E-04
   55.08000     -5.2203797E-04
   55.14000     -5.2414410E-04
   55.20000     -5.2600994E-04
   55.26000     -5.2764162E-04
   55.32000     -5.2904751E-04
   55.38000     -5.3023803E-04
   55.44000     -5.3122541E-04
   55.50000     -5.3202355E-04
   55.56000     -5.3264748E-04