  -2.400000      0.0000000E+00
  -2.340000      0.0000000E+00
  -2.280000      0.0000000E+00
  -2.220000      0.0000000E+00
  -2.160000      0.0000000E+00
  -2.100000     -2.1887517E-18
  -2.040000     -1.5974624E-17
  -1.980000     -5.5950986E-17
  -1.920000     -1.1398803E-16
  -1.860000     -1.0397528E-16
  -1.800000      1.6880127E-16
  -1.740000      9.1049583E-16
  -1.680000      2.0445260E-15
  -1.620000      2.8293238E-15
  -1.560000      1.7544943E-15
  -1.500000     -2.8091424E-15
  -1.440000     -1.1045236E-14
  -1.380000     -1.9853592E-14
  -1.320000     -2.2273382E-14
  -1.260000     -9.8911857E-15
  -1.200000      2.1305067E-14
  -1.140000      6.3830356E-14
  -1.080000      9.5313887E-14
  -1.020000      8.4321235E-14
 -0.9600000      7.3661212E-15
 -0.9000000     -1.2826196E-13
 -0.8400000     -2.6901035E-13
 -0.7800000     -3.2265805E-13
 -0.7200000     -1.9735495E-13
 -0.6600000      1.3686398E-13
 -0.6000000      5.9321179E-13
 -0.5400000      9.5952673E-13
 -0.4800000      9.6460502E-13
 -0.4200000      4.1347635E-13
 -0.3600000     -6.6070543E-13
 -0.3000000     -1.9134462E-12
 -0.2400000     -2.7528899E-12
 -0.1800000     -2.5716864E-12
 -0.1200000     -1.0751375E-12
 -5.9999999E-02  1.4486980E-12
  0.0000000E+00  4.0907976E-12
  5.9999999E-02  5.6120789E-12
  0.1200000      5.0024312E-12
  0.1800000      2.0754488E-12
  0.2400000     -2.2214424E-12
  0.3000000     -6.0307020E-12
  0.3600000     -7.3586918E-12
  0.4200000     -5.1130953E-12
  0.4800000      1.0141706E-13
  0.5400000      5.9225788E-12
  0.6000000      9.1088170E-12
  0.6600000      7.0929729E-12
  0.7200000     -4.7534107E-13
  0.7800000     -1.1022206E-11
  0.8400000     -1.9719237E-11
  0.9000000     -2.1450361E-11
  0.9600000     -1.3305698E-11
   1.020000      3.5662549E-12
   1.080000      2.3770312E-11
   1.140000      3.9469827E-11
   1.200000      4.3566147E-11
   1.260000      3.2886315E-11
   1.320000      9.8740347E-12
   1.380000     -1.8122103E-11
   1.440000     -4.1770264E-11
   1.500000     -5.3611404E-11
   1.560000     -5.1055500E-11
   1.620000     -3.7069323E-11
   1.680000     -1.8196640E-11
   1.740000     -8.8125427E-13
   1.800000      1.2024341E-11
   1.860000      2.2671512E-11
   1.920000      3.6609205E-11
   1.980000      5.8720827E-11
   2.040000      8.8606934E-11
   2.100000      1.1782508E-10
   2.160000      1.3077014E-10
   2.220000      1.0943702E-10
   2.280000      4.0520538E-11
   2.340000     -7.7910546E-11
   2.400000     -2.3299263E-10
   2.460000     -3.9855258E-10
   2.520000     -5.4122096E-10
   2.580000     -6.2903166E-10
   2.640000     -6.3938427E-10
   2.700000     -5.6357563E-10
   2.760000     -4.0659787E-10
   2.820000     -1.8288442E-10
   2.880000      8.9717442E-11
   2.940000      3.9495521E-10
   3.000000      7.2013778E-10
   3.060000      1.0546988E-09
   3.120000      1.3867660E-09
   3.180000      1.7001909E-09
   3.240000      1.9743294E-09
   3.300000      2.1875750E-09
   3.360000      2.3238036E-09
   3.420000      2.3793423E-09
   3.480000      2.3675237E-09
   3.540000      2.3185907E-09
   3.600000      2.2743967E-09
   3.660000      2.2793314E-09
   3.720000      2.3703695E-09
   3.780000      2.5695419E-09
   3.840000      2.8812865E-09
   3.900000      3.2954117E-09
   3.960000      3.7944092E-09
   4.020000      4.3623594E-09
   4.080000      4.9921614E-09
   4.140000      5.6885039E-09
   4.200000      6.4655881E-09
   4.260000      7.3405513E-09
   4.320000      8.3251397E-09
   4.380000      9.4188053E-09
   4.440000      1.0605886E-08
   4.500000      1.1857990E-08
   4.560000      1.3140693E-08
   4.620000      1.4422008E-08
   4.680000      1.5679385E-08
   4.740000      1.6902604E-08
   4.800000      1.8091567E-08
   4.860000      1.9250182E-08
   4.920000      2.0379096E-08
   4.980000      2.1470642E-08
   5.040000      2.2508319E-08
   5.100000      2.3471157E-08
   5.160000      2.4341029E-08
   5.220000      2.5109458E-08
   5.280000      2.5780571E-08
   5.340000      2.6368440E-08
   5.400000      2.6889632E-08
   5.460000      2.7354245E-08
   5.520000      2.7759707E-08
   5.580000      2.8090808E-08
   5.640000      2.8326799E-08
   5.700000      2.8453346E-08
   5.760000      2.8474657E-08
   5.820000      2.8420837E-08
   5.880000      2.8347158E-08
   5.940000      2.8325285E-08
   6.000000      2.8429801E-08
   6.060000      2.8724997E-08
   6.120000      2.9256714E-08
   6.180000      3.0051236E-08
   6.240000      3.1120106E-08
   6.300000      3.2466897E-08
   6.360000      3.4091432E-08
   6.420000      3.5988300E-08
   6.480000      3.8139774E-08
   6.540000      4.0506229E-08
   6.600000      4.3019053E-08
   6.660000      4.5580503E-08
   6.720000      4.8072394E-08
   6.780000      5.0372147E-08
   6.840000      5.2371384E-08
   6.900000      5.3991315E-08
   6.960000      5.5190124E-08
   7.020000      5.5960598E-08
   7.080000      5.6319855E-08
   7.140000      5.6295804E-08
   7.200000      5.5915578E-08
   7.260000      5.5199909E-08
   7.320000      5.4164239E-08
   7.380000      5.2824674E-08
   7.440000      5.1204768E-08
   7.500000      4.9339633E-08
   7.560000      4.7275396E-08
   7.620000      4.5064603E-08
   7.680000      4.2759758E-08
   7.740000      4.0407894E-08
   7.800000      3.8047855E-08
   7.860000      3.5710553E-08
   7.920000      3.3421141E-08
   7.980000      3.1201626E-08
   8.040000      2.9072760E-08
   8.100000      2.7054906E-08
   8.160000      2.5167880E-08
   8.220000      2.3429985E-08
   8.280000      2.1856035E-08
   8.340000      2.0454429E-08
   8.400000      1.9223663E-08
   8.460000      1.8149471E-08
   8.520000      1.7204176E-08
   8.580000      1.6349395E-08
   8.640000      1.5542044E-08
   8.700000      1.4742005E-08
   8.760000      1.3918843E-08
   8.820000      1.3055233E-08
   8.880000      1.2145888E-08
   8.940000      1.1192741E-08
   9.000000      1.0198496E-08
   9.060000      9.1611572E-09
   9.120000      8.0715550E-09
   9.180000      6.9146116E-09
   9.240000      5.6736669E-09
   9.300000      4.3361457E-09
   9.360000      2.8983747E-09
   9.420000      1.3675581E-09
   9.480000     -2.4019270E-10
   9.540000     -1.9054698E-09
   9.600000     -3.6129144E-09
   9.660000     -5.3572911E-09
   9.720000     -7.1453274E-09
   9.780000     -8.9918508E-09
   9.840000     -1.0911324E-08
   9.900000     -1.2908258E-08
   9.960000     -1.4970963E-08
   10.02000     -1.7071931E-08
   10.08000     -1.9175083E-08
   10.14000     -2.1246848E-08
   10.20000     -2.3266130E-08
   10.26000     -2.5228681E-08
   10.32000     -2.7144164E-08
   10.38000     -2.9027600E-08
   10.44000     -3.0889268E-08
   10.50000     -3.2727460E-08
   10.56000     -3.4526614E-08
   10.62000     -3.6260914E-08
   10.68000     -3.7901092E-08
   10.74000     -3.9421725E-08
   10.80000     -4.0806729E-08
   10.86000     -4.2052090E-08
   10.92000     -4.3165858E-08
   10.98000     -4.4165834E-08
   11.04000     -4.5075470E-08
   11.10000     -4.5918529E-08
   11.16000     -4.6713453E-08
   11.22000     -4.7468834E-08
   11.28000     -4.8181512E-08
   11.34000     -4.8838299E-08
   11.40000     -4.9421093E-08
   11.46000     -4.9913549E-08
   11.52000     -5.0306756E-08
   11.58000     -5.0601290E-08
   11.64000     -5.0804527E-08
   11.70000     -5.0924090E-08
   11.76000     -5.0960217E-08
   11.82000     -5.0900820E-08
   11.88000     -5.0722029E-08
   11.94000     -5.0394767E-08
   12.00000     -4.9894957E-08
   12.06000     -4.9212705E-08
   12.12000     -4.8355787E-08
   12.18000     -4.7345200E-08
   12.24000     -4.6204441E-08
   12.30000     -4.4947843E-08
   12.36000     -4.3574438E-08
   12.42000     -4.2071601E-08
   12.48000     -4.0427718E-08
   12.54000     -3.8648135E-08
   12.60000     -3.6766188E-08
   12.66000     -3.4842735E-08
   12.72000     -3.2953395E-08
   12.78000     -3.1168717E-08
   12.84000     -2.9536688E-08
   12.90000     -2.8075943E-08
   12.96000     -2.6782880E-08
   13.02000     -2.5648710E-08
   13.08000     -2.4677378E-08
   13.14000     -2.3894719E-08
   13.20000     -2.3343709E-08
   13.26000     -2.3067692E-08
   13.32000     -2.3089648E-08
   13.38000     -2.3397643E-08
   13.44000     -2.3943690E-08
   13.50000     -2.4656796E-08
   13.56000     -2.5464328E-08
   13.62000     -2.6312097E-08
   13.68000     -2.7174485E-08
   13.74000     -2.8051053E-08
   13.80000     -2.8952497E-08
   13.86000     -2.9883584E-08
   13.92000     -3.0831504E-08
   13.98000     -3.1764571E-08
   14.04000     -3.2640518E-08
   14.10000     -3.3418932E-08
   14.16000     -3.4070684E-08
   14.22000     -3.4579749E-08
   14.28000     -3.4937624E-08
   14.34000     -3.5134939E-08
   14.40000     -3.5156400E-08
   14.46000     -3.4982918E-08
   14.52000     -3.4600298E-08
   14.58000     -3.4009723E-08
   14.64000     -3.3233949E-08
   14.70000     -3.2315281E-08
   14.76000     -3.1305760E-08
   14.82000     -3.0253911E-08
   14.88000     -2.9194053E-08
   14.94000     -2.8142349E-08
   15.00000     -2.7100324E-08
   15.06000     -2.6062917E-08
   15.12000     -2.5026619E-08
   15.18000     -2.3994055E-08
   15.24000     -2.2973765E-08
   15.30000     -2.1976563E-08
   15.36000     -2.1011077E-08
   15.42000     -2.0080869E-08
   15.48000     -1.9184125E-08
   15.54000     -1.8315406E-08
   15.60000     -1.7468009E-08
   15.66000     -1.6635566E-08
   15.72000     -1.5812295E-08
   15.78000     -1.4992260E-08
   15.84000     -1.4168732E-08
   15.90000     -1.3334817E-08
   15.96000     -1.2485848E-08
   16.02000     -1.1623118E-08
   16.08000     -1.0757388E-08
   16.14000     -9.9102806E-09
   16.20000     -9.1120507E-09
   16.26000     -8.3955483E-09
   16.32000     -7.7877145E-09
   16.38000     -7.3011091E-09
   16.44000     -6.9280892E-09
   16.50000     -6.6393717E-09
   16.56000     -6.3872343E-09
   16.62000     -6.1122924E-09
   16.68000     -5.7521241E-09
   16.74000     -5.2499898E-09
   16.80000     -4.5622199E-09
   16.86000     -3.6630829E-09
   16.92000     -2.5461042E-09
   16.98000     -1.2212023E-09
   17.04000      2.9199762E-10
   17.10000      1.9727555E-09
   17.16000      3.8063881E-09
   17.22000      5.7863936E-09
   17.28000      7.9094242E-09
   17.34000      1.0164091E-08
   17.40000      1.2517926E-08
   17.46000      1.4908744E-08
   17.52000      1.7245808E-08
   17.58000      1.9422647E-08
   17.64000      2.1338510E-08
   17.70000      2.2921487E-08
   17.76000      2.4145191E-08
   17.82000      2.5033065E-08
   17.88000      2.5649291E-08
   17.94000      2.6080199E-08
   18.00000      2.6413527E-08
   18.06000      2.6722807E-08
   18.12000      2.7061235E-08
   18.18000      2.7464720E-08
   18.24000      2.7959782E-08
   18.30000      2.8570243E-08
   18.36000      2.9318041E-08
   18.42000      3.0217144E-08
   18.48000      3.1263728E-08
   18.54000      3.2428343E-08
   18.60000      3.3655439E-08
   18.66000      3.4872574E-08
   18.72000      3.6006956E-08
   18.78000      3.7003336E-08
   18.84000      3.7836159E-08
   18.90000      3.8511121E-08
   18.96000      3.9055632E-08
   19.02000      3.9502591E-08
   19.08000      3.9874411E-08
   19.14000      4.0173912E-08
   19.20000      4.0385160E-08
   19.26000      4.0482877E-08
   19.32000      4.0445244E-08
   19.38000      4.0263838E-08
   19.44000      3.9946357E-08
   19.50000      3.9511498E-08
   19.56000      3.8979426E-08
   19.62000      3.8363130E-08
   19.68000      3.7665558E-08
   19.74000      3.6884206E-08
   19.80000      3.6020808E-08
   19.86000      3.5090984E-08
   19.92000      3.4128242E-08
   19.98000      3.3179280E-08
   20.04000      3.2291805E-08
   20.10000      3.1500011E-08
   20.16000      3.0814395E-08
   20.22000      3.0220857E-08
   20.28000      2.9689753E-08
   20.34000      2.9190689E-08
   20.40000      2.8706092E-08
   20.46000      2.8237121E-08
   20.52000      2.7799448E-08
   20.58000      2.7411497E-08
   20.64000      2.7081512E-08
   20.70000      2.6800281E-08
   20.76000      2.6543148E-08
   20.82000      2.6279986E-08
   20.88000      2.5987436E-08
   20.94000      2.5656563E-08
   21.00000      2.5291399E-08
   21.06000      2.4898764E-08
   21.12000      2.4474536E-08
   21.18000      2.3993715E-08
   21.24000      2.3410232E-08
   21.30000      2.2667823E-08
   21.36000      2.1718023E-08
   21.42000      2.0537598E-08
   21.48000      1.9137824E-08
   21.54000      1.7561419E-08
   21.60000      1.5868473E-08
   21.66000      1.4117441E-08
   21.72000      1.2349247E-08
   21.78000      1.0580613E-08
   21.84000      8.8082803E-09
   21.90000      7.0206463E-09
   21.96000      5.2103979E-09
   22.02000      3.3819425E-09
   22.08000      1.5507758E-09
   22.14000     -2.6370015E-10
   22.20000     -2.0471684E-09
   22.26000     -3.7959973E-09
   22.32000     -5.5165339E-09
   22.38000     -7.2187563E-09
   22.44000     -8.9078442E-09
   22.50000     -1.0577982E-08
   22.56000     -1.2211159E-08
   22.62000     -1.3781080E-08
   22.68000     -1.5259939E-08
   22.74000     -1.6625048E-08
   22.80000     -1.7863020E-08
   22.86000     -1.8970825E-08
   22.92000     -1.9954273E-08
   22.98000     -2.0824942E-08
   23.04000     -2.1596417E-08
   23.10000     -2.2280268E-08
   23.16000     -2.2882388E-08
   23.22000     -2.3400800E-08
   23.28000     -2.3826262E-08
   23.34000     -2.4146564E-08
   23.40000     -2.4353850E-08
   23.46000     -2.4452458E-08
   23.52000     -2.4463647E-08
   23.58000     -2.4424171E-08
   23.64000     -2.4377950E-08
   23.70000     -2.4363272E-08
   23.76000     -2.4400478E-08
   23.82000     -2.4485274E-08
   23.88000     -2.4590806E-08
   23.94000     -2.4677808E-08
   24.00000     -2.4708564E-08
   24.06000     -2.4658869E-08
   24.12000     -2.4523290E-08
   24.18000     -2.4312397E-08
   24.24000     -2.4044464E-08
   24.30000     -2.3736494E-08
   24.36000     -2.3399153E-08
   24.42000     -2.3037561E-08
   24.48000     -2.2656277E-08
   24.54000     -2.2264336E-08
   24.60000     -2.1876223E-08
   24.66000     -2.1507116E-08
   24.72000     -2.1164533E-08
   24.78000     -2.0841158E-08
   24.84000     -2.0513882E-08
   24.90000     -2.0151285E-08
   24.96000     -1.9727393E-08
   25.02000     -1.9235706E-08
   25.08000     -1.8696396E-08
   25.14000     -1.8152035E-08
   25.20000     -1.7652292E-08
   25.26000     -1.7233337E-08
   25.32000     -1.6900765E-08
   25.38000     -1.6623828E-08
   25.44000     -1.6344247E-08
   25.50000     -1.5996594E-08
   25.56000     -1.5532244E-08
   25.62000     -1.4937411E-08
   25.68000     -1.4238409E-08
   25.74000     -1.3492823E-08
   25.80000     -1.2771141E-08
   25.86000     -1.2136861E-08
   25.92000     -1.1632935E-08
   25.98000     -1.1278800E-08
   26.04000     -1.1077138E-08
   26.10000     -1.1025427E-08
   26.16000     -1.1125926E-08
   26.22000     -1.1389542E-08
   26.28000     -1.1832654E-08
   26.34000     -1.2469568E-08
   26.40000     -1.3305060E-08
   26.46000     -1.4330539E-08
   26.52000     -1.5524897E-08
   26.58000     -1.6858111E-08
   26.64000     -1.8294511E-08
   26.70000     -1.9793275E-08
   26.76000     -2.1306285E-08
   26.82000     -2.2775959E-08
   26.88000     -2.4136668E-08
   26.94000     -2.5322132E-08
   27.00000     -2.6278084E-08
   27.06000     -2.6976236E-08
   27.12000     -2.7423845E-08
   27.18000     -2.7664122E-08
   27.24000     -2.7765921E-08
   27.30000     -2.7805351E-08
   27.36000     -2.7845230E-08
   27.42000     -2.7919187E-08
   27.48000     -2.8025546E-08
   27.54000     -2.8132526E-08
   27.60000     -2.8192440E-08
   27.66000     -2.8159780E-08
   27.72000     -2.8007111E-08
   27.78000     -2.7733813E-08
   27.84000     -2.7365067E-08
   27.90000     -2.6941612E-08
   27.96000     -2.6503626E-08
   28.02000     -2.6074035E-08
   28.08000     -2.5647095E-08
   28.14000     -2.5186806E-08
   28.20000     -2.4636636E-08
   28.26000     -2.3938171E-08
   28.32000     -2.3052490E-08
   28.38000     -2.1976382E-08
   28.44000     -2.0746585E-08
   28.50000     -1.9429454E-08
   28.56000     -1.8099120E-08
   28.62000     -1.6812296E-08
   28.68000     -1.5589798E-08
   28.74000     -1.4412559E-08
   28.80000     -1.3234121E-08
   28.86000     -1.2004474E-08
   28.92000     -1.0695127E-08
   28.98000     -9.3145713E-09
   29.04000     -7.9074249E-09
   29.10000     -6.5377477E-09
   29.16000     -5.2639342E-09
   29.22000     -4.1161510E-09
   29.28000     -3.0857634E-09
   29.34000     -2.1305298E-09
   29.40000     -1.1922463E-09
   29.46000     -2.1843023E-10
   29.52000      8.2122847E-10
   29.58000      1.9294477E-09
   29.64000      3.0870355E-09
   29.70000      4.2648045E-09
   29.76000      5.4350449E-09
   29.82000      6.5777517E-09
   29.88000      7.6808000E-09
   29.94000      8.7369028E-09
   30.00000      9.7413446E-09
   30.06000      1.0692808E-08
   30.12000      1.1596286E-08
   30.18000      1.2464617E-08
   30.24000      1.3315050E-08
   30.30000      1.4159987E-08
   30.36000      1.4994946E-08
   30.42000      1.5789556E-08
   30.48000      1.6487336E-08
   30.54000      1.7016678E-08
   30.60000      1.7310372E-08
   30.66000      1.7326689E-08
   30.72000      1.7063611E-08
   30.78000      1.6559966E-08
   30.84000      1.5882501E-08
   30.90000      1.5103490E-08
   30.96000      1.4277578E-08
   31.02000      1.3427017E-08
   31.08000      1.2541237E-08
   31.14000      1.1591040E-08
   31.20000      1.0551755E-08
   31.26000      9.4258406E-09
   31.32000      8.2551610E-09
   31.38000      7.1169048E-09
   31.44000      6.1034306E-09
   31.50000      5.2929741E-09
   31.56000      4.7223803E-09
   31.62000      4.3729722E-09
   31.68000      4.1760497E-09
   31.74000      4.0369481E-09
   31.80000      3.8690322E-09
   31.86000      3.6246308E-09
   31.92000      3.3107603E-09
   31.98000      2.9833329E-09
   32.04000      2.7221574E-09
   32.10000      2.5967946E-09
   32.16000      2.6369589E-09
   32.22000      2.8191163E-09
   32.28000      3.0740934E-09
   32.34000      3.3118628E-09
   32.40000      3.4528684E-09
   32.46000      3.4531309E-09
   32.52000      3.3136045E-09
   32.58000      3.0712195E-09
   32.64000      2.7765976E-09
   32.70000      2.4683839E-09
   32.76000      2.1546409E-09
   32.82000      1.8079991E-09
   32.88000      1.3752200E-09
   32.94000      7.9621432E-10
   33.00000      2.4597317E-11
   33.06000     -9.5762587E-10
   33.12000     -2.1354174E-09
   33.18000     -3.4660204E-09
   33.24000     -4.8907598E-09
   33.30000     -6.3484511E-09
   33.36000     -7.7861992E-09
   33.42000     -9.1653565E-09
   33.48000     -1.0462542E-08
   33.54000     -1.1667094E-08
   33.60000     -1.2776744E-08
   33.66000     -1.3792960E-08
   33.72000     -1.4716782E-08
   33.78000     -1.5545540E-08
   33.84000     -1.6270739E-08
   33.90000     -1.6877529E-08
   33.96000     -1.7346180E-08
   34.02000     -1.7655712E-08
   34.08000     -1.7789116E-08
   34.14000     -1.7738973E-08
   34.20000     -1.7511647E-08
   34.26000     -1.7128349E-08
   34.32000     -1.6622090E-08
   34.38000     -1.6030810E-08
   34.44000     -1.5388478E-08
   34.50000     -1.4716978E-08
   34.56000     -1.4021872E-08
   34.62000     -1.3294131E-08
   34.68000     -1.2518030E-08
   34.74000     -1.1682983E-08
   34.80000     -1.0795250E-08
   34.86000     -9.8848565E-09
   34.92000     -9.0043706E-09
   34.98000     -8.2189784E-09
   35.04000     -7.5907653E-09
   35.10000     -7.1626713E-09
   35.16000     -6.9481878E-09
   35.22000     -6.9308816E-09
   35.28000     -7.0740356E-09
   35.34000     -7.3365336E-09
   35.40000     -7.6884170E-09
   35.46000     -8.1196090E-09
   35.52000     -8.6382359E-09
   35.58000     -9.2595966E-09
   35.64000     -9.9911013E-09
   35.70000     -1.0820465E-08
   35.76000     -1.1713158E-08
   35.82000     -1.2620966E-08
   35.88000     -1.3498433E-08
   35.94000     -1.4320052E-08
   36.00000     -1.5090427E-08
   36.06000     -1.5842286E-08
   36.12000     -1.6622449E-08
   36.18000     -1.7471027E-08
   36.24000     -1.8402190E-08
   36.30000     -1.9394395E-08
   36.36000     -2.0394063E-08
   36.42000     -2.1331264E-08
   36.48000     -2.2141162E-08
   36.54000     -2.2782794E-08
   36.60000     -2.3248115E-08
   36.66000     -2.3558327E-08
   36.72000     -2.3749687E-08
   36.78000     -2.3854968E-08
   36.84000     -2.3888241E-08
   36.90000     -2.3838922E-08
   36.96000     -2.3677144E-08
   37.02000     -2.3367773E-08
   37.08000     -2.2887074E-08
   37.14000     -2.2234964E-08
   37.20000     -2.1437774E-08
   37.26000     -2.0540408E-08
   37.32000     -1.9591306E-08
   37.38000     -1.8626594E-08
   37.44000     -1.7660213E-08
   37.50000     -1.6684066E-08
   37.56000     -1.5677708E-08
   37.62000     -1.4622739E-08
   37.68000     -1.3514811E-08
   37.74000     -1.2367435E-08
   37.80000     -1.1205812E-08
   37.86000     -1.0054078E-08
   37.92000     -8.9228749E-09
   37.98000     -7.8042168E-09
   38.04000     -6.6769466E-09
   38.10000     -5.5204423E-09
   38.16000     -4.3295922E-09
   38.22000     -3.1229181E-09
   38.28000     -1.9390032E-09
   38.34000     -8.2247614E-10
   38.40000      1.9348302E-10
   38.46000      1.0989680E-09
   38.52000      1.9071198E-09
   38.58000      2.6418343E-09
   38.64000      3.3199699E-09
   38.70000      3.9377626E-09
   38.76000      4.4689710E-09
   38.82000      4.8758757E-09
   38.88000      5.1271494E-09
   38.94000      5.2127316E-09
   39.00000      5.1475029E-09
   39.06000      4.9618056E-09
   39.12000      4.6842206E-09
   39.18000      4.3263788E-09
   39.24000      3.8783883E-09
   39.30000      3.3174663E-09
   39.36000      2.6249054E-09
   39.42000      1.8017710E-09
   39.48000      8.7433794E-10
   39.54000     -1.1416137E-10
   39.60000     -1.1215386E-09
   39.66000     -2.1252708E-09
   39.72000     -3.1322880E-09
   39.78000     -4.1749710E-09
   39.84000     -5.2951785E-09
   39.90000     -6.5236012E-09
   39.96000     -7.8634042E-09
   40.02000     -9.2846113E-09
   40.08000     -1.0730683E-08
   40.14000     -1.2133927E-08
   40.20000     -1.3433726E-08
   40.26000     -1.4591666E-08
   40.32000     -1.5599635E-08
   40.38000     -1.6479593E-08
   40.44000     -1.7275809E-08
   40.50000     -1.8041941E-08
   40.56000     -1.8826277E-08
   40.62000     -1.9659051E-08
   40.68000     -2.0545659E-08
   40.74000     -2.1468198E-08
   40.80000     -2.2395012E-08
   40.86000     -2.3294678E-08
   40.92000     -2.4148560E-08
   40.98000     -2.4956188E-08
   41.04000     -2.5730730E-08
   41.10000     -2.6486660E-08
   41.16000     -2.7225818E-08
   41.22000     -2.7929444E-08
   41.28000     -2.8561169E-08
   41.34000     -2.9080494E-08
   41.40000     -2.9460814E-08
   41.46000     -2.9703125E-08
   41.52000     -2.9838088E-08
   41.58000     -2.9914347E-08
   41.64000     -2.9977549E-08
   41.70000     -3.0048980E-08
   41.76000     -3.0113345E-08
   41.82000     -3.0121342E-08
   41.88000     -3.0006277E-08
   41.94000     -2.9708165E-08
   42.00000     -2.9195752E-08
   42.06000     -2.8478050E-08
   42.12000     -2.7601537E-08
   42.18000     -2.6634932E-08
   42.24000     -2.5648086E-08
   42.30000     -2.4693115E-08
   42.36000     -2.3794348E-08
   42.42000     -2.2949433E-08
   42.48000     -2.2139588E-08
   42.54000     -2.1343554E-08
   42.60000     -2.0549255E-08
   42.66000     -1.9758884E-08
   42.72000     -1.8986571E-08
   42.78000     -1.8251077E-08
   42.84000     -1.7567853E-08
   42.90000     -1.6944401E-08
   42.96000     -1.6380671E-08
   43.02000     -1.5873404E-08
   43.08000     -1.5421053E-08
   43.14000     -1.5025909E-08
   43.20000     -1.4691609E-08
   43.26000     -1.4417134E-08
   43.32000     -1.4190802E-08
   43.38000     -1.3988185E-08
   43.44000     -1.3776288E-08
   43.50000     -1.3523034E-08
   43.56000     -1.3208061E-08
   43.62000     -1.2829616E-08
   43.68000     -1.2403762E-08
   43.74000     -1.1955660E-08
   43.80000     -1.1506603E-08
   43.86000     -1.1062761E-08
   43.92000     -1.0611021E-08
   43.98000     -1.0124047E-08
   44.04000     -9.5723669E-09
   44.10000     -8.9380094E-09
   44.16000     -8.2235960E-09
   44.22000     -7.4530186E-09
   44.28000     -6.6636656E-09
   44.34000     -5.8937419E-09
   44.40000     -5.1697939E-09
   44.46000     -4.4986694E-09
   44.52000     -3.8655408E-09
   44.58000     -3.2368510E-09
   44.64000     -2.5654801E-09
   44.70000     -1.7954886E-09
   44.76000     -8.6503993E-10
   44.82000      2.9263494E-10
   44.88000      1.7498478E-09
   44.94000      3.5865590E-09
   45.00000      5.8943135E-09
   45.06000      8.7821128E-09
   45.12000      1.2383248E-08
   45.18000      1.6860907E-08
   45.24000      2.2410257E-08
   45.30000      2.9256260E-08
   45.36000      3.7649553E-08
   45.42000      4.7865203E-08
   45.48000      6.0209672E-08
   45.54000      7.5038471E-08
   45.60000      9.2782223E-08
   45.66000      1.1397434E-07
   45.72000      1.3927225E-07
   45.78000      1.6946746E-07
   45.84000      2.0548578E-07
   45.90000      2.4838548E-07
   45.96000      2.9936390E-07
   46.02000      3.5978016E-07
   46.08000      4.3119567E-07
   46.14000      5.1542639E-07
   46.20000      6.1459639E-07
   46.26000      7.3118446E-07
   46.32000      8.6805926E-07
   46.38000      1.0285062E-06
   46.44000      1.2162569E-06
   46.50000      1.4355267E-06
   46.56000      1.6910691E-06
   46.62000      1.9882466E-06
   46.68000      2.3331093E-06
   46.74000      2.7324782E-06
   46.80000      3.1940272E-06
   46.86000      3.7263587E-06
   46.92000      4.3390869E-06
   46.98000      5.0429212E-06
   47.04000      5.8497640E-06
   47.10000      6.7728211E-06
   47.16000      7.8267140E-06
   47.22000      9.0275971E-06
   47.28000      1.0393276E-05
   47.34000      1.1943311E-05
   47.40000      1.3699120E-05
   47.46000      1.5684087E-05
   47.52000      1.7923650E-05
   47.58000      2.0445412E-05
   47.64000      2.3279217E-05
   47.70000      2.6457239E-05
   47.76000      3.0014064E-05
   47.82000      3.3986740E-05
   47.88000      3.8414859E-05
   47.94000      4.3340555E-05
   48.00000      4.8808572E-05
   48.06000      5.4866203E-05
   48.12000      6.1563260E-05
   48.18000      6.8952002E-05
   48.24000      7.7087010E-05
   48.30000      8.6025044E-05
   48.36000      9.5824900E-05
   48.42000      1.0654717E-04
   48.48000      1.1825409E-04
   48.54000      1.3100919E-04
   48.60000      1.4487699E-04
   48.66000      1.5992261E-04
   48.72000      1.7621138E-04
   48.78000      1.9380833E-04
   48.84000      2.1277770E-04
   48.90000      2.3318236E-04
   48.96000      2.5508337E-04
   49.02000      2.7853932E-04
   49.08000      3.0360566E-04
   49.14000      3.3033415E-04
   49.20000      3.5877206E-04
   49.26000      3.8896152E-04
   49.32000      4.2093874E-04
   49.38000      4.5473332E-04
   49.44000      4.9036765E-04
   49.50000      5.2785611E-04
   49.56000      5.6720467E-04
   49.62000      6.0841005E-04
   49.68000      6.5145927E-04
   49.74000      6.9632934E-04
   49.80000      7.4298639E-04
   49.86000      7.9138583E-04
   49.92000      8.4147166E-04
   49.98000      8.9317642E-04
   50.04000      9.4642129E-04
   50.10000      1.0011164E-03
   50.16000      1.0571601E-03
   50.22000      1.1144402E-03
   50.28000      1.1728337E-03
   50.34000      1.2322085E-03
   50.40000      1.2924222E-03
   50.46000      1.3533252E-03
   50.52000      1.4147596E-03
   50.58000      1.4765615E-03
   50.64000      1.5385617E-03
   50.70000      1.6005869E-03
   50.76000      1.6624618E-03
   50.82000      1.7240093E-03
   50.88000      1.7850534E-03
   50.94000      1.8454196E-03
   51.00000      1.9049370E-03
   51.06000      1.9634396E-03
   51.12000      2.0207684E-03
   51.18000      2.0767725E-03
   51.24000      2.1313108E-03
   51.30000      2.1842534E-03
   51.36000      2.2354831E-03
   51.42000      2.2848961E-03
   51.48000      2.3324031E-03
   51.54000      2.3779317E-03
   51.60000      2.4214254E-03
   51.66000      2.4628441E-03
   51.72000      2.5021664E-03
   51.78000      2.5393879E-03
   51.84000      2.5745223E-03
   51.90000      2.6076003E-03
   51.96000      2.6386699E-03
   52.02000      2.6677959E-03
   52.08000      2.6950578E-03
   52.14000      2.7205504E-03
   52.20000      2.7443809E-03
   52.26000      2.7666688E-03
   52.32000      2.7875435E-03
   52.38000      2.8071429E-03
   52.44000      2.8256122E-03
   52.50000      2.8431001E-03
   52.56000      2.8597594E-03
   52.62000      2.8757420E-03
   52.68000      2.8911990E-03
   52.74000      2.9062785E-03
   52.80000      2.9211228E-03
   52.86000      2.9358668E-03
   52.92000      2.9506360E-03
   52.98000      2.9655453E-03
   53.04000      2.9806974E-03
   53.10000      2.9961809E-03
   53.16000      3.0120693E-03
   53.22000      3.0284205E-03
   53.28000      3.0452753E-03
   53.34000      3.0626571E-03
   53.40000      3.0805713E-03
   53.46000      3.0990068E-03
   53.52000      3.1179355E-03
   53.58000      3.1373107E-03
   53.64000      3.1570711E-03
   53.70000      3.1771392E-03
   53.76000      3.1974236E-03
   53.82000      3.2178198E-03
   53.88000      3.2382121E-03
   53.94000      3.2584756E-03
   54.00000      3.2784762E-03
   54.06000      3.2980759E-03
   54.12000      3.3171307E-03
   54.18000      3.3354957E-03
   54.24000      3.3530255E-03
   54.30000      3.3695763E-03
   54.36000      3.3850083E-03
   54.42000      3.3991877E-03
   54.48000      3.4119883E-03
   54.54000      3.4232927E-03
   54.60000      3.4329938E-03
   54.66000      3.4409976E-03
   54.72000      3.4472218E-03
   54.78000      3.4516002E-03
   54.84000      3.4540794E-03
   54.90000      3.4546221E-03
   54.96000      3.4532072E-03
   55.02000      3.4498281E-03
   55.08000      3.4444947E-03
   55.14000      3.4372318E-03
   55.20000      3.4280785E-03
   55.26000      3.4170875E-03
   55.32000      3.4043249E-03
   55.38000      3.3898680E-03
   55.44000      3.3738045E-03
   55.50000      3.3562314E-03
   55.56000      3.3372522E-03