 -0.750000000       0.00000000    
 -0.689999998       0.00000000    
 -0.629999995       0.00000000    
 -0.569999993       0.00000000    
 -0.509999990       0.00000000    
 -0.449999988      -2.14126476E-18
 -0.389999986      -1.56770975E-17
 -0.330000013      -5.51908305E-17
 -0.270000011      -1.13585318E-16
 -0.209999993      -1.07687256E-16
 -0.150000006       1.53909685E-16
  -9.00000036E-02   8.79930542E-16
  -2.99999993E-02   2.01097628E-15
   2.99999993E-02   2.83833689E-15
   9.00000036E-02   1.88005887E-15
  0.150000006      -2.51197743E-15
  0.209999993      -1.06275945E-14
  0.270000011      -1.95463745E-14
  0.330000013      -2.24549840E-14
  0.389999986      -1.08839541E-14
  0.449999988       1.95579620E-14
  0.509999990       6.20013481E-14
  0.569999993       9.45704628E-14
  0.629999995       8.57254738E-14
  0.689999998       1.10201231E-14
  0.750000000      -1.23754644E-13
  0.810000002      -2.66168543E-13
  0.870000005      -3.23704984E-13
  0.930000007      -2.02431374E-13
  0.990000010       1.30583546E-13
   1.04999995       5.90424899E-13
   1.11000001       9.63802280E-13
   1.16999996       9.75086223E-13
   1.23000002       4.23734290E-13
   1.28999996      -6.59997718E-13
   1.35000002      -1.92866773E-12
   1.40999997      -2.78168677E-12
   1.47000003      -2.60142840E-12
   1.52999997      -1.08796294E-12
   1.59000003       1.46593946E-12
   1.64999998       4.13721618E-12
   1.71000004       5.67035785E-12
   1.76999998       5.04630539E-12
   1.83000004       2.08386845E-12
   1.88999999      -2.25163486E-12
   1.95000005      -6.08196739E-12
   2.00999999      -7.40280493E-12
   2.06999993      -5.12870996E-12
   2.13000011       1.14564743E-13
   2.19000006       5.94265739E-12
   2.25000000       9.10602843E-12
   2.30999994       7.05073413E-12
   2.36999989      -5.45804721E-13
   2.43000007      -1.10843895E-11
   2.49000001      -1.97311265E-11
   2.54999995      -2.13902698E-11
   2.60999990      -1.31882855E-11
   2.67000008       3.69437597E-12
   2.73000002       2.38537436E-11
   2.78999996       3.94734766E-11
   2.84999990       4.34941042E-11
   2.91000009       3.27810903E-11
   2.97000003       9.79808248E-12
   3.02999997      -1.81119945E-11
   3.08999991      -4.16448126E-11
   3.15000010      -5.33821043E-11
   3.21000004      -5.07805846E-11
   3.26999998      -3.68537804E-11
   3.32999992      -1.81812725E-11
   3.39000010      -1.21037728E-12
   3.45000005       1.12627000E-11
   3.50999999       2.15219439E-11
   3.56999993       3.53089502E-11
   3.63000011       5.76993384E-11
   3.69000006       8.83940421E-11
   3.75000000       1.18874674E-10
   3.80999994       1.33252798E-10
   3.86999989       1.13084209E-10
   3.93000007       4.45951401E-11
   3.99000001      -7.44902959E-11
   4.05000019      -2.31411154E-10
   4.11000013      -3.99820926E-10
   4.17000008      -5.45956669E-10
   4.23000002      -6.37345787E-10
   4.28999996      -6.50870191E-10
   4.34999990      -5.77348669E-10
   4.40999985      -4.21334717E-10
   4.46999979      -1.96848246E-10
   4.53000021       7.86272367E-11
   4.59000015       3.89062033E-10
   4.65000010       7.21708970E-10
   4.71000004       1.06555054E-09
   4.76999998       1.40784762E-09
   4.82999992       1.73129011E-09
   4.88999987       2.01402428E-09
   4.94999981       2.23347074E-09
   5.01000023       2.37299180E-09
   5.07000017       2.42892928E-09
   5.13000011       2.41505771E-09
   5.19000006       2.36226083E-09
   5.25000000       2.31297981E-09
   5.30999994       2.31196262E-09
   5.36999989       2.39627873E-09
   5.42999983       2.58789368E-09
   5.48999977       2.89120861E-09
   5.55000019       3.29619798E-09
   5.61000013       3.78581300E-09
   5.67000008       4.34484093E-09
   5.73000002       4.96698149E-09
   5.78999996       5.65760772E-09
   5.84999990       6.43132081E-09
   5.90999985       7.30530170E-09
   5.96999979       8.29103186E-09
   6.03000021       9.38752365E-09
   6.09000015       1.05786393E-08
   6.15000010       1.18355477E-08
   6.21000004       1.31233842E-08
   6.26999998       1.44096211E-08
   6.32999992       1.56709881E-08
   6.38999987       1.68963830E-08
   6.44999981       1.80848563E-08
   6.51000023       1.92397369E-08
   6.57000017       2.03616128E-08
   6.63000011       2.14433236E-08
   6.69000006       2.24692709E-08
   6.75000000       2.34194797E-08
   6.80999994       2.42766198E-08
   6.86999989       2.50327297E-08
   6.92999983       2.56923318E-08
   6.98999977       2.62700528E-08
   7.05000019       2.67833737E-08
   7.11000013       2.72435319E-08
   7.17000008       2.76489018E-08
   7.23000002       2.79844521E-08
   7.28999996       2.82285164E-08
   7.34999990       2.83648589E-08
   7.40999985       2.83954620E-08
   7.46999979       2.83486887E-08
   7.53000021       2.82791905E-08
   7.59000015       2.82592172E-08
   7.65000010       2.83645818E-08
   7.71000004       2.86607484E-08
   7.76999998       2.91940392E-08
   7.82999992       2.99905274E-08
   7.88999987       3.10612727E-08
   7.94999981       3.24097442E-08
   8.01000023       3.40363080E-08
   8.06999969       3.59365231E-08
   8.13000011       3.80933400E-08
   8.18999958       4.04668192E-08
   8.25000000       4.29868194E-08
   8.31000042       4.55533247E-08
   8.36999989       4.80461466E-08
   8.43000031       5.03419315E-08
   8.48999977       5.23333021E-08
   8.55000019       5.39439604E-08
   8.60999966       5.51352528E-08
   8.67000008       5.59027313E-08
   8.72999954       5.62650975E-08
   8.78999996       5.62503004E-08
   8.85000038       5.58840831E-08
   8.90999985       5.51847457E-08
   8.97000027       5.41648149E-08
   9.02999973       5.28374997E-08
   9.09000015       5.12240881E-08
   9.14999962       4.93584693E-08
   9.21000004       4.72869175E-08
   9.27000046       4.50634232E-08
   9.32999992       4.27428652E-08
   9.39000034       4.03749638E-08
   9.44999981       3.80009304E-08
   9.51000023       3.56533221E-08
   9.56999969       3.33581376E-08
   9.63000011       3.11374926E-08
   9.68999958       2.90116731E-08
   9.75000000       2.70000484E-08
   9.81000042       2.51209897E-08
   9.86999989       2.33910349E-08
   9.93000031       2.18233005E-08
   9.98999977       2.04250554E-08
   10.0500002       1.91946139E-08
   10.1099997       1.81185396E-08
   10.1700001       1.71706436E-08
   10.2299995       1.63140985E-08
   10.2900000       1.55069433E-08
   10.3500004       1.47095802E-08
   10.4099998       1.38917109E-08
   10.4700003       1.30360345E-08
   10.5299997       1.21372983E-08
   10.5900002       1.11972387E-08
   10.6499996       1.02177680E-08
   10.7100000       9.19535381E-09
   10.7700005       8.11891798E-09
   10.8299999       6.97190616E-09
   10.8900003       5.73743675E-09
   10.9499998       4.40424941E-09
   11.0100002       2.97098302E-09
   11.0699997       1.44700729E-09
   11.1300001      -1.50638571E-10
   11.1899996      -1.80323356E-09
   11.2500000      -3.49713769E-09
   11.3100004      -5.22869170E-09
   11.3699999      -7.00507874E-09
   11.4300003      -8.84037732E-09
   11.4899998      -1.07479829E-08
   11.5500002      -1.27323423E-08
   11.6099997      -1.47835193E-08
   11.6700001      -1.68772143E-08
   11.7299995      -1.89806020E-08
   11.7900000      -2.10617035E-08
   11.8500004      -2.30983748E-08
   11.9099998      -2.50831018E-08
   11.9700003      -2.70216205E-08
   12.0299997      -2.89261468E-08
   12.0900002      -3.08063122E-08
   12.1499996      -3.26616139E-08
   12.2100000      -3.44782727E-08
   12.2700005      -3.62313912E-08
   12.3299999      -3.78911373E-08
   12.3900003      -3.94303825E-08
   12.4499998      -4.08313099E-08
   12.5100002      -4.20890345E-08
   12.5699997      -4.32117915E-08
   12.6300001      -4.42180479E-08
   12.6899996      -4.51315394E-08
   12.7500000      -4.59754617E-08
   12.8100004      -4.67671377E-08
   12.8699999      -4.75142308E-08
   12.9300003      -4.82135931E-08
   12.9899998      -4.88531171E-08
   13.0500002      -4.94163643E-08
   13.1099997      -4.98884702E-08
   13.1700001      -5.02613133E-08
   13.2299995      -5.05356326E-08
   13.2900000      -5.07188425E-08
   13.3500004      -5.08190077E-08
   13.4099998      -5.08373574E-08
   13.4700003      -5.07630276E-08
   13.5299997      -5.05730746E-08
   13.5900002      -5.02387500E-08
   13.6499996      -4.97357782E-08
   13.7100000      -4.90538383E-08
   13.7700005      -4.82003735E-08
   13.8299999      -4.71961101E-08
   13.8900003      -4.60640948E-08
   13.9499998      -4.48177779E-08
   14.0100002      -4.34550209E-08
   14.0699997      -4.19621564E-08
   14.1300001      -4.03272509E-08
   14.1899996      -3.85562693E-08
   14.2500000      -3.66837725E-08
   14.3100004      -3.47718085E-08
   14.3699999      -3.28964802E-08
   14.4300003      -3.11280353E-08
   14.4899998      -2.95137319E-08
   14.5500002      -2.80717121E-08
   14.6099997      -2.67984213E-08
   14.6700001      -2.56853543E-08
   14.7299995      -2.47362362E-08
   14.7900000      -2.39755380E-08
   14.8500004      -2.34437199E-08
   14.9099998      -2.31812738E-08
   14.9700003      -2.32092212E-08
   15.0299997      -2.35154474E-08
   15.0900002      -2.40535414E-08
   15.1499996      -2.47549234E-08
   15.2100000      -2.55489070E-08
   15.2700005      -2.63819580E-08
   15.3299999      -2.72279923E-08
   15.3900003      -2.80859584E-08
   15.4499998      -2.89668929E-08
   15.5100002      -2.98772669E-08
   15.5699997      -3.08066817E-08
   15.6300001      -3.17251825E-08
   15.6899996      -3.25904388E-08
   15.7500000      -3.33600312E-08
   15.8100004      -3.40019639E-08
   15.8699999      -3.44981927E-08
   15.9300003      -3.48403049E-08
   15.9899998      -3.50211842E-08
   16.0499992      -3.50286271E-08
   16.1100006      -3.48455877E-08
   16.1700001      -3.44575461E-08
   16.2299995      -3.38630919E-08
   16.2900009      -3.30815588E-08
   16.3500004      -3.21529079E-08
   16.4099998      -3.11291544E-08
   16.4699993      -3.00609209E-08
   16.5300007      -2.89852693E-08
   16.5900002      -2.79200147E-08
   16.6499996      -2.68662568E-08
   16.7099991      -2.58169397E-08
   16.7700005      -2.47665302E-08
   16.8299999      -2.37172380E-08
   16.8899994      -2.26794494E-08
   16.9500008      -2.16672795E-08
   17.0100002      -2.06923740E-08
   17.0699997      -1.97594172E-08
   17.1299992      -1.88653519E-08
   17.1900005      -1.80020905E-08
   17.2500000      -1.71606604E-08
   17.3099995      -1.63343330E-08
   17.3700008      -1.55191522E-08
   17.4300003      -1.47120769E-08
   17.4899998      -1.39084317E-08
   17.5499992      -1.31010021E-08
   17.6100006      -1.22821868E-08
   17.6700001      -1.14489040E-08
   17.7299995      -1.06081046E-08
   17.7900009      -9.77986492E-09
   17.8500004      -8.99569841E-09
   17.9099998      -8.29163049E-09
   17.9699993      -7.69794273E-09
   18.0300007      -7.22901872E-09
   18.0900002      -6.87678314E-09
   18.1499996      -6.60972477E-09
   18.2099991      -6.37744035E-09
   18.2700005      -6.11883211E-09
   18.3299999      -5.77149573E-09
   18.3899994      -5.28022692E-09
   18.4500008      -4.60341232E-09
   18.5100002      -3.71672226E-09
   18.5699997      -2.61370992E-09
   18.6299992      -1.30302336E-09
   18.6900005       1.97500086E-10
   18.7500000       1.86839655E-09
   18.8099995       3.69499875E-09
   18.8700008       5.66946134E-09
   18.9300003       7.78627918E-09
   18.9899998       1.00319735E-08
   19.0499992       1.23728352E-08
   19.1100006       1.47466359E-08
   19.1700001       1.70636021E-08
   19.2299995       1.92187084E-08
   19.2900009       2.11125837E-08
   19.3500004       2.26742944E-08
   19.4099998       2.38779823E-08
   19.4699993       2.47473757E-08
   19.5300007       2.53468428E-08
   19.5900002       2.57628852E-08
   19.6499996       2.60833115E-08
   19.7099991       2.63815529E-08
   19.7700005       2.67105502E-08
   19.8299999       2.71059335E-08
   19.8899994       2.75940497E-08
   19.9500008       2.81986505E-08
   20.0100002       2.89414803E-08
   20.0699997       2.98359097E-08
   20.1299992       3.08769330E-08
   20.1900005       3.20335296E-08
   20.2500000       3.32488455E-08
   20.3099995       3.44500926E-08
   20.3700008       3.55655700E-08
   20.4300003       3.65424526E-08
   20.4899998       3.73581841E-08
   20.5499992       3.80210068E-08
   20.6100006       3.85596977E-08
   20.6700001       3.90072223E-08
   20.7299995       3.93853163E-08
   20.7900009       3.96961219E-08
   20.8500004       3.99234956E-08
   20.9099998       4.00421918E-08
   20.9699993       4.00299456E-08
   21.0300007       3.98768165E-08
   21.0900002       3.95878956E-08
   21.1499996       3.91791275E-08
   21.2099991       3.86690431E-08
   21.2700005       3.80711072E-08
   21.3299999       3.73907518E-08
   21.3899994       3.66286415E-08
   21.4500008       3.57885668E-08
   21.5100002       3.48857405E-08
   21.5699997       3.39507658E-08
   21.6299992       3.30263319E-08
   21.6900005       3.21570681E-08
   21.7500000       3.13766471E-08
   21.8099995       3.06978016E-08
   21.8700008       3.01103071E-08
   21.9300003       2.95881080E-08
   21.9899998       2.91025888E-08
   22.0499992       2.86357089E-08
   22.1100006       2.81866974E-08
   22.1700001       2.77691541E-08
   22.2299995       2.74003558E-08
   22.2900009       2.70885767E-08
   22.3500004       2.68252780E-08
   22.4099998       2.65863580E-08
   22.4699993       2.63416435E-08
   22.5300007       2.60672941E-08
   22.5900002       2.57539359E-08
   22.6499996       2.54056438E-08
   22.7099991       2.50297489E-08
   22.7700005       2.46226772E-08
   22.8299999       2.41594833E-08
   22.8899994       2.35934667E-08
   22.9500008       2.28673347E-08
   23.0100002       2.19317400E-08
   23.0699997       2.07631761E-08
   23.1299992       1.93732781E-08
   23.1900005       1.78053181E-08
   23.2500000       1.61195981E-08
   23.3099995       1.43741987E-08
   23.3700008       1.26093873E-08
   23.4300003       1.08416476E-08
   23.4899998       9.06850062E-09
   23.5499992       7.28018357E-09
   23.6100006       5.47154277E-09
   23.6700001       3.64827346E-09
   23.7299995       1.82525794E-09
   23.7900009       1.91717926E-11
   23.8500004      -1.75963766E-09
   23.9099998      -3.51111540E-09
   23.9699993      -5.24316146E-09
   24.0300007      -6.96451252E-09
   24.0900002      -8.67686278E-09
   24.1499996      -1.03703179E-08
   24.2099991      -1.20241666E-08
   24.2700005      -1.36120324E-08
   24.3299999      -1.51085207E-08
   24.3899994      -1.64943721E-08
   24.4500008      -1.77586248E-08
   24.5100002      -1.88981542E-08
   24.5699997      -1.99160137E-08
   24.6299992      -2.08196909E-08
   24.6900005      -2.16193818E-08
   24.7500000      -2.23256471E-08
   24.8099995      -2.29461286E-08
   24.8700008      -2.34822117E-08
   24.9300003      -2.39276812E-08
   24.9899998      -2.42713210E-08
   25.0499992      -2.45037395E-08
   25.1100006      -2.46261447E-08
   25.1700001      -2.46568792E-08
   25.2299995      -2.46316318E-08
   25.2900009      -2.45956624E-08
   25.3500004      -2.45902640E-08
   25.4099998      -2.46387781E-08
   25.4699993      -2.47383500E-08
   25.5300007      -2.48612615E-08
   25.5900002      -2.49655265E-08
   25.6499996      -2.50101806E-08
   25.7099991      -2.49687240E-08
   25.7700005      -2.48353569E-08
   25.8299999      -2.46222935E-08
   25.8899994      -2.43507650E-08
   25.9500008      -2.40409488E-08
   26.0100002      -2.37058693E-08
   26.0699997      -2.33515713E-08
   26.1299992      -2.29819630E-08
   26.1900005      -2.26041674E-08
   26.2500000      -2.22300827E-08
   26.3099995      -2.18723635E-08
   26.3700008      -2.15367688E-08
   26.4300003      -2.12154951E-08
   26.4899998      -2.08863540E-08
   26.5499992      -2.05199147E-08
   26.6100006      -2.00924735E-08
   26.6700001      -1.95990975E-08
   26.7299995      -1.90601170E-08
   26.7900009      -1.85167277E-08
   26.8500004      -1.80163511E-08
   26.9099998      -1.75931945E-08
   26.9699993      -1.72522245E-08
   27.0300007      -1.69637193E-08
   27.0900002      -1.66714145E-08
   27.1499996      -1.63114997E-08
   27.2099991      -1.58353011E-08
   27.2700005      -1.52269291E-08
   27.3299999      -1.45094727E-08
   27.3899994      -1.37379734E-08
   27.4500008      -1.29827393E-08
   27.5100002      -1.23099797E-08
   27.5699997      -1.17671659E-08
   27.6299992      -1.13778817E-08
   27.6900005      -1.11464988E-08
   27.7500000      -1.10689413E-08
   27.8099995      -1.11436727E-08
   27.8700008      -1.13777938E-08
   27.9300003      -1.17860459E-08
   27.9899998      -1.23842003E-08
   28.0499992      -1.31807498E-08
   28.1100006      -1.41710732E-08
   28.1700001      -1.53362585E-08
   28.2299995      -1.66458278E-08
   28.2900009      -1.80616002E-08
   28.3500004      -1.95398062E-08
   28.4099998      -2.10305746E-08
   28.4699993      -2.24765273E-08
   28.5300007      -2.38138576E-08
   28.5900002      -2.49786503E-08
   28.6499996      -2.59184567E-08
   28.7099991      -2.66056972E-08
   28.7700005      -2.70473688E-08
   28.8299999      -2.72859406E-08
   28.8899994      -2.73895697E-08
   28.9500008      -2.74340000E-08
   29.0100002      -2.74820149E-08
   29.0699997      -2.75674257E-08
   29.1299992      -2.76887988E-08
   29.1900005      -2.78144867E-08
   29.2500000      -2.78966379E-08
   29.3099995      -2.78890635E-08
   29.3700008      -2.77630328E-08
   29.4300003      -2.75161405E-08
   29.4899998      -2.71717475E-08
   29.5499992      -2.67693387E-08
   29.6100006      -2.63488946E-08
   29.6700001      -2.59342823E-08
   29.7299995      -2.55214694E-08
   29.7900009      -2.50761669E-08
   29.8500004      -2.45427803E-08
   29.9099998      -2.38625848E-08
   29.9699993      -2.29951596E-08
   30.0300007      -2.19351097E-08
   30.0900002      -2.07170974E-08
   30.1499996      -1.94062402E-08
   30.2099991      -1.80766815E-08
   30.2700005      -1.67863430E-08
   30.3299999      -1.55579496E-08
   30.3899994      -1.43743222E-08
   30.4500008      -1.31901823E-08
   30.5100002      -1.19556507E-08
   30.5699997      -1.06414415E-08
   30.6299992      -9.25483157E-09
   30.6900005      -7.83946863E-09
   30.7500000      -6.45913545E-09
   30.8099995      -5.17270715E-09
   30.8700008      -4.01123934E-09
   30.9300003      -2.96688696E-09
   30.9899998      -1.99772865E-09
   31.0499992      -1.04540465E-09
   31.1100006      -5.71213771E-11
   31.1700001       9.97477212E-10
   31.2299995       2.12066431E-09
   31.2900009       3.29244787E-09
   31.3500004       4.48291981E-09
   31.4099998       5.66419978E-09
   31.4699993       6.81687329E-09
   31.5300007       7.92997135E-09
   31.5900002       8.99739483E-09
   31.6499996       1.00150626E-08
   31.7099991       1.09813785E-08
   31.7700005       1.19002275E-08
   31.8299999       1.27829729E-08
   31.8899994       1.36456570E-08
   31.9500008       1.45002508E-08
   32.0099983       1.53427386E-08
   32.0699997       1.61438436E-08
   32.1300011       1.68482845E-08
   32.1899986       1.73852328E-08
   32.2500000       1.76876025E-08
   32.3100014       1.77132140E-08
   32.3699989       1.74593389E-08
   32.4300003       1.69642309E-08
   32.4900017       1.62943383E-08
   32.5499992       1.55218647E-08
   32.6100006       1.47014045E-08
   32.6699982       1.38550194E-08
   32.7299995       1.29718352E-08
   32.7900009       1.20224541E-08
   32.8499985       1.09823448E-08
   32.9099998       9.85448612E-09
   32.9700012       8.68144223E-09
   33.0299988       7.54090390E-09
   33.0900002       6.52524168E-09
   33.1500015       5.71220182E-09
   33.2099991       5.13794252E-09
   33.2700005       4.78334972E-09
   33.3300018       4.57984184E-09
   33.3899994       4.43337766E-09
   33.4500008       4.25806768E-09
   33.5099983       4.00662747E-09
   33.5699997       3.68582875E-09
   33.6300011       3.35083827E-09
   33.6899986       3.08066817E-09
   33.7500000       2.94451996E-09
   33.8100014       2.97238789E-09
   33.8699989       3.14141313E-09
   33.9300003       3.38294126E-09
   33.9900017       3.60677976E-09
   34.0499992       3.73238951E-09
   34.1100006       3.71439901E-09
   34.1699982       3.55274721E-09
   34.2299995       3.28447425E-09
   34.2900009       2.96172353E-09
   34.3499985       2.62568878E-09
   34.4099998       2.28708696E-09
   34.4700012       1.92028593E-09
   34.5299988       1.47222912E-09
   34.5900002       8.81497542E-10
   34.6500015       9.95468430E-11
   34.7099991      -8.93654928E-10
   34.7700005      -2.08421103E-09
   34.8300018      -3.42935635E-09
   34.8899994      -4.86954743E-09
   34.9500008      -6.34245856E-09
   35.0099983      -7.79432074E-09
   35.0699997      -9.18611143E-09
   35.1300011      -1.04944773E-08
   35.1899986      -1.17089343E-08
   35.2500000      -1.28273578E-08
   35.3100014      -1.38513307E-08
   35.3699989      -1.47821133E-08
   35.4300003      -1.56174647E-08
   35.4900017      -1.63494569E-08
   35.5499992      -1.69637140E-08
   35.6100006      -1.74406196E-08
   35.6699982      -1.77588788E-08
   35.7299995      -1.79009643E-08
   35.7900009      -1.78590920E-08
   35.8499985      -1.76397421E-08
   35.9099998      -1.72647425E-08
   35.9700012      -1.67678582E-08
   36.0299988      -1.61873892E-08
   36.0900002      -1.55568287E-08
   36.1500015      -1.48967478E-08
   36.2099991      -1.42110048E-08
   36.2700005      -1.34892097E-08
   36.3300018      -1.27152218E-08
   36.3899994      -1.18791590E-08
   36.4500008      -1.09887317E-08
   36.5099983      -1.00754542E-08
   36.5699997      -9.19274878E-09
   36.6300011      -8.40575076E-09
   36.6899986      -7.77580222E-09
   36.7500000      -7.34497574E-09
   36.8100014      -7.12630932E-09
   36.8699989      -7.10359238E-09
   36.9300003      -7.24085414E-09
   36.9900017      -7.49784324E-09
   37.0499992      -7.84516097E-09
   37.1100006      -8.27277269E-09
   37.1699982      -8.78838691E-09
   37.2299995      -9.40663991E-09
   37.2900009      -1.01342632E-08
   37.3499985      -1.09584395E-08
   37.4099998      -1.18443291E-08
   37.4700012      -1.27437154E-08
   37.5299988      -1.36115048E-08
   37.5900002      -1.44229508E-08
   37.6500015      -1.51836641E-08
   37.7099991      -1.59273377E-08
   37.7700005      -1.67013372E-08
   37.8300018      -1.75456627E-08
   37.8899994      -1.84738056E-08
   37.9500008      -1.94633323E-08
   38.0099983      -2.04600408E-08
   38.0699997      -2.13939586E-08
   38.1300011      -2.22007177E-08
   38.1899986      -2.28399895E-08
   38.2500000      -2.33041071E-08
   38.3100014      -2.36142181E-08
   38.3699989      -2.38062441E-08
   38.4300003      -2.39127385E-08
   38.4900017      -2.39479316E-08
   38.5499992      -2.39017748E-08
   38.6100006      -2.37449633E-08
   38.6699982      -2.34425475E-08
   38.7299995      -2.29704149E-08
   38.7900009      -2.23277503E-08
   38.8499985      -2.15402114E-08
   38.9099998      -2.06524309E-08
   38.9700012      -1.97129388E-08
   39.0299988      -1.87579552E-08
   39.0900002      -1.78010335E-08
   39.1500015      -1.68330736E-08
   39.2099991      -1.58323594E-08
   39.2700005      -1.47796451E-08
   39.3300018      -1.36707703E-08
   39.3899994      -1.25205633E-08
   39.4500008      -1.13561676E-08
   39.5099983      -1.02034292E-08
   39.5699997      -9.07375952E-09
   39.6300011      -7.95880517E-09
   39.6899986      -6.83630086E-09
   39.7500000      -5.68445424E-09
   39.8100014      -4.49742821E-09
   39.8699989      -3.29356120E-09
   39.9300003      -2.11149764E-09
   39.9900017      -9.95797222E-10
   40.0499992       2.06978896E-11
   40.1100006       9.28484234E-10
   40.1699982       1.74079451E-09
   40.2299995       2.48106313E-09
   40.2900009       3.16525184E-09
   40.3499985       3.78871068E-09
   40.4099998       4.32483471E-09
   40.4700012       4.73632200E-09
   40.5299988       4.99285813E-09
   40.5900002       5.08545828E-09
   40.6500015       5.02954389E-09
   40.7099991       4.85511853E-09
   40.7700005       4.58964067E-09
   40.8300018       4.24329771E-09
   40.8899994       3.80501142E-09
   40.9500008       3.25148264E-09
   41.0099983       2.56420041E-09
   41.0699997       1.74484238E-09
   41.1300011       8.20253976E-10
   41.1899986      -1.66173728E-10
   41.2500000      -1.17260401E-09
   41.3100014      -2.17717311E-09
   41.3699989      -3.18741145E-09
   41.4300003      -4.23591118E-09
   41.4900017      -5.36421974E-09
   41.5499992      -6.60229249E-09
   41.6100006      -7.95238897E-09
   41.6699982      -9.38370892E-09
   41.7299995      -1.08391331E-08
   41.7900009      -1.22506822E-08
   41.8499985      -1.35577372E-08
   41.9099998      -1.47221408E-08
   41.9700012      -1.57362567E-08
   42.0299988      -1.66226037E-08
   42.0900002      -1.74258830E-08
   42.1500015      -1.81997830E-08
   42.2099991      -1.89920719E-08
   42.2700005      -1.98320524E-08
   42.3300018      -2.07241833E-08
   42.3899994      -2.16500791E-08
   42.4500008      -2.25783729E-08
   42.5099983      -2.34785595E-08
   42.5699997      -2.43330565E-08
   42.6300011      -2.51419525E-08
   42.6899986      -2.59181707E-08
   42.7500000      -2.66752753E-08
   42.8100014      -2.74141456E-08
   42.8699989      -2.81156325E-08
   42.9300003      -2.87438287E-08
   42.9900017      -2.92592883E-08
   43.0499992      -2.96364178E-08
   43.1100006      -2.98765563E-08
   43.1699982      -3.00098293E-08
   43.2299995      -3.00837542E-08
   43.2900009      -3.01428145E-08
   43.3499985      -3.02075449E-08
   43.4099998      -3.02624059E-08
   43.4700012      -3.02580752E-08
   43.5299988      -3.01278185E-08
   43.5900002      -2.98115488E-08
   43.6500015      -2.92780964E-08
   43.7099991      -2.85370820E-08
   43.7700005      -2.76361316E-08
   43.8300018      -2.66452176E-08
   43.8899994      -2.56348134E-08
   43.9500008      -2.46565524E-08
   44.0099983      -2.37332554E-08
   44.0699997      -2.28608386E-08
   44.1300011      -2.20196092E-08
   44.1899986      -2.11889137E-08
   44.2500000      -2.03586339E-08
   44.3100014      -1.95333740E-08
   44.3699989      -1.87289757E-08
   44.4300003      -1.79645667E-08
   44.4900017      -1.72547860E-08
   44.5499992      -1.66060019E-08
   44.6100006      -1.60176885E-08
   44.6699982      -1.54871707E-08
   44.7299995      -1.50143045E-08
   44.7900009      -1.46028398E-08
   44.8499985      -1.42572869E-08
   44.9099998      -1.39767380E-08
   44.9700012      -1.37490979E-08
   45.0299988      -1.35493972E-08
   45.0900002      -1.33441622E-08
   45.1500015      -1.31008102E-08
   45.2099991      -1.27983091E-08
   45.2700005      -1.24341506E-08
   45.3300018      -1.20239196E-08
   45.3899994      -1.15929835E-08
   45.4500008      -1.11636265E-08
   45.5099983      -1.07434088E-08
   45.5699997      -1.03203188E-08
   45.6300011      -9.86725368E-09
   45.6899986      -9.35398248E-09
   45.7500000      -8.76116690E-09
   45.8100014      -8.09005751E-09
   45.8699989      -7.36360084E-09
   45.9300003      -6.61875710E-09
   45.9900017      -5.89360383E-09
   46.0499992      -5.21460208E-09
   46.1100006      -4.58841143E-09
   46.1699982      -3.99988620E-09
   46.2299995      -3.41503625E-09
   46.2900009      -2.78618684E-09
   46.3499985      -2.05678030E-09
   46.4099998      -1.16450538E-09
   46.4700012      -4.25629532E-11
   46.5299988       1.38076151E-09
   46.5900002       3.18435189E-09
   46.6500015       5.45869261E-09
   46.7099991       8.31230107E-09
   46.7700005       1.18788144E-08
   46.8300018       1.63223994E-08
   46.8899994       2.18393374E-08
   46.9500008       2.86555100E-08
   47.0099983       3.70222573E-08
   47.0699997       4.72154582E-08
   47.1300011       5.95425647E-08
   47.1899986       7.43599742E-08
   47.2500000       9.20985030E-08
   47.3100014       1.13290632E-07
   47.3699989       1.38592156E-07
   47.4300003       1.68793093E-07
   47.4900017       2.04818974E-07
   47.5499992       2.47728963E-07
   47.6100006       2.98721744E-07
   47.6699982       3.59157013E-07
   47.7299995       4.30595236E-07
   47.7900009       5.14850512E-07
   47.8499985       6.14045689E-07
   47.9099998       7.30659565E-07
   47.9700012       8.67561880E-07
   48.0299988       1.02803995E-06
   48.0900002       1.21582514E-06
   48.1500015       1.43513103E-06
   48.2099991       1.69070915E-06
   48.2700005       1.98792009E-06
   48.3300018       2.33281435E-06
   48.3899994       2.73221508E-06
   48.4500008       3.19379660E-06
   48.5099983       3.72616159E-06
   48.5699997       4.33892137E-06
   48.6300011       5.04278341E-06
   48.6899986       5.84965028E-06
   48.7500000       6.77272737E-06
   48.8100014       7.82664029E-06
   48.8699989       9.02754527E-06
   48.9300003       1.03932480E-05
   48.9900017       1.19433071E-05
   49.0499992       1.36991403E-05
   49.1100006       1.56841288E-05
   49.1699982       1.79237140E-05
   49.2299995       2.04454936E-05
   49.2900009       2.32793136E-05
   49.3499985       2.64573482E-05
   49.4099998       3.00141837E-05
   49.4700012       3.39868711E-05
   49.5299988       3.84149971E-05
   49.5900002       4.33407113E-05
   49.6500015       4.88087426E-05
   49.7099991       5.48663811E-05
   49.7700005       6.15634490E-05
   49.8300018       6.89522058E-05
   49.8899994       7.70872066E-05
   49.9500008       8.60252476E-05
   50.0099983       9.58250894E-05
   50.0699997       1.06547348E-04
   50.1300011       1.18254247E-04
   50.1899986       1.31009321E-04
   50.2500000       1.44877093E-04
   50.3100014       1.59922696E-04
   50.3699989       1.76211470E-04
   50.4300003       1.93808432E-04
   50.4900017       2.12777770E-04
   50.5499992       2.33182407E-04
   50.6100006       2.55083403E-04