  -2.400000      0.0000000E+00
  -2.340000      0.0000000E+00
  -2.280000      0.0000000E+00
  -2.220000      0.0000000E+00
  -2.160000      0.0000000E+00
  -2.100000      1.1605879E-19
  -2.040000      1.0606756E-18
  -1.980000      4.7823174E-18
  -1.920000      1.3478504E-17
  -1.860000      2.3888060E-17
  -1.800000      1.6737639E-17
  -1.740000     -4.8947589E-17
  -1.680000     -2.1629581E-16
  -1.620000     -4.7022976E-16
  -1.560000     -6.5511222E-16
  -1.500000     -4.4298375E-16
  -1.440000      5.4734597E-16
  -1.380000      2.4363977E-15
  -1.320000      4.6868158E-15
  -1.260000      5.9129947E-15
  -1.200000      4.2357403E-15
  -1.140000     -1.6957338E-15
  -1.080000     -1.1350752E-14
  -1.020000     -2.1429973E-14
 -0.9600000     -2.6338938E-14
 -0.9000000     -2.0404720E-14
 -0.8400000     -1.2065839E-15
 -0.7800000      2.7598500E-14
 -0.7200000      5.5859038E-14
 -0.6600000      6.9992718E-14
 -0.6000000      5.8871568E-14
 -0.5400000      2.0086233E-14
 -0.4800000     -3.6639200E-14
 -0.4200000     -9.1261125E-14
 -0.3600000     -1.2057133E-13
 -0.3000000     -1.0814249E-13
 -0.2400000     -5.2775862E-14
 -0.1800000      2.8708671E-14
 -0.1200000      1.0641076E-13
 -5.9999999E-02  1.4880935E-13
  0.0000000E+00  1.3638565E-13
  5.9999999E-02  7.1394964E-14
  0.1200000     -2.1421445E-14
  0.1800000     -1.0495356E-13
  0.2400000     -1.4729996E-13
  0.3000000     -1.3868769E-13
  0.3600000     -9.7956962E-14
  0.4200000     -6.2299151E-14
  0.4800000     -6.2304898E-14
  0.5400000     -9.4264386E-14
  0.6000000     -1.0738395E-13
  0.6600000     -2.0049914E-14
  0.7200000      2.3441584E-13
  0.7800000      6.5054304E-13
  0.8400000      1.1132603E-12
  0.9000000      1.4096582E-12
  0.9600000      1.2997936E-12
   1.020000      6.2610811E-13
   1.080000     -5.8472568E-13
   1.140000     -2.0796585E-12
   1.200000     -3.4286417E-12
   1.260000     -4.1581226E-12
   1.320000     -3.9214482E-12
   1.380000     -2.6385224E-12
   1.440000     -5.4673871E-13
   1.500000      1.8594351E-12
   1.560000      3.9785467E-12
   1.620000      5.2870932E-12
   1.680000      5.4951820E-12
   1.740000      4.6239497E-12
   1.800000      2.9853702E-12
   1.860000      1.0762165E-12
   1.920000     -5.7907195E-13
   1.980000     -1.5905903E-12
   2.040000     -1.8242610E-12
   2.100000     -1.4463815E-12
   2.160000     -8.7469366E-13
   2.220000     -6.4412977E-13
   2.280000     -1.2188257E-12
   2.340000     -2.7943312E-12
   2.400000     -5.1283747E-12
   2.460000     -7.4178623E-12
   2.520000     -8.2179697E-12
   2.580000     -5.3932115E-12
   2.640000      3.8905411E-12
   2.700000      2.3089393E-11
   2.760000      5.6052444E-11
   2.820000      1.0658870E-10
   2.880000      1.7784450E-10
   2.940000      2.7160460E-10
   3.000000      3.8771422E-10
   3.060000      5.2383814E-10
   3.120000      6.7570033E-10
   3.180000      8.3779844E-10
   3.240000      1.0044179E-09
   3.300000      1.1706552E-09
   3.360000      1.3331457E-09
   3.420000      1.4902962E-09
   3.480000      1.6420004E-09
   3.540000      1.7889893E-09
   3.600000      1.9320885E-09
   3.660000      2.0716497E-09
   3.720000      2.2073352E-09
   3.780000      2.3382740E-09
   3.840000      2.4634657E-09
   3.900000      2.5822191E-09
   3.960000      2.6944262E-09
   4.020000      2.8005533E-09
   4.080000      2.9013671E-09
   4.140000      2.9975231E-09
   4.200000      3.0891960E-09
   4.260000      3.1758998E-09
   4.320000      3.2565357E-09
   4.380000      3.3296015E-09
   4.440000      3.3934058E-09
   4.500000      3.4461665E-09
   4.560000      3.4859551E-09
   4.620000      3.5106011E-09
   4.680000      3.5177605E-09
   4.740000      3.5053322E-09
   4.800000      3.4722640E-09
   4.860000      3.4195240E-09
   4.920000      3.3508150E-09
   4.980000      3.2725078E-09
   5.040000      3.1924527E-09
   5.100000      3.1176974E-09
   5.160000      3.0516387E-09
   5.220000      2.9915421E-09
   5.280000      2.9274598E-09
   5.340000      2.8432985E-09
   5.400000      2.7201366E-09
   5.460000      2.5410944E-09
   5.520000      2.2964139E-09
   5.580000      1.9871869E-09
   5.640000      1.6265501E-09
   5.700000      1.2380057E-09
   5.760000      8.5156721E-10
   5.820000      4.9925253E-10
   5.880000      2.1164615E-10
   5.940000      1.6743565E-11
   6.000000     -5.8797564E-11
   6.060000      1.2913217E-11
   6.120000      2.6298286E-10
   6.180000      7.2523332E-10
   6.240000      1.4321998E-09
   6.300000      2.4080857E-09
   6.360000      3.6605676E-09
   6.420000      5.1741300E-09
   6.480000      6.9073356E-09
   6.540000      8.7952161E-09
   6.600000      1.0756216E-08
   6.660000      1.2701682E-08
   6.720000      1.4545254E-08
   6.780000      1.6209965E-08
   6.840000      1.7632177E-08
   6.900000      1.8762851E-08
   6.960000      1.9567656E-08
   7.020000      2.0027331E-08
   7.080000      2.0138982E-08
   7.140000      1.9917737E-08
   7.200000      1.9397378E-08
   7.260000      1.8628434E-08
   7.320000      1.7673022E-08
   7.380000      1.6597003E-08
   7.440000      1.5461158E-08
   7.500000      1.4313699E-08
   7.560000      1.3186128E-08
   7.620000      1.2093381E-08
   7.680000      1.1037947E-08
   7.740000      1.0016477E-08
   7.800000      9.0268317E-09
   7.860000      8.0736209E-09
   7.920000      7.1709247E-09
   7.980000      6.3418728E-09
   8.040000      5.6156422E-09
   8.100000      5.0230482E-09
   8.160000      4.5920152E-09
   8.220000      4.3438786E-09
   8.280000      4.2908410E-09
   8.340000      4.4343240E-09
   8.400000      4.7637263E-09
   8.460000      5.2552922E-09
   8.520000      5.8713674E-09
   8.580000      6.5608825E-09
   8.640000      7.2620696E-09
   8.700000      7.9079907E-09
   8.760000      8.4344878E-09
   8.820000      8.7890841E-09
   8.880000      8.9386294E-09
   8.940000      8.8735561E-09
   9.000000      8.6074357E-09
   9.060000      8.1719342E-09
   9.120000      7.6086435E-09
   9.180000      6.9601840E-09
   9.240000      6.2630328E-09
   9.300000      5.5437801E-09
   9.360000      4.8191588E-09
   9.420000      4.0987458E-09
   9.480000      3.3882588E-09
   9.540000      2.6912534E-09
   9.600000      2.0079971E-09
   9.660000      1.3319188E-09
   9.720000      6.4571309E-10
   9.780000     -7.9986850E-11
   9.840000     -8.8304425E-10
   9.900000     -1.8009965E-09
   9.960000     -2.8591998E-09
   10.02000     -4.0601744E-09
   10.08000     -5.3786922E-09
   10.14000     -6.7654242E-09
   10.20000     -8.1587297E-09
   10.26000     -9.5008357E-09
   10.32000     -1.0752712E-08
   10.38000     -1.1902241E-08
   10.44000     -1.2962819E-08
   10.50000     -1.3963158E-08
   10.56000     -1.4932269E-08
   10.62000     -1.5885259E-08
   10.68000     -1.6814994E-08
   10.74000     -1.7692416E-08
   10.80000     -1.8475118E-08
   10.86000     -1.9121083E-08
   10.92000     -1.9602769E-08
   10.98000     -1.9916717E-08
   11.04000     -2.0085258E-08
   11.10000     -2.0149331E-08
   11.16000     -2.0154214E-08
   11.22000     -2.0132331E-08
   11.28000     -2.0088475E-08
   11.34000     -1.9992484E-08
   11.40000     -1.9782394E-08
   11.46000     -1.9378049E-08
   11.52000     -1.8701860E-08
   11.58000     -1.7700991E-08
   11.64000     -1.6364467E-08
   11.70000     -1.4729848E-08
   11.76000     -1.2877031E-08
   11.82000     -1.0910374E-08
   11.88000     -8.9338892E-09
   11.94000     -7.0264528E-09
   12.00000     -5.2242179E-09
   12.06000     -3.5155168E-09
   12.12000     -1.8498905E-09
   12.18000     -1.5860276E-10
   12.24000      1.6196011E-09
   12.30000      3.5154082E-09
   12.36000      5.5155662E-09
   12.42000      7.5630977E-09
   12.48000      9.5706110E-09
   12.54000      1.1442164E-08
   12.60000      1.3096775E-08
   12.66000      1.4486626E-08
   12.72000      1.5605044E-08
   12.78000      1.6482678E-08
   12.84000      1.7173690E-08
   12.90000      1.7736369E-08
   12.96000      1.8213839E-08
   13.02000      1.8620179E-08
   13.08000      1.8935713E-08
   13.14000      1.9112578E-08
   13.20000      1.9088892E-08
   13.26000      1.8807381E-08
   13.32000      1.8233147E-08
   13.38000      1.7365650E-08
   13.44000      1.6241838E-08
   13.50000      1.4930041E-08
   13.56000      1.3516869E-08
   13.62000      1.2090942E-08
   13.68000      1.0727645E-08
   13.74000      9.4782449E-09
   13.80000      8.3651779E-09
   13.86000      7.3836683E-09
   13.92000      6.5084707E-09
   13.98000      5.7036176E-09
   14.04000      4.9327085E-09
   14.10000      4.1674846E-09
   14.16000      3.3931533E-09
   14.22000      2.6099363E-09
   14.28000      1.8313397E-09
   14.34000      1.0802949E-09
   14.40000      3.8443007E-10
   14.46000     -2.2862454E-10
   14.52000     -7.3552936E-10
   14.58000     -1.1211232E-09
   14.64000     -1.3819087E-09
   14.70000     -1.5288546E-09
   14.76000     -1.5888788E-09
   14.82000     -1.6042052E-09
   14.88000     -1.6289177E-09
   14.94000     -1.7224767E-09
   15.00000     -1.9406825E-09
   15.06000     -2.3254132E-09
   15.12000     -2.8953016E-09
   15.18000     -3.6399599E-09
   15.24000     -4.5201083E-09
   15.30000     -5.4746851E-09
   15.36000     -6.4339747E-09
   15.42000     -7.3355730E-09
   15.48000     -8.1386400E-09
   15.54000     -8.8320462E-09
   15.60000     -9.4339168E-09
   15.66000     -9.9829318E-09
   15.72000     -1.0524444E-08
   15.78000     -1.1095895E-08
   15.84000     -1.1715733E-08
   15.90000     -1.2378331E-08
   15.96000     -1.3055290E-08
   16.02000     -1.3701735E-08
   16.08000     -1.4265329E-08
   16.14000     -1.4695708E-08
   16.20000     -1.4952453E-08
   16.26000     -1.5010501E-08
   16.32000     -1.4862507E-08
   16.38000     -1.4518434E-08
   16.44000     -1.4003263E-08
   16.50000     -1.3353913E-08
   16.56000     -1.2616346E-08
   16.62000     -1.1843221E-08
   16.68000     -1.1091663E-08
   16.74000     -1.0420420E-08
   16.80000     -9.8858024E-09
   16.86000     -9.5364863E-09
   16.92000     -9.4080512E-09
   16.98000     -9.5183808E-09
   17.04000     -9.8648654E-09
   17.10000     -1.0423684E-08
   17.16000     -1.1150848E-08
   17.22000     -1.1984583E-08
   17.28000     -1.2848784E-08
   17.34000     -1.3657620E-08
   17.40000     -1.4321396E-08
   17.46000     -1.4753475E-08
   17.52000     -1.4877715E-08
   17.58000     -1.4635677E-08
   17.64000     -1.3993140E-08
   17.70000     -1.2945798E-08
   17.76000     -1.1524033E-08
   17.82000     -9.7961328E-09
   17.88000     -7.8683327E-09
   17.94000     -5.8794520E-09
   18.00000     -3.9883048E-09
   18.06000     -2.3538305E-09
   18.12000     -1.1105675E-09
   18.18000     -3.4455119E-10
   18.24000     -7.5817311E-11
   18.30000     -2.5274846E-10
   18.36000     -7.6072071E-10
   18.42000     -1.4437660E-09
   18.48000     -2.1344984E-09
   18.54000     -2.6853559E-09
   18.60000     -2.9938674E-09
   18.66000     -3.0162119E-09
   18.72000     -2.7663736E-09
   18.78000     -2.3020097E-09
   18.84000     -1.7017417E-09
   18.90000     -1.0408394E-09
   18.96000     -3.7239589E-10
   19.02000      2.8112002E-10
   19.08000      9.2486280E-10
   19.14000      1.5800938E-09
   19.20000      2.2696494E-09
   19.26000      3.0060974E-09
   19.32000      3.7862780E-09
   19.38000      4.5928004E-09
   19.44000      5.4003926E-09
   19.50000      6.1837544E-09
   19.56000      6.9239148E-09
   19.62000      7.6113436E-09
   19.68000      8.2454061E-09
   19.74000      8.8306091E-09
   19.80000      9.3706269E-09
   19.86000      9.8615223E-09
   19.92000      1.0286128E-08
   19.98000      1.0611818E-08
   20.04000      1.0793415E-08
   20.10000      1.0781423E-08
   20.16000      1.0533705E-08
   20.22000      1.0026935E-08
   20.28000      9.2637693E-09
   20.34000      8.2731253E-09
   20.40000      7.1033361E-09
   20.46000      5.8105751E-09
   20.52000      4.4462301E-09
   20.58000      3.0467682E-09
   20.64000      1.6282596E-09
   20.70000      1.8607203E-10
   20.76000     -1.3010095E-09
   20.82000     -2.8636236E-09
   20.88000     -4.5332658E-09
   20.94000     -6.3340542E-09
   21.00000     -8.2766300E-09
   21.06000     -1.0355636E-08
   21.12000     -1.2551393E-08
   21.18000     -1.4834988E-08
   21.24000     -1.7174804E-08
   21.30000     -1.9542046E-08
   21.36000     -2.1913406E-08
   21.42000     -2.4270532E-08
   21.48000     -2.6597441E-08
   21.54000     -2.8877803E-08
   21.60000     -3.1093716E-08
   21.66000     -3.3226453E-08
   21.72000     -3.5258395E-08
   21.78000     -3.7174672E-08
   21.84000     -3.8963208E-08
   21.90000     -4.0612637E-08
   21.96000     -4.2108841E-08
   22.02000     -4.3431555E-08
   22.08000     -4.4553087E-08
   22.14000     -4.5440586E-08
   22.20000     -4.6062418E-08
   22.26000     -4.6397496E-08
   22.32000     -4.6444697E-08
   22.38000     -4.6228575E-08
   22.44000     -4.5798014E-08
   22.50000     -4.5216339E-08
   22.56000     -4.4544866E-08
   22.62000     -4.3824677E-08
   22.68000     -4.3063086E-08
   22.74000     -4.2230106E-08
   22.80000     -4.1267118E-08
   22.86000     -4.0105661E-08
   22.92000     -3.8690615E-08
   22.98000     -3.7000760E-08
   23.04000     -3.5060506E-08
   23.10000     -3.2939464E-08
   23.16000     -3.0739766E-08
   23.22000     -2.8574469E-08
   23.28000     -2.6542363E-08
   23.34000     -2.4705761E-08
   23.40000     -2.3077385E-08
   23.46000     -2.1620547E-08
   23.52000     -2.0263329E-08
   23.58000     -1.8923052E-08
   23.64000     -1.7533582E-08
   23.70000     -1.6066410E-08
   23.76000     -1.4538253E-08
   23.82000     -1.3002719E-08
   23.88000     -1.1529447E-08
   23.94000     -1.0178926E-08
   24.00000     -8.9825534E-09
   24.06000     -7.9351103E-09
   24.12000     -7.0018902E-09
   24.18000     -6.1372627E-09
   24.24000     -5.3077684E-09
   24.30000     -4.5117954E-09
   24.36000     -3.7894865E-09
   24.42000     -3.2197414E-09
   24.48000     -2.9048692E-09
   24.54000     -2.9468392E-09
   24.60000     -3.4214618E-09
   24.66000     -4.3578563E-09
   24.72000     -5.7296980E-09
   24.78000     -7.4618320E-09
   24.84000     -9.4513908E-09
   24.90000     -1.1597691E-08
   24.96000     -1.3831753E-08
   25.02000     -1.6135710E-08
   25.08000     -1.8545306E-08
   25.14000     -2.1134257E-08
   25.20000     -2.3985537E-08
   25.26000     -2.7159336E-08
   25.32000     -3.0668669E-08
   25.38000     -3.4470993E-08
   25.44000     -3.8478447E-08
   25.50000     -4.2582830E-08
   25.56000     -4.6686125E-08
   25.62000     -5.0725738E-08
   25.68000     -5.4685611E-08
   25.74000     -5.8589908E-08
   25.80000     -6.2482513E-08
   25.86000     -6.6400681E-08
   25.92000     -7.0353174E-08
   25.98000     -7.4310812E-08
   26.04000     -7.8212345E-08
   26.10000     -8.1982591E-08
   26.16000     -8.5555122E-08
   26.22000     -8.8890829E-08
   26.28000     -9.1985505E-08
   26.34000     -9.4863864E-08
   26.40000     -9.7562314E-08
   26.46000     -1.0010626E-07
   26.52000     -1.0248957E-07
   26.58000     -1.0466363E-07
   26.64000     -1.0654040E-07
   26.70000     -1.0801084E-07
   26.76000     -1.0897438E-07
   26.82000     -1.0937151E-07
   26.88000     -1.0920874E-07
   26.94000     -1.0856593E-07
   27.00000     -1.0758103E-07
   27.06000     -1.0641423E-07
   27.12000     -1.0520159E-07
   27.18000     -1.0401305E-07
   27.24000     -1.0282936E-07
   27.30000     -1.0154708E-07
   27.36000     -1.0001093E-07
   27.42000     -9.8063836E-08
   27.48000     -9.5598423E-08
   27.54000     -9.2593751E-08
   27.60000     -8.9125820E-08
   27.66000     -8.5349271E-08
   27.72000     -8.1456335E-08
   27.78000     -7.7625870E-08
   27.84000     -7.3977461E-08
   27.90000     -7.0543678E-08
   27.96000     -6.7268232E-08
   28.02000     -6.4029940E-08
   28.08000     -6.0685785E-08
   28.14000     -5.7120083E-08
   28.20000     -5.3285405E-08
   28.26000     -4.9222415E-08
   28.32000     -4.5052204E-08
   28.38000     -4.0942759E-08
   28.44000     -3.7059880E-08
   28.50000     -3.3517978E-08
   28.56000     -3.0346879E-08
   28.62000     -2.7485754E-08
   28.68000     -2.4806377E-08
   28.74000     -2.2158053E-08
   28.80000     -1.9419288E-08
   28.86000     -1.6539031E-08
   28.92000     -1.3554010E-08
   28.98000     -1.0576956E-08
   29.04000     -7.7602911E-09
   29.10000     -5.2479079E-09
   29.16000     -3.1311542E-09
   29.22000     -1.4232249E-09
   29.28000     -5.9763618E-11
   29.34000      1.0752162E-09
   29.40000      2.1069808E-09
   29.46000      3.1251897E-09
   29.52000      4.1510062E-09
   29.58000      5.1269988E-09
   29.64000      5.9336536E-09
   29.70000      6.4280803E-09
   29.76000      6.4932633E-09
   29.82000      6.0822054E-09
   29.88000      5.2419797E-09
   29.94000      4.1083217E-09
   30.00000      2.8706244E-09
   30.06000      1.7173045E-09
   30.12000      7.7896517E-10
   30.18000      8.8625836E-11
   30.24000     -4.2665843E-10
   30.30000     -9.1886981E-10
   30.36000     -1.5651409E-09
   30.42000     -2.5049069E-09
   30.48000     -3.7894643E-09
   30.54000     -5.3611680E-09
   30.60000     -7.0693793E-09
   30.66000     -8.7179330E-09
   30.72000     -1.0128568E-08
   30.78000     -1.1199810E-08
   30.84000     -1.1942409E-08
   30.90000     -1.2479831E-08
   30.96000     -1.3012980E-08
   31.02000     -1.3759194E-08
   31.08000     -1.4883647E-08
   31.14000     -1.6444305E-08
   31.20000     -1.8368377E-08
   31.26000     -2.0469344E-08
   31.32000     -2.2501117E-08
   31.38000     -2.4233511E-08
   31.44000     -2.5525090E-08
   31.50000     -2.6368925E-08
   31.56000     -2.6894822E-08
   31.62000     -2.7325989E-08
   31.68000     -2.7903940E-08
   31.74000     -2.8806999E-08
   31.80000     -3.0090451E-08
   31.86000     -3.1668925E-08
   31.92000     -3.3346790E-08
   31.98000     -3.4885414E-08
   32.04000     -3.6083495E-08
   32.10000     -3.6842831E-08
   32.16000     -3.7197619E-08
   32.22000     -3.7298712E-08
   32.28000     -3.7359609E-08
   32.34000     -3.7583440E-08
   32.40000     -3.8095394E-08
   32.46000     -3.8902446E-08
   32.52000     -3.9892317E-08
   32.58000     -4.0870930E-08
   32.64000     -4.1625441E-08
   32.70000     -4.1992333E-08
   32.76000     -4.1908820E-08
   32.82000     -4.1431214E-08
   32.88000     -4.0714458E-08
   32.94000     -3.9959385E-08
   33.00000     -3.9345007E-08
   33.06000     -3.8968260E-08
   33.12000     -3.8811791E-08
   33.18000     -3.8751107E-08
   33.24000     -3.8598973E-08
   33.30000     -3.8171915E-08
   33.36000     -3.7355640E-08
   33.42000     -3.6146403E-08
   33.48000     -3.4654079E-08
   33.54000     -3.3066303E-08
   33.60000     -3.1586882E-08
   33.66000     -3.0370312E-08
   33.72000     -2.9474743E-08
   33.78000     -2.8848451E-08
   33.84000     -2.8352842E-08
   33.90000     -2.7812790E-08
   33.96000     -2.7076819E-08
   34.02000     -2.6067553E-08
   34.08000     -2.4806917E-08
   34.14000     -2.3408996E-08
   34.20000     -2.2043491E-08
   34.26000     -2.0881480E-08
   34.32000     -2.0040497E-08
   34.38000     -1.9546400E-08
   34.44000     -1.9324629E-08
   34.50000     -1.9224533E-08
   34.56000     -1.9069697E-08
   34.62000     -1.8718161E-08
   34.68000     -1.8112290E-08
   34.74000     -1.7300961E-08
   34.80000     -1.6425886E-08
   34.86000     -1.5676557E-08
   34.92000     -1.5229380E-08
   34.98000     -1.5192168E-08
   35.04000     -1.5572756E-08
   35.10000     -1.6281279E-08
   35.16000     -1.7163343E-08
   35.22000     -1.8050779E-08
   35.28000     -1.8811640E-08
   35.34000     -1.9383279E-08
   35.40000     -1.9779673E-08
   35.46000     -2.0073859E-08
   35.52000     -2.0364215E-08
   35.58000     -2.0737179E-08
   35.64000     -2.1238311E-08
   35.70000     -2.1859321E-08
   35.76000     -2.2543084E-08
   35.82000     -2.3203237E-08
   35.88000     -2.3751333E-08
   35.94000     -2.4122896E-08
   36.00000     -2.4294447E-08
   36.06000     -2.4286450E-08
   36.12000     -2.4151495E-08
   36.18000     -2.3951953E-08
   36.24000     -2.3735284E-08
   36.30000     -2.3516202E-08
   36.36000     -2.3272619E-08
   36.42000     -2.2956783E-08
   36.48000     -2.2516799E-08
   36.54000     -2.1919222E-08
   36.60000     -2.1163066E-08
   36.66000     -2.0279531E-08
   36.72000     -1.9318366E-08
   36.78000     -1.8327707E-08
   36.84000     -1.7336973E-08
   36.90000     -1.6350175E-08
   36.96000     -1.5351807E-08
   37.02000     -1.4321397E-08
   37.08000     -1.3249139E-08
   37.14000     -1.2145335E-08
   37.20000     -1.1039873E-08
   37.26000     -9.9728537E-09
   37.32000     -8.9811456E-09
   37.38000     -8.0866949E-09
   37.44000     -7.2908599E-09
   37.50000     -6.5761103E-09
   37.56000     -5.9136238E-09
   37.62000     -5.2737983E-09
   37.68000     -4.6364490E-09
   37.74000     -3.9981018E-09
   37.80000     -3.3747058E-09
   37.86000     -2.7989848E-09
   37.92000     -2.3126747E-09
   37.98000     -1.9551729E-09
   38.04000     -1.7515330E-09
   38.10000     -1.7036487E-09
   38.16000     -1.7881726E-09
   38.22000     -1.9627959E-09
   38.28000     -2.1794124E-09
   38.34000     -2.3996087E-09
   38.40000     -2.6063960E-09
   38.46000     -2.8071583E-09
   38.52000     -3.0263227E-09
   38.58000     -3.2908405E-09
   38.64000     -3.6150665E-09
   38.70000     -3.9922279E-09
   38.76000     -4.3968380E-09
   38.82000     -4.7973105E-09
   38.88000     -5.1730518E-09
   38.94000     -5.5278515E-09
   39.00000     -5.8927982E-09
   39.06000     -6.3165539E-09
   39.12000     -6.8465589E-09
   39.18000     -7.5089055E-09
   39.24000     -8.2953342E-09
   39.30000     -9.1628785E-09
   39.36000     -1.0046489E-08
   39.42000     -1.0879843E-08
   39.48000     -1.1616514E-08
   39.54000     -1.2243750E-08
   39.60000     -1.2783969E-08
   39.66000     -1.3283465E-08
   39.72000     -1.3792224E-08
   39.78000     -1.4341801E-08
   39.84000     -1.4929105E-08
   39.90000     -1.5512480E-08
   39.96000     -1.6022682E-08
   40.02000     -1.6386391E-08
   40.08000     -1.6554928E-08
   40.14000     -1.6527794E-08
   40.20000     -1.6361051E-08
   40.26000     -1.6154972E-08
   40.32000     -1.6022799E-08
   40.38000     -1.6050203E-08
   40.44000     -1.6259957E-08
   40.50000     -1.6595887E-08
   40.56000     -1.6933974E-08
   40.62000     -1.7118476E-08
   40.68000     -1.7011315E-08
   40.74000     -1.6537454E-08
   40.80000     -1.5710228E-08
   40.86000     -1.4627925E-08
   40.92000     -1.3443396E-08
   40.98000     -1.2317904E-08
   41.04000     -1.1375073E-08
   41.10000     -1.0669606E-08
   41.16000     -1.0179301E-08
   41.22000     -9.8207540E-09
   41.28000     -9.4819672E-09
   41.34000     -9.0611003E-09
   41.40000     -8.5000655E-09
   41.46000     -7.8040445E-09
   41.52000     -7.0420492E-09
   41.58000     -6.3283947E-09
   41.64000     -5.7896945E-09
   41.70000     -5.5260871E-09
   41.76000     -5.5779292E-09
   41.82000     -5.9088978E-09
   41.88000     -6.4125891E-09
   41.94000     -6.9426331E-09
   42.00000     -7.3580346E-09
   42.06000     -7.5690405E-09
   42.12000     -7.5672943E-09
   42.18000     -7.4288011E-09
   42.24000     -7.2879107E-09
   42.30000     -7.2914688E-09
   42.36000     -7.5499260E-09
   42.42000     -8.1031581E-09
   42.48000     -8.9126395E-09
   42.54000     -9.8810808E-09
   42.60000     -1.0890356E-08
   42.66000     -1.1842693E-08
   42.72000     -1.2690572E-08
   42.78000     -1.3446709E-08
   42.84000     -1.4173454E-08
   42.90000     -1.4957610E-08
   42.96000     -1.5879948E-08
   43.02000     -1.6988396E-08
   43.08000     -1.8281561E-08
   43.14000     -1.9706267E-08
   43.20000     -2.1169896E-08
   43.26000     -2.2565260E-08
   43.32000     -2.3802237E-08
   43.38000     -2.4837131E-08
   43.44000     -2.5689351E-08
   43.50000     -2.6437396E-08
   43.56000     -2.7192801E-08
   43.62000     -2.8059581E-08
   43.68000     -2.9093997E-08
   43.74000     -3.0281068E-08
   43.80000     -3.1538434E-08
   43.86000     -3.2746943E-08
   43.92000     -3.3795615E-08
   43.98000     -3.4622268E-08
   44.04000     -3.5233153E-08
   44.10000     -3.5694640E-08
   44.16000     -3.6102296E-08
   44.22000     -3.6541955E-08
   44.28000     -3.7059149E-08
   44.34000     -3.7647755E-08
   44.40000     -3.8259344E-08
   44.46000     -3.8826503E-08
   44.52000     -3.9289652E-08
   44.58000     -3.9618385E-08
   44.64000     -3.9822492E-08
   44.70000     -3.9952084E-08
   44.76000     -4.0088164E-08
   44.82000     -4.0325840E-08
   44.88000     -4.0752624E-08
   44.94000     -4.1426162E-08
   45.00000     -4.2357748E-08
   45.06000     -4.3509008E-08
   45.12000     -4.4806381E-08
   45.18000     -4.6172019E-08
   45.24000     -4.7562214E-08
   45.30000     -4.8999674E-08
   45.36000     -5.0586817E-08
   45.42000     -5.2494496E-08
   45.48000     -5.4930830E-08
   45.54000     -5.8103502E-08
   45.60000     -6.2191440E-08
   45.66000     -6.7336906E-08
   45.72000     -7.3659699E-08
   45.78000     -8.1285492E-08
   45.84000     -9.0376119E-08
   45.90000     -1.0115165E-07
   45.96000     -1.1390072E-07
   46.02000     -1.2898258E-07
   46.08000     -1.4682753E-07
   46.14000     -1.6794046E-07
   46.20000     -1.9290778E-07
   46.26000     -2.2240405E-07
   46.32000     -2.5719521E-07
   46.38000     -2.9813916E-07
   46.44000     -3.4618927E-07
   46.50000     -4.0240764E-07
   46.56000     -4.6799181E-07
   46.62000     -5.4431052E-07
   46.68000     -6.3293976E-07
   46.74000     -7.3568793E-07
   46.80000     -8.5460618E-07
   46.86000     -9.9198849E-07
   46.92000     -1.1503722E-06
   46.98000     -1.3325517E-06
   47.04000     -1.5416092E-06
   47.10000     -1.7809599E-06
   47.16000     -2.0544003E-06
   47.22000     -2.3661485E-06
   47.28000     -2.7208762E-06
   47.34000     -3.1237321E-06
   47.40000     -3.5803653E-06
   47.46000     -4.0969517E-06
   47.52000     -4.6802243E-06
   47.58000     -5.3374947E-06
   47.64000     -6.0766729E-06
   47.70000     -6.9062680E-06
   47.76000     -7.8353924E-06
   47.82000     -8.8737679E-06
   47.88000     -1.0031752E-05
   47.94000     -1.1320366E-05
   48.00000     -1.2751342E-05
   48.06000     -1.4337137E-05
   48.12000     -1.6090937E-05
   48.18000     -1.8026622E-05
   48.24000     -2.0158721E-05
   48.30000     -2.2502356E-05
   48.36000     -2.5073192E-05
   48.42000     -2.7887369E-05
   48.48000     -3.0961459E-05
   48.54000     -3.4312423E-05
   48.60000     -3.7957489E-05
   48.66000     -4.1914100E-05
   48.72000     -4.6199788E-05
   48.78000     -5.0832059E-05
   48.84000     -5.5828263E-05
   48.90000     -6.1205472E-05
   48.96000     -6.6980334E-05
   49.02000     -7.3168914E-05
   49.08000     -7.9786507E-05
   49.14000     -8.6847416E-05
   49.20000     -9.4364841E-05
   49.26000     -1.0235060E-04
   49.32000     -1.1081506E-04
   49.38000     -1.1976693E-04
   49.44000     -1.2921313E-04
   49.50000     -1.3915857E-04
   49.56000     -1.4960600E-04
   49.62000     -1.6055575E-04
   49.68000     -1.7200563E-04
   49.74000     -1.8395075E-04
   49.80000     -1.9638335E-04
   49.86000     -2.0929283E-04
   49.92000     -2.2266568E-04
   49.98000     -2.3648533E-04
   50.04000     -2.5073226E-04
   50.10000     -2.6538386E-04
   50.16000     -2.8041456E-04
   50.22000     -2.9579594E-04
   50.28000     -3.1149664E-04
   50.34000     -3.2748270E-04
   50.40000     -3.4371772E-04
   50.46000     -3.6016290E-04
   50.52000     -3.7677737E-04
   50.58000     -3.9351836E-04
   50.64000     -4.1034163E-04
   50.70000     -4.2720171E-04
   50.76000     -4.4405245E-04
   50.82000     -4.6084728E-04
   50.88000     -4.7753958E-04
   50.94000     -4.9408304E-04
   51.00000     -5.1043206E-04
   51.06000     -5.2654219E-04
   51.12000     -5.4237054E-04
   51.18000     -5.5787625E-04
   51.24000     -5.7302107E-04
   51.30000     -5.8776961E-04
   51.36000     -6.0208974E-04
   51.42000     -6.1595300E-04
   51.48000     -6.2933477E-04
   51.54000     -6.4221449E-04
   51.60000     -6.5457600E-04
   51.66000     -6.6640775E-04
   51.72000     -6.7770289E-04
   51.78000     -6.8845937E-04
   51.84000     -6.9868000E-04
   51.90000     -7.0837227E-04
   51.96000     -7.1754860E-04
   52.02000     -7.2622584E-04
   52.08000     -7.3442562E-04
   52.14000     -7.4217346E-04
   52.20000     -7.4949890E-04
   52.26000     -7.5643475E-04
   52.32000     -7.6301699E-04
   52.38000     -7.6928403E-04
   52.44000     -7.7527657E-04
   52.50000     -7.8103709E-04
   52.56000     -7.8660919E-04
   52.62000     -7.9203729E-04
   52.68000     -7.9736568E-04
   52.74000     -8.0263813E-04
   52.80000     -8.0789719E-04
   52.86000     -8.1318367E-04
   52.92000     -8.1853621E-04
   52.98000     -8.2399085E-04
   53.04000     -8.2958047E-04
   53.10000     -8.3533459E-04
   53.16000     -8.4127841E-04
   53.22000     -8.4743294E-04
   53.28000     -8.5381477E-04
   53.34000     -8.6043583E-04
   53.40000     -8.6730329E-04
   53.46000     -8.7441941E-04
   53.52000     -8.8178157E-04
   53.58000     -8.8938215E-04
   53.64000     -8.9720887E-04
   53.70000     -9.0524455E-04
   53.76000     -9.1346772E-04
   53.82000     -9.2185277E-04
   53.88000     -9.3037059E-04
   53.94000     -9.3898870E-04
   54.00000     -9.4767194E-04
   54.06000     -9.5638289E-04
   54.12000     -9.6508244E-04
   54.18000     -9.7372971E-04
   54.24000     -9.8228350E-04
   54.30000     -9.9070184E-04
   54.36000     -9.9894311E-04
   54.42000     -1.0069669E-03
   54.48000     -1.0147336E-03
   54.54000     -1.0222058E-03
   54.60000     -1.0293482E-03
   54.66000     -1.0361280E-03
   54.72000     -1.0425153E-03
   54.78000     -1.0484834E-03
   54.84000     -1.0540094E-03
   54.90000     -1.0590743E-03
   54.96000     -1.0636627E-03
   55.02000     -1.0677630E-03
   55.08000     -1.0713676E-03
   55.14000     -1.0744724E-03
   55.20000     -1.0770771E-03
   55.26000     -1.0791854E-03
   55.32000     -1.0808043E-03
   55.38000     -1.0819444E-03
   55.44000     -1.0826193E-03
   55.50000     -1.0828453E-03
   55.56000     -1.0826403E-03