 -0.750000000       0.00000000    
 -0.689999998       0.00000000    
 -0.629999995       0.00000000    
 -0.569999993       0.00000000    
 -0.509999990       0.00000000    
 -0.449999988       1.10851198E-19
 -0.389999986       9.59134945E-19
 -0.330000013       4.10221158E-18
 -0.270000011       1.09115338E-17
 -0.209999993       1.76629332E-17
 -0.150000006       7.44867208E-18
  -9.00000036E-02  -5.25518828E-17
  -2.99999993E-02  -1.92367588E-16
   2.99999993E-02  -3.88716575E-16
   9.00000036E-02  -5.01253346E-16
  0.150000006      -2.56502858E-16
  0.209999993       6.41191500E-16
  0.270000011       2.24333161E-15
  0.330000013       4.03679809E-15
  0.389999986       4.81416978E-15
  0.449999988       3.01092875E-15
  0.509999990      -2.40345218E-15
  0.569999993      -1.07822415E-14
  0.629999995      -1.90933169E-14
  0.689999998      -2.24088004E-14
  0.750000000      -1.59076684E-14
  0.810000002       2.17418471E-15
  0.870000005       2.80842854E-14
  0.930000007       5.22875912E-14
  0.990000010       6.23726263E-14
   1.04999995       4.85478696E-14
   1.11000001       9.47952095E-15
   1.16999996      -4.45827728E-14
   1.23000002      -9.37289864E-14
   1.28999996      -1.15554024E-13
   1.35000002      -9.50927163E-14
   1.40999997      -3.31780569E-14
   1.47000003       5.11250147E-14
   1.52999997       1.26205592E-13
   1.59000003       1.60324905E-13
   1.64999998       1.35862431E-13
   1.71000004       5.87383942E-14
   1.76999998      -4.24169028E-14
   1.83000004      -1.28535325E-13
   1.88999999      -1.69181631E-13
   1.95000005      -1.59033865E-13
   2.00999999      -1.21663394E-13
   2.06999993      -9.54414024E-14
   2.13000011      -1.05881917E-13
   2.19000006      -1.38509538E-13
   2.25000000      -1.30547225E-13
   2.30999994       6.03167672E-15
   2.36999989       3.32873919E-13
   2.43000007       8.26316392E-13
   2.49000001       1.34387835E-12
   2.54999995       1.64454919E-12
   2.60999990       1.46959029E-12
   2.67000008       6.59843491E-13
   2.73000002      -7.39123714E-13
   2.78999996      -2.43688078E-12
   2.84999990      -3.95412045E-12
   2.91000009      -4.76604780E-12
   2.97000003      -4.48450868E-12
   3.02999997      -3.00946269E-12
   3.08999991      -5.89276945E-13
   3.15000010       2.23584541E-12
   3.21000004       4.78821193E-12
   3.26999998       6.45032378E-12
   3.32999992       6.83916292E-12
   3.39000010       5.90316684E-12
   3.45000005       3.91765700E-12
   3.50999999       1.38809927E-12
   3.56999993      -1.10317495E-12
   3.63000011      -3.05824680E-12
   3.69000006      -4.18635179E-12
   3.75000000      -4.45610866E-12
   3.80999994      -4.06820237E-12
   3.86999989      -3.36352300E-12
   3.93000007      -2.69780444E-12
   3.99000001      -2.31360590E-12
   4.05000019      -2.22311145E-12
   4.11000013      -2.09045021E-12
   4.17000008      -1.08843132E-12
   4.23000002       2.28071902E-12
   4.28999996       1.03653405E-11
   4.34999990       2.64522640E-11
   4.40999985       5.46381621E-11
   4.46999979       9.93873664E-11
   4.53000021       1.64778330E-10
   4.59000015       2.53580185E-10
   4.65000010       3.66421921E-10
   4.71000004       5.01351127E-10
   4.76999998       6.53993859E-10
   4.82999992       8.18336621E-10
   4.88999987       9.87928850E-10
   4.94999981       1.15714205E-09
   5.01000023       1.32209044E-09
   5.07000017       1.48094348E-09
   5.13000011       1.63358782E-09
   5.19000006       1.78083592E-09
   5.25000000       1.92353911E-09
   5.30999994       2.06195749E-09
   5.36999989       2.19561280E-09
   5.42999983       2.32360708E-09
   5.48999977       2.44519160E-09
   5.55000019       2.56025734E-09
   5.61000013       2.66947064E-09
   5.67000008       2.77396461E-09
   5.73000002       2.87472424E-09
   5.78999996       2.97197200E-09
   5.84999990       3.06487702E-09
   5.90999985       3.15174886E-09
   5.96999979       3.23062377E-09
   6.03000021       3.29992633E-09
   6.09000015       3.35881478E-09
   6.15000010       3.40698025E-09
   6.21000004       3.44396689E-09
   6.26999998       3.46840690E-09
   6.32999992       3.47769769E-09
   6.38999987       3.46852103E-09
   6.44999981       3.43821460E-09
   6.51000023       3.38652373E-09
   6.57000017       3.31692340E-09
   6.63000011       3.23670601E-09
   6.69000006       3.15539705E-09
   6.75000000       3.08171888E-09
   6.80999994       3.01998448E-09
   6.86999989       2.96719738E-09
   6.92999983       2.91206992E-09
   6.98999977       2.83664292E-09
   7.05000019       2.72031553E-09
   7.11000013       2.54526022E-09
   7.17000008       2.30164199E-09
   7.23000002       1.99108308E-09
   7.28999996       1.62737912E-09
   7.34999990       1.23443067E-09
   7.40999985       8.42313386E-10
   7.46999979       4.83023399E-10
   7.53000021       1.87428545E-10
   7.59000015      -1.56563339E-11
   7.65000010      -9.83576068E-11
   7.71000004      -3.16646882E-11
   7.76999998       2.15981774E-10
   7.82999992       6.77906620E-10
   7.88999987       1.38545531E-09
   7.94999981       2.36168263E-09
   8.01000023       3.61399355E-09
   8.06999969       5.12791054E-09
   8.13000011       6.86406576E-09
   8.18999958       8.75966855E-09
   8.25000000       1.07343769E-08
   8.31000042       1.26991324E-08
   8.36999989       1.45657344E-08
   8.43000031       1.62548535E-08
   8.48999977       1.77010850E-08
   8.55000019       1.88548928E-08
   8.60999966       1.96825045E-08
   8.67000008       2.01653449E-08
   8.72999954       2.03001971E-08
   8.78999996       2.01002806E-08
   8.85000038       1.95962127E-08
   8.90999985       1.88353173E-08
   8.97000027       1.78779143E-08
   9.02999973       1.67904357E-08
   9.09000015       1.56365765E-08
   9.14999962       1.44687604E-08
   9.21000004       1.33223566E-08
   9.27000046       1.22143549E-08
   9.32999992       1.11467502E-08
   9.39000034       1.01134434E-08
   9.44999981       9.10845177E-09
   9.51000023       8.13298850E-09
   9.56999969       7.19954674E-09
   9.63000011       6.33216102E-09
   9.68999958       5.56324364E-09
   9.75000000       4.92829555E-09
   9.81000042       4.46014603E-09
   9.86999989       4.18412549E-09
   9.93000031       4.11484313E-09
   9.98999977       4.25444391E-09
   10.0500002       4.59170790E-09
   10.1099997       5.10143439E-09
   10.1700001       5.74411230E-09
   10.2299995       6.46660636E-09
   10.2900000       7.20494153E-09
   10.3500004       7.88993137E-09
   10.4099998       8.45538306E-09
   10.4700003       8.84735751E-09
   10.5299997       9.03210662E-09
   10.5900002       9.00030894E-09
   10.6499996       8.76623840E-09
   10.7100000       8.36209857E-09
   10.7700005       7.82931142E-09
   10.8299999       7.20944815E-09
   10.8900003       6.53737997E-09
   10.9499998       5.83817528E-09
   11.0100002       5.12775467E-09
   11.0699997       4.41586634E-09
   11.1300001       3.70918118E-09
   11.1899996       3.01247649E-09
   11.2500000       2.32698505E-09
   11.3100004       1.64660185E-09
   11.3699999       9.54120005E-10
   11.4300003       2.20240604E-10
   11.4899998      -5.92586147E-10
   11.5500002      -1.52134561E-09
   11.6099997      -2.59089727E-09
   11.6700001      -3.80369514E-09
   11.7299995      -5.13506127E-09
   11.7900000      -6.53665566E-09
   11.8500004      -7.94777044E-09
   11.9099998      -9.31093247E-09
   11.9700003      -1.05863931E-08
   12.0299997      -1.17603278E-08
   12.0900002      -1.28438735E-08
   12.1499996      -1.38635929E-08
   12.2100000      -1.48471413E-08
   12.2700005      -1.58095101E-08
   12.3299999      -1.67447940E-08
   12.3900003      -1.76261956E-08
   12.4499998      -1.84139939E-08
   12.5100002      -1.90684393E-08
   12.5699997      -1.95630854E-08
   12.6300001      -1.98939727E-08
   12.6899996      -2.00814352E-08
   12.7500000      -2.01636006E-08
   12.8100004      -2.01831298E-08
   12.8699999      -2.01709476E-08
   12.9300003      -2.01319263E-08
   12.9899998      -2.00373336E-08
   13.0500002      -1.98271923E-08
   13.1099997      -1.94229468E-08
   13.1700001      -1.87475582E-08
   13.2299995      -1.77476185E-08
   13.2900000      -1.64108975E-08
   13.3500004      -1.47737147E-08
   13.4099998      -1.29152804E-08
   13.4700003      -1.09400311E-08
   13.5299997      -8.95266172E-09
   13.5900002      -7.03300618E-09
   13.6499996      -5.21819032E-09
   13.7100000      -3.49742302E-09
   13.7700005      -1.82105897E-09
   13.8299999      -1.21145996E-10
   13.8900003       1.66290015E-09
   13.9499998       3.56141339E-09
   14.0100002       5.56132695E-09
   14.0699997       7.60646834E-09
   14.1300001       9.61069535E-09
   14.1899996       1.14793623E-08
   14.2500000       1.31323512E-08
   14.3100004       1.45219259E-08
   14.3699999       1.56406941E-08
   14.4300003       1.65180989E-08
   14.4899998       1.72071353E-08
   14.5500002       1.77654229E-08
   14.6099997       1.82361095E-08
   14.6700001       1.86338092E-08
   14.7299995       1.89394918E-08
   14.7900000       1.91056682E-08
   14.8500004       1.90704377E-08
   14.9099998       1.87762659E-08
   14.9700003       1.81880360E-08
   15.0299997       1.73052097E-08
   15.0900002       1.61648241E-08
   15.1499996       1.48351127E-08
   15.2100000       1.34021274E-08
   15.2700005       1.19535439E-08
   15.3299999       1.05638449E-08
   15.3900003       9.28403310E-09
   15.4499998       8.13732548E-09
   15.5100002       7.12073733E-09
   15.5699997       6.21134966E-09
   15.6300001       5.37538991E-09
   15.6899996       4.57801130E-09
   15.7500000       3.79169851E-09
   15.8100004       3.00169822E-09
   15.8699999       2.20774665E-09
   15.9300003       1.42243262E-09
   15.9899998       6.67376987E-10
   16.0499992      -3.13251959E-11
   16.1100006      -6.47362441E-10
   16.1700001      -1.15789467E-09
   16.2299995      -1.54699997E-09
   16.2900009      -1.80925475E-09
   16.3500004      -1.95327932E-09
   16.4099998      -2.00433337E-09
   16.4699993      -2.00458006E-09
   16.5300007      -2.00982142E-09
   16.5900002      -2.08232676E-09
   16.6499996      -2.28057262E-09
   16.7099991      -2.64786837E-09
   16.7700005      -3.20258131E-09
   16.8299999      -3.93275235E-09
   16.8899994      -4.79715601E-09
   16.9500008      -5.73336489E-09
   17.0100002      -6.67139011E-09
   17.0699997      -7.54956808E-09
   17.1299992      -8.32833358E-09
   17.1900005      -8.99781405E-09
   17.2500000      -9.57701030E-09
   17.3099995      -1.01049960E-08
   17.3700008      -1.06271036E-08
   17.4300003      -1.11804104E-08
   17.4899998      -1.17826486E-08
   17.5499992      -1.24271136E-08
   17.6100006      -1.30840263E-08
   17.6700001      -1.37070586E-08
   17.7299995      -1.42427359E-08
   17.7900009      -1.46402916E-08
   17.8500004      -1.48599595E-08
   17.9099998      -1.48783768E-08
   17.9699993      -1.46906229E-08
   18.0300007      -1.43091992E-08
   18.0900002      -1.37610554E-08
   18.1499996      -1.30840583E-08
   18.2099991      -1.23240751E-08
   18.2700005      -1.15330065E-08
   18.3299999      -1.07672182E-08
   18.3899994      -1.00852153E-08
   18.4500008      -9.54367607E-09
   18.5100002      -9.19188192E-09
   18.5699997      -9.06560249E-09
   18.6299992      -9.18199383E-09
   18.6900005      -9.53676427E-09
   18.7500000      -1.01039213E-08
   18.8099995      -1.08375477E-08
   18.8700008      -1.16747483E-08
   18.9300003      -1.25392212E-08
   18.9899998      -1.33455442E-08
   19.0499992      -1.40045735E-08
   19.1100006      -1.44301380E-08
   19.1700001      -1.45465897E-08
   19.2299995      -1.42963668E-08
   19.2900009      -1.36467060E-08
   19.3500004      -1.25951392E-08
   19.4099998      -1.11736709E-08
   19.4699993      -9.45131262E-09
   19.5300007      -7.53377094E-09
   19.5900002      -5.55826363E-09
   19.6499996      -3.68152042E-09
   19.7099991      -2.06055328E-09
   19.7700005      -8.28474789E-10
   19.8299999      -7.03873557E-11
   19.8899994       1.94255390E-10
   19.9500008       1.72599504E-11
   20.0100002      -4.87293428E-10
   20.0699997      -1.16512655E-09
   20.1299992      -1.85173799E-09
   20.1900005      -2.40302933E-09
   20.2500000      -2.71940426E-09
   20.3099995      -2.75814505E-09
   20.3700008      -2.53205834E-09
   20.4300003      -2.09587747E-09
   20.4899998      -1.52492163E-09
   20.5499992      -8.92257934E-10
   20.6100006      -2.50676591E-10
   20.6700001       3.76033815E-10
   20.7299995       9.91194904E-10
   20.7900009       1.61494507E-09
   20.8500004       2.27033214E-09
   20.9099998       2.97122948E-09
   20.9699993       3.71606235E-09
   21.0300007       4.48854953E-09
   21.0900002       5.26384536E-09
   21.1499996       6.01676176E-09
   21.2099991       6.72865230E-09
   21.2700005       7.39070050E-09
   21.3299999       8.00294941E-09
   21.3899994       8.56981242E-09
   21.4500008       9.09358011E-09
   21.5100002       9.56784518E-09
   21.5699997       9.97283411E-09
   21.6299992       1.02743991E-08
   21.6900005       1.04277618E-08
   21.7500000       1.03857207E-08
   21.8099995       1.01094546E-08
   21.8700008       9.57873159E-09
   21.9300003       8.79813111E-09
   21.9899998       7.79699860E-09
   22.0499992       6.62295507E-09
   22.1100006       5.33094591E-09
   22.1700001       3.97114031E-09
   22.2299995       2.57899546E-09
   22.2900009       1.16976440E-09
   22.3500004      -2.61815569E-10
   22.4099998      -1.73724291E-09
   22.4699993      -3.28685390E-09
   22.5300007      -4.94118790E-09
   22.5900002      -6.72309142E-09
   22.6499996      -8.64232241E-09
   22.7099991      -1.06938112E-08
   22.7700005      -1.28597097E-08
   22.8299999      -1.51141286E-08
   22.8899994      -1.74286594E-08
   22.9500008      -1.97766195E-08
   23.0100002      -2.21348397E-08
   23.0699997      -2.44830787E-08
   23.1299992      -2.68022884E-08
   23.1900005      -2.90732203E-08
   23.2500000      -3.12763611E-08
   23.3099995      -3.33931744E-08
   23.3700008      -3.54076448E-08
   23.4300003      -3.73070286E-08
   23.4899998      -3.90809269E-08
   23.5499992      -4.07187635E-08
   23.6100006      -4.22063167E-08
   23.6700001      -4.35227498E-08
   23.7299995      -4.46396875E-08
   23.7900009      -4.55235991E-08
   23.8500004      -4.61420555E-08
   23.9099998      -4.64728771E-08
   23.9699993      -4.65136623E-08
   24.0300007      -4.62878660E-08
   24.0900002      -4.58439153E-08
   24.1499996      -4.52456490E-08
   24.2099991      -4.45557440E-08
   24.2700005      -4.38170318E-08
   24.3299999      -4.30383977E-08
   24.3899994      -4.21908446E-08
   24.4500008      -4.12161434E-08
   24.5100002      -4.00457836E-08
   24.5699997      -3.86244032E-08
   24.6299992      -3.69304765E-08
   24.6900005      -3.49880089E-08
   24.7500000      -3.28659837E-08
   24.8099995      -3.06657171E-08
   24.8700008      -2.84993771E-08
   24.9300003      -2.64650559E-08
   24.9899998      -2.46247129E-08
   25.0499992      -2.29910935E-08
   25.1100006      -2.15277822E-08
   25.1700001      -2.01631885E-08
   25.2299995      -1.88148448E-08
   25.2900009      -1.74166228E-08
   25.3500004      -1.59398255E-08
   25.4099998      -1.44009000E-08
   25.4699993      -1.28532092E-08
   25.5300007      -1.13663745E-08
   25.5900002      -1.00012514E-08
   25.6499996      -8.79004247E-09
   25.7099991      -7.72865150E-09
   25.7700005      -6.78346801E-09
   25.8299999      -5.90952354E-09
   25.8899994      -5.07327069E-09
   25.9500008      -4.27225277E-09
   26.0100002      -3.54531693E-09
   26.0699997      -2.97010194E-09
   26.1299992      -2.64811528E-09
   26.1900005      -2.68113087E-09
   26.2500000      -3.14522808E-09
   26.3099995      -4.06996303E-09
   26.3700008      -5.42937517E-09
   26.4300003      -7.14856530E-09
   26.4899998      -9.12492837E-09
   26.5499992      -1.12581660E-08
   26.6100006      -1.34797444E-08
   26.6700001      -1.57720610E-08
   26.7299995      -1.81706543E-08
   26.7900009      -2.07484856E-08
   26.8500004      -2.35874680E-08
   26.9099998      -2.67469655E-08
   26.9699993      -3.02399421E-08
   27.0300007      -3.40247865E-08
   27.0900002      -3.80153189E-08
   27.1499996      -4.21050323E-08
   27.2099991      -4.61969307E-08
   27.2700005      -5.02283015E-08
   27.3299999      -5.41820064E-08
   27.3899994      -5.80808113E-08
   27.4500008      -6.19676896E-08
   27.5100002      -6.58798953E-08
   27.5699997      -6.98269957E-08
   27.6299992      -7.37808179E-08
   27.6900005      -7.76806530E-08
   27.7500000      -8.14510486E-08
   27.8099995      -8.50247517E-08
   27.8700008      -8.83619009E-08
   27.9300003      -9.14582117E-08
   27.9899998      -9.43390432E-08
   28.0499992      -9.70416778E-08
   28.1100006      -9.95918015E-08
   28.1700001      -1.01982458E-07
   28.2299995      -1.04163135E-07
   28.2900009      -1.06043814E-07
   28.3500004      -1.07514303E-07
   28.4099998      -1.08474566E-07
   28.4699993      -1.08867262E-07
   28.5300007      -1.08701840E-07
   28.5900002      -1.08060782E-07
   28.6499996      -1.07083359E-07
   28.7099991      -1.05929615E-07
   28.7700005      -1.04734326E-07
   28.8299999      -1.03565704E-07
   28.8899994      -1.02402929E-07
   28.9500008      -1.01141289E-07
   29.0100002      -9.96244722E-08
   29.0699997      -9.76943184E-08
   29.1299992      -9.52423918E-08
   29.1900005      -9.22469070E-08
   29.2500000      -8.87836578E-08
   29.3099995      -8.50078976E-08
   29.3700008      -8.11131429E-08
   29.4300003      -7.72797435E-08
   29.4899998      -7.36284278E-08
   29.5499992      -7.01922147E-08
   29.6100006      -6.69144882E-08
   29.6700001      -6.36734043E-08
   29.7299995      -6.03253056E-08
   29.7900009      -5.67543736E-08
   29.8500004      -5.29136273E-08
   29.9099998      -4.88445728E-08
   29.9699993      -4.46691537E-08
   30.0300007      -4.05559248E-08
   30.0900002      -3.66708370E-08
   30.1499996      -3.31281846E-08
   30.2099991      -2.99576612E-08
   30.2700005      -2.70985012E-08
   30.3299999      -2.44227163E-08
   30.3899994      -2.17799148E-08
   30.4500008      -1.90488070E-08
   30.5100002      -1.61784168E-08
   30.5699997      -1.32055913E-08
   30.6299992      -1.02434896E-08
   30.6900005      -7.44542339E-09
   30.7500000      -4.95649832E-09
   30.8099995      -2.86915047E-09
   30.8700008      -1.19697929E-09
   30.9300003       1.25055133E-10
   30.9899998       1.21469090E-09
   31.0499992       2.19953322E-09
   31.1100006       3.17140647E-09
   31.1700001       4.15275281E-09
   31.2299995       5.08616926E-09
   31.2900009       5.85104631E-09
   31.3500004       6.30279917E-09
   31.4099998       6.32280495E-09
   31.4699993       5.86312598E-09
   31.5300007       4.97083841E-09
   31.5900002       3.78256981E-09
   31.6499996       2.48920373E-09
   31.7099991       1.28088573E-09
   31.7700005       2.89886226E-10
   31.8299999      -4.49337706E-10
   31.8899994      -1.00858932E-09
   31.9500008      -1.53903801E-09
   32.0099983      -2.21738805E-09
   32.0699997      -3.18310578E-09
   32.1300011      -4.48800996E-09
   32.1899986      -6.07537576E-09
   32.2500000      -7.79564324E-09
   32.3100014      -9.45355882E-09
   32.3699989      -1.08713447E-08
   32.4300003      -1.19474990E-08
   32.4900017      -1.26923831E-08
   32.5499992      -1.32289815E-08
   32.6100006      -1.37578535E-08
   32.6699982      -1.44961865E-08
   32.7299995      -1.56090856E-08
   32.7900009      -1.71543846E-08
   32.8499985      -1.90591170E-08
   32.9099998      -2.11367652E-08
   32.9700012      -2.31417285E-08
   33.0299988      -2.48449545E-08
   33.0900002      -2.61065800E-08
   33.1500015      -2.69211604E-08
   33.2099991      -2.74193184E-08
   33.2700005      -2.78241021E-08
   33.3300018      -2.83761246E-08
   33.3899994      -2.92527371E-08
   33.4500008      -3.05088932E-08
   33.5099983      -3.20598978E-08
   33.5699997      -3.37115367E-08
   33.6300011      -3.52266163E-08
   33.6899986      -3.64046002E-08
   33.7500000      -3.71470144E-08
   33.8100014      -3.74870908E-08
   33.8699989      -3.75746367E-08
   33.9300003      -3.76226694E-08
   33.9900017      -3.78344929E-08
   34.0499992      -3.83358909E-08
   34.1100006      -3.91343171E-08
   34.1699982      -4.01175733E-08
   34.2299995      -4.10913934E-08
   34.2900009      -4.18429096E-08
   34.3499985      -4.22091695E-08
   34.4099998      -4.21284447E-08
   34.4700012      -4.16580939E-08
   34.5299988      -4.09533243E-08
   34.5900002      -4.02139513E-08
   34.6500015      -3.96167721E-08
   34.7099991      -3.92560793E-08
   34.7700005      -3.91124111E-08
   34.8300018      -3.90603603E-08
   34.8899994      -3.89130435E-08
   34.9500008      -3.84880714E-08
   35.0099983      -3.76722440E-08
   35.0699997      -3.64624277E-08
   35.1300011      -3.49686751E-08
   35.1899986      -3.33787362E-08
   35.2500000      -3.18968922E-08
   35.3100014      -3.06784713E-08
   35.3699989      -2.97823437E-08
   35.4300003      -2.91567552E-08
   35.4900017      -2.86619084E-08
   35.5499992      -2.81205068E-08
   35.6100006      -2.73787109E-08
   35.6699982      -2.63575668E-08
   35.7299995      -2.50788510E-08
   35.7900009      -2.36579218E-08
   35.8499985      -2.22665051E-08
   35.9099998      -2.10775983E-08
   35.9700012      -2.02099297E-08
   36.0299988      -1.96897769E-08
   36.0900002      -1.94426679E-08
   36.1500015      -1.93182181E-08
   36.2099991      -1.91406979E-08
   36.2700005      -1.87690308E-08
   36.3300018      -1.81461974E-08
   36.3899994      -1.73210637E-08
   36.4500008      -1.64348180E-08
   36.5099983      -1.56763917E-08
   36.5699997      -1.52222075E-08
   36.6300011      -1.51809445E-08
   36.6899986      -1.55618558E-08
   36.7500000      -1.62763136E-08
   36.8100014      -1.71702617E-08
   36.8699989      -1.80746493E-08
   36.9300003      -1.88558307E-08
   36.9900017      -1.94493843E-08
   37.0499992      -1.98682084E-08
   37.1100006      -2.01852206E-08
   37.1699982      -2.04992947E-08
   37.2299995      -2.08973265E-08
   37.2900009      -2.14247571E-08
   37.3499985      -2.20725784E-08
   37.4099998      -2.27828352E-08
   37.4700012      -2.34688748E-08
   37.5299988      -2.40428388E-08
   37.5900002      -2.44414124E-08
   37.6500015      -2.46421124E-08
   37.7099991      -2.46653933E-08
   37.7700005      -2.45625156E-08
   37.8300018      -2.43936533E-08
   37.8899994      -2.42041409E-08
   37.9500008      -2.40076403E-08
   38.0099983      -2.37824711E-08
   38.0699997      -2.34823396E-08
   38.1300011      -2.30568755E-08
   38.1899986      -2.24732606E-08
   38.2500000      -2.17297842E-08
   38.3100014      -2.08558859E-08
   38.3699989      -1.98993249E-08
   38.4300003      -1.89068530E-08
   38.4900017      -1.79074249E-08
   38.5499992      -1.69053038E-08
   38.6100006      -1.58854014E-08
   38.6699982      -1.48273971E-08
   38.7299995      -1.37213716E-08
   38.7900009      -1.25776474E-08
   38.8499985      -1.14267307E-08
   38.9099998      -1.03101154E-08
   38.9700012      -9.26651023E-09
   39.0299988      -8.31947045E-09
   39.0900002      -7.47108064E-09
   39.1500015      -6.70338718E-09
   39.2099991      -5.98628391E-09
   39.2700005      -5.28868505E-09
   39.3300018      -4.58940574E-09
   39.3899994      -3.88482846E-09
   39.4500008      -3.19155902E-09
   39.5099983      -2.54340748E-09
   39.5699997      -1.98321404E-09
   39.6300011      -1.55126945E-09
   39.6899986      -1.27332378E-09
   39.7500000      -1.15192589E-09
   39.8100014      -1.16444376E-09
   39.8699989      -1.26928368E-09
   39.9300003      -1.41886536E-09
   39.9900017      -1.57496216E-09
   40.0499992      -1.72049752E-09
   40.1100006      -1.86282412E-09
   40.1699982      -2.02685202E-09
   40.2299995      -2.24084173E-09
   40.2900009      -2.52121035E-09
   40.3499985      -2.86348434E-09
   40.4099998      -3.24396221E-09
   40.4700012      -3.63171959E-09
   40.5299988      -4.00555411E-09
   40.5900002      -4.36779324E-09
   40.6500015      -4.74795092E-09
   40.7099991      -5.19367260E-09
   40.7700005      -5.75219206E-09
   40.8300018      -6.44997122E-09
   40.8899994      -7.27920746E-09
   40.9500008      -8.19711499E-09
   41.0099983      -9.13855125E-09
   41.0699997      -1.00371285E-08
   41.1300011      -1.08466880E-08
   41.1899986      -1.15550227E-08
   41.2500000      -1.21848629E-08
   41.3100014      -1.27818858E-08
   41.3699989      -1.33940841E-08
   41.4300003      -1.40498333E-08
   41.4900017      -1.47425192E-08
   41.5499992      -1.54277124E-08
   41.6100006      -1.60349849E-08
   41.6699982      -1.64915335E-08
   41.7299995      -1.67502918E-08
   41.7900009      -1.68124661E-08
   41.8499985      -1.67350489E-08
   41.9099998      -1.66180865E-08
   41.9700012      -1.65736402E-08
   42.0299988      -1.66858012E-08
   42.0900002      -1.69759335E-08
   42.1500015      -1.73869843E-08
   42.2099991      -1.77946156E-08
   42.2700005      -1.80431599E-08
   42.3300018      -1.79947328E-08
   42.3899994      -1.75743597E-08
   42.4500008      -1.67951502E-08
   42.5099983      -1.57548392E-08
   42.5699997      -1.46054768E-08
   42.6300011      -1.35074476E-08
   42.6899986      -1.25836568E-08
   42.7500000      -1.18884458E-08
   42.8100014      -1.13996590E-08
   42.8699989      -1.10342357E-08
   42.9300003      -1.06806164E-08
   42.9900017      -1.02372875E-08
   43.0499992      -9.64628200E-09
   43.1100006      -8.91276386E-09
   43.1699982      -8.10577383E-09
   43.2299995      -7.33991667E-09
   43.2900009      -6.74249501E-09
   43.3499985      -6.41475451E-09
   43.4099998      -6.39842934E-09
   43.4700012      -6.65856970E-09
   43.5299988      -7.08980830E-09
   43.5900002      -7.54621166E-09
   43.6500015      -7.88656429E-09
   43.7099991      -8.02044209E-09
   43.7700005      -7.93879540E-09
   43.8300018      -7.71739828E-09
   43.8899994      -7.49113749E-09
   43.9500008      -7.40815986E-09
   44.0099983      -7.58070229E-09
   44.0699997      -8.05050870E-09
   44.1300011      -8.78067130E-09
   44.1899986      -9.67509184E-09
   44.2500000      -1.06163496E-08
   44.3100014      -1.15068257E-08
   44.3699989      -1.22985320E-08
   44.4300003      -1.30030733E-08
   44.4900017      -1.36812597E-08
   44.5499992      -1.44184167E-08
   44.6100006      -1.52945034E-08
   44.6699982      -1.63577027E-08
   44.7299995      -1.76079080E-08
   44.7900009      -1.89937275E-08
   44.8499985      -2.04241388E-08
   44.9099998      -2.17928022E-08
   44.9700012      -2.30096315E-08
   45.0299988      -2.40304203E-08
   45.0900002      -2.48739251E-08
   45.1500015      -2.56180623E-08
   45.2099991      -2.63738382E-08
   45.2700005      -2.72446901E-08
   45.3300018      -2.82862462E-08
   45.3899994      -2.94830098E-08
   45.4500008      -3.07524175E-08
   45.5099983      -3.19754285E-08
   45.5699997      -3.30412462E-08
   45.6300011      -3.38875985E-08
   45.6899986      -3.45202125E-08
   45.7500000      -3.50046214E-08
   45.8100014      -3.54356047E-08
   45.8699989      -3.58985162E-08
   45.9300003      -3.64387631E-08
   45.9900017      -3.70502775E-08
   46.0499992      -3.76847815E-08
   46.1100006      -3.82751324E-08
   46.1699982      -3.87623480E-08
   46.2299995      -3.91169230E-08
   46.2900009      -3.93495405E-08
   46.3499985      -3.95106028E-08
   46.4099998      -3.96804616E-08
   46.4700012      -3.99527629E-08
   46.5299988      -4.04135037E-08
   46.5900002      -4.11194847E-08
   46.6500015      -4.20820783E-08
   46.7099991      -4.32634337E-08
   46.7700005      -4.45902124E-08
   46.8300018      -4.59841267E-08
   46.8899994      -4.74007713E-08
   46.9500008      -4.88627947E-08
   47.0099983      -5.04737727E-08
   47.0699997      -5.24065413E-08
   47.1300011      -5.48707710E-08
   47.1899986      -5.80740362E-08
   47.2500000      -6.21932443E-08
   47.3100014      -6.73678073E-08
   47.3699989      -7.37154835E-08
   47.4300003      -8.13618257E-08
   47.4900017      -9.04702375E-08
   47.5499992      -1.01262749E-07
   47.6100006      -1.14029092E-07
   47.6699982      -1.29128509E-07
   47.7299995      -1.46991013E-07
   47.7900009      -1.68122057E-07
   47.8499985      -1.93109472E-07
   47.9099998      -2.22629069E-07
   47.9700012      -2.57446430E-07
   48.0299988      -2.98417064E-07
   48.0900002      -3.46490850E-07
   48.1500015      -4.02727693E-07
   48.2099991      -4.68325425E-07
   48.2700005      -5.44655791E-07
   48.3300018      -6.33298214E-07
   48.3899994      -7.36063214E-07
   48.4500008      -8.55001929E-07
   48.5099983      -9.92406740E-07
   48.5699997      -1.15081377E-06
   48.6300011      -1.33301739E-06
   48.6899986      -1.54210056E-06
   48.7500000      -1.78147775E-06
   48.8100014      -2.05494325E-06
   48.8699989      -2.36671190E-06
   48.9300003      -2.72145394E-06
   48.9900017      -3.12431803E-06
   49.0499992      -3.58095508E-06
   49.1100006      -4.09754284E-06
   49.1699982      -4.68081544E-06
   49.2299995      -5.33808452E-06
   49.2900009      -6.07725769E-06
   49.3499985      -6.90684419E-06
   49.4099998      -7.83595806E-06
   49.4700012      -8.87432270E-06
   49.5299988      -1.00322977E-05
   49.5900002      -1.13209062E-05
   49.6500015      -1.27518742E-05
   49.7099991      -1.43376556E-05
   49.7700005      -1.60914315E-05
   49.8300018      -1.80270818E-05
   49.8899994      -2.01591429E-05
   49.9500008      -2.25027361E-05
   50.0099983      -2.50735266E-05
   50.0699997      -2.78876541E-05
   50.1300011      -3.09616989E-05
   50.1899986      -3.43126085E-05
   50.2500000      -3.79576159E-05
   50.3100014      -4.19141688E-05
   50.3699989      -4.61998025E-05
   50.4300003      -5.08320081E-05
   50.4900017      -5.58281426E-05
   50.5499992      -6.12052900E-05
   50.6100006      -6.69800938E-05