 -0.750000000       0.00000000    
 -0.689999998       0.00000000    
 -0.629999995       0.00000000    
 -0.569999993       0.00000000    
 -0.509999990       0.00000000    
 -0.449999988       6.00168366E-21
 -0.389999986       5.09225471E-20
 -0.330000013       2.20223009E-19
 -0.270000011       6.27182196E-19
 -0.209999993       1.24907726E-18
 -0.150000006       1.58589011E-18
  -9.00000036E-02   2.89507967E-19
  -2.99999993E-02  -4.82148028E-18
   2.99999993E-02  -1.58020266E-17
   9.00000036E-02  -3.23666443E-17
  0.150000006      -4.88926277E-17
  0.209999993      -5.22136222E-17
  0.270000011      -2.26019277E-17
  0.330000013       5.98721732E-17
  0.389999986       2.03152607E-16
  0.449999988       3.87824517E-16
  0.509999990       5.54696043E-16
  0.569999993       6.03855770E-16
  0.629999995       4.13373836E-16
  0.689999998      -1.18480031E-16
  0.750000000      -1.01215270E-15
  0.810000002      -2.14306027E-15
  0.870000005      -3.20271585E-15
  0.930000007      -3.71785630E-15
  0.990000010      -3.15387996E-15
   1.04999995      -1.10477724E-15
   1.11000001       2.46832156E-15
   1.16999996       7.03244827E-15
   1.23000002       1.14221944E-14
   1.28999996       1.40201148E-14
   1.35000002       1.32061830E-14
   1.40999997       7.98930200E-15
   1.47000003      -1.38759032E-15
   1.52999997      -1.31446639E-14
   1.59000003      -2.41972055E-14
   1.64999998      -3.09831235E-14
   1.71000004      -3.06895080E-14
   1.76999998      -2.24433983E-14
   1.83000004      -7.93789642E-15
   1.88999999       8.89730777E-15
   1.95000005       2.32109457E-14
   2.00999999       3.11039714E-14
   2.06999993       3.12878114E-14
   2.13000011       2.57128743E-14
   2.19000006       1.87029330E-14
   2.25000000       1.47751227E-14
   2.30999994       1.60023328E-14
   2.36999989       2.01620947E-14
   2.43000007       2.07819669E-14
   2.49000001       9.51680649E-15
   2.54999995      -1.96886337E-14
   2.60999990      -6.60957563E-14
   2.67000008      -1.19199152E-13
   2.73000002      -1.58917787E-13
   2.78999996      -1.59736672E-13
   2.84999990      -9.84164329E-14
   2.91000009       3.62634049E-14
   2.97000003       2.34140967E-13
   3.02999997       4.57588177E-13
   3.08999991       6.41676545E-13
   3.15000010       7.03088358E-13
   3.21000004       5.58996697E-13
   3.26999998       1.54751795E-13
   3.32999992      -5.04305148E-13
   3.39000010      -1.32559979E-12
   3.45000005      -2.11843325E-12
   3.50999999      -2.61134734E-12
   3.56999993      -2.50510203E-12
   3.63000011      -1.55890177E-12
   3.69000006       3.05721187E-13
   3.75000000       2.91185869E-12
   3.80999994       5.78090137E-12
   3.86999989       8.16603035E-12
   3.93000007       9.18336154E-12
   3.99000001       8.03255292E-12
   4.05000019       4.26774024E-12
   4.11000013      -1.94735222E-12
   4.17000008      -9.68027394E-12
   4.23000002      -1.72406898E-11
   4.28999996      -2.24070242E-11
   4.34999990      -2.28682299E-11
   4.40999985      -1.68243058E-11
   4.46999979      -3.63719211E-12
   4.53000021       1.56114722E-11
   4.59000015       3.78064906E-11
   4.65000010       5.78541763E-11
   4.71000004       6.91733129E-11
   4.76999998       6.46076040E-11
   4.82999992       3.76545635E-11
   4.88999987      -1.61764924E-11
   4.94999981      -9.81206574E-11
   5.01000023      -2.05285761E-10
   5.07000017      -3.30376948E-10
   5.13000011      -4.62159006E-10
   5.19000006      -5.86678317E-10
   5.25000000      -6.89128976E-10
   5.30999994      -7.56117668E-10
   5.36999989      -7.77987841E-10
   5.42999983      -7.50827733E-10
   5.48999977      -6.77822354E-10
   5.55000019      -5.69713665E-10
   5.61000013      -4.44287412E-10
   5.67000008      -3.24981458E-10
   5.73000002      -2.38863401E-10
   5.78999996      -2.14327403E-10
   5.84999990      -2.78874368E-10
   5.90999985      -4.57272553E-10
   5.96999979      -7.70255304E-10
   6.03000021      -1.23374133E-09
   6.09000015      -1.85841298E-09
   6.15000010      -2.64940492E-09
   6.21000004      -3.60587471E-09
   6.26999998      -4.72035655E-09
   6.32999992      -5.97798966E-09
   6.38999987      -7.35591499E-09
   6.44999981      -8.82326479E-09
   6.51000023      -1.03421423E-08
   6.57000017      -1.18698047E-08
   6.63000011      -1.33619498E-08
   6.69000006      -1.47766146E-08
   6.75000000      -1.60779425E-08
   6.80999994      -1.72389925E-08
   6.86999989      -1.82429201E-08
   6.92999983      -1.90823322E-08
   6.98999977      -1.97571186E-08
   7.05000019      -2.02715231E-08
   7.11000013      -2.06314663E-08
   7.17000008      -2.08429967E-08
   7.23000002      -2.09123225E-08
   7.28999996      -2.08472937E-08
   7.34999990      -2.06596429E-08
   7.40999985      -2.03669526E-08
   7.46999979      -1.99933474E-08
   7.53000021      -1.95683114E-08
   7.59000015      -1.91235277E-08
   7.65000010      -1.86883931E-08
   7.71000004      -1.82851778E-08
   7.76999998      -1.79251334E-08
   7.82999992      -1.76066184E-08
   7.88999987      -1.73159123E-08
   7.94999981      -1.70307644E-08
   8.01000023      -1.67260588E-08
   8.06999969      -1.63803922E-08
   8.13000011      -1.59821330E-08
   8.18999958      -1.55335105E-08
   8.25000000      -1.50518726E-08
   8.31000042      -1.45677923E-08
   8.36999989      -1.41206771E-08
   8.43000031      -1.37530414E-08
   8.48999977      -1.35049536E-08
   8.55000019      -1.34099327E-08
   8.60999966      -1.34930058E-08
   8.67000008      -1.37708618E-08
   8.72999954      -1.42533105E-08
   8.78999996      -1.49448915E-08
   8.85000038      -1.58455045E-08
   8.90999985      -1.69494214E-08
   8.97000027      -1.82428028E-08
   9.02999973      -1.97005434E-08
   9.09000015      -2.12838511E-08
   9.14999962      -2.29400641E-08
   9.21000004      -2.46057468E-08
   9.27000046      -2.62133391E-08
   9.32999992      -2.77004606E-08
   9.39000034      -2.90200202E-08
   9.44999981      -3.01485947E-08
   9.51000023      -3.10906678E-08
   9.56999969      -3.18770432E-08
   9.63000011      -3.25572955E-08
   9.68999958      -3.31876677E-08
   9.75000000      -3.38172832E-08
   9.81000042      -3.44761908E-08
   9.86999989      -3.51682630E-08
   9.93000031      -3.58708689E-08
   9.98999977      -3.65412021E-08
   10.0500002      -3.71273927E-08
   10.1099997      -3.75812519E-08
   10.1700001      -3.78690643E-08
   10.2299995      -3.79777099E-08
   10.2900000      -3.79145000E-08
   10.3500004      -3.77011560E-08
   10.4099998      -3.73636162E-08
   10.4700003      -3.69206070E-08
   10.5299997      -3.63738870E-08
   10.5900002      -3.57027865E-08
   10.6499996      -3.48644242E-08
   10.7100000      -3.37996973E-08
   10.7700005      -3.24438076E-08
   10.8299999      -3.07389172E-08
   10.8900003      -2.86461503E-08
   10.9499998      -2.61541153E-08
   11.0100002      -2.32819897E-08
   11.0699997      -2.00764028E-08
   11.1300001      -1.66028489E-08
   11.1899996      -1.29337634E-08
   11.2500000      -9.13617448E-09
   11.3100004      -5.26204635E-09
   11.3699999      -1.34363742E-09
   11.4300003       2.60509125E-09
   11.4899998       6.58166099E-09
   11.5500002       1.05849605E-08
   11.6099997       1.46047938E-08
   11.6700001       1.86141573E-08
   11.7299995       2.25664643E-08
   11.7900000       2.63985918E-08
   11.8500004       3.00389615E-08
   11.9099998       3.34185550E-08
   11.9700003       3.64819144E-08
   12.0299997       3.91952035E-08
   12.0900002       4.15492316E-08
   12.1499996       4.35566463E-08
   12.2100000       4.52441746E-08
   12.2700005       4.66421497E-08
   12.3299999       4.77742716E-08
   12.3900003       4.86506053E-08
   12.4499998       4.92658003E-08
   12.5100002       4.96030026E-08
   12.5699997       4.96420824E-08
   12.6300001       4.93695858E-08
   12.6899996       4.87870082E-08
   12.7500000       4.79146607E-08
   12.8100004       4.67895482E-08
   12.8699999       4.54577780E-08
   12.9300003       4.39635954E-08
   12.9899998       4.23384598E-08
   13.0500002       4.05935872E-08
   13.1099997       3.87183938E-08
   13.1700001       3.66856412E-08
   13.2299995       3.44618947E-08
   13.2900000       3.20203810E-08
   13.3500004       2.93524014E-08
   13.4099998       2.64738187E-08
   13.4700003       2.34244748E-08
   13.5299997       2.02604831E-08
   13.5900002       1.70415628E-08
   13.6499996       1.38172016E-08
   13.7100000       1.06160041E-08
   13.7700005       7.44173967E-09
   13.8299999       4.27759783E-09
   13.8900003       1.09749931E-09
   13.9499998      -2.11911089E-09
   14.0100002      -5.37390576E-09
   14.0699997      -8.64241745E-09
   14.1300001      -1.18756196E-08
   14.1899996      -1.50101762E-08
   14.2500000      -1.79841724E-08
   14.3100004      -2.07531290E-08
   14.3699999      -2.33008706E-08
   14.4300003      -2.56414872E-08
   14.4899998      -2.78116321E-08
   14.5500002      -2.98556877E-08
   14.6099997      -3.18088205E-08
   14.6700001      -3.36836656E-08
   14.7299995      -3.54649607E-08
   14.7900000      -3.71138427E-08
   14.8500004      -3.85800440E-08
   14.9099998      -3.98176354E-08
   14.9700003      -4.07988630E-08
   15.0299997      -4.15214352E-08
   15.0900002      -4.20069775E-08
   15.1499996      -4.22915072E-08
   15.2100000      -4.24114219E-08
   15.2700005      -4.23898392E-08
   15.3299999      -4.22280593E-08
   15.3900003      -4.19050146E-08
   15.4499998      -4.13849968E-08
   15.5100002      -4.06314449E-08
   15.5699997      -3.96226447E-08
   15.6300001      -3.83647141E-08
   15.6899996      -3.68979549E-08
   15.7500000      -3.52945513E-08
   15.8100004      -3.36478223E-08
   15.8699999      -3.20556914E-08
   15.9300003      -3.06023225E-08
   15.9899998      -2.93427131E-08
   16.0499992      -2.82940213E-08
   16.1100006      -2.74358580E-08
   16.1700001      -2.67192863E-08
   16.2299995      -2.60819828E-08
   16.2900009      -2.54653809E-08
   16.3500004      -2.48292231E-08
   16.4099998      -2.41598013E-08
   16.4699993      -2.34701520E-08
   16.5300007      -2.27928787E-08
   16.5900002      -2.21682370E-08
   16.6499996      -2.16312781E-08
   16.7099991      -2.12017444E-08
   16.7700005      -2.08792059E-08
   16.8299999      -2.06441726E-08
   16.8899994      -2.04641619E-08
   16.9500008      -2.03024229E-08
   17.0100002      -2.01266204E-08
   17.0699997      -1.99151433E-08
   17.1299992      -1.96597156E-08
   17.1900005      -1.93641831E-08
   17.2500000      -1.90403959E-08
   17.3099995      -1.87027762E-08
   17.3700008      -1.83632007E-08
   17.4300003      -1.80275048E-08
   17.4899998      -1.76941590E-08
   17.5499992      -1.73549726E-08
   17.6100006      -1.69971948E-08
   17.6700001      -1.66061227E-08
   17.7299995      -1.61674460E-08
   17.7900009      -1.56689417E-08
   17.8500004      -1.51013193E-08
   17.9099998      -1.44584478E-08
   17.9699993      -1.37371465E-08
   18.0300007      -1.29368933E-08
   18.0900002      -1.20597150E-08
   18.1499996      -1.11105223E-08
   18.2099991      -1.00979891E-08
   18.2700005      -9.03582897E-09
   18.3299999      -7.94396549E-09
   18.3899994      -6.84884283E-09
   18.4500008      -5.78210901E-09
   18.5100002      -4.77735229E-09
   18.5699997      -3.86532761E-09
   18.6299992      -3.06895043E-09
   18.6900005      -2.39978637E-09
   18.7500000      -1.85751203E-09
   18.8099995      -1.43284107E-09
   18.8700008      -1.11300513E-09
   18.9300003      -8.87701690E-10
   18.9899998      -7.53004548E-10
   19.0499992      -7.11373238E-10
   19.1100006      -7.67408082E-10
   19.1700001      -9.20730769E-10
   19.2299995      -1.15864451E-09
   19.2900009      -1.45148893E-09
   19.3500004      -1.75276538E-09
   19.4099998      -2.00454586E-09
   19.4699993      -2.14698814E-09
   19.5300007      -2.12957718E-09
   19.5900002      -1.92130689E-09
   19.6499996      -1.51741930E-09
   19.7099991      -9.41294376E-10
   19.7700005      -2.41267256E-10
   19.8299999       5.16722887E-10
   19.8899994       1.25889321E-09
   19.9500008       1.91356619E-09
   20.0100002       2.41913956E-09
   20.0699997       2.72850587E-09
   20.1299992       2.80945622E-09
   20.1900005       2.64192579E-09
   20.2500000       2.21409158E-09
   20.3099995       1.51981483E-09
   20.3700008       5.59435720E-10
   20.4300003      -6.55466403E-10
   20.4899998      -2.09459960E-09
   20.5499992      -3.70166431E-09
   20.6100006      -5.39079759E-09
   20.6700001      -7.04970438E-09
   20.7299995      -8.55058602E-09
   20.7900009      -9.76754322E-09
   20.8500004      -1.05969100E-08
   20.9099998      -1.09757377E-08
   20.9699993      -1.08938343E-08
   21.0300007      -1.03962181E-08
   21.0900002      -9.57525881E-09
   21.1499996      -8.55421867E-09
   21.2099991      -7.46589102E-09
   21.2700005      -6.43094955E-09
   21.3299999      -5.54033930E-09
   21.3899994      -4.84476903E-09
   21.4500008      -4.35245484E-09
   21.5100002      -4.03429734E-09
   21.5699997      -3.83409704E-09
   21.6299992      -3.68068109E-09
   21.6900005      -3.49898954E-09
   21.7500000      -3.21814264E-09
   21.8099995      -2.77594125E-09
   21.8700008      -2.12060103E-09
   21.9300003      -1.21136723E-09
   21.9899998      -1.96981442E-11
   22.0499992       1.46802059E-09
   22.1100006       3.24645466E-09
   22.1700001       5.28739630E-09
   22.2299995       7.53797025E-09
   22.2900009       9.92284477E-09
   22.3500004       1.23512969E-08
   22.4099998       1.47284940E-08
   22.4699993       1.69688725E-08
   22.5300007       1.90085263E-08
   22.5900002       2.08135233E-08
   22.6499996       2.23819736E-08
   22.7099991       2.37392630E-08
   22.7700005       2.49276262E-08
   22.8299999       2.59927635E-08
   22.8899994       2.69707616E-08
   22.9500008       2.78784462E-08
   23.0100002       2.87091577E-08
   23.0699997       2.94344673E-08
   23.1299992       3.00106997E-08
   23.1900005       3.03880583E-08
   23.2500000       3.05196330E-08
   23.3099995       3.03679926E-08
   23.3700008       2.99080831E-08
   23.4300003       2.91265163E-08
   23.4899998       2.80184196E-08
   23.5499992       2.65838338E-08
   23.6100006       2.48253720E-08
   23.6700001       2.27481127E-08
   23.7299995       2.03615791E-08
   23.7900009       1.76826074E-08
   23.8500004       1.47374735E-08
   23.9099998       1.15618644E-08
   23.9699993       8.19816659E-09
   24.0300007       4.69059191E-09
   24.0900002       1.07948617E-09
   24.1499996      -2.60355848E-09
   24.2099991      -6.33851549E-09
   24.2700005      -1.01171418E-08
   24.3299999      -1.39408929E-08
   24.3899994      -1.78173689E-08
   24.4500008      -2.17562803E-08
   24.5100002      -2.57657362E-08
   24.5699997      -2.98493141E-08
   24.6299992      -3.40041133E-08
   24.6900005      -3.82198451E-08
   24.7500000      -4.24789910E-08
   24.8099995      -4.67580108E-08
   24.8700008      -5.10295024E-08
   24.9300003      -5.52649126E-08
   24.9899998      -5.94372800E-08
   25.0499992      -6.35234585E-08
   25.1100006      -6.75053329E-08
   25.1700001      -7.13700032E-08
   25.2299995      -7.51091278E-08
   25.2900009      -7.87180525E-08
   25.3500004      -8.21950721E-08
   25.4099998      -8.55410249E-08
   25.4699993      -8.87591654E-08
   25.5300007      -9.18545382E-08
   25.5900002      -9.48325294E-08
   25.6499996      -9.76961161E-08
   25.7099991      -1.00442087E-07
   25.7700005      -1.03056855E-07
   25.8299999      -1.05513188E-07
   25.8899994      -1.07768813E-07
   25.9500008      -1.09768003E-07
   26.0100002      -1.11446241E-07
   26.0699997      -1.12737510E-07
   26.1299992      -1.13582850E-07
   26.1900005      -1.13938739E-07
   26.2500000      -1.13783457E-07
   26.3099995      -1.13120088E-07
   26.3700008      -1.11975623E-07
   26.4300003      -1.10396115E-07
   26.4899998      -1.08438783E-07
   26.5499992      -1.06162695E-07
   26.6100006      -1.03619826E-07
   26.6700001      -1.00848517E-07
   26.7299995      -9.78706112E-08
   26.7900009      -9.46931493E-08
   26.8500004      -9.13139431E-08
   26.9099998      -8.77296316E-08
   26.9699993      -8.39437746E-08
   27.0300007      -7.99727644E-08
   27.0900002      -7.58475878E-08
   27.1499996      -7.16112183E-08
   27.2099991      -6.73121860E-08
   27.2700005      -6.29969819E-08
   27.3299999      -5.87034457E-08
   27.3899994      -5.44577929E-08
   27.4500008      -5.02757302E-08
   27.5100002      -4.61673402E-08
   27.5699997      -4.21435331E-08
   27.6299992      -3.82215255E-08
   27.6900005      -3.44272344E-08
   27.7500000      -3.07936432E-08
   27.8099995      -2.73558580E-08
   27.8700008      -2.41447484E-08
   27.9300003      -2.11815969E-08
   27.9899998      -1.84757063E-08
   28.0499992      -1.60256963E-08
   28.1100006      -1.38238514E-08
   28.1700001      -1.18618395E-08
   28.2299995      -1.01357935E-08
   28.2900009      -8.64924043E-09
   28.3500004      -7.41336725E-09
   28.4099998      -6.44509068E-09
   28.4699993      -5.76396397E-09
   28.5300007      -5.38903855E-09
   28.5900002      -5.33626610E-09
   28.6499996      -5.61651081E-09
   28.7099991      -6.23387564E-09
   28.7700005      -7.18409421E-09
   28.8299999      -8.45312798E-09
   28.8899994      -1.00164792E-08
   28.9500008      -1.18398846E-08
   29.0100002      -1.38817420E-08
   29.0699997      -1.60970473E-08
   29.1299992      -1.84420248E-08
   29.1900005      -2.08783302E-08
   29.2500000      -2.33758808E-08
   29.3099995      -2.59139394E-08
   29.3700008      -2.84805726E-08
   29.4300003      -3.10710533E-08
   29.4899998      -3.36857475E-08
   29.5499992      -3.63277017E-08
   29.6100006      -3.89999144E-08
   29.6700001      -4.17023109E-08
   29.7299995      -4.44286314E-08
   29.7900009      -4.71641073E-08
   29.8500004      -4.98849033E-08
   29.9099998      -5.25602069E-08
   29.9699993      -5.51568533E-08
   30.0300007      -5.76454546E-08
   30.0900002      -6.00058883E-08
   30.1499996      -6.22300576E-08
   30.2099991      -6.43204316E-08
   30.2700005      -6.62844144E-08
   30.3299999      -6.81263970E-08
   30.3899994      -6.98400839E-08
   30.4500008      -7.14042443E-08
   30.5100002      -7.27835356E-08
   30.5699997      -7.39344017E-08
   30.6299992      -7.48144586E-08
   30.6900005      -7.53921867E-08
   30.7500000      -7.56541141E-08
   30.8099995      -7.56074741E-08
   30.8700008      -7.52776117E-08
   30.9300003      -7.47014894E-08
   30.9899998      -7.39190611E-08
   31.0499992      -7.29650580E-08
   31.1100006      -7.18628357E-08
   31.1700001      -7.06214678E-08
   31.2299995      -6.92361652E-08
   31.2900009      -6.76915377E-08
   31.3500004      -6.59668160E-08
   31.4099998      -6.40418918E-08
   31.4699993      -6.19031510E-08
   31.5300007      -5.95480181E-08
   31.5900002      -5.69873428E-08
   31.6499996      -5.42453051E-08
   31.7099991      -5.13567819E-08
   31.7700005      -4.83628817E-08
   31.8299999      -4.53057396E-08
   31.8899994      -4.22238138E-08
   31.9500008      -3.91486878E-08
   32.0099983      -3.61038808E-08
   32.0699997      -3.31054153E-08
   32.1300011      -3.01635161E-08
   32.1899986      -2.72845604E-08
   32.2500000      -2.44725680E-08
   32.3100014      -2.17300293E-08
   32.3699989      -1.90582643E-08
   32.4300003      -1.64577951E-08
   32.4900017      -1.39291476E-08
   32.5499992      -1.14740955E-08
   32.6100006      -9.09696229E-09
   32.6699982      -6.80528256E-09
   32.7299995      -4.60920546E-09
   32.7900009      -2.51947663E-09
   32.8499985      -5.44502554E-10
   32.9099998       1.31243838E-09
   32.9700012       3.05459413E-09
   33.0299988       4.69089434E-09
   33.0900002       6.23284757E-09
   33.1500015       7.69013475E-09
   33.2099991       9.06653241E-09
   33.2700005       1.03578044E-08
   33.3300018       1.15525483E-08
   33.3899994       1.26357875E-08
   33.4500008       1.35939544E-08
   33.5099983       1.44192640E-08
   33.5699997       1.51116080E-08
   33.6300011       1.56770579E-08
   33.6899986       1.61233853E-08
   33.7500000       1.64542513E-08
   33.8100014       1.66642931E-08
   33.8699989       1.67370899E-08
   33.9300003       1.66470517E-08
   33.9900017       1.63648455E-08
   34.0499992       1.58648383E-08
   34.1100006       1.51323150E-08
   34.1699982       1.41683199E-08
   34.2299995       1.29907383E-08
   34.2900009       1.16313865E-08
   34.3499985       1.01300923E-08
   34.4099998       8.52762039E-09
   34.4700012       6.85957113E-09
   34.5299988       5.15297005E-09
   34.5900002       3.42633566E-09
   34.6500015       1.69276060E-09
   34.7099991      -3.55149868E-11
   34.7700005      -1.74313752E-09
   34.8300018      -3.41016504E-09
   34.8899994      -5.01403008E-09
   34.9500008      -6.53451915E-09
   35.0099983      -7.96001842E-09
   35.0699997      -9.29259958E-09
   35.1300011      -1.05496794E-08
   35.1899986      -1.17611219E-08
   35.2500000      -1.29622553E-08
   35.3100014      -1.41848560E-08
   35.3699989      -1.54489666E-08
   35.4300003      -1.67583440E-08
   35.4900017      -1.81010567E-08
   35.5499992      -1.94550829E-08
   35.6100006      -2.07969588E-08
   35.6699982      -2.21105445E-08
   35.7299995      -2.33929409E-08
   35.7900009      -2.46556606E-08
   35.8499985      -2.59208459E-08
   35.9099998      -2.72140710E-08
   35.9700012      -2.85564141E-08
   36.0299988      -2.99586667E-08
   36.0900002      -3.14195994E-08
   36.1500015      -3.29287602E-08
   36.2099991      -3.44724143E-08
   36.2700005      -3.60401593E-08
   36.3300018      -3.76294231E-08
   36.3899994      -3.92458119E-08
   36.4500008      -4.08989074E-08
   36.5099983      -4.25947135E-08
   36.5699997      -4.43274644E-08
   36.6300011      -4.60738256E-08
   36.6899986      -4.77918682E-08
   36.7500000      -4.94257826E-08
   36.8100014      -5.09153395E-08
   36.8699989      -5.22075290E-08
   36.9300003      -5.32670015E-08
   36.9900017      -5.40822036E-08
   37.0499992      -5.46653283E-08
   37.1100006      -5.50461330E-08
   37.1699982      -5.52614736E-08
   37.2299995      -5.53438007E-08
   37.2900009      -5.53120394E-08
   37.3499985      -5.51676642E-08
   37.4099998      -5.48969581E-08
   37.4700012      -5.44786367E-08
   37.5299988      -5.38940803E-08
   37.5900002      -5.31367412E-08
   37.6500015      -5.22173949E-08
   37.7099991      -5.11633367E-08
   37.7700005      -5.00116855E-08
   37.8300018      -4.87988956E-08
   37.8899994      -4.75500990E-08
   37.9500008      -4.62720280E-08
   38.0099983      -4.49522162E-08
   38.0699997      -4.35652296E-08
   38.1300011      -4.20841850E-08
   38.1899986      -4.04940366E-08
   38.2500000      -3.88023906E-08
   38.3100014      -3.70441207E-08
   38.3699989      -3.52780560E-08
   38.4300003      -3.35763701E-08
   38.4900017      -3.20097158E-08
   38.5499992      -3.06323322E-08
   38.6100006      -2.94714599E-08
   38.6699982      -2.85240080E-08
   38.7299995      -2.77611338E-08
   38.7900009      -2.71391016E-08
   38.8499985      -2.66130264E-08
   38.9099998      -2.61493742E-08
   38.9700012      -2.57338382E-08
   39.0299988      -2.53725858E-08
   39.0900002      -2.50870951E-08
   39.1500015      -2.49044572E-08
   39.2099991      -2.48463419E-08
   39.2700005      -2.49199630E-08
   39.3300018      -2.51137333E-08
   39.3899994      -2.53988084E-08
   39.4500008      -2.57360764E-08
   39.5099983      -2.60864379E-08
   39.5699997      -2.64212918E-08
   39.6300011      -2.67299605E-08
   39.6899986      -2.70215832E-08
   39.7500000      -2.73206755E-08
   39.8100014      -2.76574905E-08
   39.8699989      -2.80561405E-08
   39.9300003      -2.85243260E-08
   39.9900017      -2.90482305E-08
   40.0499992      -2.95946165E-08
   40.1100006      -3.01198462E-08
   40.1699982      -3.05831414E-08
   40.2299995      -3.09598605E-08
   40.2900009      -3.12503516E-08
   40.3499985      -3.14813242E-08
   40.4099998      -3.16989635E-08
   40.4700012      -3.19559703E-08
   40.5299988      -3.22964091E-08
   40.5900002      -3.27433263E-08
   40.6500015      -3.32928849E-08
   40.7099991      -3.39168658E-08
   40.7700005      -3.45725937E-08
   40.8300018      -3.52170986E-08
   40.8899994      -3.58211167E-08
   40.9500008      -3.63786690E-08
   41.0099983      -3.69095083E-08
   41.0699997      -3.74538018E-08
   41.1300011      -3.80608149E-08
   41.1899986      -3.87748500E-08
   41.2500000      -3.96224884E-08
   41.3100014      -4.06045935E-08
   41.3699989      -4.16951806E-08
   41.4300003      -4.28475495E-08
   41.4900017      -4.40058869E-08
   41.5499992      -4.51195206E-08
   41.6100006      -4.61559750E-08
   41.6699982      -4.71093919E-08
   41.7299995      -4.80019686E-08
   41.7900009      -4.88777729E-08
   41.8499985      -4.97904402E-08
   41.9099998      -5.07879285E-08
   41.9700012      -5.18986489E-08
   42.0299988      -5.31230526E-08
   42.0900002      -5.44332863E-08
   42.1500015      -5.57813316E-08
   42.2099991      -5.71132404E-08
   42.2700005      -5.83850657E-08
   42.3300018      -5.95753775E-08
   42.3899994      -6.06901622E-08
   42.4500008      -6.17582359E-08
   42.5099983      -6.28186285E-08
   42.5699997      -6.39039754E-08
   42.6300011      -6.50255529E-08
   42.6899986      -6.61650574E-08
   42.7500000      -6.72761473E-08
   42.8100014      -6.82952148E-08
   42.8699989      -6.91581263E-08
   42.9300003      -6.98172471E-08
   42.9900017      -7.02533782E-08
   43.0499992      -7.04787411E-08
   43.1100006      -7.05303336E-08
   43.1699982      -7.04559753E-08
   43.2299995      -7.02977090E-08
   43.2900009      -7.00778671E-08
   43.3499985      -6.97919376E-08
   43.4099998      -6.94100564E-08
   43.4700012      -6.88861093E-08
   43.5299988      -6.81714525E-08
   43.5900002      -6.72288749E-08
   43.6500015      -6.60429578E-08
   43.7099991      -6.46243450E-08
   43.7700005      -6.30071995E-08
   43.8300018      -6.12410815E-08
   43.8899994      -5.93796017E-08
   43.9500008      -5.74688812E-08
   44.0099983      -5.55384787E-08
   44.0699997      -5.35968319E-08
   44.1300011      -5.16322238E-08
   44.1899986      -4.96190253E-08
   44.2500000      -4.75277524E-08
   44.3100014      -4.53364883E-08
   44.3699989      -4.30406324E-08
   44.4300003      -4.06581613E-08
   44.4900017      -3.82286665E-08
   44.5499992      -3.58061385E-08
   44.6100006      -3.34474990E-08
   44.6699982      -3.12003294E-08
   44.7299995      -2.90937177E-08
   44.7900009      -2.71352487E-08
   44.8499985      -2.53149999E-08
   44.9099998      -2.36150672E-08
   44.9700012      -2.20211458E-08
   45.0299988      -2.05320063E-08
   45.0900002      -1.91635916E-08
   45.1500015      -1.79465278E-08
   45.2099991      -1.69181948E-08
   45.2700005      -1.61123488E-08
   45.3300018      -1.55499738E-08
   45.3899994      -1.52341748E-08
   45.4500008      -1.51503485E-08
   45.5099983      -1.52709241E-08
   45.5699997      -1.55626871E-08
   45.6300011      -1.59942051E-08
   45.6899986      -1.65413745E-08
   45.7500000      -1.71900680E-08
   45.8100014      -1.79358235E-08
   45.8699989      -1.87811811E-08
   45.9300003      -1.97315231E-08
   45.9900017      -2.07902335E-08
   46.0499992      -2.19540279E-08
   46.1100006      -2.32092656E-08
   46.1699982      -2.45301965E-08
   46.2299995      -2.58799435E-08
   46.2900009      -2.72144849E-08
   46.3499985      -2.84891311E-08
   46.4099998      -2.96659604E-08
   46.4700012      -3.07201731E-08
   46.5299988      -3.16433884E-08
   46.5900002      -3.24428520E-08
   46.6500015      -3.31368462E-08
   46.7099991      -3.37480159E-08
   46.7700005      -3.42969741E-08
   46.8300018      -3.47982336E-08
   46.8899994      -3.52594434E-08
   46.9500008      -3.56834704E-08
   47.0099983      -3.60716434E-08
   47.0699997      -3.64263641E-08
   47.1300011      -3.67517856E-08
   47.1899986      -3.70524624E-08
   47.2500000      -3.73310449E-08
   47.3100014      -3.75864602E-08
   47.3699989      -3.78138623E-08
   47.4300003      -3.80065117E-08
   47.4900017      -3.81589125E-08
   47.5499992      -3.82698389E-08
   47.6100006      -3.83441048E-08
   47.6699982      -3.83925887E-08
   47.7299995      -3.84308017E-08
   47.7900009      -3.84769550E-08
   47.8499985      -3.85502901E-08
   47.9099998      -3.86701657E-08
   47.9700012      -3.88557666E-08
   48.0299988      -3.91262027E-08
   48.0900002      -3.95007902E-08
   48.1500015      -3.99998292E-08
   48.2099991      -4.06464693E-08
   48.2700005      -4.14699741E-08
   48.3300018      -4.25101518E-08
   48.3899994      -4.38219345E-08
   48.4500008      -4.54784725E-08
   48.5099983      -4.75714756E-08
   48.5699997      -5.02084738E-08
   48.6300011      -5.35079749E-08
   48.6899986      -5.75948818E-08
   48.7500000      -6.25985948E-08
   48.8100014      -6.86556803E-08
   48.8699989      -7.59173773E-08
   48.9300003      -8.45604191E-08
   48.9900017      -9.47988283E-08
   49.0499992      -1.06893751E-07
   49.1100006      -1.21160113E-07
   49.1699982      -1.37969820E-07
   49.2299995      -1.57753391E-07
   49.2900009      -1.81002221E-07
   49.3499985      -2.08273931E-07
   49.4099998      -2.40202041E-07
   49.4700012      -2.77509798E-07
   49.5299988      -3.21026675E-07
   49.5900002      -3.71706079E-07
   49.6500015      -4.30641478E-07
   49.7099991      -4.99081125E-07
   49.7700005      -5.78440620E-07
   49.8300018      -6.70314932E-07
   49.8899994      -7.76490936E-07
   49.9500008      -8.98963322E-07
   50.0099983      -1.03995319E-06
   50.0699997      -1.20193215E-06
   50.1300011      -1.38764926E-06
   50.1899986      -1.60016100E-06
   50.2500000      -1.84286216E-06
   50.3100014      -2.11951556E-06
   50.3699989      -2.43428190E-06
   50.4300003      -2.79174333E-06
   50.4900017      -3.19692913E-06
   50.5499992      -3.65533515E-06
   50.6100006      -4.17294586E-06