 -0.750000000       0.00000000    
 -0.689999998       0.00000000    
 -0.629999995       0.00000000    
 -0.569999993       0.00000000    
 -0.509999990       0.00000000    
 -0.449999988      -9.69226345E-21
 -0.389999986      -1.11696576E-19
 -0.330000013      -6.27449582E-19
 -0.270000011      -2.27395549E-18
 -0.209999993      -5.82937421E-18
 -0.150000006      -1.05693631E-17
  -9.00000036E-02  -1.12901485E-17
  -2.99999993E-02   4.40070095E-18
   2.99999993E-02   5.43143069E-17
   9.00000036E-02   1.50319853E-16
  0.150000006       2.76031970E-16
  0.209999993       3.61777195E-16
  0.270000011       2.77009314E-16
  0.330000013      -1.34203225E-16
  0.389999986      -9.60481152E-16
  0.449999988      -2.09185290E-15
  0.509999990      -3.11296594E-15
  0.569999993      -3.31486386E-15
  0.629999995      -1.90551518E-15
  0.689999998       1.57803858E-15
  0.750000000       6.77942259E-15
  0.810000002       1.21988753E-14
  0.870000005       1.53163699E-14
  0.930000007       1.33321334E-14
  0.990000010       4.43426407E-15
   1.04999995      -1.08216328E-14
   1.11000001      -2.86703102E-14
   1.16999996      -4.24650549E-14
   1.23000002      -4.44643000E-14
   1.28999996      -2.87665975E-14
   1.35000002       5.54024515E-15
   1.40999997       5.23010353E-14
   1.47000003       9.84180321E-14
   1.52999997       1.26625449E-13
   1.59000003       1.20369860E-13
   1.64999998       6.93661776E-14
   1.71000004      -2.59719834E-14
   1.76999998      -1.52678976E-13
   1.83000004      -2.86474512E-13
   1.88999999      -3.95516356E-13
   1.95000005      -4.45397977E-13
   2.00999999      -4.04190299E-13
   2.06999993      -2.47122743E-13
   2.13000011       3.84568408E-14
   2.19000006       4.46653267E-13
   2.25000000       9.44523106E-13
   2.30999994       1.46276220E-12
   2.36999989       1.88945517E-12
   2.43000007       2.07293644E-12
   2.49000001       1.84016864E-12
   2.54999995       1.03449486E-12
   2.60999990      -4.29016333E-13
   2.67000008      -2.50011557E-12
   2.73000002      -4.93890302E-12
   2.78999996      -7.29212263E-12
   2.84999990      -8.92113206E-12
   2.91000009      -9.09444828E-12
   2.97000003      -7.14307303E-12
   3.02999997      -2.65786048E-12
   3.08999991       4.31016594E-12
   3.15000010       1.30981883E-11
   3.21000004       2.23818065E-11
   3.26999998       3.02681109E-11
   3.32999992       3.45472886E-11
   3.39000010       3.30843720E-11
   3.45000005       2.42967192E-11
   3.50999999       7.63387790E-12
   3.56999993      -1.60386981E-11
   3.63000011      -4.42466480E-11
   3.69000006      -7.29758060E-11
   3.75000000      -9.70353797E-11
   3.80999994      -1.10698228E-10
   3.86999989      -1.08551126E-10
   3.93000007      -8.64461350E-11
   3.99000001      -4.24174307E-11
   4.05000019       2.25761111E-11
   4.11000013       1.04203007E-10
   4.17000008       1.94685032E-10
   4.23000002       2.83119778E-10
   4.28999996       3.56162877E-10
   4.34999990       3.98981959E-10
   4.40999985       3.96361471E-10
   4.46999979       3.33829075E-10
   4.53000021       1.98688982E-10
   4.59000015      -1.91260306E-11
   4.65000010      -3.26438987E-10
   4.71000004      -7.26475879E-10
   4.76999998      -1.21877941E-09
   4.82999992      -1.79936877E-09
   4.88999987      -2.46110043E-09
   4.94999981      -3.19415494E-09
   5.01000023      -3.98654132E-09
   5.07000017      -4.82450702E-09
   5.13000011      -5.69275693E-09
   5.19000006      -6.57445831E-09
   5.25000000      -7.45108952E-09
   5.30999994      -8.30232061E-09
   5.36999989      -9.10612741E-09
   5.42999983      -9.83938797E-09
   5.48999977      -1.04790443E-08
   5.55000019      -1.10037899E-08
   5.61000013      -1.13960263E-08
   5.67000008      -1.16436922E-08
   5.73000002      -1.17415571E-08
   5.78999996      -1.16916548E-08
   5.84999990      -1.15027516E-08
   5.90999985      -1.11890008E-08
   5.96999979      -1.07681331E-08
   6.03000021      -1.02596207E-08
   6.09000015      -9.68320624E-09
   6.15000010      -9.05797304E-09
   6.21000004      -8.40193337E-09
   6.26999998      -7.73187292E-09
   6.32999992      -7.06314962E-09
   6.38999987      -6.40914033E-09
   6.44999981      -5.78024295E-09
   6.51000023      -5.18254462E-09
   6.57000017      -4.61647076E-09
   6.63000011      -4.07583434E-09
   6.69000006      -3.54771301E-09
   6.75000000      -3.01342395E-09
   6.80999994      -2.45067433E-09
   6.86999989      -1.83669668E-09
   6.92999983      -1.15194376E-09
   6.98999977      -3.83728133E-10
   7.05000019       4.70900152E-10
   7.11000013       1.40370726E-09
   7.17000008       2.39574516E-09
   7.23000002       3.41988060E-09
   7.28999996       4.44509629E-09
   7.34999990       5.44180301E-09
   7.40999985       6.38707265E-09
   7.46999979       7.26857863E-09
   7.53000021       8.08625433E-09
   7.59000015       8.85118467E-09
   7.65000010       9.58195212E-09
   7.71000004       1.02993489E-08
   7.76999998       1.10208349E-08
   7.82999992       1.17561614E-08
   7.88999987       1.25052830E-08
   7.94999981       1.32589939E-08
   8.01000023       1.40020022E-08
   8.06999969       1.47175472E-08
   8.13000011       1.53923452E-08
   8.18999958       1.60206906E-08
   8.25000000       1.66068048E-08
   8.31000042       1.71649717E-08
   8.36999989       1.77174098E-08
   8.43000031       1.82901694E-08
   8.48999977       1.89076879E-08
   8.55000019       1.95868726E-08
   8.60999966       2.03317327E-08
   8.67000008       2.11298090E-08
   8.72999954       2.19514789E-08
   8.78999996       2.27528396E-08
   8.85000038       2.34821638E-08
   8.90999985       2.40890330E-08
   8.97000027       2.45343710E-08
   9.02999973       2.47990233E-08
   9.09000015       2.48886263E-08
   9.14999962       2.48331116E-08
   9.21000004       2.46805083E-08
   9.27000046       2.44860807E-08
   9.32999992       2.42992577E-08
   9.39000034       2.41514702E-08
   9.44999981       2.40480276E-08
   9.51000023       2.39663240E-08
   9.56999969       2.38610447E-08
   9.63000011       2.36754314E-08
   9.68999958       2.33560122E-08
   9.75000000       2.28673454E-08
   9.81000042       2.22032099E-08
   9.86999989       2.13915410E-08
   9.93000031       2.04918020E-08
   9.98999977       1.95853023E-08
   10.0500002       1.87604954E-08
   10.1099997       1.80964719E-08
   10.1700001       1.76481390E-08
   10.2299995       1.74362729E-08
   10.2900000       1.74446004E-08
   10.3500004       1.76245809E-08
   10.4099998       1.79070501E-08
   10.4700003       1.82183619E-08
   10.5299997       1.84976123E-08
   10.5900002       1.87111500E-08
   10.6499996       1.88608809E-08
   10.7100000       1.89841369E-08
   10.7700005       1.91447551E-08
   10.8299999       1.94171115E-08
   10.8900003       1.98668264E-08
   10.9499998       2.05328661E-08
   11.0100002       2.14156444E-08
   11.0699997       2.24742802E-08
   11.1300001       2.36338700E-08
   11.1899996       2.48008067E-08
   11.2500000       2.58821853E-08
   11.3100004       2.68040896E-08
   11.3699999       2.75241767E-08
   11.4300003       2.80355508E-08
   11.4899998       2.83616028E-08
   11.5500002       2.85439263E-08
   11.6099997       2.86273139E-08
   11.6700001       2.86463333E-08
   11.7299995       2.86171886E-08
   11.7900000       2.85367392E-08
   11.8500004       2.83882997E-08
   11.9099998       2.81517956E-08
   11.9700003       2.78147141E-08
   12.0299997       2.73802971E-08
   12.0900002       2.68704294E-08
   12.1499996       2.63223878E-08
   12.2100000       2.57805191E-08
   12.2700005       2.52853098E-08
   12.3299999       2.48629792E-08
   12.3900003       2.45185063E-08
   12.4499998       2.42338842E-08
   12.5100002       2.39719817E-08
   12.5699997       2.36848070E-08
   12.6300001       2.33238708E-08
   12.6899996       2.28498145E-08
   12.7500000       2.22388685E-08
   12.8100004       2.14846292E-08
   12.8699999       2.05951256E-08
   12.9300003       1.95865102E-08
   12.9899998       1.84756956E-08
   13.0500002       1.72744947E-08
   13.1099997       1.59871600E-08
   13.1700001       1.46120245E-08
   13.2299995       1.31464031E-08
   13.2900000       1.15928112E-08
   13.3500004       9.96404381E-09
   13.4099998       8.28507929E-09
   13.4700003       6.59085542E-09
   13.5299997       4.92036012E-09
   13.5900002       3.30868999E-09
   13.6499996       1.77933424E-09
   13.7100000       3.38876260E-10
   13.7700005      -1.02443976E-09
   13.8299999      -2.33788722E-09
   13.8900003      -3.63786468E-09
   13.9499998      -4.96144148E-09
   14.0100002      -6.33774011E-09
   14.0699997      -7.78104159E-09
   14.1300001      -9.28705823E-09
   14.1899996      -1.08331637E-08
   14.2500000      -1.23824941E-08
   14.3100004      -1.38910510E-08
   14.3699999      -1.53162407E-08
   14.4300003      -1.66249929E-08
   14.4899998      -1.77996640E-08
   14.5500002      -1.88404918E-08
   14.6099997      -1.97641761E-08
   14.6700001      -2.05990744E-08
   14.7299995      -2.13782965E-08
   14.7900000      -2.21323671E-08
   14.8500004      -2.28831016E-08
   14.9099998      -2.36399291E-08
   14.9700003      -2.43991476E-08
   15.0299997      -2.51458925E-08
   15.0900002      -2.58579611E-08
   15.1499996      -2.65102926E-08
   15.2100000      -2.70788796E-08
   15.2700005      -2.75433205E-08
   15.3299999      -2.78876335E-08
   15.3900003      -2.80997074E-08
   15.4499998      -2.81701702E-08
   15.5100002      -2.80916925E-08
   15.5699997      -2.78595174E-08
   15.6300001      -2.74734369E-08
   15.6899996      -2.69406737E-08
   15.7500000      -2.62784408E-08
   15.8100004      -2.55146873E-08
   15.8699999      -2.46858853E-08
   15.9300003      -2.38316158E-08
   15.9899998      -2.29869723E-08
   16.0499992      -2.21748753E-08
   16.1100006      -2.14008899E-08
   16.1700001      -2.06526742E-08
   16.2299995      -1.99048902E-08
   16.2900009      -1.91285814E-08
   16.3500004      -1.83024902E-08
   16.4099998      -1.74227885E-08
   16.4699993      -1.65081246E-08
   16.5300007      -1.55981574E-08
   16.5900002      -1.47457673E-08
   16.6499996      -1.40050309E-08
   16.7099991      -1.34183065E-08
   16.7700005      -1.30059510E-08
   16.8299999      -1.27613697E-08
   16.8899994      -1.26525954E-08
   16.9500008      -1.26298696E-08
   17.0100002      -1.26372601E-08
   17.0699997      -1.26254696E-08
   17.1299992      -1.25627855E-08
   17.1900005      -1.24416157E-08
   17.2500000      -1.22790498E-08
   17.3099995      -1.21112702E-08
   17.3700008      -1.19831070E-08
   17.4300003      -1.19352856E-08
   17.4899998      -1.19926069E-08
   17.5499992      -1.21562005E-08
   17.6100006      -1.24019861E-08
   17.6700001      -1.26858337E-08
   17.7299995      -1.29540698E-08
   17.7900009      -1.31564946E-08
   17.8500004      -1.32584148E-08
   17.9099998      -1.32485196E-08
   17.9699993      -1.31406370E-08
   18.0300007      -1.29690854E-08
   18.0900002      -1.27789530E-08
   18.1499996      -1.26138913E-08
   18.2099991      -1.25044934E-08
   18.2700005      -1.24601103E-08
   18.3299999      -1.24661126E-08
   18.3899994      -1.24872575E-08
   18.4500008      -1.24763568E-08
   18.5100002      -1.23860655E-08
   18.5699997      -1.21807249E-08
   18.6299992      -1.18451382E-08
   18.6900005      -1.13878720E-08
   18.7500000      -1.08382494E-08
   18.8099995      -1.02379945E-08
   18.8700008      -9.63009317E-09
   18.9300003      -9.04822972E-09
   18.9899998      -8.50985948E-09
   19.0499992      -8.01474975E-09
   19.1100006      -7.54900764E-09
   19.1700001      -7.09293069E-09
   19.2299995      -6.62986865E-09
   19.2900009      -6.15319529E-09
   19.3500004      -5.66920688E-09
   19.4099998      -5.19519538E-09
   19.4699993      -4.75351891E-09
   19.5300007      -4.36375025E-09
   19.5900002      -4.03562561E-09
   19.6499996      -3.76528675E-09
   19.7099991      -3.53629592E-09
   19.7700005      -3.32535333E-09
   19.8299999      -3.11100301E-09
   19.8899994      -2.88241875E-09
   19.9500008      -2.64507394E-09
   20.0100002      -2.42092613E-09
   20.0699997      -2.24251129E-09
   20.1299992      -2.14250173E-09
   20.1900005      -2.14205853E-09
   20.2500000      -2.24201457E-09
   20.3099995      -2.42018117E-09
   20.3700008      -2.63610911E-09
   20.4300003      -2.84207613E-09
   20.4899998      -2.99685987E-09
   20.5499992      -3.07780779E-09
   20.6100006      -3.08717585E-09
   20.6700001      -3.05055448E-09
   20.7299995      -3.00775316E-09
   20.7900009      -2.99888492E-09
   20.8500004      -3.04988790E-09
   20.9099998      -3.16183990E-09
   20.9699993      -3.30729422E-09
   21.0300007      -3.43483286E-09
   21.0900002      -3.48074680E-09
   21.1499996      -3.38481643E-09
   21.2099991      -3.10603721E-09
   21.2700005      -2.63406874E-09
   21.3299999      -1.99318850E-09
   21.3899994      -1.23737176E-09
   21.4500008      -4.37396758E-10
   21.5100002       3.36978168E-10
   21.5699997       1.03523556E-09
   21.6299992       1.63986957E-09
   21.6900005       2.17185248E-09
   21.7500000       2.68608091E-09
   21.8099995       3.25779514E-09
   21.8700008       3.96349309E-09
   21.9300003       4.86141571E-09
   21.9899998       5.97682304E-09
   22.0499992       7.29592831E-09
   22.1100006       8.76997053E-09
   22.1700001       1.03281215E-08
   22.2299995       1.18956596E-08
   22.2900009       1.34125226E-08
   22.3500004       1.48474415E-08
   22.4099998       1.62040763E-08
   22.4699993       1.75177401E-08
   22.5300007       1.88436307E-08
   22.5900002       2.02396748E-08
   22.6499996       2.17483738E-08
   22.7099991       2.33824160E-08
   22.7700005       2.51178811E-08
   22.8299999       2.68969433E-08
   22.8899994       2.86395991E-08
   22.9500008       3.02614218E-08
   23.0100002       3.16926929E-08
   23.0699997       3.28938157E-08
   23.1299992       3.38628041E-08
   23.1900005       3.46328974E-08
   23.2500000       3.52610385E-08
   23.3099995       3.58105048E-08
   23.3700008       3.63325867E-08
   23.4300003       3.68523061E-08
   23.4899998       3.73619358E-08
   23.5499992       3.78237033E-08
   23.6100006       3.81805343E-08
   23.6700001       3.83713008E-08
   23.7299995       3.83461689E-08
   23.7900009       3.80775198E-08
   23.8500004       3.75636944E-08
   23.9099998       3.68249147E-08
   23.9699993       3.58931800E-08
   24.0300007       3.47996547E-08
   24.0900002       3.35637225E-08
   24.1499996       3.21870530E-08
   24.2099991       3.06542809E-08
   24.2700005       2.89395583E-08
   24.3299999       2.70164442E-08
   24.3899994       2.48675445E-08
   24.4500008       2.24907311E-08
   24.5100002       1.99001100E-08
   24.5699997       1.71218133E-08
   24.6299992       1.41863579E-08
   24.6900005       1.11203278E-08
   24.7500000       7.94011434E-09
   24.8099995       4.64957006E-09
   24.8700008       1.24219379E-09
   24.9300003      -2.29294472E-09
   24.9899998      -5.96331917E-09
   25.0499992      -9.76538495E-09
   25.1100006      -1.36795464E-08
   25.1700001      -1.76692616E-08
   25.2299995      -2.16848655E-08
   25.2900009      -2.56714774E-08
   25.3500004      -2.95790734E-08
   25.4099998      -3.33721175E-08
   25.4699993      -3.70358570E-08
   25.5300007      -4.05771807E-08
   25.5900002      -4.40194192E-08
   25.6499996      -4.73921311E-08
   25.7099991      -5.07187146E-08
   25.7700005      -5.40052945E-08
   25.8299999      -5.72342529E-08
   25.8899994      -6.03643642E-08
   25.9500008      -6.33376587E-08
   26.0100002      -6.60912178E-08
   26.0699997      -6.85706425E-08
   26.1299992      -7.07416419E-08
   26.1900005      -7.25966061E-08
   26.2500000      -7.41546202E-08
   26.3099995      -7.54549205E-08
   26.3700008      -7.65455184E-08
   26.4300003      -7.74699274E-08
   26.4899998      -7.82552334E-08
   26.5499992      -7.89044705E-08
   26.6100006      -7.93950221E-08
   26.6700001      -7.96834385E-08
   26.7299995      -7.97152637E-08
   26.7900009      -7.94374913E-08
   26.8500004      -7.88105439E-08
   26.9099998      -7.78169991E-08
   26.9699993      -7.64652981E-08
   27.0300007      -7.47879767E-08
   27.0900002      -7.28355545E-08
   27.1499996      -7.06679160E-08
   27.2099991      -6.83457273E-08
   27.2700005      -6.59235866E-08
   27.3299999      -6.34462367E-08
   27.3899994      -6.09476203E-08
   27.4500008      -5.84522226E-08
   27.5100002      -5.59773135E-08
   27.5699997      -5.35351994E-08
   27.6299992      -5.11347338E-08
   27.6900005      -4.87821374E-08
   27.7500000      -4.64815031E-08
   27.8099995      -4.42355059E-08
   27.8700008      -4.20465689E-08
   27.9300003      -3.99184685E-08
   27.9899998      -3.78576850E-08
   28.0499992      -3.58739172E-08
   28.1100006      -3.39791093E-08
   28.1700001      -3.21849747E-08
   28.2299995      -3.04996561E-08
   28.2900009      -2.89246636E-08
   28.3500004      -2.74535950E-08
   28.4099998      -2.60736268E-08
   28.4699993      -2.47701024E-08
   28.5300007      -2.35333282E-08
   28.5900002      -2.23657892E-08
   28.6499996      -2.12874856E-08
   28.7099991      -2.03373922E-08
   28.7700005      -1.95700540E-08
   28.8299999      -1.90476861E-08
   28.8899994      -1.88295441E-08
   28.9500008      -1.89611793E-08
   29.0100002      -1.94661887E-08
   29.0699997      -2.03423500E-08
   29.1299992      -2.15628138E-08
   29.1900005      -2.30816557E-08
   29.2500000      -2.48422349E-08
   29.3099995      -2.67862337E-08
   29.3700008      -2.88615887E-08
   29.4300003      -3.10279340E-08
   29.4899998      -3.32589742E-08
   29.5499992      -3.55418592E-08
   29.6100006      -3.78741554E-08
   29.6700001      -4.02593052E-08
   29.7299995      -4.27016467E-08
   29.7900009      -4.52019293E-08
   29.8500004      -4.77541882E-08
   29.9099998      -5.03444326E-08
   29.9699993      -5.29511333E-08
   30.0300007      -5.55472965E-08
   30.0900002      -5.81034705E-08
   30.1499996      -6.05910131E-08
   30.2099991      -6.29850589E-08
   30.2700005      -6.52666614E-08
   30.3299999      -6.74238905E-08
   30.3899994      -6.94516586E-08
   30.4500008      -7.13503923E-08
   30.5100002      -7.31236725E-08
   30.5699997      -7.47752225E-08
   30.6299992      -7.63058239E-08
   30.6900005      -7.77108937E-08
   30.7500000      -7.89791557E-08
   30.8099995      -8.00927751E-08
   30.8700008      -8.10287659E-08
   30.9300003      -8.17613213E-08
   30.9899998      -8.22642505E-08
   31.0499992      -8.25133526E-08
   31.1100006      -8.24882491E-08
   31.1700001      -8.21740116E-08
   31.2299995      -8.15624617E-08
   31.2900009      -8.06532938E-08
   31.3500004      -7.94546935E-08
   31.4099998      -7.79829179E-08
   31.4699993      -7.62605197E-08
   31.5300007      -7.43130997E-08
   31.5900002      -7.21653919E-08
   31.6499996      -6.98374620E-08
   31.7099991      -6.73425475E-08
   31.7700005      -6.46871712E-08
   31.8299999      -6.18737133E-08
   31.8899994      -5.89045399E-08
   31.9500008      -5.57863409E-08
   32.0099983      -5.25330464E-08
   32.0699997      -4.91662995E-08
   32.1300011      -4.57133815E-08
   32.1899986      -4.22032400E-08
   32.2500000      -3.86619590E-08
   32.3100014      -3.51090392E-08
   32.3699989      -3.15553486E-08
   32.4300003      -2.80030736E-08
   32.4900017      -2.44473490E-08
   32.5499992      -2.08790265E-08
   32.6100006      -1.72881105E-08
   32.6699982      -1.36675098E-08
   32.7299995      -1.00169286E-08
   32.7900009      -6.34647801E-09
   32.8499985      -2.67939360E-09
   32.9099998       9.47094181E-10
   32.9700012       4.48358328E-09
   33.0299988       7.87335974E-09
   33.0900002       1.10597629E-08
   33.1500015       1.39945948E-08
   33.2099991       1.66455898E-08
   33.2700005       1.90009928E-08
   33.3300018       2.10701323E-08
   33.3899994       2.28799362E-08
   33.4500008       2.44685285E-08
   33.5099983       2.58776911E-08
   33.5699997       2.71460081E-08
   33.6300011       2.83040187E-08
   33.6899986       2.93718152E-08
   33.7500000       3.03588692E-08
   33.8100014       3.12653583E-08
   33.8699989       3.20842766E-08
   33.9300003       3.28037757E-08
   33.9900017       3.34095134E-08
   34.0499992       3.38869555E-08
   34.1100006       3.42235502E-08
   34.1699982       3.44106574E-08
   34.2299995       3.44448843E-08
   34.2900009       3.43285897E-08
   34.3499985       3.40692949E-08
   34.4099998       3.36781198E-08
   34.4700012       3.31675309E-08
   34.5299988       3.25489147E-08
   34.5900002       3.18305418E-08
   34.6500015       3.10163522E-08
   34.7099991       3.01058947E-08
   34.7700005       2.90953164E-08
   34.8300018       2.79792935E-08
   34.8899994       2.67533338E-08
   34.9500008       2.54160444E-08
   35.0099983       2.39707436E-08
   35.0699997       2.24259402E-08
   35.1300011       2.07944879E-08
   35.1899986       1.90913987E-08
   35.2500000       1.73308585E-08
   35.3100014       1.55231952E-08
   35.3699989       1.36727412E-08
   35.4300003       1.17773959E-08
   35.4900017       9.83018200E-09
   35.5499992       7.82250176E-09
   35.6100006       5.74817882E-09
   35.6699982       3.60709107E-09
   35.7299995       1.40731626E-09
   35.7900009      -8.34791958E-10
   35.8499985      -3.09650350E-09
   35.9099998      -5.35194467E-09
   35.9700012      -7.57578533E-09
   36.0299988      -9.74661329E-09
   36.0900002      -1.18495853E-08
   36.1500015      -1.38782115E-08
   36.2099991      -1.58353206E-08
   36.2700005      -1.77331074E-08
   36.3300018      -1.95920311E-08
   36.3899994      -2.14383711E-08
   36.4500008      -2.33004691E-08
   36.5099983      -2.52042049E-08
   36.5699997      -2.71686975E-08
   36.6300011      -2.92033100E-08
   36.6899986      -3.13067758E-08
   36.7500000      -3.34684316E-08
   36.8100014      -3.56708085E-08
   36.8699989      -3.78924341E-08
   36.9300003      -4.01096862E-08
   36.9900017      -4.22973017E-08
   37.0499992      -4.44278605E-08
   37.1100006      -4.64712215E-08
   37.1699982      -4.83948632E-08
   37.2299995      -5.01655109E-08
   37.2900009      -5.17517762E-08
   37.3499985      -5.31267652E-08
   37.4099998      -5.42696377E-08
   37.4700012      -5.51655859E-08
   37.5299988      -5.58045237E-08
   37.5900002      -5.61793065E-08
   37.6500015      -5.62845806E-08
   37.7099991      -5.61168285E-08
   37.7700005      -5.56753967E-08
   37.8300018      -5.49636603E-08
   37.8899994      -5.39893712E-08
   37.9500008      -5.27635784E-08
   38.0099983      -5.12984428E-08
   38.0699997      -4.96049957E-08
   38.1300011      -4.76920690E-08
   38.1899986      -4.55672726E-08
   38.2500000      -4.32399858E-08
   38.3100014      -4.07253999E-08
   38.3699989      -3.80480714E-08
   38.4300003      -3.52436551E-08
   38.4900017      -3.23580593E-08
   38.5499992      -2.94442088E-08
   38.6100006      -2.65573128E-08
   38.6699982      -2.37497684E-08
   38.7299995      -2.10667643E-08
   38.7900009      -1.85431173E-08
   38.8499985      -1.62015983E-08
   38.9099998      -1.40527918E-08
   38.9700012      -1.20964838E-08
   39.0299988      -1.03245297E-08
   39.0900002      -8.72488570E-09
   39.1500015      -7.28605798E-09
   39.2099991      -6.00079764E-09
   39.2700005      -4.86777374E-09
   39.3300018      -3.89042398E-09
   39.3899994      -3.07311288E-09
   39.4500008      -2.41588971E-09
   39.5099983      -1.90991756E-09
   39.5699997      -1.53568480E-09
   39.6300011      -1.26522448E-09
   39.6899986      -1.06809117E-09
   39.7500000      -9.19328169E-10
   39.8100014      -8.06777478E-10
   39.8699989      -7.35193850E-10
   39.9300003      -7.25720928E-10
   39.9900017      -8.10883916E-10
   40.0499992      -1.02672826E-09
   40.1100006      -1.40451051E-09
   40.1699982      -1.96422167E-09
   40.2299995      -2.71133871E-09
   40.2900009      -3.63701291E-09
   40.3499985      -4.72090678E-09
   40.4099998      -5.93537219E-09
   40.4700012      -7.24971994E-09
   40.5299988      -8.63373728E-09
   40.5900002      -1.00601065E-08
   40.6500015      -1.15057555E-08
   40.7099991      -1.29523388E-08
   40.7700005      -1.43861252E-08
   40.8300018      -1.57974878E-08
   40.8899994      -1.71802643E-08
   40.9500008      -1.85312281E-08
   41.0099983      -1.98498196E-08
   41.0699997      -2.11381952E-08
   41.1300011      -2.24013021E-08
   41.1899986      -2.36466100E-08
   41.2500000      -2.48829526E-08
   41.3100014      -2.61182951E-08
   41.3699989      -2.73565455E-08
   41.4300003      -2.85940889E-08
   41.4900017      -2.98171017E-08
   41.5499992      -3.10007024E-08
   41.6100006      -3.21106981E-08
   41.6699982      -3.31080479E-08
   41.7299995      -3.39553345E-08
   41.7900009      -3.46239872E-08
   41.8499985      -3.51005163E-08
   41.9099998      -3.53903218E-08
   41.9700012      -3.55180489E-08
   42.0299988      -3.55243372E-08
   42.0900002      -3.54596601E-08
   42.1500015      -3.53766083E-08
   42.2099991      -3.53222589E-08
   42.2700005      -3.53321923E-08
   42.3300018      -3.54271208E-08
   42.3899994      -3.56125192E-08
   42.4500008      -3.58808308E-08
   42.5099983      -3.62153934E-08
   42.5699997      -3.65949724E-08
   42.6300011      -3.69978927E-08
   42.6899986      -3.74050693E-08
   42.7500000      -3.78017120E-08
   42.8100014      -3.81777809E-08
   42.8699989      -3.85275669E-08
   42.9300003      -3.88488317E-08
   42.9900017      -3.91418418E-08
   43.0499992      -3.94084445E-08
   43.1100006      -3.96513151E-08
   43.1699982      -3.98733633E-08
   43.2299995      -4.00773139E-08
   43.2900009      -4.02656610E-08
   43.3499985      -4.04409484E-08
   43.4099998      -4.06063876E-08
   43.4700012      -4.07665510E-08
   43.5299988      -4.09276275E-08
   43.5900002      -4.10968077E-08
   43.6500015      -4.12804582E-08
   43.7099991      -4.14812504E-08
   43.7700005      -4.16948751E-08
   43.8300018      -4.19072457E-08
   43.8899994      -4.20932693E-08
   43.9500008      -4.22178452E-08
   44.0099983      -4.22390869E-08
   44.0699997      -4.21133137E-08
   44.1300011      -4.18007247E-08
   44.1899986      -4.12706385E-08
   44.2500000      -4.05053697E-08
   44.3100014      -3.95021722E-08
   44.3699989      -3.82730398E-08
   44.4300003      -3.68424899E-08
   44.4900017      -3.52437297E-08
   44.5499992      -3.35136825E-08
   44.6100006      -3.16877795E-08
   44.6699982      -2.97954390E-08
   44.7299995      -2.78573857E-08
   44.7900009      -2.58855231E-08
   44.8499985      -2.38855886E-08
   44.9099998      -2.18618297E-08
   44.9700012      -1.98222967E-08
   45.0299988      -1.77829360E-08
   45.0900002      -1.57690252E-08
   45.1500015      -1.38132892E-08
   45.2099991      -1.19512586E-08
   45.2700005      -1.02152358E-08
   45.3300018      -8.62871108E-09
   45.3899994      -7.20278592E-09
   45.4500008      -5.93537086E-09
   45.5099983      -4.81310725E-09
   45.5699997      -3.81525433E-09
   45.6300011      -2.91856583E-09
   45.6899986      -2.10225282E-09
   45.7500000      -1.35239864E-09
   45.8100014      -6.65320521E-10
   45.8699989      -4.94135288E-11
   45.9300003       4.75045225E-10
   45.9900017       8.78544570E-10
   46.0499992       1.12743970E-09
   46.1100006       1.19081944E-09
   46.1699982       1.04772080E-09
   46.2299995       6.92838786E-10
   46.2900009       1.39032494E-10
   46.3499985      -5.84300053E-10
   46.4099998      -1.43672596E-09
   46.4700012      -2.37474462E-09
   46.5299988      -3.36008688E-09
   46.5900002      -4.36618297E-09
   46.6500015      -5.38125278E-09
   46.7099991      -6.40747988E-09
   46.7700005      -7.45674811E-09
   46.8300018      -8.54416538E-09
   46.8899994      -9.68095648E-09
   46.9500008      -1.08682938E-08
   47.0099983      -1.20934089E-08
   47.0699997      -1.33289610E-08
   47.1300011      -1.45360746E-08
   47.1899986      -1.56707625E-08
   47.2500000      -1.66925851E-08
   47.3100014      -1.75735533E-08
   47.3699989      -1.83048439E-08
   47.4300003      -1.88990512E-08
   47.4900017      -1.93867713E-08
   47.5499992      -1.98079473E-08
   47.6100006      -2.02002290E-08
   47.6699982      -2.05878372E-08
   47.7299995      -2.09745998E-08
   47.7900009      -2.13436966E-08
   47.8499985      -2.16646097E-08
   47.9099998      -2.19052794E-08
   47.9700012      -2.20458460E-08
   48.0299988      -2.20896741E-08
   48.0900002      -2.20683010E-08
   48.1500015      -2.20389751E-08
   48.2099991      -2.20758150E-08
   48.2700005      -2.22575647E-08
   48.3300018      -2.26559180E-08
   48.3899994      -2.33278712E-08
   48.4500008      -2.43142857E-08
   48.5099983      -2.56447485E-08
   48.5699997      -2.73471592E-08
   48.6300011      -2.94592368E-08
   48.6899986      -3.20390008E-08
   48.7500000      -3.51718903E-08
   48.8100014      -3.89734076E-08
   48.8699989      -4.35876544E-08
   48.9300003      -4.91831926E-08
   48.9900017      -5.59486431E-08
   49.0499992      -6.40902797E-08
   49.1100006      -7.38335046E-08
   49.1699982      -8.54288160E-08
   49.2299995      -9.91618592E-08
   49.2900009      -1.15365552E-07
   49.3499985      -1.34431914E-07
   49.4099998      -1.56821315E-07
   49.4700012      -1.83067726E-07
   49.5299988      -2.13780353E-07
   49.5900002      -2.49643790E-07
   49.6500015      -2.91419553E-07
   49.7099991      -3.39952607E-07
   49.7700005      -3.96184475E-07
   49.8300018      -4.61173755E-07
   49.8899994      -5.36121433E-07
   49.9500008      -6.22397920E-07
   50.0099983      -7.21567801E-07
   50.0699997      -8.35409651E-07
   50.1300011      -9.65929644E-07
   50.1899986      -1.11537111E-06
   50.2500000      -1.28622059E-06
   50.3100014      -1.48121660E-06
   50.3699989      -1.70336148E-06
   50.4300003      -1.95593861E-06
   50.4900017      -2.24253472E-06
   50.5499992      -2.56706630E-06
   50.6100006      -2.93380776E-06