 -0.750000000       0.00000000    
 -0.689999998       0.00000000    
 -0.629999995       0.00000000    
 -0.569999993       0.00000000    
 -0.509999990       0.00000000    
 -0.449999988      -8.95475487E-20
 -0.389999986      -7.15478349E-19
 -0.330000013      -2.88948829E-18
 -0.270000011      -7.61673450E-18
 -0.209999993      -1.38726593E-17
 -0.150000006      -1.56588731E-17
  -9.00000036E-02  -7.35696763E-19
  -2.99999993E-02   4.50571500E-17
   2.99999993E-02   1.25608779E-16
   9.00000036E-02   2.17739692E-16
  0.150000006       2.60551437E-16
  0.209999993       1.65985331E-16
  0.270000011      -1.39136491E-16
  0.330000013      -6.45689775E-16
  0.389999986      -1.19874559E-15
  0.449999988      -1.48488433E-15
  0.509999990      -1.11391958E-15
  0.569999993       1.94791743E-16
  0.629999995       2.36929896E-15
  0.689999998       4.79255180E-15
  0.750000000       6.29487612E-15
  0.810000002       5.43204389E-15
  0.870000005       1.04908577E-15
  0.930000007      -7.00991042E-15
  0.990000010      -1.73098518E-14
   1.04999995      -2.66602502E-14
   1.11000001      -3.06141255E-14
   1.16999996      -2.46738207E-14
   1.23000002      -5.98643924E-15
   1.28999996       2.49349474E-14
   1.35000002       6.30717538E-14
   1.40999997       9.89246052E-14
   1.47000003       1.20064400E-13
   1.52999997       1.14175935E-13
   1.59000003       7.30572761E-14
   1.64999998      -3.45623218E-15
   1.71000004      -1.04994328E-13
   1.76999998      -2.10891173E-13
   1.83000004      -2.93919592E-13
   1.88999999      -3.27204843E-13
   1.95000005      -2.92629798E-13
   2.00999999      -1.87865064E-13
   2.06999993      -2.88226948E-14
   2.13000011       1.54614264E-13
   2.19000006       3.29213870E-13
   2.25000000       4.71661067E-13
   2.30999994       5.78011434E-13
   2.36999989       6.62437336E-13
   2.43000007       7.41513133E-13
   2.49000001       8.06959697E-13
   2.54999995       7.98007060E-13
   2.60999990       5.90714110E-13
   2.67000008       2.15249402E-14
   2.73000002      -1.04675491E-12
   2.78999996      -2.62602158E-12
   2.84999990      -4.50174663E-12
   2.91000009      -6.17683335E-12
   2.97000003      -6.90950942E-12
   3.02999997      -5.87505088E-12
   3.08999991      -2.44124339E-12
   3.15000010       3.50337012E-12
   3.21000004       1.12736157E-11
   3.26999998       1.92865775E-11
   3.32999992       2.52328297E-11
   3.39000010       2.65483451E-11
   3.45000005       2.11168808E-11
   3.50999999       8.03489653E-12
   3.56999993      -1.17891938E-11
   3.63000011      -3.54221583E-11
   3.69000006      -5.82156684E-11
   3.75000000      -7.46306975E-11
   3.80999994      -7.94080218E-11
   3.86999989      -6.87950669E-11
   3.93000007      -4.15040120E-11
   3.99000001       8.51917983E-13
   4.05000019       5.39373615E-11
   4.11000013       1.11388766E-10
   4.17000008       1.65767539E-10
   4.23000002       2.09460796E-10
   4.28999996       2.35287789E-10
   4.34999990       2.36740683E-10
   4.40999985       2.07989875E-10
   4.46999979       1.43927467E-10
   4.53000021       4.05341108E-11
   4.59000015      -1.04288127E-10
   4.65000010      -2.89527180E-10
   4.71000004      -5.09893239E-10
   4.76999998      -7.55202734E-10
   4.82999992      -1.01080366E-09
   4.88999987      -1.25926458E-09
   4.94999981      -1.48313473E-09
   5.01000023      -1.66815528E-09
   5.07000017      -1.80603521E-09
   5.13000011      -1.89590987E-09
   5.19000006      -1.94392968E-09
   5.25000000      -1.96096783E-09
   5.30999994      -1.95901984E-09
   5.36999989      -1.94730143E-09
   5.42999983      -1.92913596E-09
   5.48999977      -1.90045202E-09
   5.55000019      -1.85015925E-09
   5.61000013      -1.76203951E-09
   5.67000008      -1.61731384E-09
   5.73000002      -1.39691536E-09
   5.78999996      -1.08274634E-09
   5.84999990      -6.57735089E-10
   5.90999985      -1.05116818E-10
   5.96999979       5.92207006E-10
   6.03000021       1.45131551E-09
   6.09000015       2.48735610E-09
   6.15000010       3.71015751E-09
   6.21000004       5.12015896E-09
   6.26999998       6.70494193E-09
   6.32999992       8.43770298E-09
   6.38999987       1.02785842E-08
   6.44999981       1.21789645E-08
   6.51000023       1.40878971E-08
   6.57000017       1.59591433E-08
   6.63000011       1.77570083E-08
   6.69000006       1.94594580E-08
   6.75000000       2.10577920E-08
   6.80999994       2.25531611E-08
   6.86999989       2.39511362E-08
   6.92999983       2.52560728E-08
   6.98999977       2.64669975E-08
   7.05000019       2.75761849E-08
   7.11000013       2.85707031E-08
   7.17000008       2.94362419E-08
   7.23000002       3.01618677E-08
   7.28999996       3.07440757E-08
   7.34999990       3.11888080E-08
   7.40999985       3.15107336E-08
   7.46999979       3.17300142E-08
   7.53000021       3.18675610E-08
   7.59000015       3.19402496E-08
   7.65000010       3.19576330E-08
   7.71000004       3.19211573E-08
   7.76999998       3.18261435E-08
   7.82999992       3.16658699E-08
   7.88999987       3.14363646E-08
   7.94999981       3.11402673E-08
   8.01000023       3.07885450E-08
   8.06999969       3.03994874E-08
   8.13000011       2.99955154E-08
   8.18999958       2.95991232E-08
   8.25000000       2.92295361E-08
   8.31000042       2.89013453E-08
   8.36999989       2.86255251E-08
   8.43000031       2.84121349E-08
   8.48999977       2.82732788E-08
   8.55000019       2.82247061E-08
   8.60999966       2.82850419E-08
   8.67000008       2.84725683E-08
   8.72999954       2.88007094E-08
   8.78999996       2.92738669E-08
   8.85000038       2.98853280E-08
   8.90999985       3.06181498E-08
   8.97000027       3.14487707E-08
   9.02999973       3.23520908E-08
   9.09000015       3.33061863E-08
   9.14999962       3.42949278E-08
   9.21000004       3.53077425E-08
   9.27000046       3.63366972E-08
   9.32999992       3.73722706E-08
   9.39000034       3.83996124E-08
   9.44999981       3.93969017E-08
   9.51000023       4.03367793E-08
   9.56999969       4.11906207E-08
   9.63000011       4.19344168E-08
   9.68999958       4.25544648E-08
   9.75000000       4.30509033E-08
   9.81000042       4.34379501E-08
   9.86999989       4.37404566E-08
   9.93000031       4.39877503E-08
   9.98999977       4.42064838E-08
   10.0500002       4.44144135E-08
   10.1099997       4.46169004E-08
   10.1700001       4.48068214E-08
   10.2299995       4.49677380E-08
   10.2900000       4.50791724E-08
   10.3500004       4.51223201E-08
   10.4099998       4.50848248E-08
   10.4700003       4.49634712E-08
   10.5299997       4.47645547E-08
   10.5900002       4.45023183E-08
   10.6499996       4.41961170E-08
   10.7100000       4.38672529E-08
   10.7700005       4.35361116E-08
   10.8299999       4.32200906E-08
   10.8900003       4.29324984E-08
   10.9499998       4.26823803E-08
   11.0100002       4.24749729E-08
   11.0699997       4.23123900E-08
   11.1300001       4.21938893E-08
   11.1899996       4.21153210E-08
   11.2500000       4.20676223E-08
   11.3100004       4.20345856E-08
   11.3699999       4.19907096E-08
   11.4300003       4.19000514E-08
   11.4899998       4.17168984E-08
   11.5500002       4.13884926E-08
   11.6099997       4.08592520E-08
   11.6700001       4.00754381E-08
   11.7299995       3.89890573E-08
   11.7900000       3.75600671E-08
   11.8500004       3.57568091E-08
   11.9099998       3.35552173E-08
   11.9700003       3.09378478E-08
   12.0299997       2.78937531E-08
   12.0900002       2.44196521E-08
   12.1499996       2.05223074E-08
   12.2100000       1.62213922E-08
   12.2700005       1.15518732E-08
   12.3299999       6.56499921E-09
   12.3900003       1.32725186E-09
   12.4499998      -4.08299172E-09
   12.5100002      -9.58092539E-09
   12.5699997      -1.50822821E-08
   12.6300001      -2.05106865E-08
   12.6899996      -2.58039350E-08
   12.7500000      -3.09175903E-08
   12.8100004      -3.58247014E-08
   12.8699999      -4.05113596E-08
   12.9300003      -4.49690951E-08
   12.9899998      -4.91862515E-08
   13.0500002      -5.31411750E-08
   13.1099997      -5.67994114E-08
   13.1700001      -6.01162071E-08
   13.2299995      -6.30433377E-08
   13.2900000      -6.55381953E-08
   13.3500004      -6.75719960E-08
   13.4099998      -6.91346003E-08
   13.4700003      -7.02347478E-08
   13.5299997      -7.08963768E-08
   13.5900002      -7.11529395E-08
   13.6499996      -7.10423720E-08
   13.7100000      -7.06045995E-08
   13.7700005      -6.98824039E-08
   13.8299999      -6.89246207E-08
   13.8900003      -6.77897489E-08
   13.9499998      -6.65474644E-08
   14.0100002      -6.52762537E-08
   14.0699997      -6.40564579E-08
   14.1300001      -6.29599413E-08
   14.1899996      -6.20386587E-08
   14.2500000      -6.13154540E-08
   14.3100004      -6.07798825E-08
   14.3699999      -6.03909314E-08
   14.4300003      -6.00864496E-08
   14.4899998      -5.97974079E-08
   14.5500002      -5.94631260E-08
   14.6099997      -5.90437246E-08
   14.6700001      -5.85263003E-08
   14.7299995      -5.79234829E-08
   14.7900000      -5.72650940E-08
   14.8500004      -5.65856375E-08
   14.9099998      -5.59115065E-08
   14.9700003      -5.52516610E-08
   15.0299997      -5.45941994E-08
   15.0900002      -5.39095559E-08
   15.1499996      -5.31589102E-08
   15.2100000      -5.23052783E-08
   15.2700005      -5.13239016E-08
   15.3299999      -5.02092590E-08
   15.3900003      -4.89768013E-08
   15.4499998      -4.76593307E-08
   15.5100002      -4.62991672E-08
   15.5699997      -4.49384956E-08
   15.6300001      -4.36106582E-08
   15.6899996      -4.23347863E-08
   15.7500000      -4.11150189E-08
   15.8100004      -3.99441014E-08
   15.8699999      -3.88096240E-08
   15.9300003      -3.77003424E-08
   15.9899998      -3.66100110E-08
   16.0499992      -3.55372514E-08
   16.1100006      -3.44816016E-08
   16.1700001      -3.34375798E-08
   16.2299995      -3.23896465E-08
   16.2900009      -3.13108011E-08
   16.3500004      -3.01662340E-08
   16.4099998      -2.89213311E-08
   16.4699993      -2.75515379E-08
   16.5300007      -2.60502961E-08
   16.5900002      -2.44318539E-08
   16.6499996      -2.27274377E-08
   16.7099991      -2.09758557E-08
   16.7700005      -1.92117966E-08
   16.8299999      -1.74561450E-08
   16.8899994      -1.57118620E-08
   16.9500008      -1.39668597E-08
   17.0100002      -1.22024950E-08
   17.0699997      -1.04041629E-08
   17.1299992      -8.56969695E-09
   17.1900005      -6.71237599E-09
   17.2500000      -4.85761653E-09
   17.3099995      -3.03500514E-09
   17.3700008      -1.26907074E-09
   17.4300003       4.27568342E-10
   17.4899998       2.05628514E-09
   17.5499992       3.62947405E-09
   17.6100006       5.16426812E-09
   17.6700001       6.67578615E-09
   17.7299995       8.17259505E-09
   17.7900009       9.65583613E-09
   17.8500004       1.11217737E-08
   17.9099998       1.25661082E-08
   17.9699993       1.39878553E-08
   18.0300007       1.53909241E-08
   18.0900002       1.67827814E-08
   18.1499996       1.81708693E-08
   18.2099991       1.95586161E-08
   18.2700005       2.09430269E-08
   18.3299999       2.23152874E-08
   18.3899994       2.36644375E-08
   18.4500008       2.49827075E-08
   18.5100002       2.62701114E-08
   18.5699997       2.75358385E-08
   18.6299992       2.87951121E-08
   18.6900005       3.00620187E-08
   18.7500000       3.13407398E-08
   18.8099995       3.26186473E-08
   18.8700008       3.38644597E-08
   18.9300003       3.50329579E-08
   18.9899998       3.60752210E-08
   19.0499992       3.69511852E-08
   19.1100006       3.76402127E-08
   19.1700001       3.81460055E-08
   19.2299995       3.84943135E-08
   19.2900009       3.87246075E-08
   19.3500004       3.88788877E-08
   19.4099998       3.89918355E-08
   19.4699993       3.90854922E-08
   19.5300007       3.91695423E-08
   19.5900002       3.92461317E-08
   19.6499996       3.93163120E-08
   19.7099991       3.93847905E-08
   19.7700005       3.94607795E-08
   19.8299999       3.95544362E-08
   19.8899994       3.96703648E-08
   19.9500008       3.98009838E-08
   20.0100002       3.99226003E-08
   20.0699997       3.99963405E-08
   20.1299992       3.99742035E-08
   20.1900005       3.98087643E-08
   20.2500000       3.94638562E-08
   20.3099995       3.89230941E-08
   20.3700008       3.81937753E-08
   20.4300003       3.73053233E-08
   20.4899998       3.63029571E-08
   20.5499992       3.52389655E-08
   20.6100006       3.41642270E-08
   20.6700001       3.31224186E-08
   20.7299995       3.21479803E-08
   20.7900009       3.12674757E-08
   20.8500004       3.05027008E-08
   20.9099998       2.98733589E-08
   20.9699993       2.93974889E-08
   21.0300007       2.90888895E-08
   21.0900002       2.89520710E-08
   21.1499996       2.89764497E-08
   21.2099991       2.91320781E-08
   21.2700005       2.93691063E-08
   21.3299999       2.96223899E-08
   21.3899994       2.98211127E-08
   21.4500008       2.99019156E-08
   21.5100002       2.98224840E-08
   21.5699997       2.95718383E-08
   21.6299992       2.91739806E-08
   21.6900005       2.86828179E-08
   21.7500000       2.81688930E-08
   21.8099995       2.77009278E-08
   21.8700008       2.73272196E-08
   21.9300003       2.70625442E-08
   21.9899998       2.68847256E-08
   22.0499992       2.67422493E-08
   22.1100006       2.65704774E-08
   22.1700001       2.63112252E-08
   22.2299995       2.59291522E-08
   22.2900009       2.54196717E-08
   22.3500004       2.48062371E-08
   22.4099998       2.41287346E-08
   22.4699993       2.34280275E-08
   22.5300007       2.27328112E-08
   22.5900002       2.20536354E-08
   22.6499996       2.13857696E-08
   22.7099991       2.07187245E-08
   22.7700005       2.00475352E-08
   22.8299999       1.93802290E-08
   22.8899994       1.87377882E-08
   22.9500008       1.81463271E-08
   23.0100002       1.76247053E-08
   23.0699997       1.71729493E-08
   23.1299992       1.67666485E-08
   23.1900005       1.63600404E-08
   23.2500000       1.58968856E-08
   23.3099995       1.53250355E-08
   23.3700008       1.46090722E-08
   23.4300003       1.37362726E-08
   23.4899998       1.27139810E-08
   23.5499992       1.15599876E-08
   23.6100006       1.02903384E-08
   23.6700001       8.90985774E-09
   23.7299995       7.40936468E-09
   23.7900009       5.77060266E-09
   23.8500004       3.97663724E-09
   23.9099998       2.02317763E-09
   23.9699993      -7.40259451E-11
   24.0300007      -2.27888997E-09
   24.0900002      -4.54200055E-09
   24.1499996      -6.81210244E-09
   24.2099991      -9.04746233E-09
   24.2700005      -1.12226468E-08
   24.3299999      -1.33282256E-08
   24.3899994      -1.53639235E-08
   24.4500008      -1.73284835E-08
   24.5100002      -1.92108178E-08
   24.5699997      -2.09865600E-08
   24.6299992      -2.26217320E-08
   24.6900005      -2.40823947E-08
   24.7500000      -2.53465480E-08
   24.8099995      -2.64136020E-08
   24.8700008      -2.73076317E-08
   24.9300003      -2.80729502E-08
   24.9899998      -2.87635267E-08
   25.0499992      -2.94299802E-08
   25.1100006      -3.01087475E-08
   25.1700001      -3.08170272E-08
   25.2299995      -3.15548618E-08
   25.2900009      -3.23129790E-08
   25.3500004      -3.30829160E-08
   25.4099998      -3.38652306E-08
   25.4699993      -3.46723397E-08
   25.5300007      -3.55247600E-08
   25.5900002      -3.64420707E-08
   25.6499996      -3.74319313E-08
   25.7099991      -3.84816339E-08
   25.7700005      -3.95556192E-08
   25.8299999      -4.06005896E-08
   25.8899994      -4.15569268E-08
   25.9500008      -4.23726654E-08
   26.0100002      -4.30153690E-08
   26.0699997      -4.34774954E-08
   26.1299992      -4.37733334E-08
   26.1900005      -4.39285834E-08
   26.2500000      -4.39663417E-08
   26.3099995      -4.38948433E-08
   26.3700008      -4.37017107E-08
   26.4300003      -4.33570690E-08
   26.4899998      -4.28245990E-08
   26.5499992      -4.20764934E-08
   26.6100006      -4.11066381E-08
   26.6700001      -3.99368609E-08
   26.7299995      -3.86136136E-08
   26.7900009      -3.71959850E-08
   26.8500004      -3.57393901E-08
   26.9099998      -3.42808377E-08
   26.9699993      -3.28314549E-08
   27.0300007      -3.13791304E-08
   27.0900002      -2.99003347E-08
   27.1499996      -2.83767072E-08
   27.2099991      -2.68099178E-08
   27.2700005      -2.52289158E-08
   27.3299999      -2.36865159E-08
   27.3899994      -2.22462617E-08
   27.4500008      -2.09644266E-08
   27.5100002      -1.98738839E-08
   27.5699997      -1.89760048E-08
   27.6299992      -1.82436644E-08
   27.6900005      -1.76341324E-08
   27.7500000      -1.71068191E-08
   27.8099995      -1.66390457E-08
   27.8700008      -1.62338960E-08
   27.9300003      -1.59175162E-08
   27.9899998      -1.57274496E-08
   28.0499992      -1.56971591E-08
   28.1100006      -1.58431650E-08
   28.1700001      -1.61599054E-08
   28.2299995      -1.66239911E-08
   28.2900009      -1.72055490E-08
   28.3500004      -1.78814048E-08
   28.4099998      -1.86443216E-08
   28.4699993      -1.95043572E-08
   28.5300007      -2.04819557E-08
   28.5900002      -2.15959126E-08
   28.6499996      -2.28514381E-08
   28.7099991      -2.42333158E-08
   28.7700005      -2.57067416E-08
   28.8299999      -2.72250222E-08
   28.8899994      -2.87404731E-08
   28.9500008      -3.02136662E-08
   29.0100002      -3.16173363E-08
   29.0699997      -3.29339080E-08
   29.1299992      -3.41486306E-08
   29.1900005      -3.52422980E-08
   29.2500000      -3.61875827E-08
   29.3099995      -3.69512421E-08
   29.3700008      -3.75015929E-08
   29.4300003      -3.78182889E-08
   29.4899998      -3.79001435E-08
   29.5499992      -3.77677587E-08
   29.6100006      -3.74595608E-08
   29.6700001      -3.70227404E-08
   29.7299995      -3.65023176E-08
   29.7900009      -3.59322208E-08
   29.8500004      -3.53311549E-08
   29.9099998      -3.47042217E-08
   29.9699993      -3.40488278E-08
   30.0300007      -3.33622516E-08
   30.0900002      -3.26476410E-08
   30.1499996      -3.19161835E-08
   30.2099991      -3.11846762E-08
   30.2700005      -3.04694971E-08
   30.3299999      -2.97791942E-08
   30.3899994      -2.91084721E-08
   30.4500008      -2.84358563E-08
   30.5100002      -2.77262195E-08
   30.5699997      -2.69377320E-08
   30.6299992      -2.60314259E-08
   30.6900005      -2.49805527E-08
   30.7500000      -2.37769697E-08
   30.8099995      -2.24326033E-08
   30.8700008      -2.09755893E-08
   30.9300003      -1.94424334E-08
   30.9899998      -1.78687678E-08
   31.0499992      -1.62816658E-08
   31.1100006      -1.46958099E-08
   31.1700001      -1.31142910E-08
   31.2299995      -1.15331771E-08
   31.2900009      -9.94770577E-09
   31.3500004      -8.35767100E-09
   31.4099998      -6.77016621E-09
   31.4699993      -5.19916599E-09
   31.5300007      -3.66269459E-09
   31.5900002      -2.17910712E-09
   31.6499996      -7.64012353E-10
   31.7099991       5.71300451E-10
   31.7700005       1.81992299E-09
   31.8299999       2.97848568E-09
   31.8899994       4.04607814E-09
   31.9500008       5.02326181E-09
   32.0099983       5.91103921E-09
   32.0699997       6.70949429E-09
   32.1300011       7.41610906E-09
   32.1899986       8.02434297E-09
   32.2500000       8.52353121E-09
   32.3100014       8.90102214E-09
   32.3699989       9.14672960E-09
   32.4300003       9.25902643E-09
   32.4900017       9.24992261E-09
   32.5499992       9.14721188E-09
   32.6100006       8.99209684E-09
   32.6699982       8.83245743E-09
   32.7299995       8.71371242E-09
   32.7900009       8.67034444E-09
   32.8499985       8.72096884E-09
   32.9099998       8.86851659E-09
   32.9700012       9.10491060E-09
   33.0299988       9.41785228E-09
   33.0900002       9.79647474E-09
   33.1500015       1.02332223E-08
   33.2099991       1.07211164E-08
   33.2700005       1.12477005E-08
   33.3300018       1.17886518E-08
   33.3899994       1.23044588E-08
   33.4500008       1.27425812E-08
   33.5099983       1.30454447E-08
   33.5699997       1.31623210E-08
   33.6300011       1.30614568E-08
   33.6899986       1.27384467E-08
   33.7500000       1.22179467E-08
   33.8100014       1.15479786E-08
   33.8699989       1.07886393E-08
   33.9300003       9.99884087E-09
   33.9900017       9.22531740E-09
   34.0499992       8.49712212E-09
   34.1100006       7.82672771E-09
   34.1699982       7.21636839E-09
   34.2299995       6.66639810E-09
   34.2900009       6.18191542E-09
   34.3499985       5.77486281E-09
   34.4099998       5.46077716E-09
   34.4700012       5.25157562E-09
   34.5299988       5.14725329E-09
   34.5900002       5.12964649E-09
   34.6500015       5.16049248E-09
   34.7099991       5.18435117E-09
   34.7700005       5.13535037E-09
   34.8300018       4.94573849E-09
   34.8899994       4.55414018E-09
   34.9500008       3.91201027E-09
   35.0099983       2.98765435E-09
   35.0699997       1.76786208E-09
   35.1300011       2.57504879E-10
   35.1899986      -1.52253787E-09
   35.2500000      -3.53880880E-09
   35.3100014      -5.74962522E-09
   35.3699989      -8.10964629E-09
   35.4300003      -1.05737046E-08
   35.4900017      -1.30989859E-08
   35.5499992      -1.56451918E-08
   35.6100006      -1.81731004E-08
   35.6699982      -2.06427000E-08
   35.7299995      -2.30123938E-08
   35.7900009      -2.52402437E-08
   35.8499985      -2.72872409E-08
   35.9099998      -2.91214288E-08
   35.9700012      -3.07209653E-08
   36.0299988      -3.20745848E-08
   36.0900002      -3.31788748E-08
   36.1500015      -3.40334942E-08
   36.2099991      -3.46364182E-08
   36.2700005      -3.49816780E-08
   36.3300018      -3.50608858E-08
   36.3899994      -3.48682185E-08
   36.4500008      -3.44066429E-08
   36.5099983      -3.36924941E-08
   36.5699997      -3.27559633E-08
   36.6300011      -3.16368798E-08
   36.6899986      -3.03773291E-08
   36.7500000      -2.90141049E-08
   36.8100014      -2.75742842E-08
   36.8699989      -2.60756234E-08
   36.9300003      -2.45313814E-08
   36.9900017      -2.29568506E-08
   37.0499992      -2.13741149E-08
   37.1100006      -1.98122763E-08
   37.1699982      -1.83025968E-08
   37.2299995      -1.68706134E-08
   37.2900009      -1.55289470E-08
   37.3499985      -1.42745149E-08
   37.4099998      -1.30919178E-08
   37.4700012      -1.19619541E-08
   37.5299988      -1.08716049E-08
   37.5900002      -9.82081794E-09
   37.6500015      -8.82258000E-09
   37.7099991      -7.89562460E-09
   37.7700005      -7.05248215E-09
   37.8300018      -6.28788399E-09
   37.8899994      -5.57278401E-09
   37.9500008      -4.85713691E-09
   38.0099983      -4.08104350E-09
   38.0699997      -3.19041038E-09
   38.1300011      -2.15134732E-09
   38.1899986      -9.58013113E-10
   38.2500000       3.68747533E-10
   38.3100014       1.79096060E-09
   38.3699989       3.26714322E-09
   38.4300003       4.76451767E-09
   38.4900017       6.26530117E-09
   38.5499992       7.76522846E-09
   38.6100006       9.26571886E-09
   38.6699982       1.07634923E-08
   38.7299995       1.22422268E-08
   38.7900009       1.36696983E-08
   38.8499985       1.50015858E-08
   38.9099998       1.61905849E-08
   38.9700012       1.71977064E-08
   39.0299988       1.80021331E-08
   39.0900002       1.86066522E-08
   39.1500015       1.90372358E-08
   39.2099991       1.93370067E-08
   39.2700005       1.95562802E-08
   39.3300018       1.97413179E-08
   39.3899994       1.99246628E-08
   39.4500008       2.01196251E-08
   39.5099983       2.03205062E-08
   39.5699997       2.05086046E-08
   39.6300011       2.06623696E-08
   39.6899986       2.07685193E-08
   39.7500000       2.08302211E-08
   39.8100014       2.08691358E-08
   39.8699989       2.09199182E-08
   39.9300003       2.10186801E-08
   39.9900017       2.11893081E-08
   40.0499992       2.14329638E-08
   40.1100006       2.17251621E-08
   40.1699982       2.20222365E-08
   40.2299995       2.22752341E-08
   40.2900009       2.24460965E-08
   40.3499985       2.25197514E-08
   40.4099998       2.25069154E-08
   40.4700012       2.24361649E-08
   40.5299988       2.23380159E-08
   40.5900002       2.22273293E-08
   40.6500015       2.20912479E-08
   40.7099991       2.18879563E-08
   40.7700005       2.15573834E-08
   40.8300018       2.10402362E-08
   40.8899994       2.02983834E-08
   40.9500008       1.93288727E-08
   41.0099983       1.81662649E-08
   41.0699997       1.68722298E-08
   41.1300011       1.55161608E-08
   41.1899986       1.41537484E-08
   41.2500000       1.28110687E-08
   41.3100014       1.14794405E-08
   41.3699989       1.01222417E-08
   41.4300003       8.69047323E-09
   41.4900017       7.14094961E-09
   41.5499992       5.45050494E-09
   41.6100006       3.62162500E-09
   41.6699982       1.67853775E-09
   41.7299995      -3.43571283E-10
   41.7900009      -2.41123388E-09
   41.8499985      -4.50215198E-09
   41.9099998      -6.60821842E-09
   41.9700012      -8.73185435E-09
   42.0299988      -1.08780931E-08
   42.0900002      -1.30461659E-08
   42.1500015      -1.52238968E-08
   42.2099991      -1.73864709E-08
   42.2700005      -1.94990477E-08
   42.3300018      -2.15213589E-08
   42.3899994      -2.34122606E-08
   42.4500008      -2.51331844E-08
   42.5099983      -2.66506728E-08
   42.5699997      -2.79388512E-08
   42.6300011      -2.89824822E-08
   42.6899986      -2.97800842E-08
   42.7500000      -3.03456105E-08
   42.8100014      -3.07068113E-08
   42.8699989      -3.08994039E-08
   42.9300003      -3.09580130E-08
   42.9900017      -3.09066941E-08
   43.0499992      -3.07526591E-08
   43.1100006      -3.04859213E-08
   43.1699982      -3.00853067E-08
   43.2299995      -2.95285005E-08
   43.2900009      -2.88021020E-08
   43.3499985      -2.79075500E-08
   43.4099998      -2.68608282E-08
   43.4700012      -2.56866510E-08
   43.5299988      -2.44104061E-08
   43.5900002      -2.30519248E-08
   43.6500015      -2.16240537E-08
   43.7099991      -2.01363317E-08
   43.7700005      -1.86014013E-08
   43.8300018      -1.70402750E-08
   43.8899994      -1.54831632E-08
   43.9500008      -1.39646970E-08
   44.0099983      -1.25153257E-08
   44.0699997      -1.11526584E-08
   44.1300011      -9.87676430E-09
   44.1899986      -8.67173977E-09
   44.2500000      -7.51310747E-09
   44.3100014      -6.37792352E-09
   44.3699989      -5.25338084E-09
   44.4300003      -4.14038936E-09
   44.4900017      -3.05093240E-09
   44.5499992      -2.00074579E-09
   44.6100006      -1.00082609E-09
   44.6699982      -5.16282538E-11
   44.7299995       8.57534654E-10
   44.7900009       1.74374093E-09
   44.8499985       2.62248356E-09
   44.9099998       3.49983442E-09
   44.9700012       4.36783276E-09
   45.0299988       5.20466692E-09
   45.0900002       5.97916472E-09
   45.1500015       6.65751321E-09
   45.2099991       7.20954896E-09
   45.2700005       7.61258789E-09
   45.3300018       7.85212251E-09
   45.3899994       7.92015697E-09
   45.4500008       7.81278775E-09
   45.5099983       7.52858931E-09
   45.5699997       7.06857994E-09
   45.6300011       6.43750564E-09
   45.6899986       5.64541347E-09
   45.7500000       4.70837813E-09
   45.8100014       3.64776231E-09
   45.8699989       2.48816812E-09
   45.9300003       1.25489352E-09
   45.9900017      -2.81743049E-11
   46.0499992      -1.33968048E-09
   46.1100006      -2.66104716E-09
   46.1699982      -3.97645916E-09
   46.2299995      -5.27325961E-09
   46.2900009      -6.54297416E-09
   46.3499985      -7.78250975E-09
   46.4099998      -8.99459351E-09
   46.4700012      -1.01865893E-08
   46.5299988      -1.13675185E-08
   46.5900002      -1.25441257E-08
   46.6500015      -1.37176004E-08
   46.7099991      -1.48826897E-08
   46.7700005      -1.60301035E-08
   46.8300018      -1.71517236E-08
   46.8899994      -1.82465918E-08
   46.9500008      -1.93250020E-08
   47.0099983      -2.04083399E-08
   47.0699997      -2.15239115E-08
   47.1300011      -2.26961117E-08
   47.1899986      -2.39370497E-08
   47.2500000      -2.52403396E-08
   47.3100014      -2.65807767E-08
   47.3699989      -2.79204659E-08
   47.4300003      -2.92192457E-08
   47.4900017      -3.04454453E-08
   47.5499992      -3.15825766E-08
   47.6100006      -3.26290497E-08
   47.6699982      -3.35905668E-08
   47.7299995      -3.44677318E-08
   47.7900009      -3.52431400E-08
   47.8499985      -3.58723469E-08
   47.9099998      -3.62815697E-08
   47.9700012      -3.63722776E-08
   48.0299988      -3.60304533E-08
   48.0900002      -3.51365159E-08
   48.1500015      -3.35720607E-08
   48.2099991      -3.12207007E-08
   48.2700005      -2.79623080E-08
   48.3300018      -2.36620519E-08
   48.3899994      -1.81566655E-08
   48.4500008      -1.12408971E-08
   48.5099983      -2.65627564E-09
   48.5699997       7.91669930E-09
   48.6300011       2.08633040E-08
   48.6899986       3.66376476E-08
   48.7500000       5.57661224E-08
   48.8100014       7.88533541E-08
   48.8699989       1.06592481E-07
   48.9300003       1.39780553E-07
   48.9900017       1.79338983E-07
   49.0499992       2.26338074E-07
   49.1100006       2.82024189E-07
   49.1699982       3.47848243E-07
   49.2299995       4.25494818E-07
   49.2900009       5.16911996E-07
   49.3499985       6.24343954E-07
   49.4099998       7.50366610E-07
   49.4700012       8.97929340E-07
   49.5299988       1.07040262E-06
   49.5900002       1.27163048E-06
   49.6500015       1.50598873E-06
   49.7099991       1.77844584E-06
   49.7700005       2.09462769E-06
   49.8300018       2.46088462E-06
   49.8899994       2.88436399E-06
   49.9500008       3.37308870E-06
   50.0099983       3.93604205E-06
   50.0699997       4.58326031E-06
   50.1300011       5.32592867E-06
   50.1899986       6.17648448E-06
   50.2500000       7.14871703E-06
   50.3100014       8.25787447E-06
   50.3699989       9.52076334E-06
   50.4300003       1.09558587E-05
   50.4900017       1.25834122E-05
   50.5499992       1.44255673E-05
   50.6100006       1.65064648E-05