  -2.400000      0.0000000E+00
  -2.340000      0.0000000E+00
  -2.280000      0.0000000E+00
  -2.220000      0.0000000E+00
  -2.160000      0.0000000E+00
  -2.100000      6.1924740E-21
  -2.040000      5.2728712E-20
  -1.980000      2.2895866E-19
  -1.920000      6.5510983E-19
  -1.860000      1.3124285E-18
  -1.800000      1.6838465E-18
  -1.740000      3.5662375E-19
  -1.680000     -4.9742361E-18
  -1.620000     -1.6499044E-17
  -1.560000     -3.3937159E-17
  -1.500000     -5.1324760E-17
  -1.440000     -5.4646602E-17
  -1.380000     -2.2930236E-17
  -1.320000      6.4806213E-17
  -1.260000      2.1630937E-16
  -1.200000      4.0958596E-16
  -1.140000      5.8005711E-16
  -1.080000      6.2076361E-16
  -1.020000      4.0419875E-16
 -0.9600000     -1.7098234E-16
 -0.9000000     -1.1148977E-15
 -0.8400000     -2.2818655E-15
 -0.7800000     -3.3360988E-15
 -0.7200000     -3.7811580E-15
 -0.6600000     -3.0769304E-15
 -0.6000000     -8.4102304E-16
 -0.5400000      2.9097174E-15
 -0.4800000      7.5647970E-15
 -0.4200000      1.1883437E-14
 -0.3600000      1.4207071E-14
 -0.3000000      1.2938258E-14
 -0.2400000      7.1859895E-15
 -0.1800000     -2.6416993E-15
 -0.1200000     -1.4577059E-14
 -5.9999999E-02 -2.5389155E-14
  0.0000000E+00 -3.1479922E-14
  5.9999999E-02 -3.0157121E-14
  0.1200000     -2.0823416E-14
  0.1800000     -5.5373974E-15
  0.2400000      1.1437992E-14
  0.3000000      2.5096251E-14
  0.3600000      3.1673706E-14
  0.4200000      3.0325182E-14
  0.4800000      2.3634272E-14
  0.5400000      1.6503966E-14
  0.6000000      1.3681967E-14
  0.6600000      1.6902207E-14
  0.7200000      2.3017832E-14
  0.7800000      2.4308341E-14
  0.8400000      1.1355953E-14
  0.9000000     -2.2222226E-14
  0.9600000     -7.4875280E-14
   1.020000     -1.3414909E-13
   1.080000     -1.7736520E-13
   1.140000     -1.7661480E-13
   1.200000     -1.0737771E-13
   1.260000      4.1138296E-14
   1.320000      2.5660507E-13
   1.380000      4.9802957E-13
   1.440000      6.9674323E-13
   1.500000      7.6600060E-13
   1.560000      6.2008569E-13
   1.620000      2.0178770E-13
   1.680000     -4.8600170E-13
   1.740000     -1.3526074E-12
   1.800000     -2.2070835E-12
   1.860000     -2.7729420E-12
   1.920000     -2.7384208E-12
   1.980000     -1.8415963E-12
   2.040000      2.3498635E-14
   2.100000      2.7072736E-12
   2.160000      5.7480192E-12
   2.220000      8.3939947E-12
   2.280000      9.7260091E-12
   2.340000      8.8765913E-12
   2.400000      5.3096642E-12
   2.460000     -9.0509951E-13
   2.520000     -8.9064641E-12
   2.580000     -1.7024659E-11
   2.640000     -2.2987161E-11
   2.700000     -2.4354269E-11
   2.760000     -1.9133211E-11
   2.820000     -6.4628901E-12
   2.880000      1.2779260E-11
   2.940000      3.5609217E-11
   3.000000      5.6945195E-11
   3.060000      7.0073509E-11
   3.120000      6.7566487E-11
   3.180000      4.2549721E-11
   3.240000     -9.8747651E-12
   3.300000     -9.1306802E-11
   3.360000     -1.9910452E-10
   3.420000     -3.2606126E-10
   3.480000     -4.6085635E-10
   3.540000     -5.8930422E-10
   3.600000     -6.9627570E-10
   3.660000     -7.6803069E-10
   3.720000     -7.9460144E-10
   3.780000     -7.7183676E-10
   3.840000     -7.0276091E-10
   3.900000     -5.9801625E-10
   3.960000     -4.7532106E-10
   4.020000     -3.5805087E-10
   4.080000     -2.7320157E-10
   4.140000     -2.4908703E-10
   4.200000     -3.1312961E-10
   4.260000     -4.9003540E-10
   4.320000     -8.0050250E-10
   4.380000     -1.2604480E-09
   4.440000     -1.8805919E-09
   4.500000     -2.6661531E-09
   4.560000     -3.6164289E-09
   4.620000     -4.7241522E-09
   4.680000     -5.9747065E-09
   4.740000     -7.3454904E-09
   4.800000     -8.8058574E-09
   4.860000     -1.0318039E-08
   4.920000     -1.1839303E-08
   4.980000     -1.3325256E-08
   5.040000     -1.4733816E-08
   5.100000     -1.6029093E-08
   5.160000     -1.7184297E-08
   5.220000     -1.8182988E-08
   5.280000     -1.9018406E-08
   5.340000     -1.9691180E-08
   5.400000     -2.0206228E-08
   5.460000     -2.0569887E-08
   5.520000     -2.0788226E-08
   5.580000     -2.0867045E-08
   5.640000     -2.0813426E-08
   5.700000     -2.0638135E-08
   5.760000     -2.0357756E-08
   5.820000     -1.9995571E-08
   5.880000     -1.9580451E-08
   5.940000     -1.9143730E-08
   6.000000     -1.8714672E-08
   6.060000     -1.8315585E-08
   6.120000     -1.7957861E-08
   6.180000     -1.7640062E-08
   6.240000     -1.7348720E-08
   6.300000     -1.7061868E-08
   6.360000     -1.6754676E-08
   6.420000     -1.6406009E-08
   6.480000     -1.6004428E-08
   6.540000     -1.5552295E-08
   6.600000     -1.5067013E-08
   6.660000     -1.4579197E-08
   6.720000     -1.4128330E-08
   6.780000     -1.3757092E-08
   6.840000     -1.3505810E-08
   6.900000     -1.3408309E-08
   6.960000     -1.3489911E-08
   7.020000     -1.3767496E-08
   7.080000     -1.4250899E-08
   7.140000     -1.4944515E-08
   7.200000     -1.5847947E-08
   7.260000     -1.6955084E-08
   7.320000     -1.8251642E-08
   7.380000     -1.9712040E-08
   7.440000     -2.1296986E-08
   7.500000     -2.2953307E-08
   7.560000     -2.4617107E-08
   7.620000     -2.6220516E-08
   7.680000     -2.7701136E-08
   7.740000     -2.9012263E-08
   7.800000     -3.0131286E-08
   7.860000     -3.1063806E-08
   7.920000     -3.1841850E-08
   7.980000     -3.2516038E-08
   8.040000     -3.3143252E-08
   8.100000     -3.3772729E-08
   8.160000     -3.4434127E-08
   8.220000     -3.5130594E-08
   8.280000     -3.5838699E-08
   8.340000     -3.6514962E-08
   8.400000     -3.7107124E-08
   8.460000     -3.7566931E-08
   8.520000     -3.7860875E-08
   8.580000     -3.7976118E-08
   8.640000     -3.7920188E-08
   8.700000     -3.7714763E-08
   8.760000     -3.7385380E-08
   8.820000     -3.6949952E-08
   8.880000     -3.6409112E-08
   8.940000     -3.5740953E-08
   9.000000     -3.4901511E-08
   9.060000     -3.3831085E-08
   9.120000     -3.2464950E-08
   9.180000     -3.0746065E-08
   9.240000     -2.8636881E-08
   9.300000     -2.6127500E-08
   9.360000     -2.3238313E-08
   9.420000     -2.0016502E-08
   9.480000     -1.6527325E-08
   9.540000     -1.2842329E-08
   9.600000     -9.0274144E-09
   9.660000     -5.1336997E-09
   9.720000     -1.1933406E-09
   9.780000      2.7788409E-09
   9.840000      6.7786470E-09
   9.900000      1.0802777E-08
   9.960000      1.4838935E-08
   10.02000      1.8858621E-08
   10.08000      2.2814696E-08
   10.14000      2.6644477E-08
   10.20000      3.0277604E-08
   10.26000      3.3646643E-08
   10.32000      3.6697614E-08
   10.38000      3.9397669E-08
   10.44000      4.1737895E-08
   10.50000      4.3730555E-08
   10.56000      4.5401549E-08
   10.62000      4.6780304E-08
   10.68000      4.7889991E-08
   10.74000      4.8740823E-08
   10.80000      4.9328406E-08
   10.86000      4.9637503E-08
   10.92000      4.9649909E-08
   10.98000      4.9353872E-08
   11.04000      4.8751950E-08
   11.10000      4.7864599E-08
   11.16000      4.6728140E-08
   11.22000      4.5387488E-08
   11.28000      4.3885684E-08
   11.34000      4.2253415E-08
   11.40000      4.0501799E-08
   11.46000      3.8620794E-08
   11.52000      3.6584023E-08
   11.58000      3.4358870E-08
   11.64000      3.1918940E-08
   11.70000      2.9255313E-08
   11.76000      2.6383061E-08
   11.82000      2.3340844E-08
   11.88000      2.0183450E-08
   11.94000      1.6969334E-08
   12.00000      1.3746924E-08
   12.06000      1.0544050E-08
   12.12000      7.3640574E-09
   12.18000      4.1901167E-09
   12.24000      9.9658182E-10
   12.30000     -2.2362310E-09
   12.36000     -5.5088050E-09
   12.42000     -8.7953733E-09
   12.48000     -1.2045764E-08
   12.54000     -1.5195862E-08
   12.60000     -1.8183393E-08
   12.66000     -2.0963867E-08
   12.72000     -2.3521249E-08
   12.78000     -2.5869715E-08
   12.84000     -2.8045864E-08
   12.90000     -3.0093933E-08
   12.96000     -3.2049027E-08
   13.02000     -3.3923968E-08
   13.08000     -3.5704016E-08
   13.14000     -3.7351118E-08
   13.20000     -3.8815912E-08
   13.26000     -4.0053266E-08
   13.32000     -4.1035900E-08
   13.38000     -4.1761645E-08
   13.44000     -4.2251862E-08
   13.50000     -4.2542041E-08
   13.56000     -4.2667821E-08
   13.62000     -4.2651440E-08
   13.68000     -4.2493280E-08
   13.74000     -4.2171461E-08
   13.80000     -4.1649798E-08
   13.86000     -4.0891738E-08
   13.92000     -3.9876138E-08
   13.98000     -3.8610139E-08
   14.04000     -3.7135230E-08
   14.10000     -3.5524536E-08
   14.16000     -3.3871789E-08
   14.22000     -3.2274642E-08
   14.28000     -3.0816498E-08
   14.34000     -2.9551382E-08
   14.40000     -2.8495631E-08
   14.46000     -2.7628426E-08
   14.52000     -2.6900793E-08
   14.58000     -2.6250639E-08
   14.64000     -2.5619670E-08
   14.70000     -2.4967809E-08
   14.76000     -2.4281455E-08
   14.82000     -2.3573847E-08
   14.88000     -2.2878046E-08
   14.94000     -2.2235113E-08
   15.00000     -2.1681160E-08
   15.06000     -2.1237010E-08
   15.12000     -2.0903045E-08
   15.18000     -2.0660110E-08
   15.24000     -2.0475515E-08
   15.30000     -2.0311864E-08
   15.36000     -2.0135939E-08
   15.42000     -1.9925194E-08
   15.48000     -1.9670502E-08
   15.54000     -1.9374975E-08
   15.60000     -1.9049860E-08
   15.66000     -1.8709100E-08
   15.72000     -1.8364275E-08
   15.78000     -1.8021172E-08
   15.84000     -1.7678520E-08
   15.90000     -1.7328702E-08
   15.96000     -1.6959756E-08
   16.02000     -1.6557834E-08
   16.08000     -1.6109388E-08
   16.14000     -1.5602733E-08
   16.20000     -1.5028863E-08
   16.26000     -1.4381664E-08
   16.32000     -1.3657742E-08
   16.38000     -1.2856192E-08
   16.44000     -1.1978535E-08
   16.50000     -1.1029132E-08
   16.56000     -1.0016156E-08
   16.62000     -8.9529761E-09
   16.68000     -7.8594073E-09
   16.74000     -6.7620167E-09
   16.80000     -5.6927085E-09
   16.86000     -4.6852935E-09
   16.92000     -3.7705568E-09
   16.98000     -2.9711795E-09
   17.04000     -2.2982900E-09
   17.10000     -1.7511185E-09
   17.16000     -1.3201573E-09
   17.22000     -9.9282360E-10
   17.28000     -7.5944506E-10
   17.34000     -6.1704264E-10
   17.40000     -5.6910388E-10
   17.46000     -6.2107414E-10
   17.52000     -7.7304019E-10
   17.58000     -1.0123089E-09
   17.64000     -1.3087932E-09
   17.70000     -1.6152493E-09
   17.76000     -1.8728408E-09
   17.82000     -2.0208260E-09
   17.88000     -2.0079747E-09
   17.94000     -1.8029118E-09
   18.00000     -1.4009746E-09
   18.06000     -8.2611873E-10
   18.12000     -1.2761232E-10
   18.18000      6.2758021E-10
   18.24000      1.3648959E-09
   18.30000      2.0124247E-09
   18.36000      2.5090197E-09
   18.42000      2.8086342E-09
   18.48000      2.8804255E-09
   18.54000      2.7055971E-09
   18.60000      2.2731292E-09
   18.66000      1.5770164E-09
   18.72000      6.1707700E-10
   18.78000     -5.9608907E-10
   18.84000     -2.0333497E-09
   18.90000     -3.6394894E-09
   18.96000     -5.3294911E-09
   19.02000     -6.9916086E-09
   19.08000     -8.4982883E-09
   19.14000     -9.7235713E-09
   19.20000     -1.0563418E-08
   19.26000     -1.0954184E-08
   19.32000     -1.0884702E-08
   19.38000     -1.0398873E-08
   19.44000     -9.5880202E-09
   19.50000     -8.5746725E-09
   19.56000     -7.4913826E-09
   19.62000     -6.4591150E-09
   19.68000     -5.5695195E-09
   19.74000     -4.8741913E-09
   19.80000     -4.3821666E-09
   19.86000     -4.0649191E-09
   19.92000     -3.8665418E-09
   19.98000     -3.7159551E-09
   20.04000     -3.5381300E-09
   20.10000     -3.2622585E-09
   20.16000     -2.8262559E-09
   20.22000     -2.1784019E-09
   20.28000     -1.2778141E-09
   20.34000     -9.5533977E-11
   20.40000      1.3827488E-09
   20.46000      3.1525453E-09
   20.52000      5.1864393E-09
   20.58000      7.4321056E-09
   20.64000      9.8144222E-09
   20.70000      1.2242559E-08
   20.76000      1.4621399E-08
   20.82000      1.6865066E-08
   20.88000      1.8909443E-08
   20.94000      2.0720535E-08
   21.00000      2.2296504E-08
   21.06000      2.3662823E-08
   21.12000      2.4861794E-08
   21.18000      2.5939103E-08
   21.24000      2.6930742E-08
   21.30000      2.7853341E-08
   21.36000      2.8699944E-08
   21.42000      2.9441699E-08
   21.48000      3.0034396E-08
   21.54000      3.0427643E-08
   21.60000      3.0573958E-08
   21.66000      3.0435498E-08
   21.72000      2.9987021E-08
   21.78000      2.9215178E-08
   21.84000      2.8115311E-08
   21.90000      2.6687710E-08
   21.96000      2.4935156E-08
   22.02000      2.2862764E-08
   22.08000      2.0479980E-08
   22.14000      1.7803517E-08
   22.20000      1.4859534E-08
   22.26000      1.1683637E-08
   22.32000      8.3181080E-09
   22.38000      4.8069713E-09
   22.44000      1.1902670E-09
   22.50000     -2.5007927E-09
   22.56000     -6.2465211E-09
   22.62000     -1.0038829E-08
   22.68000     -1.3879026E-08
   22.74000     -1.7774246E-08
   22.80000     -2.1733486E-08
   22.86000     -2.5764026E-08
   22.92000     -2.9868652E-08
   22.98000     -3.4043826E-08
   23.04000     -3.8278881E-08
   23.10000     -4.2556191E-08
   23.16000     -4.6852460E-08
   23.22000     -5.1140798E-08
   23.28000     -5.5393375E-08
   23.34000     -5.9583964E-08
   23.40000     -6.3689896E-08
   23.46000     -6.7692980E-08
   23.52000     -7.1579592E-08
   23.58000     -7.5340097E-08
   23.64000     -7.8968263E-08
   23.70000     -8.2460957E-08
   23.76000     -8.5818165E-08
   23.82000     -8.9042999E-08
   23.88000     -9.2140972E-08
   23.94000     -9.5118224E-08
   24.00000     -9.7978393E-08
   24.06000     -1.0071858E-07
   24.12000     -1.0332524E-07
   24.18000     -1.0577106E-07
   24.24000     -1.0801390E-07
   24.30000     -1.0999857E-07
   24.36000     -1.1166135E-07
   24.42000     -1.1293709E-07
   24.48000     -1.1376736E-07
   24.54000     -1.1410867E-07
   24.60000     -1.1393873E-07
   24.66000     -1.1325980E-07
   24.72000     -1.1209811E-07
   24.78000     -1.1049924E-07
   24.84000     -1.0852037E-07
   24.90000     -1.0622097E-07
   24.96000     -1.0365356E-07
   25.02000     -1.0085705E-07
   25.08000     -9.7853800E-08
   25.14000     -9.4651348E-08
   25.20000     -9.1248012E-08
   25.26000     -8.7641027E-08
   25.32000     -8.3834607E-08
   25.38000     -7.9845684E-08
   25.44000     -7.5705643E-08
   25.50000     -7.1457521E-08
   25.56000     -6.7149777E-08
   25.62000     -6.2828626E-08
   25.68000     -5.8531697E-08
   25.74000     -5.4284989E-08
   25.80000     -5.0104081E-08
   25.86000     -4.5998924E-08
   25.92000     -4.1980268E-08
   25.98000     -3.8065153E-08
   26.04000     -3.4279392E-08
   26.10000     -3.0656032E-08
   26.16000     -2.7230458E-08
   26.22000     -2.4033969E-08
   26.28000     -2.1088303E-08
   26.34000     -1.8403018E-08
   26.40000     -1.5976651E-08
   26.46000     -1.3801001E-08
   26.52000     -1.1866938E-08
   26.58000     -1.0169670E-08
   26.64000     -8.7119334E-09
   26.70000     -7.5044611E-09
   26.76000     -6.5641155E-09
   26.82000     -5.9107559E-09
   26.88000     -5.5638982E-09
   26.94000     -5.5398885E-09
   27.00000     -5.8497207E-09
   27.06000     -6.4972681E-09
   27.12000     -7.4777295E-09
   27.18000     -8.7763832E-09
   27.24000     -1.0368111E-08
   27.30000     -1.2218253E-08
   27.36000     -1.4285098E-08
   27.42000     -1.6523748E-08
   27.48000     -1.8890558E-08
   27.54000     -2.1347180E-08
   27.60000     -2.3863258E-08
   27.66000     -2.6417490E-08
   27.72000     -2.8997214E-08
   27.78000     -3.1597001E-08
   27.84000     -3.4216725E-08
   27.90000     -3.6859319E-08
   27.96000     -3.9528079E-08
   28.02000     -4.2223562E-08
   28.08000     -4.4940393E-08
   28.14000     -4.7664752E-08
   28.20000     -5.0373707E-08
   28.26000     -5.3037098E-08
   28.32000     -5.5622074E-08
   28.38000     -5.8099133E-08
   28.44000     -6.0447597E-08
   28.50000     -6.2658472E-08
   28.56000     -6.4733115E-08
   28.62000     -6.6677870E-08
   28.68000     -6.8496362E-08
   28.74000     -7.0182018E-08
   28.80000     -7.1713856E-08
   28.86000     -7.3057201E-08
   28.92000     -7.4169428E-08
   28.98000     -7.5008984E-08
   29.04000     -7.5544961E-08
   29.10000     -7.5764206E-08
   29.16000     -7.5673952E-08
   29.22000     -7.5299582E-08
   29.28000     -7.4678248E-08
   29.34000     -7.3850437E-08
   29.40000     -7.2851719E-08
   29.46000     -7.1706381E-08
   29.52000     -7.0424200E-08
   29.58000     -6.9000535E-08
   29.64000     -6.7419499E-08
   29.70000     -6.5659293E-08
   29.76000     -6.3698508E-08
   29.82000     -6.1522506E-08
   29.88000     -5.9128269E-08
   29.94000     -5.6527067E-08
   30.00000     -5.3744269E-08
   30.06000     -5.0816453E-08
   30.12000     -4.7786539E-08
   30.18000     -4.4698247E-08
   30.24000     -4.1591136E-08
   30.30000     -3.8497305E-08
   30.36000     -3.5440216E-08
   30.42000     -3.2435327E-08
   30.48000     -2.9491865E-08
   30.54000     -2.6614906E-08
   30.60000     -2.3807031E-08
   30.66000     -2.1069404E-08
   30.72000     -1.8402417E-08
   30.78000     -1.5806291E-08
   30.84000     -1.3281947E-08
   30.90000     -1.0832108E-08
   30.96000     -8.4622833E-09
   31.02000     -6.1810335E-09
   31.08000     -3.9990677E-09
   31.14000     -1.9271318E-09
   31.20000      2.6793142E-11
   31.26000      1.8599902E-09
   31.32000      3.5761127E-09
   31.38000      5.1841846E-09
   31.44000      6.6955446E-09
   31.50000      8.1196569E-09
   31.56000      9.4602974E-09
   31.62000      1.0713637E-08
   31.68000      1.1869109E-08
   31.74000      1.2912851E-08
   31.80000      1.3832446E-08
   31.86000      1.4621052E-08
   31.92000      1.5279134E-08
   31.98000      1.5812930E-08
   32.04000      1.6230015E-08
   32.10000      1.6533599E-08
   32.16000      1.6717717E-08
   32.22000      1.6765314E-08
   32.28000      1.6650246E-08
   32.34000      1.6342790E-08
   32.40000      1.5817202E-08
   32.46000      1.5058978E-08
   32.52000      1.4069686E-08
   32.58000      1.2867951E-08
   32.64000      1.1486383E-08
   32.70000      9.9654622E-09
   32.76000      8.3463245E-09
   32.82000      6.6645964E-09
   32.88000      4.9470530E-09
   32.94000      3.2118346E-09
   33.00000      1.4717227E-09
   33.06000     -2.6114599E-10
   33.12000     -1.9712745E-09
   33.18000     -3.6384185E-09
   33.24000     -5.2397322E-09
   33.30000     -6.7549397E-09
   33.36000     -8.1727149E-09
   33.42000     -9.4957500E-09
   33.48000     -1.0742274E-08
   33.54000     -1.1942908E-08
   33.60000     -1.3133472E-08
   33.66000     -1.4345809E-08
   33.72000     -1.5599648E-08
   33.78000     -1.6898177E-08
   33.84000     -1.8228857E-08
   33.90000     -1.9569182E-08
   33.96000     -2.0895442E-08
   34.02000     -2.2191488E-08
   34.08000     -2.3454604E-08
   34.14000     -2.4696629E-08
   34.20000     -2.5940155E-08
   34.26000     -2.7211325E-08
   34.32000     -2.8531899E-08
   34.38000     -2.9913409E-08
   34.44000     -3.1355331E-08
   34.50000     -3.2847755E-08
   34.56000     -3.4377216E-08
   34.62000     -3.5933319E-08
   34.68000     -3.7513292E-08
   34.74000     -3.9122490E-08
   34.80000     -4.0770310E-08
   34.86000     -4.2462741E-08
   34.92000     -4.4194131E-08
   34.98000     -4.5941331E-08
   35.04000     -4.7662549E-08
   35.10000     -4.9302013E-08
   35.16000     -5.0799414E-08
   35.22000     -5.2101594E-08
   35.28000     -5.3173061E-08
   35.34000     -5.4002154E-08
   35.40000     -5.4600971E-08
   35.46000     -5.4999127E-08
   35.52000     -5.5233226E-08
   35.58000     -5.5335285E-08
   35.64000     -5.5323678E-08
   35.70000     -5.5199283E-08
   35.76000     -5.4947908E-08
   35.82000     -5.4548003E-08
   35.88000     -5.3980980E-08
   35.94000     -5.3240583E-08
   36.00000     -5.2338020E-08
   36.06000     -5.1301019E-08
   36.12000     -5.0166964E-08
   36.18000     -4.8972314E-08
   36.24000     -4.7741903E-08
   36.30000     -4.6481944E-08
   36.36000     -4.5179355E-08
   36.42000     -4.3808125E-08
   36.48000     -4.2340996E-08
   36.54000     -4.0762831E-08
   36.60000     -3.9081410E-08
   36.66000     -3.7332025E-08
   36.72000     -3.5574001E-08
   36.78000     -3.3880017E-08
   36.84000     -3.2321129E-08
   36.90000     -3.0951895E-08
   36.96000     -2.9799805E-08
   37.02000     -2.8861995E-08
   37.08000     -2.8109833E-08
   37.14000     -2.7499711E-08
   37.20000     -2.6986651E-08
   37.26000     -2.6536691E-08
   37.32000     -2.6134650E-08
   37.38000     -2.5785473E-08
   37.44000     -2.5509239E-08
   37.50000     -2.5331760E-08
   37.56000     -2.5273861E-08
   37.62000     -2.5342539E-08
   37.68000     -2.5526633E-08
   37.74000     -2.5798206E-08
   37.80000     -2.6119219E-08
   37.86000     -2.6451472E-08
   37.92000     -2.6766861E-08
   37.98000     -2.7054694E-08
   38.04000     -2.7323688E-08
   38.10000     -2.7597730E-08
   38.16000     -2.7906506E-08
   38.22000     -2.8273835E-08
   38.28000     -2.8707513E-08
   38.34000     -2.9194211E-08
   38.40000     -2.9701505E-08
   38.46000     -3.0186758E-08
   38.52000     -3.0610263E-08
   38.58000     -3.0948410E-08
   38.64000     -3.1202418E-08
   38.70000     -3.1399619E-08
   38.76000     -3.1586495E-08
   38.82000     -3.1815610E-08
   38.88000     -3.2130476E-08
   38.94000     -3.2553213E-08
   39.00000     -3.3078848E-08
   39.06000     -3.3678042E-08
   39.12000     -3.4307241E-08
   39.18000     -3.4923030E-08
   39.24000     -3.5496193E-08
   39.30000     -3.6021252E-08
   39.36000     -3.6518760E-08
   39.42000     -3.7029803E-08
   39.48000     -3.7604494E-08
   39.54000     -3.8287833E-08
   39.60000     -3.9106897E-08
   39.66000     -4.0062851E-08
   39.72000     -4.1129880E-08
   39.78000     -4.2261259E-08
   39.84000     -4.3401048E-08
   39.90000     -4.4498282E-08
   39.96000     -4.5520103E-08
   40.02000     -4.6460258E-08
   40.08000     -4.7340617E-08
   40.14000     -4.8205095E-08
   40.20000     -4.9107360E-08
   40.26000     -5.0095604E-08
   40.32000     -5.1198633E-08
   40.38000     -5.2417363E-08
   40.44000     -5.3724484E-08
   40.50000     -5.5072572E-08
   40.56000     -5.6408293E-08
   40.62000     -5.7688297E-08
   40.68000     -5.8891644E-08
   40.74000     -6.0024526E-08
   40.80000     -6.1115600E-08
   40.86000     -6.2203327E-08
   40.92000     -6.3319419E-08
   40.98000     -6.4474094E-08
   41.04000     -6.5648088E-08
   41.10000     -6.6794449E-08
   41.16000     -6.7849449E-08
   41.22000     -6.8749344E-08
   41.28000     -6.9447289E-08
   41.34000     -6.9925044E-08
   41.40000     -7.0195711E-08
   41.46000     -7.0296814E-08
   41.52000     -7.0276229E-08
   41.58000     -7.0175517E-08
   41.64000     -7.0016092E-08
   41.70000     -6.9792272E-08
   41.76000     -6.9472961E-08
   41.82000     -6.9011030E-08
   41.88000     -6.8357188E-08
   41.94000     -6.7473984E-08
   42.00000     -6.6346075E-08
   42.06000     -6.4984292E-08
   42.12000     -6.3422874E-08
   42.18000     -6.1711091E-08
   42.24000     -5.9901943E-08
   42.30000     -5.8040627E-08
   42.36000     -5.6155727E-08
   42.42000     -5.4254940E-08
   42.48000     -5.2326264E-08
   42.54000     -5.0344322E-08
   42.60000     -4.8280331E-08
   42.66000     -4.6113254E-08
   42.72000     -4.3839247E-08
   42.78000     -4.1476664E-08
   42.84000     -3.9064972E-08
   42.90000     -3.6657614E-08
   42.96000     -3.4310741E-08
   43.02000     -3.2071267E-08
   43.08000     -2.9967968E-08
   43.14000     -2.8008570E-08
   43.20000     -2.6183731E-08
   43.26000     -2.4476382E-08
   43.32000     -2.2873062E-08
   43.38000     -2.1373198E-08
   43.44000     -1.9993106E-08
   43.50000     -1.8763471E-08
   43.56000     -1.7721511E-08
   43.62000     -1.6900705E-08
   43.68000     -1.6321701E-08
   43.74000     -1.5987247E-08
   43.80000     -1.5882355E-08
   43.86000     -1.5979060E-08
   43.92000     -1.6243790E-08
   43.98000     -1.6644899E-08
   44.04000     -1.7158339E-08
   44.10000     -1.7770384E-08
   44.16000     -1.8477319E-08
   44.22000     -1.9282659E-08
   44.28000     -2.0192791E-08
   44.34000     -2.1211958E-08
   44.40000     -2.2337424E-08
   44.46000     -2.3555742E-08
   44.52000     -2.4841057E-08
   44.58000     -2.6156208E-08
   44.64000     -2.7456844E-08
   44.70000     -2.8698015E-08
   44.76000     -2.9841679E-08
   44.82000     -3.0863060E-08
   44.88000     -3.1753927E-08
   44.94000     -3.2521747E-08
   45.00000     -3.3185049E-08
   45.06000     -3.3766671E-08
   45.12000     -3.4287321E-08
   45.18000     -3.4761442E-08
   45.24000     -3.5196454E-08
   45.30000     -3.5594876E-08
   45.36000     -3.5957690E-08
   45.42000     -3.6287101E-08
   45.48000     -3.6587281E-08
   45.54000     -3.6863106E-08
   45.60000     -3.7117736E-08
   45.66000     -3.7350652E-08
   45.72000     -3.7557378E-08
   45.78000     -3.7731180E-08
   45.84000     -3.7866094E-08
   45.90000     -3.7960035E-08
   45.96000     -3.8016726E-08
   46.02000     -3.8045997E-08
   46.08000     -3.8062620E-08
   46.14000     -3.8084565E-08
   46.20000     -3.8131365E-08
   46.26000     -3.8223146E-08
   46.32000     -3.8380129E-08
   46.38000     -3.8622449E-08
   46.44000     -3.8970224E-08
   46.50000     -3.9444163E-08
   46.56000     -4.0067395E-08
   46.62000     -4.0868827E-08
   46.68000     -4.1887752E-08
   46.74000     -4.3178574E-08
   46.80000     -4.4814058E-08
   46.86000     -4.6885699E-08
   46.92000     -4.9500979E-08
   46.98000     -5.2778507E-08
   47.04000     -5.6843390E-08
   47.10000     -6.1825354E-08
   47.16000     -6.7861357E-08
   47.22000     -7.5103102E-08
   47.28000     -8.3727805E-08
   47.34000     -9.3949879E-08
   47.40000     -1.0603077E-07
   47.46000     -1.2028562E-07
   47.52000     -1.3708656E-07
   47.58000     -1.5686437E-07
   47.64000     -1.8011077E-07
   47.70000     -2.0738385E-07
   47.76000     -2.3931736E-07
   47.82000     -2.7663475E-07
   47.88000     -3.2016538E-07
   47.94000     -3.7086215E-07
   48.00000     -4.2981802E-07
   48.06000     -4.9828060E-07
   48.12000     -5.7766511E-07
   48.18000     -6.6956602E-07
   48.24000     -7.7577016E-07
   48.30000     -8.9827211E-07
   48.36000     -1.0392932E-06
   48.42000     -1.2013052E-06
   48.48000     -1.3870573E-06
   48.54000     -1.5996061E-06
   48.60000     -1.8423460E-06
   48.66000     -2.1190408E-06
   48.72000     -2.4338494E-06
   48.78000     -2.7913547E-06
   48.84000     -3.1965842E-06
   48.90000     -3.6550339E-06
   48.96000     -4.1726871E-06
   49.02000     -4.7560352E-06
   49.08000     -5.4121006E-06
   49.14000     -6.1484589E-06
   49.20000     -6.9732641E-06
   49.26000     -7.8952698E-06
   49.32000     -8.9238538E-06
   49.38000     -1.0069028E-05
   49.44000     -1.1341448E-05
   49.50000     -1.2752413E-05
   49.56000     -1.4313858E-05
   49.62000     -1.6038341E-05
   49.68000     -1.7939014E-05
   49.74000     -2.0029607E-05
   49.80000     -2.2324390E-05
   49.86000     -2.4838124E-05
   49.92000     -2.7586033E-05
   49.98000     -3.0583731E-05
   50.04000     -3.3847158E-05
   50.10000     -3.7392496E-05
   50.16000     -4.1236053E-05
   50.22000     -4.5394190E-05
   50.28000     -4.9883158E-05
   50.34000     -5.4719010E-05
   50.40000     -5.9917471E-05
   50.46000     -6.5493776E-05
   50.52000     -7.1462549E-05
   50.58000     -7.7837649E-05
   50.64000     -8.4632040E-05
   50.70000     -9.1857582E-05
   50.76000     -9.9524928E-05
   50.82000     -1.0764330E-04
   50.88000     -1.1622035E-04
   50.94000     -1.2526194E-04
   51.00000     -1.3477208E-04
   51.06000     -1.4475264E-04
   51.12000     -1.5520331E-04
   51.18000     -1.6612142E-04
   51.24000     -1.7750189E-04
   51.30000     -1.8933712E-04
   51.36000     -2.0161686E-04
   51.42000     -2.1432822E-04
   51.48000     -2.2745557E-04
   51.54000     -2.4098069E-04
   51.60000     -2.5488253E-04
   51.66000     -2.6913756E-04
   51.72000     -2.8371951E-04
   51.78000     -2.9859974E-04
   51.84000     -3.1374727E-04
   51.90000     -3.2912887E-04
   51.96000     -3.4470944E-04
   52.02000     -3.6045205E-04
   52.08000     -3.7631838E-04
   52.14000     -3.9226888E-04
   52.20000     -4.0826303E-04
   52.26000     -4.2425972E-04
   52.32000     -4.4021755E-04
   52.38000     -4.5609515E-04
   52.44000     -4.7185156E-04
   52.50000     -4.8744655E-04
   52.56000     -5.0284108E-04
   52.62000     -5.1799760E-04
   52.68000     -5.3288037E-04
   52.74000     -5.4745586E-04
   52.80000     -5.6169293E-04
   52.86000     -5.7556329E-04
   52.92000     -5.8904185E-04
   52.98000     -6.0210651E-04
   53.04000     -6.1473896E-04
   53.10000     -6.2692433E-04
   53.16000     -6.3865160E-04
   53.22000     -6.4991368E-04
   53.28000     -6.6070736E-04
   53.34000     -6.7103334E-04
   53.40000     -6.8089605E-04
   53.46000     -6.9030368E-04
   53.52000     -6.9926790E-04
   53.58000     -7.0780382E-04
   53.64000     -7.1592955E-04
   53.70000     -7.2366581E-04
   53.76000     -7.3103607E-04
   53.82000     -7.3806546E-04
   53.88000     -7.4478105E-04
   53.94000     -7.5121113E-04
   54.00000     -7.5738481E-04
   54.06000     -7.6333154E-04
   54.12000     -7.6908089E-04
   54.18000     -7.7466154E-04
   54.24000     -7.8010152E-04
   54.30000     -7.8542717E-04
   54.36000     -7.9066301E-04
   54.42000     -7.9583155E-04
   54.48000     -8.0095243E-04
   54.54000     -8.0604258E-04
   54.60000     -8.1111549E-04
   54.66000     -8.1618136E-04
   54.72000     -8.2124694E-04
   54.78000     -8.2631496E-04
   54.84000     -8.3138468E-04
   54.90000     -8.3645165E-04
   54.96000     -8.4150792E-04
   55.02000     -8.4654149E-04
   55.08000     -8.5153722E-04
   55.14000     -8.5647672E-04
   55.20000     -8.6133846E-04
   55.26000     -8.6609856E-04
   55.32000     -8.7073084E-04
   55.38000     -8.7520748E-04
   55.44000     -8.7949930E-04
   55.50000     -8.8357623E-04
   55.56000     -8.8740763E-04