  -2.400000      0.0000000E+00
  -2.340000      0.0000000E+00
  -2.280000      0.0000000E+00
  -2.220000      0.0000000E+00
  -2.160000      0.0000000E+00
  -2.100000     -8.9197302E-20
  -2.040000     -7.1292427E-19
  -1.980000     -2.8807113E-18
  -1.920000     -7.6001818E-18
  -1.860000     -1.3864584E-17
  -1.800000     -1.5715098E-17
  -1.740000     -9.5431207E-19
  -1.680000      4.4595821E-17
  -1.620000      1.2499349E-16
  -1.560000      2.1742772E-16
  -1.500000      2.6146004E-16
  -1.440000      1.6924029E-16
  -1.380000     -1.3296597E-16
  -1.320000     -6.3776350E-16
  -1.260000     -1.1929966E-15
  -1.200000     -1.4880311E-15
  -1.140000     -1.1335571E-15
  -1.080000      1.5430411E-16
  -1.020000      2.3122532E-15
 -0.9600000      4.7363567E-15
 -0.9000000      6.2704447E-15
 -0.8400000      5.4772513E-15
 -0.7800000      1.1943208E-15
 -0.7200000     -6.7617132E-15
 -0.6600000     -1.7002276E-14
 -0.6000000     -2.6391844E-14
 -0.5400000     -3.0526126E-14
 -0.4800000     -2.4911180E-14
 -0.4200000     -6.6357700E-15
 -0.3600000      2.3913553E-14
 -0.3000000      6.1890387E-14
 -0.2400000      9.7958561E-14
 -0.1800000      1.1976776E-13
 -0.1200000      1.1492910E-13
 -5.9999999E-02  7.4989914E-14
  0.0000000E+00 -5.9476367E-16
  5.9999999E-02 -1.0184358E-13
  0.1200000     -2.0833092E-13
  0.1800000     -2.9279720E-13
  0.2400000     -3.2804285E-13
  0.3000000     -2.9545157E-13
  0.3600000     -1.9223639E-13
  0.4200000     -3.4099432E-14
  0.4800000      1.4897889E-13
  0.5400000      3.2352810E-13
  0.6000000      4.6619913E-13
  0.6600000      5.7354842E-13
  0.7200000      6.6082328E-13
  0.7800000      7.4579541E-13
  0.8400000      8.2058958E-13
  0.9000000      8.2302166E-13
  0.9600000      6.2538375E-13
   1.020000      5.8550509E-14
   1.080000     -1.0201695E-12
   1.140000     -2.6252902E-12
   1.200000     -4.5393316E-12
   1.260000     -6.2555126E-12
   1.320000     -7.0171468E-12
   1.380000     -5.9837977E-12
   1.440000     -2.5130358E-12
   1.500000      3.5053464E-12
   1.560000      1.1370471E-11
   1.620000      1.9471293E-11
   1.680000      2.5465257E-11
   1.740000      2.6761275E-11
   1.800000      2.1233374E-11
   1.860000      7.9927835E-12
   1.920000     -1.2012853E-11
   1.980000     -3.5795106E-11
   2.040000     -5.8649682E-11
   2.100000     -7.4998494E-11
   2.160000     -7.9575208E-11
   2.220000     -6.8659356E-11
   2.280000     -4.1031293E-11
   2.340000      1.6051895E-12
   2.400000      5.4823156E-11
   2.460000      1.1219043E-10
   2.520000      1.6624349E-10
   2.580000      2.0940043E-10
   2.640000      2.3456756E-10
   2.700000      2.3536789E-10
   2.760000      2.0612353E-10
   2.820000      1.4187020E-10
   2.880000      3.8694794E-11
   2.940000     -1.0545586E-10
   3.000000     -2.8960195E-10
   3.060000     -5.0856674E-10
   3.120000     -7.5235423E-10
   3.180000     -1.0065566E-09
   3.240000     -1.2540173E-09
   3.300000     -1.4775574E-09
   3.360000     -1.6631485E-09
   3.420000     -1.8026463E-09
   3.480000     -1.8952153E-09
   3.540000     -1.9468946E-09
   3.600000     -1.9683051E-09
   3.660000     -1.9710777E-09
   3.720000     -1.9640050E-09
   3.780000     -1.9499951E-09
   3.840000     -1.9246396E-09
   3.900000     -1.8766320E-09
   3.960000     -1.7896699E-09
   4.020000     -1.6449943E-09
   4.080000     -1.4236091E-09
   4.140000     -1.1074776E-09
   4.200000     -6.7953981E-10
   4.260000     -1.2298902E-10
   4.320000      5.7933808E-10
   4.380000      1.4445570E-09
   4.440000      2.4877773E-09
   4.500000      3.7186974E-09
   4.560000      5.1375570E-09
   4.620000      6.7317183E-09
   4.680000      8.4741885E-09
   4.740000      1.0324984E-08
   4.800000      1.2235398E-08
   4.860000      1.4154389E-08
   4.920000      1.6035534E-08
   4.980000      1.7842812E-08
   5.040000      1.9553733E-08
   5.100000      2.1159066E-08
   5.160000      2.2659464E-08
   5.220000      2.4060162E-08
   5.280000      2.5365404E-08
   5.340000      2.6574357E-08
   5.400000      2.7679622E-08
   5.460000      2.8668691E-08
   5.520000      2.9527683E-08
   5.580000      3.0246049E-08
   5.640000      3.0820608E-08
   5.700000      3.1257589E-08
   5.760000      3.1571972E-08
   5.820000      3.1784261E-08
   5.880000      3.1915754E-08
   5.940000      3.1983713E-08
   6.000000      3.1998017E-08
   6.060000      3.1960340E-08
   6.120000      3.1866104E-08
   6.180000      3.1708542E-08
   6.240000      3.1483459E-08
   6.300000      3.1193167E-08
   6.360000      3.0848174E-08
   6.420000      3.0466225E-08
   6.480000      3.0069145E-08
   6.540000      2.9678816E-08
   6.600000      2.9313849E-08
   6.660000      2.8988286E-08
   6.720000      2.8712627E-08
   6.780000      2.8496590E-08
   6.840000      2.8352122E-08
   6.900000      2.8295062E-08
   6.960000      2.8344386E-08
   7.020000      2.8519008E-08
   7.080000      2.8833158E-08
   7.140000      2.9292085E-08
   7.200000      2.9889808E-08
   7.260000      3.0609876E-08
   7.320000      3.1428922E-08
   7.380000      3.2321875E-08
   7.440000      3.3266733E-08
   7.500000      3.4247403E-08
   7.560000      3.5253485E-08
   7.620000      3.6277356E-08
   7.680000      3.7309789E-08
   7.740000      3.8336026E-08
   7.800000      3.9334019E-08
   7.860000      4.0275832E-08
   7.920000      4.1132026E-08
   7.980000      4.1877751E-08
   8.040000      4.2498648E-08
   8.100000      4.2994543E-08
   8.160000      4.3379647E-08
   8.220000      4.3679016E-08
   8.280000      4.3922196E-08
   8.340000      4.4135877E-08
   8.400000      4.4337611E-08
   8.460000      4.4532293E-08
   8.520000      4.4712237E-08
   8.580000      4.4860567E-08
   8.640000      4.4956685E-08
   8.700000      4.4982123E-08
   8.760000      4.4925301E-08
   8.820000      4.4784056E-08
   8.880000      4.4565784E-08
   8.940000      4.4285599E-08
   9.000000      4.3963350E-08
   9.060000      4.3620407E-08
   9.120000      4.3276927E-08
   9.180000      4.2950035E-08
   9.240000      4.2652932E-08
   9.300000      4.2394849E-08
   9.360000      4.2181490E-08
   9.420000      4.2015522E-08
   9.480000      4.1896623E-08
   9.540000      4.1820734E-08
   9.600000      4.1778463E-08
   9.660000      4.1752944E-08
   9.720000      4.1717854E-08
   9.780000      4.1636497E-08
   9.840000      4.1462666E-08
   9.900000      4.1143416E-08
   9.960000      4.0623242E-08
   10.02000      3.9848668E-08
   10.08000      3.8771940E-08
   10.14000      3.7353132E-08
   10.20000      3.5560461E-08
   10.26000      3.3369503E-08
   10.32000      3.0762294E-08
   10.38000      2.7727326E-08
   10.44000      2.4260890E-08
   10.50000      2.0369562E-08
   10.56000      1.6073098E-08
   10.62000      1.1406776E-08
   10.68000      6.4222445E-09
   10.74000      1.1863482E-09
   10.80000     -4.2223065E-09
   10.86000     -9.7188160E-09
   10.92000     -1.5218866E-08
   10.98000     -2.0645984E-08
   11.04000     -2.5937753E-08
   11.10000     -3.1049410E-08
   11.16000     -3.5953640E-08
   11.22000     -4.0636259E-08
   11.28000     -4.5088676E-08
   11.34000     -4.9299306E-08
   11.40000     -5.3246662E-08
   11.46000     -5.6896557E-08
   11.52000     -6.0204492E-08
   11.58000     -6.3122521E-08
   11.64000     -6.5608354E-08
   11.70000     -6.7633557E-08
   11.76000     -6.9188367E-08
   11.82000     -7.0281850E-08
   11.88000     -7.0938079E-08
   11.94000     -7.1190463E-08
   12.00000     -7.1076755E-08
   12.06000     -7.0636730E-08
   12.12000     -6.9913206E-08
   12.18000     -6.8955401E-08
   12.24000     -6.7822448E-08
   12.30000     -6.6584768E-08
   12.36000     -6.5321423E-08
   12.42000     -6.4112967E-08
   12.48000     -6.3030996E-08
   12.54000     -6.2126780E-08
   12.60000     -6.1422135E-08
   12.66000     -6.0905485E-08
   12.72000     -6.0534695E-08
   12.78000     -6.0246620E-08
   12.84000     -5.9971327E-08
   12.90000     -5.9647455E-08
   12.96000     -5.9234729E-08
   13.02000     -5.8720229E-08
   13.08000     -5.8116992E-08
   13.14000     -5.7455594E-08
   13.20000     -5.6771466E-08
   13.26000     -5.6091821E-08
   13.32000     -5.5426082E-08
   13.38000     -5.4762399E-08
   13.44000     -5.4070878E-08
   13.50000     -5.3312270E-08
   13.56000     -5.2449277E-08
   13.62000     -5.1457150E-08
   13.68000     -5.0330648E-08
   13.74000     -4.9085628E-08
   13.80000     -4.7755179E-08
   13.86000     -4.6381626E-08
   13.92000     -4.5006871E-08
   13.98000     -4.3663821E-08
   14.04000     -4.2371269E-08
   14.10000     -4.1133330E-08
   14.16000     -3.9943092E-08
   14.22000     -3.8788809E-08
   14.28000     -3.7659984E-08
   14.34000     -3.6551025E-08
   14.40000     -3.5460978E-08
   14.46000     -3.4389558E-08
   14.52000     -3.3331325E-08
   14.58000     -3.2270780E-08
   14.64000     -3.1181038E-08
   14.70000     -3.0027472E-08
   14.76000     -2.8775672E-08
   14.82000     -2.7401141E-08
   14.88000     -2.5897178E-08
   14.94000     -2.4277657E-08
   15.00000     -2.2573300E-08
   15.06000     -2.0822418E-08
   15.12000     -1.9059369E-08
   15.18000     -1.7304993E-08
   15.24000     -1.5562515E-08
   15.30000     -1.3820372E-08
   15.36000     -1.2060565E-08
   15.42000     -1.0269090E-08
   15.48000     -8.4441831E-09
   15.54000     -6.5992287E-09
   15.60000     -4.7594311E-09
   15.66000     -2.9539029E-09
   15.72000     -1.2065520E-09
   15.78000      4.7064097E-10
   15.84000      2.0795958E-09
   15.90000      3.6331098E-09
   15.96000      5.1485878E-09
   16.02000      6.6413577E-09
   16.08000      8.1202165E-09
   16.14000      9.5866239E-09
   16.20000      1.1037254E-08
   16.26000      1.2468270E-08
   16.32000      1.3879085E-08
   16.38000      1.5273814E-08
   16.44000      1.6659827E-08
   16.50000      1.8044144E-08
   16.56000      1.9429478E-08
   16.62000      2.0812008E-08
   16.68000      2.2182173E-08
   16.74000      2.3528555E-08
   16.80000      2.4843340E-08
   16.86000      2.6126891E-08
   16.92000      2.7388985E-08
   16.98000      2.8645436E-08
   17.04000      2.9910698E-08
   17.10000      3.1188961E-08
   17.16000      3.2467277E-08
   17.22000      3.3713945E-08
   17.28000      3.4883449E-08
   17.34000      3.5926995E-08
   17.40000      3.6805105E-08
   17.46000      3.7498108E-08
   17.52000      3.8010750E-08
   17.58000      3.8369592E-08
   17.64000      3.8614360E-08
   17.70000      3.8786666E-08
   17.76000      3.8920252E-08
   17.82000      3.9035907E-08
   17.88000      3.9142108E-08
   17.94000      3.9240145E-08
   18.00000      3.9330672E-08
   18.06000      3.9418484E-08
   18.12000      3.9513182E-08
   18.18000      3.9625391E-08
   18.24000      3.9760060E-08
   18.30000      3.9909668E-08
   18.36000      4.0050324E-08
   18.42000      4.0142755E-08
   18.48000      4.0138481E-08
   18.54000      3.9989683E-08
   18.60000      3.9660009E-08
   18.66000      3.9133091E-08
   18.72000      3.8416495E-08
   18.78000      3.7540008E-08
   18.84000      3.6549277E-08
   18.90000      3.5496864E-08
   18.96000      3.4433711E-08
   19.02000      3.3403239E-08
   19.08000      3.2439353E-08
   19.14000      3.1567900E-08
   19.20000      3.0809957E-08
   19.26000      3.0184680E-08
   19.32000      2.9709911E-08
   19.38000      2.9399635E-08
   19.44000      2.9258855E-08
   19.50000      2.9277601E-08
   19.56000      2.9426435E-08
   19.62000      2.9655764E-08
   19.68000      2.9900352E-08
   19.74000      3.0089044E-08
   19.80000      3.0158059E-08
   19.86000      3.0064761E-08
   19.92000      2.9798104E-08
   19.98000      2.9382289E-08
   20.04000      2.8871632E-08
   20.10000      2.8337162E-08
   20.16000      2.7848017E-08
   20.22000      2.7452804E-08
   20.28000      2.7166484E-08
   20.34000      2.6967038E-08
   20.40000      2.6803118E-08
   20.46000      2.6610326E-08
   20.52000      2.6330785E-08
   20.58000      2.5929507E-08
   20.64000      2.5402271E-08
   20.70000      2.4772849E-08
   20.76000      2.4081427E-08
   20.82000      2.3369125E-08
   20.88000      2.2664837E-08
   20.94000      2.1979227E-08
   21.00000      2.1307534E-08
   21.06000      2.0639062E-08
   21.12000      1.9968436E-08
   21.18000      1.9303123E-08
   21.24000      1.8663496E-08
   21.30000      1.8075136E-08
   21.36000      1.7556559E-08
   21.42000      1.7107709E-08
   21.48000      1.6704362E-08
   21.54000      1.6301126E-08
   21.60000      1.5842208E-08
   21.66000      1.5275825E-08
   21.72000      1.4566764E-08
   21.78000      1.3702286E-08
   21.84000      1.2689535E-08
   21.90000      1.1546009E-08
   21.96000      1.0287489E-08
   22.02000      8.9186480E-09
   22.08000      7.4302910E-09
   22.14000      5.8042282E-09
   22.20000      4.0235375E-09
   22.26000      2.0837534E-09
   22.32000      1.7333129E-13
   22.38000     -2.1918276E-09
   22.44000     -4.4436588E-09
   22.50000     -6.7047901E-09
   22.56000     -8.9339149E-09
   22.62000     -1.1105619E-08
   22.68000     -1.3210131E-08
   22.74000     -1.5246668E-08
   22.80000     -1.7213525E-08
   22.86000     -1.9099438E-08
   22.92000     -2.0880185E-08
   22.98000     -2.2522160E-08
   23.04000     -2.3991817E-08
   23.10000     -2.5267358E-08
   23.16000     -2.6348085E-08
   23.22000     -2.7257654E-08
   23.28000     -2.8039784E-08
   23.34000     -2.8747817E-08
   23.40000     -2.9431858E-08
   23.46000     -3.0127975E-08
   23.52000     -3.0853109E-08
   23.58000     -3.1607069E-08
   23.64000     -3.2380349E-08
   23.70000     -3.3164277E-08
   23.76000     -3.3959253E-08
   23.82000     -3.4777674E-08
   23.88000     -3.5640166E-08
   23.94000     -3.6566483E-08
   24.00000     -3.7564462E-08
   24.06000     -3.8621483E-08
   24.12000     -3.9701966E-08
   24.18000     -4.0752532E-08
   24.24000     -4.1713491E-08
   24.30000     -4.2532925E-08
   24.36000     -4.3178556E-08
   24.42000     -4.3643123E-08
   24.48000     -4.3941228E-08
   24.54000     -4.4098819E-08
   24.60000     -4.4139110E-08
   24.66000     -4.4070280E-08
   24.72000     -4.3879741E-08
   24.78000     -4.3537355E-08
   24.84000     -4.3006594E-08
   24.90000     -4.2259600E-08
   24.96000     -4.1290416E-08
   25.02000     -4.0121211E-08
   25.08000     -3.8798827E-08
   25.14000     -3.7382620E-08
   25.20000     -3.5927926E-08
   25.26000     -3.4471331E-08
   25.32000     -3.3023287E-08
   25.38000     -3.1570995E-08
   25.44000     -3.0090575E-08
   25.50000     -2.8563823E-08
   25.56000     -2.6993069E-08
   25.62000     -2.5408204E-08
   25.68000     -2.3862828E-08
   25.74000     -2.2420792E-08
   25.80000     -2.1138025E-08
   25.86000     -2.0046542E-08
   25.92000     -1.9146734E-08
   25.98000     -1.8410793E-08
   26.04000     -1.7795896E-08
   26.10000     -1.7261966E-08
   26.16000     -1.6787165E-08
   26.22000     -1.6375374E-08
   26.28000     -1.6053141E-08
   26.34000     -1.5857943E-08
   26.40000     -1.5822806E-08
   26.46000     -1.5963769E-08
   26.52000     -1.6275010E-08
   26.58000     -1.6733235E-08
   26.64000     -1.7308952E-08
   26.70000     -1.7979426E-08
   26.76000     -1.8737659E-08
   26.82000     -1.9593616E-08
   26.88000     -2.0567324E-08
   26.94000     -2.1676977E-08
   27.00000     -2.2927212E-08
   27.06000     -2.4302441E-08
   27.12000     -2.5767786E-08
   27.18000     -2.7276775E-08
   27.24000     -2.8782194E-08
   27.30000     -3.0245268E-08
   27.36000     -3.1639487E-08
   27.42000     -3.2948048E-08
   27.48000     -3.4156919E-08
   27.54000     -3.5247453E-08
   27.60000     -3.6192624E-08
   27.66000     -3.6959193E-08
   27.72000     -3.7515193E-08
   27.78000     -3.7839740E-08
   27.84000     -3.7930981E-08
   27.90000     -3.7808785E-08
   27.96000     -3.7510894E-08
   28.02000     -3.7083858E-08
   28.08000     -3.6572185E-08
   28.14000     -3.6009425E-08
   28.20000     -3.5414104E-08
   28.26000     -3.4791331E-08
   28.32000     -3.4138704E-08
   28.38000     -3.3453805E-08
   28.44000     -3.2740054E-08
   28.50000     -3.2008781E-08
   28.56000     -3.1276727E-08
   28.62000     -3.0560006E-08
   28.68000     -2.9866818E-08
   28.74000     -2.9191524E-08
   28.80000     -2.8512446E-08
   28.86000     -2.7794407E-08
   28.92000     -2.6995640E-08
   28.98000     -2.6077236E-08
   29.04000     -2.5012431E-08
   29.10000     -2.3792953E-08
   29.16000     -2.2430562E-08
   29.22000     -2.0953348E-08
   29.28000     -1.9398025E-08
   29.34000     -1.7800787E-08
   29.40000     -1.6189611E-08
   29.46000     -1.4580298E-08
   29.52000     -1.2977098E-08
   29.58000     -1.1377098E-08
   29.64000     -9.7762971E-09
   29.70000     -8.1749292E-09
   29.76000     -6.5802128E-09
   29.82000     -5.0059641E-09
   29.88000     -3.4698042E-09
   29.94000     -1.9894941E-09
   30.00000     -5.7991850E-10
   30.06000      7.4841205E-10
   30.12000      1.9893451E-09
   30.18000      3.1401792E-09
   30.24000      4.2005639E-09
   30.30000      5.1715219E-09
   30.36000      6.0544396E-09
   30.42000      6.8497021E-09
   30.48000      7.5549513E-09
   30.54000      8.1635818E-09
   30.60000      8.6645651E-09
   30.66000      9.0446060E-09
   30.72000      9.2928172E-09
   30.78000      9.4068549E-09
   30.84000      9.3983372E-09
   30.90000      9.2951433E-09
   30.96000      9.1390095E-09
   31.02000      8.9785797E-09
   31.08000      8.8599492E-09
   31.14000      8.8178771E-09
   31.20000      8.8707086E-09
   31.26000      9.0206056E-09
   31.32000      9.2584660E-09
   31.38000      9.5710320E-09
   31.44000      9.9468132E-09
   31.50000      1.0378102E-08
   31.56000      1.0858201E-08
   31.62000      1.1375212E-08
   31.68000      1.1905442E-08
   31.74000      1.2409921E-08
   31.80000      1.2836463E-08
   31.86000      1.3127648E-08
   31.92000      1.3232742E-08
   31.98000      1.3119874E-08
   32.04000      1.2784485E-08
   32.10000      1.2251093E-08
   32.16000      1.1567666E-08
   32.22000      1.0794368E-08
   32.28000      9.9903081E-09
   32.34000      9.2025108E-09
   32.40000      8.4603275E-09
   32.46000      7.7764515E-09
   32.52000      7.1531900E-09
   32.58000      6.5908323E-09
   32.64000      6.0943517E-09
   32.70000      5.6756275E-09
   32.76000      5.3503189E-09
   32.82000      5.1307043E-09
   32.88000      5.0173452E-09
   32.94000      4.9927289E-09
   33.00000      5.0191575E-09
   33.06000      5.0415196E-09
   33.12000      4.9939528E-09
   33.18000      4.8084035E-09
   33.24000      4.4229700E-09
   33.30000      3.7884811E-09
   33.36000      2.8726383E-09
   33.42000      1.6617339E-09
   33.48000      1.6028218E-10
   33.54000     -1.6110575E-09
   33.60000     -3.6189280E-09
   33.66000     -5.8216396E-09
   33.72000     -8.1737381E-09
   33.78000     -1.0629829E-08
   33.84000     -1.3146781E-08
   33.90000     -1.5683941E-08
   33.96000     -1.8201783E-08
   34.02000     -2.0660153E-08
   34.08000     -2.3017551E-08
   34.14000     -2.5232387E-08
   34.20000     -2.7266173E-08
   34.26000     -2.9087500E-08
   34.32000     -3.0674940E-08
   34.38000     -3.2017365E-08
   34.44000     -3.3111235E-08
   34.50000     -3.3955864E-08
   34.56000     -3.4548854E-08
   34.62000     -3.4883993E-08
   34.68000     -3.4952862E-08
   34.74000     -3.4749782E-08
   34.80000     -3.4277921E-08
   34.86000     -3.3553672E-08
   34.92000     -3.2607051E-08
   34.98000     -3.1477473E-08
   35.04000     -3.0206508E-08
   35.10000     -2.8830563E-08
   35.16000     -2.7376664E-08
   35.22000     -2.5863002E-08
   35.28000     -2.4303725E-08
   35.34000     -2.2715303E-08
   35.40000     -2.1120997E-08
   35.46000     -1.9550777E-08
   35.52000     -1.8036246E-08
   35.58000     -1.6602682E-08
   35.64000     -1.5261950E-08
   35.70000     -1.4009972E-08
   35.76000     -1.2830436E-08
   35.82000     -1.1703603E-08
   35.88000     -1.0616410E-08
   35.94000     -9.5691988E-09
   36.00000     -8.5755545E-09
   36.06000     -7.6547177E-09
   36.12000     -6.8193939E-09
   36.18000     -6.0640915E-09
   36.24000     -5.3592708E-09
   36.30000     -4.6543853E-09
   36.36000     -3.8892938E-09
   36.42000     -3.0100618E-09
   36.48000     -1.9833060E-09
   36.54000     -8.0382578E-10
   36.60000      5.0703031E-10
   36.66000      1.9111215E-09
   36.72000      3.3671705E-09
   36.78000      4.8428634E-09
   36.84000      6.3209362E-09
   36.90000      7.7975315E-09
   36.96000      9.2742942E-09
   37.02000      1.0748041E-08
   37.08000      1.2202505E-08
   37.14000      1.3605565E-08
   37.20000      1.4913047E-08
   37.26000      1.6077779E-08
   37.32000      1.7060831E-08
   37.38000      1.7841337E-08
   37.44000      1.8422000E-08
   37.50000      1.8828780E-08
   37.56000      1.9104951E-08
   37.62000      1.9301167E-08
   37.68000      1.9464125E-08
   37.74000      1.9626768E-08
   37.80000      1.9802675E-08
   37.86000      1.9986242E-08
   37.92000      2.0158790E-08
   37.98000      2.0298867E-08
   38.04000      2.0393465E-08
   38.10000      2.0446246E-08
   38.16000      2.0479417E-08
   38.22000      2.0528077E-08
   38.28000      2.0628457E-08
   38.34000      2.0804199E-08
   38.40000      2.1055925E-08
   38.46000      2.1358513E-08
   38.52000      2.1667775E-08
   38.58000      2.1934490E-08
   38.64000      2.2120586E-08
   38.70000      2.2211077E-08
   38.76000      2.2216692E-08
   38.82000      2.2165782E-08
   38.88000      2.2088354E-08
   38.94000      2.1998520E-08
   39.00000      2.1882574E-08
   39.06000      2.1697902E-08
   39.12000      2.1383810E-08
   39.18000      2.0880639E-08
   39.24000      2.0150155E-08
   39.30000      1.9189581E-08
   39.36000      1.8033875E-08
   39.42000      1.6745281E-08
   39.48000      1.5393880E-08
   39.54000      1.4036067E-08
   39.60000      1.2698573E-08
   39.66000      1.1373261E-08
   39.72000      1.0023921E-08
   39.78000      8.6018002E-09
   39.84000      7.0637616E-09
   39.90000      5.3864384E-09
   39.96000      3.5718291E-09
   40.02000      1.6433908E-09
   40.08000     -3.6464673E-10
   40.14000     -2.4197759E-09
   40.20000     -4.5004449E-09
   40.26000     -6.5989068E-09
   40.32000     -8.7174978E-09
   40.38000     -1.0860816E-08
   40.44000     -1.3027496E-08
   40.50000     -1.5204817E-08
   40.56000     -1.7367592E-08
   40.62000     -1.9480776E-08
   40.68000     -2.1503975E-08
   40.74000     -2.3395900E-08
   40.80000     -2.5117775E-08
   40.86000     -2.6635956E-08
   40.92000     -2.7924555E-08
   40.98000     -2.8968582E-08
   41.04000     -2.9767062E-08
   41.10000     -3.0334533E-08
   41.16000     -3.0699177E-08
   41.22000     -3.0896746E-08
   41.28000     -3.0961452E-08
   41.34000     -3.0916627E-08
   41.40000     -3.0768721E-08
   41.46000     -3.0507238E-08
   41.52000     -3.0110957E-08
   41.58000     -2.9557992E-08
   41.64000     -2.8835649E-08
   41.70000     -2.7946088E-08
   41.76000     -2.6905751E-08
   41.82000     -2.5739380E-08
   41.88000     -2.4471960E-08
   41.94000     -2.3122647E-08
   42.00000     -2.1703558E-08
   42.06000     -2.0223705E-08
   42.12000     -1.8695555E-08
   42.18000     -1.7140344E-08
   42.24000     -1.5588784E-08
   42.30000     -1.4076075E-08
   42.36000     -1.2633069E-08
   42.42000     -1.1277441E-08
   42.48000     -1.0008956E-08
   42.54000     -8.8111829E-09
   42.60000     -7.6591062E-09
   42.66000     -6.5294774E-09
   42.72000     -5.4095346E-09
   42.78000     -4.3005350E-09
   42.84000     -3.2149086E-09
   42.90000     -2.1686786E-09
   42.96000     -1.1727749E-09
   43.02000     -2.2720026E-10
   43.08000      6.7942685E-10
   43.14000      1.5648626E-09
   43.20000      2.4450115E-09
   43.26000      3.3259553E-09
   43.32000      4.1993879E-09
   43.38000      5.0429882E-09
   43.44000      5.8251590E-09
   43.50000      6.5119430E-09
   43.56000      7.0733686E-09
   43.62000      7.4871771E-09
   43.68000      7.7393185E-09
   43.74000      7.8220666E-09
   43.80000      7.7314697E-09
   43.86000      7.4657400E-09
   43.92000      7.0253643E-09
   43.98000      6.4145951E-09
   44.04000      5.6432135E-09
   44.10000      4.7273430E-09
   44.16000      3.6886514E-09
   44.22000      2.5521325E-09
   44.28000      1.3433703E-09
   44.34000      8.6305151E-11
   44.40000     -1.1978745E-09
   44.46000     -2.4908422E-09
   44.52000     -3.7769481E-09
   44.58000     -5.0435225E-09
   44.64000     -6.2819776E-09
   44.70000     -7.4892279E-09
   44.76000     -8.6683878E-09
   44.82000     -9.8277191E-09
   44.88000     -1.0977544E-08
   44.94000     -1.2125956E-08
   45.00000     -1.3275113E-08
   45.06000     -1.4420025E-08
   45.12000     -1.5550954E-08
   45.18000     -1.6658895E-08
   45.24000     -1.7742043E-08
   45.30000     -1.8810301E-08
   45.36000     -1.9885288E-08
   45.42000     -2.0995016E-08
   45.48000     -2.2164690E-08
   45.54000     -2.3406951E-08
   45.60000     -2.4715410E-08
   45.66000     -2.6064370E-08
   45.72000     -2.7415156E-08
   45.78000     -2.8726850E-08
   45.84000     -2.9967271E-08
   45.90000     -3.1119768E-08
   45.96000     -3.2182843E-08
   46.02000     -3.3162433E-08
   46.08000     -3.4059340E-08
   46.14000     -3.4856207E-08
   46.20000     -3.5508435E-08
   46.26000     -3.5941849E-08
   46.32000     -3.6057337E-08
   46.38000     -3.5740115E-08
   46.44000     -3.4869778E-08
   46.50000     -3.3327169E-08
   46.56000     -3.0995420E-08
   46.62000     -2.7754396E-08
   46.68000     -2.3469788E-08
   46.74000     -1.7979323E-08
   46.80000     -1.1078937E-08
   46.86000     -2.5111782E-09
   46.92000      8.0429734E-09
   46.98000      2.0969019E-08
   47.04000      3.6721907E-08
   47.10000      5.5829133E-08
   47.16000      7.8896328E-08
   47.22000      1.0661709E-07
   47.28000      1.3978830E-07
   47.34000      1.7933066E-07
   47.40000      2.2631350E-07
   47.46000      2.8198232E-07
   47.52000      3.4778742E-07
   47.58000      4.2541325E-07
   47.64000      5.1680843E-07
   47.70000      6.2421782E-07
   47.76000      7.5021859E-07
   47.82000      8.9776108E-07
   47.88000      1.0702162E-06
   47.94000      1.2714277E-06
   48.00000      1.5057710E-06
   48.06000      1.7782143E-06
   48.12000      2.0943833E-06
   48.18000      2.4606281E-06
   48.24000      2.8840971E-06
   48.30000      3.3728138E-06
   48.36000      3.9357628E-06
   48.42000      4.5829802E-06
   48.48000      5.3256522E-06
   48.54000      6.1762144E-06
   48.60000      7.1484565E-06
   48.66000      8.2576244E-06
   48.72000      9.5205251E-06
   48.78000      1.0955632E-05
   48.84000      1.2583199E-05
   48.90000      1.4425367E-05
   48.96000      1.6506277E-05
   49.02000      1.8852186E-05
   49.08000      2.1491573E-05
   49.14000      2.4455228E-05
   49.20000      2.7776347E-05
   49.26000      3.1490592E-05
   49.32000      3.5636160E-05
   49.38000      4.0253821E-05
   49.44000      4.5386932E-05
   49.50000      5.1081446E-05
   49.56000      5.7385900E-05
   49.62000      6.4351363E-05
   49.68000      7.2031391E-05
   49.74000      8.0481906E-05
   49.80000      8.9761044E-05
   49.86000      9.9929006E-05
   49.92000      1.1104786E-04
   49.98000      1.2318119E-04
   50.04000      1.3639398E-04
   50.10000      1.5075211E-04
   50.16000      1.6632212E-04
   50.22000      1.8317073E-04
   50.28000      2.0136446E-04
   50.34000      2.2096898E-04
   50.40000      2.4204873E-04
   50.46000      2.6466628E-04
   50.52000      2.8888171E-04
   50.58000      3.1475199E-04
   50.64000      3.4233028E-04
   50.70000      3.7166526E-04
   50.76000      4.0280048E-04
   50.82000      4.3577378E-04
   50.88000      4.7061636E-04
   50.94000      5.0735247E-04
   51.00000      5.4599822E-04
   51.06000      5.8656163E-04
   51.12000      6.2904163E-04
   51.18000      6.7342760E-04
   51.24000      7.1969884E-04
   51.30000      7.6782453E-04
   51.36000      8.1776298E-04
   51.42000      8.6946174E-04
   51.48000      9.2285743E-04
   51.54000      9.7787543E-04
   51.60000      1.0344302E-03
   51.66000      1.0924259E-03
   51.72000      1.1517559E-03
   51.78000      1.2123039E-03
   51.84000      1.2739445E-03
   51.90000      1.3365435E-03
   51.96000      1.3999587E-03
   52.02000      1.4640420E-03
   52.08000      1.5286383E-03
   52.14000      1.5935891E-03
   52.20000      1.6587324E-03
   52.26000      1.7239044E-03
   52.32000      1.7889404E-03
   52.38000      1.8536772E-03
   52.44000      1.9179538E-03
   52.50000      1.9816132E-03
   52.56000      2.0445040E-03
   52.62000      2.1064817E-03
   52.68000      2.1674102E-03
   52.74000      2.2271639E-03
   52.80000      2.2856272E-03
   52.86000      2.3426977E-03
   52.92000      2.3982865E-03
   52.98000      2.4523183E-03
   53.04000      2.5047332E-03
   53.10000      2.5554858E-03
   53.16000      2.6045484E-03
   53.22000      2.6519084E-03
   53.28000      2.6975696E-03
   53.34000      2.7415515E-03
   53.40000      2.7838892E-03
   53.46000      2.8246327E-03
   53.52000      2.8638458E-03
   53.58000      2.9016053E-03
   53.64000      2.9379993E-03
   53.70000      2.9731265E-03
   53.76000      3.0070937E-03
   53.82000      3.0400150E-03
   53.88000      3.0720090E-03
   53.94000      3.1031976E-03
   54.00000      3.1337037E-03
   54.06000      3.1636502E-03
   54.12000      3.1931566E-03
   54.18000      3.2223377E-03
   54.24000      3.2513009E-03
   54.30000      3.2801451E-03
   54.36000      3.3089591E-03
   54.42000      3.3378191E-03
   54.48000      3.3667886E-03
   54.54000      3.3959150E-03
   54.60000      3.4252319E-03
   54.66000      3.4547555E-03
   54.72000      3.4844857E-03
   54.78000      3.5144046E-03
   54.84000      3.5444773E-03
   54.90000      3.5746510E-03
   54.96000      3.6048563E-03
   55.02000      3.6350095E-03
   55.08000      3.6650102E-03
   55.14000      3.6947464E-03
   55.20000      3.7240931E-03
   55.26000      3.7529152E-03
   55.32000      3.7810691E-03
   55.38000      3.8084048E-03
   55.44000      3.8347677E-03
   55.50000      3.8600019E-03
   55.56000      3.8839504E-03