  -2.400000      0.0000000E+00
  -2.340000      0.0000000E+00
  -2.280000      0.0000000E+00
  -2.220000      0.0000000E+00
  -2.160000      0.0000000E+00
  -2.100000     -9.6001798E-21
  -2.040000     -1.1057735E-19
  -1.980000     -6.2106230E-19
  -1.920000     -2.2510633E-18
  -1.860000     -5.7728840E-18
  -1.800000     -1.0474816E-17
  -1.740000     -1.1209998E-17
  -1.680000      4.3059449E-18
  -1.620000      5.3783002E-17
  -1.560000      1.4914547E-16
  -1.500000      2.7440556E-16
  -1.440000      3.6068439E-16
  -1.380000      2.7832592E-16
  -1.320000     -1.2837561E-16
  -1.260000     -9.4945416E-16
  -1.200000     -2.0785092E-15
  -1.140000     -3.1051080E-15
  -1.080000     -3.3239477E-15
  -1.020000     -1.9415605E-15
 -0.9600000      1.5145891E-15
 -0.9000000      6.7053631E-15
 -0.8400000      1.2149839E-14
 -0.7800000      1.5337407E-14
 -0.7200000      1.3456587E-14
 -0.6600000      4.6574983E-15
 -0.6000000     -1.0560402E-14
 -0.5400000     -2.8482984E-14
 -0.4800000     -4.2477933E-14
 -0.4200000     -4.4756110E-14
 -0.3600000     -2.9305419E-14
 -0.3000000      4.9259832E-15
 -0.2400000      5.1886755E-14
 -0.1800000      9.8475705E-14
 -0.1200000      1.2727535E-13
 -5.9999999E-02  1.2145642E-13
  0.0000000E+00  7.0435147E-14
  5.9999999E-02 -2.5543415E-14
  0.1200000     -1.5340973E-13
  0.1800000     -2.8845440E-13
  0.2400000     -3.9817780E-13
  0.3000000     -4.4753876E-13
  0.3600000     -4.0432843E-13
  0.4200000     -2.4412788E-13
  0.4800000      4.4663302E-14
  0.5400000      4.5464210E-13
  0.6000000      9.5143923E-13
  0.6600000      1.4650826E-12
  0.7200000      1.8842905E-12
  0.7800000      2.0594663E-12
  0.8400000      1.8206203E-12
  0.9000000      1.0141256E-12
  0.9600000     -4.4318347E-13
   1.020000     -2.5015766E-12
   1.080000     -4.9242598E-12
   1.140000     -7.2629680E-12
   1.200000     -8.8843048E-12
   1.260000     -9.0602456E-12
   1.320000     -7.1217767E-12
   1.380000     -2.6557591E-12
   1.440000      4.2936427E-12
   1.500000      1.3070755E-11
   1.560000      2.2355404E-11
   1.620000      3.0253459E-11
   1.680000      3.4547851E-11
   1.740000      3.3092373E-11
   1.800000      2.4293637E-11
   1.860000      7.5963914E-12
   1.920000     -1.6128224E-11
   1.980000     -4.4388274E-11
   2.040000     -7.3143103E-11
   2.100000     -9.7173831E-11
   2.160000     -1.1073366E-10
   2.220000     -1.0840831E-10
   2.280000     -8.6074106E-11
   2.340000     -4.1815731E-11
   2.400000      2.3337932E-11
   2.460000      1.0497985E-10
   2.520000      1.9526990E-10
   2.580000      2.8327818E-10
   2.640000      3.5568501E-10
   2.700000      3.9774434E-10
   2.760000      3.9438564E-10
   2.820000      3.3132275E-10
   2.880000      1.9605442E-10
   2.940000     -2.1326491E-11
   3.000000     -3.2756370E-10
   3.060000     -7.2592321E-10
   3.120000     -1.2161281E-09
   3.180000     -1.7945126E-09
   3.240000     -2.4543485E-09
   3.300000     -3.1862699E-09
   3.360000     -3.9787036E-09
   3.420000     -4.8182058E-09
   3.480000     -5.6896261E-09
   3.540000     -6.5760890E-09
   3.600000     -7.4588602E-09
   3.660000     -8.3172678E-09
   3.720000     -9.1288905E-09
   3.780000     -9.8702087E-09
   3.840000     -1.0517813E-08
   3.900000     -1.1050101E-08
   3.960000     -1.1449205E-08
   4.020000     -1.1702782E-08
   4.080000     -1.1805260E-08
   4.140000     -1.1758263E-08
   4.200000     -1.1570105E-08
   4.260000     -1.1254520E-08
   4.320000     -1.0828958E-08
   4.380000     -1.0312858E-08
   4.440000     -9.7262358E-09
   4.500000     -9.0887546E-09
   4.560000     -8.4192209E-09
   4.620000     -7.7352906E-09
   4.680000     -7.0530906E-09
   4.740000     -6.3865255E-09
   4.800000     -5.7462248E-09
   4.860000     -5.1382476E-09
   4.920000     -4.5628616E-09
   4.980000     -4.0137711E-09
   5.040000     -3.4781384E-09
   5.100000     -2.9376344E-09
   5.160000     -2.3705395E-09
   5.220000     -1.7547359E-09
   5.280000     -1.0711971E-09
   5.340000     -3.0743819E-10
   5.400000      5.3971838E-10
   5.460000      1.4626954E-09
   5.520000      2.4435152E-09
   5.580000      3.4561418E-09
   5.640000      4.4705741E-09
   5.700000      5.4579909E-09
   5.760000      6.3958909E-09
   5.820000      7.2720194E-09
   5.880000      8.0860829E-09
   5.940000      8.8487333E-09
   6.000000      9.5780299E-09
   6.060000      1.0294253E-08
   6.120000      1.1014451E-08
   6.180000      1.1748125E-08
   6.240000      1.2495177E-08
   6.300000      1.3246537E-08
   6.360000      1.3987192E-08
   6.420000      1.4700732E-08
   6.480000      1.5374212E-08
   6.540000      1.6002161E-08
   6.600000      1.6588899E-08
   6.660000      1.7148670E-08
   6.720000      1.7703561E-08
   6.780000      1.8279483E-08
   6.840000      1.8900810E-08
   6.900000      1.9584476E-08
   6.960000      2.0334619E-08
   7.020000      2.1138929E-08
   7.080000      2.1967836E-08
   7.140000      2.2777293E-08
   7.200000      2.3515163E-08
   7.260000      2.4130387E-08
   7.320000      2.4583116E-08
   7.380000      2.4853490E-08
   7.440000      2.4946713E-08
   7.500000      2.4892730E-08
   7.560000      2.4740068E-08
   7.620000      2.4544892E-08
   7.680000      2.4357700E-08
   7.740000      2.4210870E-08
   7.800000      2.4110271E-08
   7.860000      2.4033289E-08
   7.920000      2.3934051E-08
   7.980000      2.3754847E-08
   8.040000      2.3441148E-08
   8.100000      2.2956639E-08
   8.160000      2.2294662E-08
   8.220000      2.1483229E-08
   8.280000      2.0582357E-08
   8.340000      1.9674172E-08
   8.400000      1.8847951E-08
   8.460000      1.8183338E-08
   8.520000      1.7735355E-08
   8.580000      1.7524442E-08
   8.640000      1.7533674E-08
   8.700000      1.7713813E-08
   8.760000      1.7995275E-08
   8.820000      1.8304485E-08
   8.880000      1.8581202E-08
   8.940000      1.8792878E-08
   9.000000      1.8942673E-08
   9.060000      1.9068963E-08
   9.120000      1.9236117E-08
   9.180000      1.9518408E-08
   9.240000      1.9980805E-08
   9.300000      2.0661325E-08
   9.360000      2.1559453E-08
   9.420000      2.2633674E-08
   9.480000      2.3808852E-08
   9.540000      2.4991504E-08
   9.600000      2.6089012E-08
   9.660000      2.7027680E-08
   9.720000      2.7765097E-08
   9.780000      2.8293911E-08
   9.840000      2.8636679E-08
   9.900000      2.8833947E-08
   9.960000      2.8929460E-08
   10.02000      2.8956991E-08
   10.08000      2.8932394E-08
   10.14000      2.8852703E-08
   10.20000      2.8701868E-08
   10.26000      2.8460692E-08
   10.32000      2.8117514E-08
   10.38000      2.7676103E-08
   10.44000      2.7158395E-08
   10.50000      2.6601249E-08
   10.56000      2.6048339E-08
   10.62000      2.5539521E-08
   10.68000      2.5100777E-08
   10.74000      2.4737425E-08
   10.80000      2.4432396E-08
   10.86000      2.4149909E-08
   10.92000      2.3843413E-08
   10.98000      2.3465592E-08
   11.04000      2.2977749E-08
   11.10000      2.2356147E-08
   11.16000      2.1593845E-08
   11.22000      2.0697932E-08
   11.28000      1.9683462E-08
   11.34000      1.8566293E-08
   11.40000      1.7357417E-08
   11.46000      1.6060595E-08
   11.52000      1.4674035E-08
   11.58000      1.3195292E-08
   11.64000      1.1627399E-08
   11.70000      9.9838466E-09
   11.76000      8.2903258E-09
   11.82000      6.5823591E-09
   11.88000      4.8992637E-09
   11.94000      3.2761480E-09
   12.00000      1.7362177E-09
   12.06000      2.8557595E-10
   12.12000     -1.0880565E-09
   12.18000     -2.4123552E-09
   12.24000     -3.7238690E-09
   12.30000     -5.0594982E-09
   12.36000     -6.4478951E-09
   12.42000     -7.9026599E-09
   12.48000     -9.4187582E-09
   12.54000     -1.0972905E-08
   12.60000     -1.2527800E-08
   12.66000     -1.4039299E-08
   12.72000     -1.5464970E-08
   12.78000     -1.6772166E-08
   12.84000     -1.7943872E-08
   12.90000     -1.8981092E-08
   12.96000     -1.9901362E-08
   13.02000     -2.0733886E-08
   13.08000     -2.1512527E-08
   13.14000     -2.2268351E-08
   13.20000     -2.3023350E-08
   13.26000     -2.3786683E-08
   13.32000     -2.4553941E-08
   13.38000     -2.5309298E-08
   13.44000     -2.6029603E-08
   13.50000     -2.6689170E-08
   13.56000     -2.7263916E-08
   13.62000     -2.7733941E-08
   13.68000     -2.8084184E-08
   13.74000     -2.8303560E-08
   13.80000     -2.8383505E-08
   13.86000     -2.8317038E-08
   13.92000     -2.8099201E-08
   13.98000     -2.7729138E-08
   14.04000     -2.7213138E-08
   14.10000     -2.6567374E-08
   14.16000     -2.5818816E-08
   14.22000     -2.5003116E-08
   14.28000     -2.4159291E-08
   14.34000     -2.3322206E-08
   14.40000     -2.2514964E-08
   14.46000     -2.1743743E-08
   14.52000     -2.0997154E-08
   14.58000     -2.0250939E-08
   14.64000     -1.9477076E-08
   14.70000     -1.8654802E-08
   14.76000     -1.7780200E-08
   14.82000     -1.6871262E-08
   14.88000     -1.5966625E-08
   14.94000     -1.5118086E-08
   15.00000     -1.4378863E-08
   15.06000     -1.3790852E-08
   15.12000     -1.3374361E-08
   15.18000     -1.3123058E-08
   15.24000     -1.3005383E-08
   15.30000     -1.2971983E-08
   15.36000     -1.2967266E-08
   15.42000     -1.2942195E-08
   15.48000     -1.2865273E-08
   15.54000     -1.2729118E-08
   15.60000     -1.2551031E-08
   15.66000     -1.2367426E-08
   15.72000     -1.2223392E-08
   15.78000     -1.2159973E-08
   15.84000     -1.2202380E-08
   15.90000     -1.2352246E-08
   15.96000     -1.2586003E-08
   16.02000     -1.2859895E-08
   16.08000     -1.3120306E-08
   16.14000     -1.3316636E-08
   16.20000     -1.3413302E-08
   16.26000     -1.3397734E-08
   16.32000     -1.3282378E-08
   16.38000     -1.3100356E-08
   16.44000     -1.2896042E-08
   16.50000     -1.2713031E-08
   16.56000     -1.2582547E-08
   16.62000     -1.2515146E-08
   16.68000     -1.2497747E-08
   16.74000     -1.2496717E-08
   16.80000     -1.2466257E-08
   16.86000     -1.2359954E-08
   16.92000     -1.2142496E-08
   16.98000     -1.1798429E-08
   17.04000     -1.1335579E-08
   17.10000     -1.0782250E-08
   17.16000     -1.0179125E-08
   17.22000     -9.5683550E-09
   17.28000     -8.9831147E-09
   17.34000     -8.4406864E-09
   17.40000     -7.9408977E-09
   17.46000     -7.4700148E-09
   17.52000     -7.0084720E-09
   17.58000     -6.5396883E-09
   17.64000     -6.0570651E-09
   17.70000     -5.5669500E-09
   17.76000     -5.0867732E-09
   17.82000     -4.6391246E-09
   17.88000     -4.2438710E-09
   17.94000     -3.9110444E-09
   18.00000     -3.6370307E-09
   18.06000     -3.4055618E-09
   18.12000     -3.1934211E-09
   18.18000     -2.9791389E-09
   18.24000     -2.7517559E-09
   18.30000     -2.5164666E-09
   18.36000     -2.2948068E-09
   18.42000     -2.1188138E-09
   18.48000     -2.0207143E-09
   18.54000     -2.0214386E-09
   18.60000     -2.1219251E-09
   18.66000     -2.3004527E-09
   18.72000     -2.5173026E-09
   18.78000     -2.7255567E-09
   18.84000     -2.8846798E-09
   18.90000     -2.9724678E-09
   18.96000     -2.9913809E-09
   19.02000     -2.9670582E-09
   19.08000     -2.9392968E-09
   19.14000     -2.9481673E-09
   19.20000     -3.0194538E-09
   19.26000     -3.1538183E-09
   19.32000     -3.3229994E-09
   19.38000     -3.4743497E-09
   19.44000     -3.5426737E-09
   19.50000     -3.4663141E-09
   19.56000     -3.2032275E-09
   19.62000     -2.7426956E-09
   19.68000     -2.1093474E-09
   19.74000     -1.3580846E-09
   19.80000     -5.6086658E-10
   19.86000      2.1147448E-10
   19.92000      9.0773788E-10
   19.98000      1.5102407E-09
   20.04000      2.0402167E-09
   20.10000      2.5530611E-09
   20.16000      3.1245051E-09
   20.22000      3.8313237E-09
   20.28000      4.7317257E-09
   20.34000      5.8506489E-09
   20.40000      7.1738162E-09
   20.46000      8.6519574E-09
   20.52000      1.0213867E-08
   20.58000      1.1784638E-08
   20.64000      1.3304215E-08
   20.70000      1.4741431E-08
   20.76000      1.6100055E-08
   20.82000      1.7415410E-08
   20.88000      1.8742590E-08
   20.94000      2.0139332E-08
   21.00000      2.1647967E-08
   21.06000      2.3281112E-08
   21.12000      2.5014915E-08
   21.18000      2.6791726E-08
   21.24000      2.8531726E-08
   21.30000      3.0150556E-08
   21.36000      3.1578381E-08
   21.42000      3.2775283E-08
   21.48000      3.3738857E-08
   21.54000      3.4501944E-08
   21.60000      3.5121268E-08
   21.66000      3.5660179E-08
   21.72000      3.6170341E-08
   21.78000      3.6677434E-08
   21.84000      3.7174548E-08
   21.90000      3.7624776E-08
   21.96000      3.7971834E-08
   22.02000      3.8155228E-08
   22.08000      3.8125492E-08
   22.14000      3.7855109E-08
   22.20000      3.7342215E-08
   22.26000      3.6606590E-08
   22.32000      3.5679609E-08
   22.38000      3.4591743E-08
   22.44000      3.3361726E-08
   22.50000      3.1990698E-08
   22.56000      3.0462932E-08
   22.62000      2.8752352E-08
   22.68000      2.6832423E-08
   22.74000      2.4685747E-08
   22.80000      2.2310292E-08
   22.86000      1.9720360E-08
   22.92000      1.6942375E-08
   22.98000      1.4007203E-08
   23.04000      1.0941768E-08
   23.10000      7.7626892E-09
   23.16000      4.4738706E-09
   23.22000      1.0686716E-09
   23.28000     -2.4641225E-09
   23.34000     -6.1323213E-09
   23.40000     -9.9326787E-09
   23.46000     -1.3845802E-08
   23.52000     -1.7835264E-08
   23.58000     -2.1851477E-08
   23.64000     -2.5839631E-08
   23.70000     -2.9749815E-08
   23.76000     -3.3546584E-08
   23.82000     -3.7215187E-08
   23.88000     -4.0762327E-08
   23.94000     -4.4210875E-08
   24.00000     -4.7589683E-08
   24.06000     -5.0921233E-08
   24.12000     -5.4210691E-08
   24.18000     -5.7439589E-08
   24.24000     -6.0566187E-08
   24.30000     -6.3532461E-08
   24.36000     -6.6276002E-08
   24.42000     -6.8743375E-08
   24.48000     -7.0901542E-08
   24.54000     -7.2744108E-08
   24.60000     -7.4291073E-08
   24.66000     -7.5581987E-08
   24.72000     -7.6664556E-08
   24.78000     -7.7581475E-08
   24.84000     -7.8358816E-08
   24.90000     -7.8998760E-08
   24.96000     -7.9478248E-08
   25.02000     -7.9753967E-08
   25.08000     -7.9772100E-08
   25.14000     -7.9480522E-08
   25.20000     -7.8840515E-08
   25.26000     -7.7835232E-08
   25.32000     -7.6473299E-08
   25.38000     -7.4787039E-08
   25.44000     -7.2826445E-08
   25.50000     -7.0650728E-08
   25.56000     -6.8319864E-08
   25.62000     -6.5887910E-08
   25.68000     -6.3399334E-08
   25.74000     -6.0888176E-08
   25.80000     -5.8379420E-08
   25.86000     -5.5891260E-08
   25.92000     -5.3437166E-08
   25.98000     -5.1027225E-08
   26.04000     -4.8668678E-08
   26.10000     -4.6366239E-08
   26.16000     -4.4122693E-08
   26.22000     -4.1940126E-08
   26.28000     -3.9821664E-08
   26.34000     -3.7773066E-08
   26.40000     -3.5803406E-08
   26.46000     -3.3924202E-08
   26.52000     -3.2146975E-08
   26.58000     -3.0479828E-08
   26.64000     -2.8924324E-08
   26.70000     -2.7474130E-08
   26.76000     -2.6116458E-08
   26.82000     -2.4836620E-08
   26.88000     -2.3624771E-08
   26.94000     -2.2483066E-08
   27.00000     -2.1430974E-08
   27.06000     -2.0506773E-08
   27.12000     -1.9764235E-08
   27.18000     -1.9264915E-08
   27.24000     -1.9067732E-08
   27.30000     -1.9218371E-08
   27.36000     -1.9741059E-08
   27.42000     -2.0634578E-08
   27.48000     -2.1873216E-08
   27.54000     -2.3412023E-08
   27.60000     -2.5194916E-08
   27.66000     -2.7163615E-08
   27.72000     -2.9265573E-08
   27.78000     -3.1459589E-08
   27.84000     -3.3718383E-08
   27.90000     -3.6028172E-08
   27.96000     -3.8385750E-08
   28.02000     -4.0793960E-08
   28.08000     -4.3256687E-08
   28.14000     -4.5774300E-08
   28.20000     -4.8340521E-08
   28.26000     -5.0941139E-08
   28.32000     -5.3554583E-08
   28.38000     -5.6154072E-08
   28.44000     -5.8710636E-08
   28.50000     -6.1196353E-08
   28.56000     -6.3587123E-08
   28.62000     -6.5864690E-08
   28.68000     -6.8017528E-08
   28.74000     -7.0040670E-08
   28.80000     -7.1934380E-08
   28.86000     -7.3701905E-08
   28.92000     -7.5346627E-08
   28.98000     -7.6869114E-08
   29.04000     -7.8264712E-08
   29.10000     -7.9522195E-08
   29.16000     -8.0623828E-08
   29.22000     -8.1546645E-08
   29.28000     -8.2264677E-08
   29.34000     -8.2751498E-08
   29.40000     -8.2982545E-08
   29.46000     -8.2937113E-08
   29.52000     -8.2600025E-08
   29.58000     -8.1962995E-08
   29.64000     -8.1025796E-08
   29.70000     -7.9796862E-08
   29.76000     -7.8292814E-08
   29.82000     -7.6536637E-08
   29.88000     -7.4554386E-08
   29.94000     -7.2371130E-08
   30.00000     -7.0007218E-08
   30.06000     -6.7476073E-08
   30.12000     -6.4784302E-08
   30.18000     -6.1934408E-08
   30.24000     -5.8928940E-08
   30.30000     -5.5774880E-08
   30.36000     -5.2486495E-08
   30.42000     -4.9085791E-08
   30.48000     -4.5600306E-08
   30.54000     -4.2059121E-08
   30.60000     -3.8488327E-08
   30.66000     -3.4907330E-08
   30.72000     -3.1326877E-08
   30.78000     -2.7749055E-08
   30.84000     -2.4168923E-08
   30.90000     -2.0577307E-08
   30.96000     -1.6964206E-08
   31.02000     -1.3322584E-08
   31.08000     -9.6522514E-09
   31.14000     -5.9635439E-09
   31.20000     -2.2800108E-09
   31.26000      1.3607546E-09
   31.32000      4.9090363E-09
   31.38000      8.3079508E-09
   31.44000      1.1500881E-08
   31.50000      1.4439893E-08
   31.56000      1.7093148E-08
   31.62000      1.9449422E-08
   31.68000      2.1518588E-08
   31.74000      2.3328081E-08
   31.80000      2.4916462E-08
   31.86000      2.6325825E-08
   31.92000      2.7594901E-08
   31.98000      2.8754137E-08
   32.04000      2.9823305E-08
   32.10000      3.0811364E-08
   32.16000      3.1717921E-08
   32.22000      3.2535503E-08
   32.28000      3.3252050E-08
   32.34000      3.3853297E-08
   32.40000      3.4325012E-08
   32.46000      3.4655034E-08
   32.52000      3.4835018E-08
   32.58000      3.4861699E-08
   32.64000      3.4737401E-08
   32.70000      3.4469558E-08
   32.76000      3.4069313E-08
   32.82000      3.3549338E-08
   32.88000      3.2921434E-08
   32.94000      3.2194389E-08
   33.00000      3.1372679E-08
   33.06000      3.0456256E-08
   33.12000      2.9441551E-08
   33.18000      2.8323374E-08
   33.24000      2.7097295E-08
   33.30000      2.5761908E-08
   33.36000      2.4320398E-08
   33.42000      2.2780968E-08
   33.48000      2.1155911E-08
   33.54000      1.9459465E-08
   33.60000      1.7704943E-08
   33.66000      1.5901872E-08
   33.72000      1.4054051E-08
   33.78000      1.2159228E-08
   33.84000      1.0210657E-08
   33.90000      8.2002503E-09
   33.96000      6.1224581E-09
   34.02000      3.9777475E-09
   34.08000      1.7746452E-09
   34.14000     -4.7020943E-10
   34.20000     -2.7339444E-09
   34.26000     -4.9906599E-09
   34.32000     -7.2151098E-09
   34.38000     -9.3861026E-09
   34.44000     -1.1489175E-08
   34.50000     -1.3518380E-08
   34.56000     -1.5477188E-08
   34.62000     -1.7378403E-08
   34.68000     -1.9242931E-08
   34.74000     -2.1097213E-08
   34.80000     -2.2969424E-08
   34.86000     -2.4885004E-08
   34.92000     -2.6862489E-08
   34.98000     -2.8910668E-08
   35.04000     -3.1027824E-08
   35.10000     -3.3203030E-08
   35.16000     -3.5418701E-08
   35.22000     -3.7653358E-08
   35.28000     -3.9883417E-08
   35.34000     -4.2083705E-08
   35.40000     -4.4226997E-08
   35.46000     -4.6283549E-08
   35.52000     -4.8221473E-08
   35.58000     -5.0008328E-08
   35.64000     -5.1613611E-08
   35.70000     -5.3011114E-08
   35.76000     -5.4180298E-08
   35.82000     -5.5106195E-08
   35.88000     -5.5778127E-08
   35.94000     -5.6188124E-08
   36.00000     -5.6330048E-08
   36.06000     -5.6199802E-08
   36.12000     -5.5796392E-08
   36.18000     -5.5122975E-08
   36.24000     -5.4186962E-08
   36.30000     -5.2998747E-08
   36.36000     -5.1569437E-08
   36.42000     -4.9908707E-08
   36.48000     -4.8024017E-08
   36.54000     -4.5921890E-08
   36.60000     -4.3611180E-08
   36.66000     -4.1107175E-08
   36.72000     -3.8435125E-08
   36.78000     -3.5631750E-08
   36.84000     -3.2744133E-08
   36.90000     -2.9826250E-08
   36.96000     -2.6934091E-08
   37.02000     -2.4120505E-08
   37.08000     -2.1430806E-08
   37.14000     -1.8899696E-08
   37.20000     -1.6549706E-08
   37.26000     -1.4391174E-08
   37.32000     -1.2423746E-08
   37.38000     -1.0639305E-08
   37.44000     -9.0259942E-09
   37.50000     -7.5725959E-09
   37.56000     -6.2721304E-09
   37.62000     -5.1234479E-09
   37.68000     -4.1300465E-09
   37.74000     -3.2962684E-09
   37.80000     -2.6221387E-09
   37.86000     -2.0988662E-09
   37.92000     -1.7070766E-09
   37.98000     -1.4189951E-09
   38.04000     -1.2043493E-09
   38.10000     -1.0382772E-09
   38.16000     -9.0863778E-10
   38.22000     -8.2018703E-10
   38.28000     -7.9414697E-10
   38.34000     -8.6326046E-10
   38.40000     -1.0639132E-09
   38.46000     -1.4277207E-09
   38.52000     -1.9748962E-09
   38.58000     -2.7108600E-09
   38.64000     -3.6263699E-09
   38.70000     -4.7004112E-09
   38.76000     -5.9045351E-09
   38.82000     -7.2073427E-09
   38.88000     -8.5781950E-09
   38.94000     -9.9897353E-09
   39.00000     -1.1419214E-08
   39.06000     -1.2848827E-08
   39.12000     -1.4265331E-08
   39.18000     -1.5659273E-08
   39.24000     -1.7024140E-08
   39.30000     -1.8355779E-08
   39.36000     -1.9652310E-08
   39.42000     -2.0914513E-08
   39.48000     -2.2146345E-08
   39.54000     -2.3355046E-08
   39.60000     -2.4550170E-08
   39.66000     -2.5741233E-08
   39.72000     -2.6934181E-08
   39.78000     -2.8127472E-08
   39.84000     -2.9308968E-08
   39.90000     -3.0454856E-08
   39.96000     -3.1531417E-08
   40.02000     -3.2499678E-08
   40.08000     -3.3322106E-08
   40.14000     -3.3970014E-08
   40.20000     -3.4429799E-08
   40.26000     -3.4706684E-08
   40.32000     -3.4824936E-08
   40.38000     -3.4824584E-08
   40.44000     -3.4755324E-08
   40.50000     -3.4668979E-08
   40.56000     -3.4612057E-08
   40.62000     -3.4619880E-08
   40.68000     -3.4713231E-08
   40.74000     -3.4897912E-08
   40.80000     -3.5166860E-08
   40.86000     -3.5503962E-08
   40.92000     -3.5888561E-08
   40.98000     -3.6299511E-08
   41.04000     -3.6718177E-08
   41.10000     -3.7130018E-08
   41.16000     -3.7524959E-08
   41.22000     -3.7896918E-08
   41.28000     -3.8243037E-08
   41.34000     -3.8562870E-08
   41.40000     -3.8857682E-08
   41.46000     -3.9129883E-08
   41.52000     -3.9382432E-08
   41.58000     -3.9618335E-08
   41.64000     -3.9840341E-08
   41.70000     -4.0051066E-08
   41.76000     -4.0253550E-08
   41.82000     -4.0452012E-08
   41.88000     -4.0652335E-08
   41.94000     -4.0861625E-08
   42.00000     -4.1086459E-08
   42.06000     -4.1329901E-08
   42.12000     -4.1587995E-08
   42.18000     -4.1846675E-08
   42.24000     -4.2080408E-08
   42.30000     -4.2253159E-08
   42.36000     -4.2321879E-08
   42.42000     -4.2241773E-08
   42.48000     -4.1972296E-08
   42.54000     -4.1482537E-08
   42.60000     -4.0755143E-08
   42.66000     -3.9788059E-08
   42.72000     -3.8594088E-08
   42.78000     -3.7198443E-08
   42.84000     -3.5634745E-08
   42.90000     -3.3939980E-08
   42.96000     -3.2149384E-08
   43.02000     -3.0292064E-08
   43.08000     -2.8388476E-08
   43.14000     -2.6450429E-08
   43.20000     -2.4483734E-08
   43.26000     -2.2492816E-08
   43.32000     -2.0485857E-08
   43.38000     -1.8478758E-08
   43.44000     -1.6496507E-08
   43.50000     -1.4571348E-08
   43.56000     -1.2738228E-08
   43.62000     -1.1028934E-08
   43.68000     -9.4666071E-09
   43.74000     -8.0621803E-09
   43.80000     -6.8135266E-09
   43.86000     -5.7072627E-09
   43.92000     -4.7225535E-09
   43.98000     -3.8359418E-09
   44.04000     -3.0263270E-09
   44.10000     -2.2794000E-09
   44.16000     -1.5910232E-09
   44.22000     -9.6907327E-10
   44.28000     -4.3325898E-10
   44.34000     -1.2548695E-11
   44.40000      2.5976923E-10
   44.46000      3.5273828E-10
   44.52000      2.4476227E-10
   44.58000     -7.0737471E-11
   44.64000     -5.8267119E-10
   44.70000     -1.2635774E-09
   44.76000     -2.0747073E-09
   44.82000     -2.9736273E-09
   44.88000     -3.9223318E-09
   44.94000     -4.8937547E-09
   45.00000     -5.8751080E-09
   45.06000     -6.8674058E-09
   45.12000     -7.8815399E-09
   45.18000     -8.9320453E-09
   45.24000     -1.0030112E-08
   45.30000     -1.1177416E-08
   45.36000     -1.2362151E-08
   45.42000     -1.3558241E-08
   45.48000     -1.4728172E-08
   45.54000     -1.5829166E-08
   45.60000     -1.6821579E-08
   45.66000     -1.7677605E-08
   45.72000     -1.8387908E-08
   45.78000     -1.8963959E-08
   45.84000     -1.9434870E-08
   45.90000     -1.9839078E-08
   45.96000     -2.0213008E-08
   46.02000     -2.0580151E-08
   46.08000     -2.0944135E-08
   46.14000     -2.1288381E-08
   46.20000     -2.1582849E-08
   46.26000     -2.1796032E-08
   46.32000     -2.1908557E-08
   46.38000     -2.1924155E-08
   46.44000     -2.1874635E-08
   46.50000     -2.1817447E-08
   46.56000     -2.1826851E-08
   46.62000     -2.1981672E-08
   46.68000     -2.2353564E-08
   46.74000     -2.2999338E-08
   46.80000     -2.3959448E-08
   46.86000     -2.5262883E-08
   46.92000     -2.6936803E-08
   46.98000     -2.9018189E-08
   47.04000     -3.1564529E-08
   47.10000     -3.4661142E-08
   47.16000     -3.8423963E-08
   47.22000     -4.2998078E-08
   47.28000     -4.8553463E-08
   47.34000     -5.5280253E-08
   47.40000     -6.3386025E-08
   47.46000     -7.3097034E-08
   47.52000     -8.4664137E-08
   47.58000     -9.8372929E-08
   47.64000     -1.1455605E-07
   47.70000     -1.3360533E-07
   47.76000     -1.5598101E-07
   47.82000     -1.8221711E-07
   47.88000     -2.1292288E-07
   47.94000     -2.4878295E-07
   48.00000     -2.9055877E-07
   48.06000     -3.3909510E-07
   48.12000     -3.9533330E-07
   48.18000     -4.6033188E-07
   48.24000     -5.3529163E-07
   48.30000     -6.2158284E-07
   48.36000     -7.2076978E-07
   48.42000     -8.3463038E-07
   48.48000     -9.6517033E-07
   48.54000     -1.1146319E-06
   48.60000     -1.2855011E-06
   48.66000     -1.4805158E-06
   48.72000     -1.7026780E-06
   48.78000     -1.9552713E-06
   48.84000     -2.2418840E-06
   48.90000     -2.5664333E-06
   48.96000     -2.9331948E-06
   49.02000     -3.3468291E-06
   49.08000     -3.8124067E-06
   49.14000     -4.3354303E-06
   49.20000     -4.9218502E-06
   49.26000     -5.5780797E-06
   49.32000     -6.3110006E-06
   49.38000     -7.1279687E-06
   49.44000     -8.0368154E-06
   49.50000     -9.0458507E-06
   49.56000     -1.0163856E-05
   49.62000     -1.1400090E-05
   49.68000     -1.2764276E-05
   49.74000     -1.4266598E-05
   49.80000     -1.5917672E-05
   49.86000     -1.7728535E-05
   49.92000     -1.9710587E-05
   49.98000     -2.1875563E-05
   50.04000     -2.4235476E-05
   50.10000     -2.6802569E-05
   50.16000     -2.9589242E-05
   50.22000     -3.2607986E-05
   50.28000     -3.5871326E-05
   50.34000     -3.9391718E-05
   50.40000     -4.3181470E-05
   50.46000     -4.7252644E-05
   50.52000     -5.1616957E-05
   50.58000     -5.6285673E-05
   50.64000     -6.1269515E-05
   50.70000     -6.6578526E-05
   50.76000     -7.2222007E-05
   50.82000     -7.8208337E-05
   50.88000     -8.4544910E-05
   50.94000     -9.1238006E-05
   51.00000     -9.8292687E-05
   51.06000     -1.0571264E-04
   51.12000     -1.1350017E-04
   51.18000     -1.2165602E-04
   51.24000     -1.3017931E-04
   51.30000     -1.3906746E-04
   51.36000     -1.4831622E-04
   51.42000     -1.5791948E-04
   51.48000     -1.6786938E-04
   51.54000     -1.7815628E-04
   51.60000     -1.8876871E-04
   51.66000     -1.9969344E-04
   51.72000     -2.1091553E-04
   51.78000     -2.2241834E-04
   51.84000     -2.3418368E-04
   51.90000     -2.4619189E-04
   51.96000     -2.5842205E-04
   52.02000     -2.7085186E-04
   52.08000     -2.8345818E-04
   52.14000     -2.9621692E-04
   52.20000     -3.0910340E-04
   52.26000     -3.2209244E-04
   52.32000     -3.3515875E-04
   52.38000     -3.4827704E-04
   52.44000     -3.6142219E-04
   52.50000     -3.7456970E-04
   52.56000     -3.8769568E-04
   52.62000     -4.0077715E-04
   52.68000     -4.1379227E-04
   52.74000     -4.2672068E-04
   52.80000     -4.3954345E-04
   52.86000     -4.5224352E-04
   52.92000     -4.6480572E-04
   52.98000     -4.7721705E-04
   53.04000     -4.8946665E-04
   53.10000     -5.0154602E-04
   53.16000     -5.1344902E-04
   53.22000     -5.2517198E-04
   53.28000     -5.3671363E-04
   53.34000     -5.4807495E-04
   53.40000     -5.5925926E-04
   53.46000     -5.7027180E-04
   53.52000     -5.8112014E-04
   53.58000     -5.9181341E-04
   53.64000     -6.0236279E-04
   53.70000     -6.1278063E-04
   53.76000     -6.2308082E-04
   53.82000     -6.3327799E-04
   53.88000     -6.4338761E-04
   53.94000     -6.5342552E-04
   54.00000     -6.6340767E-04
   54.06000     -6.7334977E-04
   54.12000     -6.8326708E-04
   54.18000     -6.9317373E-04
   54.24000     -7.0308289E-04
   54.30000     -7.1300619E-04
   54.36000     -7.2295347E-04
   54.42000     -7.3293276E-04
   54.48000     -7.4294984E-04
   54.54000     -7.5300829E-04
   54.60000     -7.6310913E-04
   54.66000     -7.7325077E-04
   54.72000     -7.8342890E-04
   54.78000     -7.9363643E-04
   54.84000     -8.0386369E-04
   54.90000     -8.1409799E-04
   54.96000     -8.2432432E-04
   55.02000     -8.3452486E-04
   55.08000     -8.4467983E-04
   55.14000     -8.5476704E-04
   55.20000     -8.6476275E-04
   55.26000     -8.7464141E-04
   55.32000     -8.8437635E-04
   55.38000     -8.9393975E-04
   55.44000     -9.0330350E-04
   55.50000     -9.1243879E-04
   55.56000     -9.2131738E-04