  -2.400000      0.0000000E+00
  -2.340000      0.0000000E+00
  -2.280000      0.0000000E+00
  -2.220000      0.0000000E+00
  -2.160000      0.0000000E+00
  -2.100000      6.6761028E-21
  -2.040000      6.6618283E-20
  -1.980000      3.2302913E-19
  -1.920000      9.7586747E-19
  -1.860000      1.8994747E-18
  -1.800000      1.8476169E-18
  -1.740000     -2.1048628E-18
  -1.680000     -1.3370433E-17
  -1.620000     -3.1586606E-17
  -1.560000     -4.6323673E-17
  -1.500000     -3.3745568E-17
  -1.440000      3.6355144E-17
  -1.380000      1.7883972E-16
  -1.320000      3.6255429E-16
  -1.260000      4.8903797E-16
  -1.200000      4.0480260E-16
  -1.140000     -3.7982155E-17
  -1.080000     -8.8248196E-16
  -1.020000     -1.9693789E-15
 -0.9600000     -2.8961355E-15
 -0.9000000     -3.0794618E-15
 -0.8400000     -1.9319625E-15
 -0.7800000      8.8165230E-16
 -0.7200000      5.1802964E-15
 -0.6600000      1.0083158E-14
 -0.6000000      1.3995979E-14
 -0.5400000      1.4842828E-14
 -0.4800000      1.0588196E-14
 -0.4200000      2.4995183E-17
 -0.3600000     -1.6319569E-14
 -0.3000000     -3.5466516E-14
 -0.2400000     -5.1879951E-14
 -0.1800000     -5.8363870E-14
 -0.1200000     -4.8082090E-14
 -5.9999999E-02 -1.7345019E-14
  0.0000000E+00  3.1710542E-14
  5.9999999E-02  8.9716286E-14
  0.1200000      1.4095004E-13
  0.1800000      1.6683967E-13
  0.2400000      1.5146430E-13
  0.3000000      8.7523826E-14
  0.3600000     -1.9191707E-14
  0.4200000     -1.4857734E-13
  0.4800000     -2.6916053E-13
  0.5400000     -3.4501837E-13
  0.6000000     -3.4534447E-13
  0.6600000     -2.5446195E-13
  0.7200000     -7.9547276E-14
  0.7800000      1.4672990E-13
  0.8400000      3.7080096E-13
  0.9000000      5.3056301E-13
  0.9600000      5.7346510E-13
   1.020000      4.7531553E-13
   1.080000      2.5279242E-13
   1.140000     -3.6909725E-14
   1.200000     -3.1206542E-13
   1.260000     -4.9438248E-13
   1.320000     -5.3878289E-13
   1.380000     -4.5176452E-13
   1.440000     -2.8813510E-13
   1.500000     -1.2499318E-13
   1.560000     -2.3423153E-14
   1.620000      3.3756641E-15
   1.680000     -2.7977699E-15
   1.740000      2.9491465E-14
   1.800000      1.5267923E-13
   1.860000      3.5251630E-13
   1.920000      5.3003359E-13
   1.980000      5.3140885E-13
   2.040000      2.2165799E-13
   2.100000     -4.2629485E-13
   2.160000     -1.2696946E-12
   2.220000     -1.9987673E-12
   2.280000     -2.2179426E-12
   2.340000     -1.5854836E-12
   2.400000      3.6973439E-14
   2.460000      2.4831784E-12
   2.520000      5.2727028E-12
   2.580000      7.7021167E-12
   2.640000      9.0062680E-12
   2.700000      8.5305018E-12
   2.760000      5.8498991E-12
   2.820000      7.9334412E-13
   2.880000     -6.6297974E-12
   2.940000     -1.6359820E-11
   3.000000     -2.8404779E-11
   3.060000     -4.2875734E-11
   3.120000     -5.9895429E-11
   3.180000     -7.9385859E-11
   3.240000     -1.0079398E-10
   3.300000     -1.2285552E-10
   3.360000     -1.4350653E-10
   3.420000     -1.6002233E-10
   3.480000     -1.6940056E-10
   3.540000     -1.6892365E-10
   3.600000     -1.5676722E-10
   3.660000     -1.3248952E-10
   3.720000     -9.7262913E-11
   3.780000     -5.3785407E-11
   3.840000     -5.9137135E-12
   3.900000      4.1853312E-11
   3.960000      8.4878125E-11
   4.020000      1.1875022E-10
   4.080000      1.3948070E-10
   4.140000      1.4359279E-10
   4.200000      1.2823109E-10
   4.260000      9.1391172E-11
   4.320000      3.2282156E-11
   4.380000     -4.8276213E-11
   4.440000     -1.4758875E-10
   4.500000     -2.6110072E-10
   4.560000     -3.8274497E-10
   4.620000     -5.0553778E-10
   4.680000     -6.2225225E-10
   4.740000     -7.2599904E-10
   4.800000     -8.1064189E-10
   4.860000     -8.7110080E-10
   4.920000     -9.0367880E-10
   4.980000     -9.0651386E-10
   5.040000     -8.8011759E-10
   5.100000     -8.2778878E-10
   5.160000     -7.5558781E-10
   5.220000     -6.7161854E-10
   5.280000     -5.8459276E-10
   5.340000     -5.0196713E-10
   5.400000     -4.2819664E-10
   5.460000     -3.6370865E-10
   5.520000     -3.0501218E-10
   5.580000     -2.4597854E-10
   5.640000     -1.7992073E-10
   5.700000     -1.0182512E-10
   5.760000     -1.0069673E-11
   5.820000      9.2815595E-11
   5.880000      2.0044935E-10
   5.940000      3.0375019E-10
   6.000000      3.9256109E-10
   6.060000      4.5736817E-10
   6.120000      4.9082433E-10
   6.180000      4.8887927E-10
   6.240000      4.5136717E-10
   6.300000      3.8193776E-10
   6.360000      2.8731195E-10
   6.420000      1.7602791E-10
   6.480000      5.7068558E-11
   6.540000     -6.1111477E-11
   6.600000     -1.7072564E-10
   6.660000     -2.6386554E-10
   6.720000     -3.3111566E-10
   6.780000     -3.6023931E-10
   6.840000     -3.3562228E-10
   6.900000     -2.3884422E-10
   6.960000     -5.0246824E-11
   7.020000      2.4904923E-10
   7.080000      6.7536815E-10
   7.140000      1.2414206E-09
   7.200000      1.9560626E-09
   7.260000      2.8246188E-09
   7.320000      3.8493662E-09
   7.380000      5.0298818E-09
   7.440000      6.3631092E-09
   7.500000      7.8431794E-09
   7.560000      9.4610266E-09
   7.620000      1.1203829E-08
   7.680000      1.3054285E-08
   7.740000      1.4989833E-08
   7.800000      1.6982069E-08
   7.860000      1.8996646E-08
   7.920000      2.0993957E-08
   7.980000      2.2930625E-08
   8.040000      2.4761675E-08
   8.100000      2.6443052E-08
   8.160000      2.7934190E-08
   8.220000      2.9200329E-08
   8.280000      3.0214274E-08
   8.340000      3.0957334E-08
   8.400000      3.1419084E-08
   8.460000      3.1595860E-08
   8.520000      3.1488312E-08
   8.580000      3.1098725E-08
   8.640000      3.0429234E-08
   8.700000      2.9481821E-08
   8.760000      2.8260283E-08
   8.820000      2.6773572E-08
   8.880000      2.5039109E-08
   8.940000      2.3084629E-08
   9.000000      2.0947670E-08
   9.060000      1.8672818E-08
   9.120000      1.6307698E-08
   9.180000      1.3899024E-08
   9.240000      1.1489695E-08
   9.300000      9.1172172E-09
   9.360000      6.8130168E-09
   9.420000      4.6019371E-09
   9.480000      2.5014404E-09
   9.540000      5.2054827E-10
   9.600000     -1.3410877E-09
   9.660000     -3.0934850E-09
   9.720000     -4.7558522E-09
   9.780000     -6.3555206E-09
   9.840000     -7.9266940E-09
   9.900000     -9.5091908E-09
   9.960000     -1.1146941E-08
   10.02000     -1.2885631E-08
   10.08000     -1.4768885E-08
   10.14000     -1.6832876E-08
   10.20000     -1.9100019E-08
   10.26000     -2.1573040E-08
   10.32000     -2.4230935E-08
   10.38000     -2.7027895E-08
   10.44000     -2.9895475E-08
   10.50000     -3.2747419E-08
   10.56000     -3.5486021E-08
   10.62000     -3.8009013E-08
   10.68000     -4.0216229E-08
   10.74000     -4.2015955E-08
   10.80000     -4.3331042E-08
   10.86000     -4.4104770E-08
   10.92000     -4.4306088E-08
   10.98000     -4.3933387E-08
   11.04000     -4.3015824E-08
   11.10000     -4.1611482E-08
   11.16000     -3.9802256E-08
   11.22000     -3.7686107E-08
   11.28000     -3.5367950E-08
   11.34000     -3.2950549E-08
   11.40000     -3.0526778E-08
   11.46000     -2.8173913E-08
   11.52000     -2.5950177E-08
   11.58000     -2.3893241E-08
   11.64000     -2.2020339E-08
   11.70000     -2.0329798E-08
   11.76000     -1.8803991E-08
   11.82000     -1.7413853E-08
   11.88000     -1.6124787E-08
   11.94000     -1.4903263E-08
   12.00000     -1.3722905E-08
   12.06000     -1.2568677E-08
   12.12000     -1.1438172E-08
   12.18000     -1.0339890E-08
   12.24000     -9.2892760E-09
   12.30000     -8.3038669E-09
   12.36000     -7.3987509E-09
   12.42000     -6.5829657E-09
   12.48000     -5.8567937E-09
   12.54000     -5.2096283E-09
   12.60000     -4.6184239E-09
   12.66000     -4.0473105E-09
   12.72000     -3.4493610E-09
   12.78000     -2.7712119E-09
   12.84000     -1.9602995E-09
   12.90000     -9.7327224E-10
   12.96000      2.1662591E-10
   13.02000      1.6153134E-09
   13.08000      3.2078769E-09
   13.14000      4.9625113E-09
   13.20000      6.8368542E-09
   13.26000      8.7846619E-09
   13.32000      1.0761021E-08
   13.38000      1.2725128E-08
   13.44000      1.4640599E-08
   13.50000      1.6474058E-08
   13.56000      1.8193205E-08
   13.62000      1.9765663E-08
   13.68000      2.1159623E-08
   13.74000      2.2346748E-08
   13.80000      2.3306990E-08
   13.86000      2.4034140E-08
   13.92000      2.4540405E-08
   13.98000      2.4858210E-08
   14.04000      2.5038080E-08
   14.10000      2.5142331E-08
   14.16000      2.5235439E-08
   14.22000      2.5372731E-08
   14.28000      2.5589506E-08
   14.34000      2.5892813E-08
   14.40000      2.6257835E-08
   14.46000      2.6630191E-08
   14.52000      2.6934556E-08
   14.58000      2.7088470E-08
   14.64000      2.7018780E-08
   14.70000      2.6676963E-08
   14.76000      2.6049454E-08
   14.82000      2.5160164E-08
   14.88000      2.4064532E-08
   14.94000      2.2836904E-08
   15.00000      2.1555014E-08
   15.06000      2.0285940E-08
   15.12000      1.9077255E-08
   15.18000      1.7955236E-08
   15.24000      1.6929681E-08
   15.30000      1.6002968E-08
   15.36000      1.5179697E-08
   15.42000      1.4473139E-08
   15.48000      1.3905654E-08
   15.54000      1.3502162E-08
   15.60000      1.3278206E-08
   15.66000      1.3226431E-08
   15.72000      1.3306620E-08
   15.78000      1.3444081E-08
   15.84000      1.3539000E-08
   15.90000      1.3485918E-08
   15.96000      1.3198854E-08
   16.02000      1.2635151E-08
   16.08000      1.1810726E-08
   16.14000      1.0801374E-08
   16.20000      9.7284527E-09
   16.26000      8.7316216E-09
   16.32000      7.9351068E-09
   16.38000      7.4161202E-09
   16.44000      7.1840573E-09
   16.50000      7.1768160E-09
   16.56000      7.2762529E-09
   16.62000      7.3395601E-09
   16.68000      7.2383983E-09
   16.74000      6.8947310E-09
   16.80000      6.3025922E-09
   16.86000      5.5288596E-09
   16.92000      4.6925255E-09
   16.98000      3.9288537E-09
   17.04000      3.3497787E-09
   17.10000      3.0130867E-09
   17.16000      2.9098910E-09
   17.22000      2.9737881E-09
   17.28000      3.1080452E-09
   17.34000      3.2215621E-09
   17.40000      3.2618970E-09
   17.46000      3.2348126E-09
   17.52000      3.2040894E-09
   17.58000      3.2713638E-09
   17.64000      3.5418550E-09
   17.70000      4.0863779E-09
   17.76000      4.9116737E-09
   17.82000      5.9491501E-09
   17.88000      7.0668360E-09
   17.94000      8.1021412E-09
   18.00000      8.9060030E-09
   18.06000      9.3848058E-09
   18.12000      9.5265857E-09
   18.18000      9.4028021E-09
   18.24000      9.1447552E-09
   18.30000      8.9018428E-09
   18.36000      8.7945340E-09
   18.42000      8.8763494E-09
   18.48000      9.1160119E-09
   18.54000      9.4046220E-09
   18.60000      9.5852721E-09
   18.66000      9.4961514E-09
   18.72000      9.0146388E-09
   18.78000      8.0898133E-09
   18.84000      6.7542829E-09
   18.90000      5.1121876E-09
   18.96000      3.3071796E-09
   19.02000      1.4801587E-09
   19.08000     -2.7033131E-10
   19.14000     -1.9129520E-09
   19.20000     -3.4862699E-09
   19.26000     -5.0790669E-09
   19.32000     -6.7952857E-09
   19.38000     -8.7155945E-09
   19.44000     -1.0868466E-08
   19.50000     -1.3220309E-08
   19.56000     -1.5687682E-08
   19.62000     -1.8167144E-08
   19.68000     -2.0572299E-08
   19.74000     -2.2865059E-08
   19.80000     -2.5069831E-08
   19.86000     -2.7264996E-08
   19.92000     -2.9553741E-08
   19.98000     -3.2023646E-08
   20.04000     -3.4708894E-08
   20.10000     -3.7568824E-08
   20.16000     -4.0491379E-08
   20.22000     -4.3321709E-08
   20.28000     -4.5907409E-08
   20.34000     -4.8145619E-08
   20.40000     -5.0016187E-08
   20.46000     -5.1589385E-08
   20.52000     -5.3004914E-08
   20.58000     -5.4428543E-08
   20.64000     -5.5999866E-08
   20.70000     -5.7787528E-08
   20.76000     -5.9765874E-08
   20.82000     -6.1819932E-08
   20.88000     -6.3776611E-08
   20.94000     -6.5452184E-08
   21.00000     -6.6700778E-08
   21.06000     -6.7449079E-08
   21.12000     -6.7706985E-08
   21.18000     -6.7551952E-08
   21.24000     -6.7093467E-08
   21.30000     -6.6430310E-08
   21.36000     -6.5615488E-08
   21.42000     -6.4640396E-08
   21.48000     -6.3443231E-08
   21.54000     -6.1937833E-08
   21.60000     -6.0052464E-08
   21.66000     -5.7764506E-08
   21.72000     -5.5118939E-08
   21.78000     -5.2224173E-08
   21.84000     -4.9226593E-08
   21.90000     -4.6272525E-08
   21.96000     -4.3470230E-08
   22.02000     -4.0864343E-08
   22.08000     -3.8430798E-08
   22.14000     -3.6093262E-08
   22.20000     -3.3755260E-08
   22.26000     -3.1337382E-08
   22.32000     -2.8807731E-08
   22.38000     -2.6196584E-08
   22.44000     -2.3591522E-08
   22.50000     -2.1115410E-08
   22.56000     -1.8894601E-08
   22.62000     -1.7026929E-08
   22.68000     -1.5558502E-08
   22.74000     -1.4475042E-08
   22.80000     -1.3709244E-08
   22.86000     -1.3161372E-08
   22.92000     -1.2727219E-08
   22.98000     -1.2326282E-08
   23.04000     -1.1923315E-08
   23.10000     -1.1538301E-08
   23.16000     -1.1242568E-08
   23.22000     -1.1141940E-08
   23.28000     -1.1350814E-08
   23.34000     -1.1963293E-08
   23.40000     -1.3028543E-08
   23.46000     -1.4536848E-08
   23.52000     -1.6420493E-08
   23.58000     -1.8569851E-08
   23.64000     -2.0860949E-08
   23.70000     -2.3187294E-08
   23.76000     -2.5487152E-08
   23.82000     -2.7758281E-08
   23.88000     -3.0055450E-08
   23.94000     -3.2470918E-08
   24.00000     -3.5103238E-08
   24.06000     -3.8023227E-08
   24.12000     -4.1247290E-08
   24.18000     -4.4726089E-08
   24.24000     -4.8352145E-08
   24.30000     -5.1984262E-08
   24.36000     -5.5481586E-08
   24.42000     -5.8737225E-08
   24.48000     -6.1701513E-08
   24.54000     -6.4388288E-08
   24.60000     -6.6862739E-08
   24.66000     -6.9215041E-08
   24.72000     -7.1528277E-08
   24.78000     -7.3850394E-08
   24.84000     -7.6178864E-08
   24.90000     -7.8461987E-08
   24.96000     -8.0615564E-08
   25.02000     -8.2548802E-08
   25.08000     -8.4190404E-08
   25.14000     -8.5506343E-08
   25.20000     -8.6503704E-08
   25.26000     -8.7220137E-08
   25.32000     -8.7703548E-08
   25.38000     -8.7989449E-08
   25.44000     -8.8084363E-08
   25.50000     -8.7961006E-08
   25.56000     -8.7566988E-08
   25.62000     -8.6843720E-08
   25.68000     -8.5749484E-08
   25.74000     -8.4278739E-08
   25.80000     -8.2471352E-08
   25.86000     -8.0408739E-08
   25.92000     -7.8197573E-08
   25.98000     -7.5945877E-08
   26.04000     -7.3738320E-08
   26.10000     -7.1617762E-08
   26.16000     -6.9578562E-08
   26.22000     -6.7573474E-08
   26.28000     -6.5532362E-08
   26.34000     -6.3387205E-08
   26.40000     -6.1096472E-08
   26.46000     -5.8661517E-08
   26.52000     -5.6130219E-08
   26.58000     -5.3586639E-08
   26.64000     -5.1129579E-08
   26.70000     -4.8846406E-08
   26.76000     -4.6790195E-08
   26.82000     -4.4967408E-08
   26.88000     -4.3340268E-08
   26.94000     -4.1843148E-08
   27.00000     -4.0407631E-08
   27.06000     -3.8987626E-08
   27.12000     -3.7575663E-08
   27.18000     -3.6204636E-08
   27.24000     -3.4934281E-08
   27.30000     -3.3827526E-08
   27.36000     -3.2925460E-08
   27.42000     -3.2230162E-08
   27.48000     -3.1701529E-08
   27.54000     -3.1268776E-08
   27.60000     -3.0851947E-08
   27.66000     -3.0385173E-08
   27.72000     -2.9833203E-08
   27.78000     -2.9195576E-08
   27.84000     -2.8497647E-08
   27.90000     -2.7772485E-08
   27.96000     -2.7040958E-08
   28.02000     -2.6297842E-08
   28.08000     -2.5509511E-08
   28.14000     -2.4624507E-08
   28.20000     -2.3593349E-08
   28.26000     -2.2390173E-08
   28.32000     -2.1027667E-08
   28.38000     -1.9558726E-08
   28.44000     -1.8063030E-08
   28.50000     -1.6622522E-08
   28.56000     -1.5294402E-08
   28.62000     -1.4091601E-08
   28.68000     -1.2978285E-08
   28.74000     -1.1882245E-08
   28.80000     -1.0719659E-08
   28.86000     -9.4230170E-09
   28.92000     -7.9621003E-09
   28.98000     -6.3510295E-09
   29.04000     -4.6400928E-09
   29.10000     -2.8969627E-09
   29.16000     -1.1854436E-09
   29.22000      4.5007140E-10
   29.28000      1.9895119E-09
   29.34000      3.4313739E-09
   29.40000      4.7806115E-09
   29.46000      6.0365930E-09
   29.52000      7.1867547E-09
   29.58000      8.2085103E-09
   29.64000      9.0781027E-09
   29.70000      9.7820037E-09
   29.76000      1.0325442E-08
   29.82000      1.0733877E-08
   29.88000      1.1046183E-08
   29.94000      1.1301663E-08
   30.00000      1.1525554E-08
   30.06000      1.1718360E-08
   30.12000      1.1853049E-08
   30.18000      1.1881395E-08
   30.24000      1.1747542E-08
   30.30000      1.1404422E-08
   30.36000      1.0827712E-08
   30.42000      1.0022893E-08
   30.48000      9.0233021E-09
   30.54000      7.8799181E-09
   30.60000      6.6462826E-09
   30.66000      5.3633959E-09
   30.72000      4.0493542E-09
   30.78000      2.6968969E-09
   30.84000      1.2794230E-09
   30.90000     -2.3676863E-10
   30.96000     -1.8782973E-09
   31.02000     -3.6534629E-09
   31.08000     -5.5476828E-09
   31.14000     -7.5268636E-09
   31.20000     -9.5470298E-09
   31.26000     -1.1566290E-08
   31.32000     -1.3554547E-08
   31.38000     -1.5497495E-08
   31.44000     -1.7393884E-08
   31.50000     -1.9247755E-08
   31.56000     -2.1059240E-08
   31.62000     -2.2817856E-08
   31.68000     -2.4501066E-08
   31.74000     -2.6078757E-08
   31.80000     -2.7522047E-08
   31.86000     -2.8813366E-08
   31.92000     -2.9954155E-08
   31.98000     -3.0967168E-08
   32.04000     -3.1891769E-08
   32.10000     -3.2772501E-08
   32.16000     -3.3643598E-08
   32.22000     -3.4513768E-08
   32.28000     -3.5356539E-08
   32.34000     -3.6110741E-08
   32.40000     -3.6692818E-08
   32.46000     -3.7018815E-08
   32.52000     -3.7029658E-08
   32.58000     -3.6711139E-08
   32.64000     -3.6100804E-08
   32.70000     -3.5278031E-08
   32.76000     -3.4339866E-08
   32.82000     -3.3370807E-08
   32.88000     -3.2417653E-08
   32.94000     -3.1478987E-08
   33.00000     -3.0513352E-08
   33.06000     -2.9462978E-08
   33.12000     -2.8283726E-08
   33.18000     -2.6969541E-08
   33.24000     -2.5561810E-08
   33.30000     -2.4139863E-08
   33.36000     -2.2796094E-08
   33.42000     -2.1604784E-08
   33.48000     -2.0595982E-08
   33.54000     -1.9743968E-08
   33.60000     -1.8974541E-08
   33.66000     -1.8189001E-08
   33.72000     -1.7297046E-08
   33.78000     -1.6247800E-08
   33.84000     -1.5048848E-08
   33.90000     -1.3767004E-08
   33.96000     -1.2510405E-08
   34.02000     -1.1397630E-08
   34.08000     -1.0523723E-08
   34.14000     -9.9341708E-09
   34.20000     -9.6152064E-09
   34.26000     -9.5035340E-09
   34.32000     -9.5119761E-09
   34.38000     -9.5621635E-09
   34.44000     -9.6129291E-09
   34.50000     -9.6745048E-09
   34.56000     -9.8035473E-09
   34.62000     -1.0080783E-08
   34.68000     -1.0579259E-08
   34.74000     -1.1334623E-08
   34.80000     -1.2328219E-08
   34.86000     -1.3489189E-08
   34.92000     -1.4714962E-08
   34.98000     -1.5902899E-08
   35.04000     -1.6981984E-08
   35.10000     -1.7933701E-08
   35.16000     -1.8795344E-08
   35.22000     -1.9645420E-08
   35.28000     -2.0576806E-08
   35.34000     -2.1666994E-08
   35.40000     -2.2954778E-08
   35.46000     -2.4429756E-08
   35.52000     -2.6036430E-08
   35.58000     -2.7690152E-08
   35.64000     -2.9299384E-08
   35.70000     -3.0787632E-08
   35.76000     -3.2109334E-08
   35.82000     -3.3255905E-08
   35.88000     -3.4250931E-08
   35.94000     -3.5136232E-08
   36.00000     -3.5953430E-08
   36.06000     -3.6726995E-08
   36.12000     -3.7454811E-08
   36.18000     -3.8109992E-08
   36.24000     -3.8653553E-08
   36.30000     -3.9053390E-08
   36.36000     -3.9301888E-08
   36.42000     -3.9424759E-08
   36.48000     -3.9476827E-08
   36.54000     -3.9525784E-08
   36.60000     -3.9629995E-08
   36.66000     -3.9818847E-08
   36.72000     -4.0083155E-08
   36.78000     -4.0379081E-08
   36.84000     -4.0643506E-08
   36.90000     -4.0814797E-08
   36.96000     -4.0851415E-08
   37.02000     -4.0742421E-08
   37.08000     -4.0507647E-08
   37.14000     -4.0189164E-08
   37.20000     -3.9838334E-08
   37.26000     -3.9503188E-08
   37.32000     -3.9219660E-08
   37.38000     -3.9008061E-08
   37.44000     -3.8874084E-08
   37.50000     -3.8812757E-08
   37.56000     -3.8813361E-08
   37.62000     -3.8864059E-08
   37.68000     -3.8955331E-08
   37.74000     -3.9081847E-08
   37.80000     -3.9242455E-08
   37.86000     -3.9438209E-08
   37.92000     -3.9668741E-08
   37.98000     -3.9927997E-08
   38.04000     -4.0200966E-08
   38.10000     -4.0463153E-08
   38.16000     -4.0683883E-08
   38.22000     -4.0833108E-08
   38.28000     -4.0889930E-08
   38.34000     -4.0849798E-08
   38.40000     -4.0727706E-08
   38.46000     -4.0555658E-08
   38.52000     -4.0374882E-08
   38.58000     -4.0224894E-08
   38.64000     -4.0132679E-08
   38.70000     -4.0104950E-08
   38.76000     -4.0125247E-08
   38.82000     -4.0156479E-08
   38.88000     -4.0147903E-08
   38.94000     -4.0045130E-08
   39.00000     -3.9801261E-08
   39.06000     -3.9387075E-08
   39.12000     -3.8798014E-08
   39.18000     -3.8056015E-08
   39.24000     -3.7204785E-08
   39.30000     -3.6298907E-08
   39.36000     -3.5389192E-08
   39.42000     -3.4508432E-08
   39.48000     -3.3662221E-08
   39.54000     -3.2828371E-08
   39.60000     -3.1965417E-08
   39.66000     -3.1027568E-08
   39.72000     -2.9980928E-08
   39.78000     -2.8815460E-08
   39.84000     -2.7548761E-08
   39.90000     -2.6220819E-08
   39.96000     -2.4882095E-08
   40.02000     -2.3579251E-08
   40.08000     -2.2343130E-08
   40.14000     -2.1182345E-08
   40.20000     -2.0083766E-08
   40.26000     -1.9019241E-08
   40.32000     -1.7956392E-08
   40.38000     -1.6870583E-08
   40.44000     -1.5754875E-08
   40.50000     -1.4625047E-08
   40.56000     -1.3517609E-08
   40.62000     -1.2480418E-08
   40.68000     -1.1557832E-08
   40.74000     -1.0774778E-08
   40.80000     -1.0125585E-08
   40.86000     -9.5728199E-09
   40.92000     -9.0584829E-09
   40.98000     -8.5251841E-09
   41.04000     -7.9404199E-09
   41.10000     -7.3145427E-09
   41.16000     -6.7042860E-09
   41.22000     -6.1985115E-09
   41.28000     -5.8897203E-09
   41.34000     -5.8409326E-09
   41.40000     -6.0601657E-09
   41.46000     -6.4925838E-09
   41.52000     -7.0341333E-09
   41.58000     -7.5624778E-09
   41.64000     -7.9746165E-09
   41.70000     -8.2181399E-09
   41.76000     -8.3055571E-09
   41.82000     -8.3074099E-09
   41.88000     -8.3273504E-09
   41.94000     -8.4682616E-09
   42.00000     -8.8008401E-09
   42.06000     -9.3444177E-09
   42.12000     -1.0065079E-08
   42.18000     -1.0890388E-08
   42.24000     -1.1735065E-08
   42.30000     -1.2529132E-08
   42.36000     -1.3239940E-08
   42.42000     -1.3881739E-08
   42.48000     -1.4510223E-08
   42.54000     -1.5203863E-08
   42.60000     -1.6037680E-08
   42.66000     -1.7057504E-08
   42.72000     -1.8263005E-08
   42.78000     -1.9605485E-08
   42.84000     -2.1002137E-08
   42.90000     -2.2363169E-08
   42.96000     -2.3623608E-08
   43.02000     -2.4769450E-08
   43.08000     -2.5849122E-08
   43.14000     -2.6965763E-08
   43.20000     -2.8252369E-08
   43.26000     -2.9837707E-08
   43.32000     -3.1814366E-08
   43.38000     -3.4219543E-08
   43.44000     -3.7034940E-08
   43.50000     -4.0205574E-08
   43.56000     -4.3671228E-08
   43.62000     -4.7400448E-08
   43.68000     -5.1416631E-08
   43.74000     -5.5808879E-08
   43.80000     -6.0725490E-08
   43.86000     -6.6353522E-08
   43.92000     -7.2892199E-08
   43.98000     -8.0529922E-08
   44.04000     -8.9433620E-08
   44.10000     -9.9755582E-08
   44.16000     -1.1165753E-07
   44.22000     -1.2534609E-07
   44.28000     -1.4110974E-07
   44.34000     -1.5934609E-07
   44.40000     -1.8057153E-07
   44.46000     -2.0541096E-07
   44.52000     -2.3457248E-07
   44.58000     -2.6881889E-07
   44.64000     -3.0894890E-07
   44.70000     -3.5579933E-07
   44.76000     -4.1027224E-07
   44.82000     -4.7338287E-07
   44.88000     -5.4631670E-07
   44.94000     -6.3048219E-07
   45.00000     -7.2754699E-07
   45.06000     -8.3945309E-07
   45.12000     -9.6841245E-07
   45.18000     -1.1168942E-06
   45.24000     -1.2876144E-06
   45.30000     -1.4835394E-06
   45.36000     -1.7079071E-06
   45.42000     -1.9642664E-06
   45.48000     -2.2565280E-06
   45.54000     -2.5890172E-06
   45.60000     -2.9665189E-06
   45.66000     -3.3943111E-06
   45.72000     -3.8781827E-06
   45.78000     -4.4244443E-06
   45.84000     -5.0399317E-06
   45.90000     -5.7320171E-06
   45.96000     -6.5086288E-06
   46.02000     -7.3782817E-06
   46.08000     -8.3501136E-06
   46.14000     -9.4339221E-06
   46.20000     -1.0640187E-05
   46.26000     -1.1980082E-05
   46.32000     -1.3465459E-05
   46.38000     -1.5108812E-05
   46.44000     -1.6923243E-05
   46.50000     -1.8922414E-05
   46.56000     -2.1120499E-05
   46.62000     -2.3532171E-05
   46.68000     -2.6172560E-05
   46.74000     -2.9057248E-05
   46.80000     -3.2202224E-05
   46.86000     -3.5623831E-05
   46.92000     -3.9338691E-05
   46.98000     -4.3363576E-05
   47.04000     -4.7715290E-05
   47.10000     -5.2410483E-05
   47.16000     -5.7465506E-05
   47.22000     -6.2896259E-05
   47.28000     -6.8718051E-05
   47.34000     -7.4945463E-05
   47.40000     -8.1592232E-05
   47.46000     -8.8671106E-05
   47.52000     -9.6193740E-05
   47.58000     -1.0417047E-04
   47.64000     -1.1261017E-04
   47.70000     -1.2152001E-04
   47.76000     -1.3090530E-04
   47.82000     -1.4076928E-04
   47.88000     -1.5111294E-04
   47.94000     -1.6193491E-04
   48.00000     -1.7323135E-04
   48.06000     -1.8499588E-04
   48.12000     -1.9721950E-04
   48.18000     -2.0989060E-04
   48.24000     -2.2299480E-04
   48.30000     -2.3651507E-04
   48.36000     -2.5043153E-04
   48.42000     -2.6472157E-04
   48.48000     -2.7935987E-04
   48.54000     -2.9431828E-04
   48.60000     -3.0956636E-04
   48.66000     -3.2507122E-04
   48.72000     -3.4079791E-04
   48.78000     -3.5670958E-04
   48.84000     -3.7276780E-04
   48.90000     -3.8893273E-04
   48.96000     -4.0516356E-04
   49.02000     -4.2141849E-04
   49.08000     -4.3765540E-04
   49.14000     -4.5383195E-04
   49.20000     -4.6990605E-04
   49.26000     -4.8583627E-04
   49.32000     -5.0158217E-04
   49.38000     -5.1710469E-04
   49.44000     -5.3236668E-04
   49.50000     -5.4733310E-04
   49.56000     -5.6197162E-04
   49.62000     -5.7625241E-04
   49.68000     -5.9014896E-04
   49.74000     -6.0363801E-04
   49.80000     -6.1669981E-04
   49.86000     -6.2931847E-04
   49.92000     -6.4148213E-04
   49.98000     -6.5318274E-04
   50.04000     -6.6441688E-04
   50.10000     -6.7518494E-04
   50.16000     -6.8549154E-04
   50.22000     -6.9534517E-04
   50.28000     -7.0475833E-04
   50.34000     -7.1374705E-04
   50.40000     -7.2233082E-04
   50.46000     -7.3053240E-04
   50.52000     -7.3837716E-04
   50.58000     -7.4589299E-04
   50.64000     -7.5311004E-04
   50.70000     -7.6006004E-04
   50.76000     -7.6677586E-04
   50.82000     -7.7329116E-04
   50.88000     -7.7963958E-04
   50.94000     -7.8585459E-04
   51.00000     -7.9196901E-04
   51.06000     -7.9801417E-04
   51.12000     -8.0401986E-04
   51.18000     -8.1001385E-04
   51.24000     -8.1602135E-04
   51.30000     -8.2206458E-04
   51.36000     -8.2816248E-04
   51.42000     -8.3433051E-04
   51.48000     -8.4058044E-04
   51.54000     -8.4691995E-04
   51.60000     -8.5335295E-04
   51.66000     -8.5987907E-04
   51.72000     -8.6649408E-04
   51.78000     -8.7318971E-04
   51.84000     -8.7995362E-04
   51.90000     -8.8676956E-04
   51.96000     -8.9361798E-04
   52.02000     -9.0047583E-04
   52.08000     -9.0731727E-04
   52.14000     -9.1411377E-04
   52.20000     -9.2083489E-04
   52.26000     -9.2744851E-04
   52.32000     -9.3392120E-04
   52.38000     -9.4021898E-04
   52.44000     -9.4630767E-04
   52.50000     -9.5215335E-04
   52.56000     -9.5772260E-04
   52.62000     -9.6298347E-04
   52.68000     -9.6790545E-04
   52.74000     -9.7246008E-04
   52.80000     -9.7662117E-04
   52.86000     -9.8036590E-04
   52.92000     -9.8367408E-04
   52.98000     -9.8652882E-04
   53.04000     -9.8891696E-04
   53.10000     -9.9082896E-04
   53.16000     -9.9225936E-04
   53.22000     -9.9320651E-04
   53.28000     -9.9367218E-04
   53.34000     -9.9366251E-04
   53.40000     -9.9318649E-04
   53.46000     -9.9225680E-04
   53.52000     -9.9088880E-04
   53.58000     -9.8910078E-04
   53.64000     -9.8691322E-04
   53.70000     -9.8434894E-04
   53.76000     -9.8143262E-04
   53.82000     -9.7819010E-04
   53.88000     -9.7464840E-04
   53.94000     -9.7083510E-04
   54.00000     -9.6677762E-04
   54.06000     -9.6250320E-04
   54.12000     -9.5803791E-04
   54.18000     -9.5340691E-04
   54.24000     -9.4863371E-04
   54.30000     -9.4374007E-04
   54.36000     -9.3874562E-04
   54.42000     -9.3366799E-04
   54.48000     -9.2852203E-04
   54.54000     -9.2332007E-04
   54.60000     -9.1807172E-04
   54.66000     -9.1278384E-04
   54.72000     -9.0746064E-04
   54.78000     -9.0210349E-04
   54.84000     -8.9671131E-04
   54.90000     -8.9128042E-04
   54.96000     -8.8580506E-04
   55.02000     -8.8027725E-04
   55.08000     -8.7468751E-04
   55.14000     -8.6902495E-04
   55.20000     -8.6327788E-04
   55.26000     -8.5743394E-04
   55.32000     -8.5148041E-04
   55.38000     -8.4540452E-04
   55.44000     -8.3919382E-04
   55.50000     -8.3283620E-04
   55.56000     -8.2632096E-04