 -0.750000000       0.00000000    
 -0.689999998       0.00000000    
 -0.629999995       0.00000000    
 -0.569999993       0.00000000    
 -0.509999990       0.00000000    
 -0.449999988       3.68076296E-19
 -0.389999986       2.94565840E-18
 -0.330000013       1.19274597E-17
 -0.270000011       3.12983637E-17
 -0.209999993       5.52107027E-17
 -0.150000006       5.31160365E-17
  -9.00000036E-02  -3.66050814E-17
  -2.99999993E-02  -2.80507004E-16
   2.99999993E-02  -6.75527463E-16
   9.00000036E-02  -1.04934952E-15
  0.150000006      -1.01743766E-15
  0.209999993      -1.08538226E-16
  0.270000011       1.89012586E-15
  0.330000013       4.48874522E-15
  0.389999986       6.27866857E-15
  0.449999988       5.33583408E-15
  0.509999990       3.86641424E-16
  0.569999993      -7.68911691E-15
  0.629999995      -1.50483026E-14
  0.689999998      -1.59342872E-14
  0.750000000      -5.99844212E-15
  0.810000002       1.32766951E-14
  0.870000005       3.18481407E-14
  0.930000007       3.32770412E-14
  0.990000010       3.16459281E-15
   1.04999995      -5.86460812E-14
   1.11000001      -1.28756841E-13
   1.16999996      -1.61985280E-13
   1.23000002      -1.08976623E-13
   1.28999996       5.39544368E-14
   1.35000002       2.96193110E-13
   1.40999997       5.24205841E-13
   1.47000003       6.07234532E-13
   1.52999997       4.36179413E-13
   1.59000003      -6.24873612E-15
   1.64999998      -6.01203820E-13
   1.71000004      -1.11051381E-12
   1.76999998      -1.26639151E-12
   1.83000004      -9.07397367E-13
   1.88999999      -9.86681507E-14
   1.95000005       8.36222205E-13
   2.00999999       1.41678119E-12
   2.06999993       1.22433639E-12
   2.13000011       1.52261613E-13
   2.19000006      -1.43939266E-12
   2.25000000      -2.77487733E-12
   2.30999994      -2.94846396E-12
   2.36999989      -1.35757421E-12
   2.43000007       1.90208981E-12
   2.49000001       5.88858086E-12
   2.54999995       9.04321409E-12
   2.60999990       9.76629801E-12
   2.67000008       7.13044467E-12
   2.73000002       1.41693493E-12
   2.78999996      -5.80783598E-12
   2.84999990      -1.21826221E-11
   2.91000009      -1.54593803E-11
   2.97000003      -1.44598899E-11
   3.02999997      -9.64081072E-12
   3.08999991      -2.96122567E-12
   3.15000010       2.95314576E-12
   3.21000004       6.01484097E-12
   3.26999998       5.69671177E-12
   3.32999992       3.34577266E-12
   3.39000010       1.55128644E-12
   3.45000005       2.76998715E-12
   3.50999999       7.80872242E-12
   3.56999993       1.49211685E-11
   3.63000011       2.00862781E-11
   3.69000006       1.85495924E-11
   3.75000000       7.11869366E-12
   3.80999994      -1.37263447E-11
   3.86999989      -3.89023778E-11
   3.93000007      -5.95836366E-11
   3.99000001      -6.57715271E-11
   4.05000019      -4.97701463E-11
   4.11000013      -9.32737915E-12
   4.17000008       5.07390727E-11
   4.23000002       1.19053239E-10
   4.28999996       1.80113202E-10
   4.34999990       2.17664164E-10
   4.40999985       2.17682372E-10
   4.46999979       1.69878001E-10
   4.53000021       6.73640380E-11
   4.59000015      -9.49417628E-11
   4.65000010      -3.21938448E-10
   4.71000004      -6.18641638E-10
   4.76999998      -9.88399806E-10
   4.82999992      -1.42929857E-09
   4.88999987      -1.93007876E-09
   4.94999981      -2.46746112E-09
   5.01000023      -3.00652769E-09
   5.07000017      -3.50478735E-09
   5.13000011      -3.91910859E-09
   5.19000006      -4.21344071E-09
   5.25000000      -4.36475522E-09
   5.30999994      -4.36515313E-09
   5.36999989      -4.21949675E-09
   5.42999983      -3.93965971E-09
   5.48999977      -3.53781404E-09
   5.55000019      -3.02152037E-09
   5.61000013      -2.39257392E-09
   5.67000008      -1.64988456E-09
   5.73000002      -7.94891597E-10
   5.78999996       1.63127303E-10
   5.84999990       1.20446464E-09
   5.90999985       2.30053065E-09
   5.96999979       3.41912920E-09
   6.03000021       4.53137972E-09
   6.09000015       5.61746250E-09
   6.15000010       6.66883526E-09
   6.21000004       7.68609176E-09
   6.26999998       8.67351080E-09
   6.32999992       9.63273017E-09
   6.38999987       1.05582991E-08
   6.44999981       1.14370096E-08
   6.51000023       1.22511903E-08
   6.57000017       1.29844393E-08
   6.63000011       1.36271980E-08
   6.69000006       1.41796344E-08
   6.75000000       1.46504950E-08
   6.80999994       1.50522794E-08
   6.86999989       1.53947166E-08
   6.92999983       1.56792606E-08
   6.98999977       1.58970774E-08
   7.05000019       1.60315405E-08
   7.11000013       1.60645932E-08
   7.17000008       1.59846714E-08
   7.23000002       1.57932796E-08
   7.28999996       1.55076378E-08
   7.34999990       1.51583368E-08
   7.40999985       1.47826187E-08
   7.46999979       1.44156198E-08
   7.53000021       1.40824472E-08
   7.59000015       1.37936924E-08
   7.65000010       1.35455647E-08
   7.71000004       1.33241560E-08
   7.76999998       1.31119107E-08
   7.82999992       1.28937847E-08
   7.88999987       1.26609923E-08
   7.94999981       1.24114301E-08
   8.01000023       1.21473454E-08
   8.06999969       1.18718777E-08
   8.13000011       1.15864376E-08
   8.18999958       1.12902683E-08
   8.25000000       1.09823066E-08
   8.31000042       1.06641975E-08
   8.36999989       1.03424869E-08
   8.43000031       1.00281898E-08
   8.48999977       9.73304548E-09
   8.55000019       9.46338297E-09
   8.60999966       9.21407395E-09
   8.67000008       8.96562646E-09
   8.72999954       8.68674643E-09
   8.78999996       8.34267588E-09
   8.85000038       7.90709720E-09
   8.90999985       7.37338812E-09
   8.97000027       6.76057477E-09
   9.02999973       6.11087181E-09
   9.09000015       5.47878098E-09
   9.14999962       4.91517937E-09
   9.21000004       4.45209425E-09
   9.27000046       4.09385015E-09
   9.32999992       3.81787579E-09
   9.39000034       3.58454155E-09
   9.44999981       3.35174533E-09
   9.51000023       3.08819859E-09
   9.56999969       2.78030288E-09
   9.63000011       2.43070319E-09
   9.68999958       2.05056150E-09
   9.75000000       1.65035086E-09
   9.81000042       1.23424448E-09
   9.86999989       8.00866762E-10
   9.93000031       3.49466595E-10
   9.98999977      -1.12590319E-10
   10.0500002      -5.66070080E-10
   10.1099997      -9.83154336E-10
   10.1700001      -1.33737643E-09
   10.2299995      -1.61612868E-09
   10.2900000      -1.82982718E-09
   10.3500004      -2.01286365E-09
   10.4099998      -2.21498930E-09
   10.4700003      -2.48609888E-09
   10.5299997      -2.86044832E-09
   10.5900002      -3.34670980E-09
   10.6499996      -3.92773414E-09
   10.7100000      -4.56972105E-09
   10.7700005      -5.23659294E-09
   10.8299999      -5.90353055E-09
   10.8900003      -6.56454180E-09
   10.9499998      -7.23201232E-09
   11.0100002      -7.92980437E-09
   11.0699997      -8.68398509E-09
   11.1300001      -9.51545953E-09
   11.1899996      -1.04370237E-08
   11.2500000      -1.14544862E-08
   11.3100004      -1.25693527E-08
   11.3699999      -1.37800305E-08
   11.4300003      -1.50798165E-08
   11.4899998      -1.64522671E-08
   11.5500002      -1.78665118E-08
   11.6099997      -1.92755856E-08
   11.6700001      -2.06196660E-08
   11.7299995      -2.18339373E-08
   11.7900000      -2.28586270E-08
   11.8500004      -2.36480968E-08
   11.9099998      -2.41764901E-08
   11.9700003      -2.44393110E-08
   12.0299997      -2.44520759E-08
   12.0900002      -2.42479263E-08
   12.1499996      -2.38756730E-08
   12.2100000      -2.33984210E-08
   12.2700005      -2.28915429E-08
   12.3299999      -2.24386234E-08
   12.3900003      -2.21245600E-08
   12.4499998      -2.20265868E-08
   12.5100002      -2.22051320E-08
   12.5699997      -2.26967920E-08
   12.6300001      -2.35109887E-08
   12.6899996      -2.46305731E-08
   12.7500000      -2.60153890E-08
   12.8100004      -2.76073671E-08
   12.8699999      -2.93360483E-08
   12.9300003      -3.11241806E-08
   12.9899998      -3.28935066E-08
   13.0500002      -3.45709346E-08
   13.1099997      -3.60945513E-08
   13.1700001      -3.74183706E-08
   13.2299995      -3.85144432E-08
   13.2900000      -3.93716491E-08
   13.3500004      -3.99915265E-08
   13.4099998      -4.03827123E-08
   13.4700003      -4.05560456E-08
   13.5299997      -4.05218366E-08
   13.5900002      -4.02896809E-08
   13.6499996      -3.98696365E-08
   13.7100000      -3.92730435E-08
   13.7700005      -3.85112848E-08
   13.8299999      -3.75923896E-08
   13.8900003      -3.65167203E-08
   13.9499998      -3.52743719E-08
   14.0100002      -3.38466677E-08
   14.0699997      -3.22127995E-08
   14.1300001      -3.03602370E-08
   14.1899996      -2.82953714E-08
   14.2500000      -2.60501665E-08
   14.3100004      -2.36814870E-08
   14.3699999      -2.12627178E-08
   14.4300003      -1.88704750E-08
   14.4899998      -1.65714127E-08
   14.5500002      -1.44141241E-08
   14.6099997      -1.24285764E-08
   14.6700001      -1.06318527E-08
   14.7299995      -9.03583963E-09
   14.7900000      -7.65179475E-09
   14.8500004      -6.48878462E-09
   14.9099998      -5.54689894E-09
   14.9700003      -4.80962470E-09
   15.0299997      -4.24082591E-09
   15.0900002      -3.78963749E-09
   15.1499996      -3.40228823E-09
   15.2100000      -3.03577785E-09
   15.2700005      -2.66682632E-09
   15.3299999      -2.29156516E-09
   15.3900003      -1.91609661E-09
   15.4499998      -1.54278379E-09
   15.5100002      -1.15939336E-09
   15.5699997      -7.36703198E-10
   15.6300001      -2.35742287E-10
   15.6899996       3.79188375E-10
   15.7500000       1.12841281E-09
   15.8100004       2.01164130E-09
   15.8699999       3.01169067E-09
   15.9300003       4.10445500E-09
   15.9899998       5.26926325E-09
   16.0499992       6.49386500E-09
   16.1100006       7.77147591E-09
   16.1700001       9.09179754E-09
   16.2299995       1.04313278E-08
   16.2900009       1.17488534E-08
   16.3500004       1.29896041E-08
   16.4099998       1.40973704E-08
   16.4699993       1.50300803E-08
   16.5300007       1.57725566E-08
   16.5900002       1.63412661E-08
   16.6499996       1.67790244E-08
   16.7099991       1.71415664E-08
   16.7700005       1.74808132E-08
   16.8299999       1.78305353E-08
   16.8899994       1.81990458E-08
   16.9500008       1.85706490E-08
   17.0100002       1.89145926E-08
   17.0699997       1.91978753E-08
   17.1299992       1.93973886E-08
   17.1900005       1.95075973E-08
   17.2500000       1.95419787E-08
   17.3099995       1.95287200E-08
   17.3700008       1.95031618E-08
   17.4300003       1.95001366E-08
   17.4899998       1.95487733E-08
   17.5499992       1.96707894E-08
   17.6100006       1.98814405E-08
   17.6700001       2.01912176E-08
   17.7299995       2.06062598E-08
   17.7900009       2.11266027E-08
   17.8500004       2.17428866E-08
   17.9099998       2.24334826E-08
   17.9699993       2.31642954E-08
   18.0300007       2.38926514E-08
   18.0900002       2.45750602E-08
   18.1499996       2.51768970E-08
   18.2099991       2.56809134E-08
   18.2700005       2.60916142E-08
   18.3299999       2.64337050E-08
   18.3899994       2.67447593E-08
   18.4500008       2.70643863E-08
   18.5100002       2.74234537E-08
   18.5699997       2.78370837E-08
   18.6299992       2.83037611E-08
   18.6900005       2.88106623E-08
   18.7500000       2.93427149E-08
   18.8099995       2.98912717E-08
   18.8700008       3.04583345E-08
   18.9300003       3.10540216E-08
   18.9899998       3.16881916E-08
   19.0499992       3.23598890E-08
   19.1100006       3.30497372E-08
   19.1700001       3.37196617E-08
   19.2299995       3.43212072E-08
   19.2900009       3.48099611E-08
   19.3500004       3.51607028E-08
   19.4099998       3.53769636E-08
   19.4699993       3.54906859E-08
   19.5300007       3.55512029E-08
   19.5900002       3.56070480E-08
   19.6499996       3.56869023E-08
   19.7099991       3.57864707E-08
   19.7700005       3.58660692E-08
   19.8299999       3.58600190E-08
   19.8899994       3.56948497E-08
   19.9500008       3.53103253E-08
   20.0100002       3.46764324E-08
   20.0699997       3.38009407E-08
   20.1299992       3.27253957E-08
   20.1900005       3.15112203E-08
   20.2500000       3.02210772E-08
   20.3099995       2.89018409E-08
   20.3700008       2.75748402E-08
   20.4300003       2.62362683E-08
   20.4899998       2.48669121E-08
   20.5499992       2.34471820E-08
   20.6100006       2.19716991E-08
   20.6700001       2.04581152E-08
   20.7299995       1.89470963E-08
   20.7900009       1.74936279E-08
   20.8500004       1.61527165E-08
   20.9099998       1.49644031E-08
   20.9699993       1.39430369E-08
   21.0300007       1.30740530E-08
   21.0900002       1.23188970E-08
   21.1499996       1.16259482E-08
   21.2099991       1.09434311E-08
   21.2700005       1.02299884E-08
   21.3299999       9.45983469E-09
   21.3899994       8.62176819E-09
   21.4500008       7.71372655E-09
   21.5100002       6.73603839E-09
   21.5699997       5.68651481E-09
   21.6299992       4.55910820E-09
   21.6900005       3.34589001E-09
   21.7500000       2.04056949E-09
   21.8099995       6.41403486E-10
   21.8700008      -8.47803883E-10
   21.9300003      -2.41850828E-09
   21.9899998      -4.05893408E-09
   22.0499992      -5.75516390E-09
   22.1100006      -7.49165086E-09
   22.1700001      -9.25210664E-09
   22.2299995      -1.10221103E-08
   22.2900009      -1.27938709E-08
   22.3500004      -1.45718086E-08
   22.4099998      -1.63759424E-08
   22.4699993      -1.82397972E-08
   22.5300007      -2.02013464E-08
   22.5900002      -2.22886403E-08
   22.6499996      -2.45050504E-08
   22.7099991      -2.68204055E-08
   22.7700005      -2.91728668E-08
   22.8299999      -3.14823190E-08
   22.8899994      -3.36711281E-08
   22.9500008      -3.56845860E-08
   23.0100002      -3.75029003E-08
   23.0699997      -3.91400405E-08
   23.1299992      -4.06299421E-08
   23.1900005      -4.20059969E-08
   23.2500000      -4.32824230E-08
   23.3099995      -4.44449064E-08
   23.3700008      -4.54537634E-08
   23.4300003      -4.62574832E-08
   23.4899998      -4.68104346E-08
   23.5499992      -4.70875676E-08
   23.6100006      -4.70911452E-08
   23.6700001      -4.68486512E-08
   23.7299995      -4.64048036E-08
   23.7900009      -4.58124312E-08
   23.8500004      -4.51259758E-08
   23.9099998      -4.43988526E-08
   23.9699993      -4.36828316E-08
   24.0300007      -4.30264571E-08
   24.0900002      -4.24702264E-08
   24.1499996      -4.20389092E-08
   24.2099991      -4.17338661E-08
   24.2700005      -4.15294252E-08
   24.3299999      -4.13760937E-08
   24.3899994      -4.12104946E-08
   24.4500008      -4.09686542E-08
   24.5100002      -4.05977474E-08
   24.5699997      -4.00623712E-08
   24.6299992      -3.93444246E-08
   24.6900005      -3.84392358E-08
   24.7500000      -3.73524003E-08
   24.8099995      -3.61007437E-08
   24.8700008      -3.47177753E-08
   24.9300003      -3.32598518E-08
   24.9899998      -3.18076339E-08
   25.0499992      -3.04584482E-08
   25.1100006      -2.93095717E-08
   25.1700001      -2.84371904E-08
   25.2299995      -2.78790040E-08
   25.2900009      -2.76276477E-08
   25.3500004      -2.76378653E-08
   25.4099998      -2.78445906E-08
   25.4699993      -2.81845871E-08
   25.5300007      -2.86133464E-08
   25.5900002      -2.91116677E-08
   25.6499996      -2.96813152E-08
   25.7099991      -3.03336734E-08
   25.7700005      -3.10773878E-08
   25.8299999      -3.19100231E-08
   25.8899994      -3.28156773E-08
   25.9500008      -3.37674386E-08
   26.0100002      -3.47317481E-08
   26.0699997      -3.56722190E-08
   26.1299992      -3.65518922E-08
   26.1900005      -3.73347007E-08
   26.2500000      -3.79873875E-08
   26.3099995      -3.84826677E-08
   26.3700008      -3.88030905E-08
   26.4300003      -3.89442079E-08
   26.4899998      -3.89155730E-08
   26.5499992      -3.87389072E-08
   26.6100006      -3.84438401E-08
   26.6700001      -3.80624634E-08
   26.7299995      -3.76238987E-08
   26.7900009      -3.71497677E-08
   26.8500004      -3.66508814E-08
   26.9099998      -3.61253853E-08
   26.9699993      -3.55589584E-08
   27.0300007      -3.49278082E-08
   27.0900002      -3.42050619E-08
   27.1499996      -3.33701244E-08
   27.2099991      -3.24188854E-08
   27.2700005      -3.13715134E-08
   27.3299999      -3.02743537E-08
   27.3899994      -2.91938580E-08
   27.4500008      -2.82033614E-08
   27.5100002      -2.73663652E-08
   27.5699997      -2.67219562E-08
   27.6299992      -2.62775313E-08
   27.6900005      -2.60114152E-08
   27.7500000      -2.58839119E-08
   27.8099995      -2.58519606E-08
   27.8700008      -2.58810022E-08
   27.9300003      -2.59491717E-08
   27.9899998      -2.60425370E-08
   28.0499992      -2.61444804E-08
   28.1100006      -2.62251696E-08
   28.1700001      -2.62371778E-08
   28.2299995      -2.61205741E-08
   28.2900009      -2.58164281E-08
   28.3500004      -2.52836312E-08
   28.4099998      -2.45123850E-08
   28.4699993      -2.35288802E-08
   28.5300007      -2.23894343E-08
   28.5900002      -2.11665760E-08
   28.6499996      -1.99325587E-08
   28.7099991      -1.87462827E-08
   28.7700005      -1.76474693E-08
   28.8299999      -1.66585306E-08
   28.8899994      -1.57913966E-08
   28.9500008      -1.50549724E-08
   29.0100002      -1.44595207E-08
   29.0699997      -1.40163934E-08
   29.1299992      -1.37340175E-08
   29.1900005      -1.36128042E-08
   29.2500000      -1.36419009E-08
   29.3099995      -1.37996254E-08
   29.3700008      -1.40576857E-08
   29.4300003      -1.43876706E-08
   29.4899998      -1.47675268E-08
   29.5499992      -1.51858437E-08
   29.6100006      -1.56426108E-08
   29.6700001      -1.61463340E-08
   29.7299995      -1.67084409E-08
   29.7900009      -1.73367898E-08
   29.8500004      -1.80303736E-08
   29.9099998      -1.87770510E-08
   29.9699993      -1.95552605E-08
   30.0300007      -2.03392929E-08
   30.0900002      -2.11063806E-08
   30.1499996      -2.18428511E-08
   30.2099991      -2.25467574E-08
   30.2700005      -2.32255992E-08
   30.3299999      -2.38897861E-08
   30.3899994      -2.45443310E-08
   30.4500008      -2.51823042E-08
   30.5100002      -2.57830095E-08
   30.5699997      -2.63159166E-08
   30.6299992      -2.67489710E-08
   30.6900005      -2.70580358E-08
   30.7500000      -2.72336624E-08
   30.8099995      -2.72826401E-08
   30.8700008      -2.72239369E-08
   30.9300003      -2.70810503E-08
   30.9899998      -2.68741260E-08
   31.0499992      -2.66151812E-08
   31.1100006      -2.63081379E-08
   31.1700001      -2.59532982E-08
   31.2299995      -2.55539252E-08
   31.2900009      -2.51218122E-08
   31.3500004      -2.46793448E-08
   31.4099998      -2.42571918E-08
   31.4699993      -2.38886653E-08
   31.5300007      -2.36030626E-08
   31.5900002      -2.34203661E-08
   31.6499996      -2.33487185E-08
   31.7099991      -2.33845796E-08
   31.7700005      -2.35143869E-08
   31.8299999      -2.37163178E-08
   31.8899994      -2.39615829E-08
   31.9500008      -2.42157032E-08
   32.0099983      -2.44409328E-08
   32.0699997      -2.46006024E-08
   32.1300011      -2.46650025E-08
   32.1899986      -2.46170551E-08
   32.2500000      -2.44554563E-08
   32.3100014      -2.41936835E-08
   32.3699989      -2.38549127E-08
   32.4300003      -2.34648194E-08
   32.4900017      -2.30451924E-08
   32.5499992      -2.26107666E-08
   32.6100006      -2.21700454E-08
   32.6699982      -2.17287361E-08
   32.7299995      -2.12932481E-08
   32.7900009      -2.08717790E-08
   32.8499985      -2.04720187E-08
   32.9099998      -2.00964276E-08
   32.9700012      -1.97375005E-08
   33.0299988      -1.93756637E-08
   33.0900002      -1.89813623E-08
   33.1500015      -1.85211757E-08
   33.2099991      -1.79660393E-08
   33.2700005      -1.72987793E-08
   33.3300018      -1.65183565E-08
   33.3899994      -1.56393547E-08
   33.4500008      -1.46869494E-08
   33.5099983      -1.36891849E-08
   33.5699997      -1.26692976E-08
   33.6300011      -1.16408838E-08
   33.6899986      -1.06076596E-08
   33.7500000      -9.56789759E-09
   33.8100014      -8.52181614E-09
   33.8699989      -7.47897655E-09
   33.9300003      -6.46260467E-09
   33.9900017      -5.50878454E-09
   34.0499992      -4.66032857E-09
   34.1100006      -3.95712041E-09
   34.1699982      -3.42604101E-09
   34.2299995      -3.07382808E-09
   34.2900009      -2.88530799E-09
   34.3499985      -2.82774515E-09
   34.4099998      -2.86015123E-09
   34.4700012      -2.94484681E-09
   34.5299988      -3.05776537E-09
   34.5900002      -3.19417648E-09
   34.6500015      -3.36771899E-09
   34.7099991      -3.60265617E-09
   34.7700005      -3.92160215E-09
   34.8300018      -4.33287228E-09
   34.8899994      -4.82221774E-09
   34.9500008      -5.35256506E-09
   35.0099983      -5.87258997E-09
   35.0699997      -6.33151265E-09
   35.1300011      -6.69477718E-09
   35.1899986      -6.95461289E-09
   35.2500000      -7.13130355E-09
   35.3100014      -7.26463334E-09
   35.3699989      -7.39892325E-09
   35.4300003      -7.56753415E-09
   35.4900017      -7.78264475E-09
   35.5499992      -8.03368838E-09
   35.6100006      -8.29417512E-09
   35.6699982      -8.53347792E-09
   35.7299995      -8.72872352E-09
   35.7900009      -8.87252405E-09
   35.8499985      -8.97441943E-09
   35.9099998      -9.05631925E-09
   35.9700012      -9.14414766E-09
   36.0299988      -9.25869870E-09
   36.0900002      -9.40857792E-09
   36.1500015      -9.58732560E-09
   36.2099991      -9.77563186E-09
   36.2700005      -9.94818627E-09
   36.3300018      -1.00832063E-08
   36.3899994      -1.01715187E-08
   36.4500008      -1.02215720E-08
   36.5099983      -1.02577467E-08
   36.5699997      -1.03115196E-08
   36.6300011      -1.04080327E-08
   36.6899986      -1.05530820E-08
   36.7500000      -1.07261879E-08
   36.8100014      -1.08837002E-08
   36.8699989      -1.09721077E-08
   36.9300003      -1.09474723E-08
   36.9900017      -1.07938583E-08
   37.0499992      -1.05333946E-08
   37.1100006      -1.02233715E-08
   37.1699982      -9.94062965E-09
   37.2299995      -9.75856107E-09
   37.2900009      -9.72518244E-09
   37.3499985      -9.85064919E-09
   37.4099998      -1.01091118E-08
   37.4700012      -1.04541851E-08
   37.5299988      -1.08417701E-08
   37.5900002      -1.12507763E-08
   37.6500015      -1.16929728E-08
   37.7099991      -1.22076083E-08
   37.7700005      -1.28429711E-08
   37.8300018      -1.36328708E-08
   37.8899994      -1.45785188E-08
   37.9500008      -1.56441313E-08
   38.0099983      -1.67686416E-08
   38.0699997      -1.78886665E-08
   38.1300011      -1.89628508E-08
   38.1899986      -1.99869188E-08
   38.2500000      -2.09930402E-08
   38.3100014      -2.20339036E-08
   38.3699989      -2.31585773E-08
   38.4300003      -2.43902889E-08
   38.4900017      -2.57149324E-08
   38.5499992      -2.70840079E-08
   38.6100006      -2.84295343E-08
   38.6699982      -2.96840827E-08
   38.7299995      -3.07980130E-08
   38.7900009      -3.17482858E-08
   38.8499985      -3.25374323E-08
   38.9099998      -3.31852803E-08
   38.9700012      -3.37181270E-08
   39.0299988      -3.41600312E-08
   39.0900002      -3.45289060E-08
   39.1500015      -3.48375870E-08
   39.2099991      -3.50979441E-08
   39.2700005      -3.53250513E-08
   39.3300018      -3.55387542E-08
   39.3899994      -3.57612393E-08
   39.4500008      -3.60109347E-08
   39.5099983      -3.62948107E-08
   39.5699997      -3.66021631E-08
   39.6300011      -3.69029252E-08
   39.6899986      -3.71524180E-08
   39.7500000      -3.73020548E-08
   39.8100014      -3.73133346E-08
   39.8699989      -3.71704125E-08
   39.9300003      -3.68864121E-08
   39.9900017      -3.65003174E-08
   40.0499992      -3.60645096E-08
   40.1100006      -3.56266874E-08
   40.1699982      -3.52124871E-08
   40.2299995      -3.48154678E-08
   40.2900009      -3.43986599E-08
   40.3499985      -3.39076074E-08
   40.4099998      -3.32901315E-08
   40.4700012      -3.25152705E-08
   40.5299988      -3.15838982E-08
   40.5900002      -3.05270333E-08
   40.6500015      -2.93929325E-08
   40.7099991      -2.82288930E-08
   40.7700005      -2.70658127E-08
   40.8300018      -2.59119659E-08
   40.8899994      -2.47580481E-08
   40.9500008      -2.35900579E-08
   41.0099983      -2.24029311E-08
   41.0699997      -2.12076685E-08
   41.1300011      -2.00282173E-08
   41.1899986      -1.88897484E-08
   41.2500000      -1.78045862E-08
   41.3100014      -1.67635434E-08
   41.3699989      -1.57379123E-08
   41.4300003      -1.46920911E-08
   41.4900017      -1.36014497E-08
   41.5499992      -1.24670683E-08
   41.6100006      -1.13202505E-08
   41.6699982      -1.02142170E-08
   41.7299995      -9.20633436E-09
   41.7900009      -8.33850766E-09
   41.8499985      -7.62409336E-09
   41.9099998      -7.04654379E-09
   41.9700012      -6.56961596E-09
   42.0299988      -6.15388318E-09
   42.0900002      -5.77181325E-09
   42.1500015      -5.41484502E-09
   42.2099991      -5.08995690E-09
   42.2700005      -4.80821782E-09
   42.3300018      -4.57145433E-09
   42.3899994      -4.36391234E-09
   42.4500008      -4.15340207E-09
   42.5099983      -3.90207111E-09
   42.5699997      -3.58255092E-09
   42.6300011      -3.19263149E-09
   42.6899986      -2.76192913E-09
   42.7500000      -2.34702635E-09
   42.8100014      -2.01612393E-09
   42.8699989      -1.82849214E-09
   42.9300003      -1.81625837E-09
   42.9900017      -1.97539185E-09
   43.0499992      -2.26935670E-09
   43.1100006      -2.64403544E-09
   43.1699982      -3.04812819E-09
   43.2299995      -3.45100548E-09
   43.2900009      -3.85091115E-09
   43.3499985      -4.27023306E-09
   43.4099998      -4.73977613E-09
   43.4700012      -5.27861710E-09
   43.5299988      -5.87820370E-09
   43.5900002      -6.49801146E-09
   43.6500015      -7.07561343E-09
   43.7099991      -7.54813723E-09
   43.7700005      -7.87707854E-09
   43.8300018      -8.06638134E-09
   43.8899994      -8.16565127E-09
   43.9500008      -8.25577562E-09
   44.0099983      -8.42116332E-09
   44.0699997      -8.71854677E-09
   44.1300011      -9.15434661E-09
   44.1899986      -9.67982849E-09
   44.2500000      -1.02065201E-08
   44.3100014      -1.06361400E-08
   44.3699989      -1.08930216E-08
   44.4300003      -1.09455423E-08
   44.4900017      -1.08072342E-08
   44.5499992      -1.05166427E-08
   44.6100006      -1.01039852E-08
   44.6699982      -9.55847757E-09
   44.7299995      -8.81010198E-09
   44.7900009      -7.73342812E-09
   44.8499985      -6.17164586E-09
   44.9099998      -3.97013444E-09
   44.9700012      -1.00469622E-09
   45.0299988       2.80828716E-09
   45.0900002       7.52502238E-09
   45.1500015       1.32065106E-08
   45.2099991       1.99581720E-08
   45.2700005       2.79630594E-08
   45.3300018       3.74985483E-08
   45.3899994       4.89341083E-08
   45.4500008       6.27159338E-08
   45.5099983       7.93493626E-08
   45.5699997       9.93900358E-08
   45.6300011       1.23450505E-07
   45.6899986       1.52222128E-07
   45.7500000       1.86506313E-07
   45.8100014       2.27247554E-07
   45.8699989       2.75561433E-07
   45.9300003       3.32756287E-07
   45.9900017       4.00351922E-07
   46.0499992       4.80100482E-07
   46.1100006       5.74015019E-07
   46.1699982       6.84407723E-07
   46.2299995       8.13935969E-07
   46.2900009       9.65652134E-07
   46.3499985       1.14305362E-06
   46.4099998       1.35013181E-06
   46.4700012       1.59142121E-06
   46.5299988       1.87205217E-06
   46.5900002       2.19781032E-06
   46.6500015       2.57520333E-06
   46.7099991       3.01153591E-06
   46.7700005       3.51498898E-06
   46.8300018       4.09470567E-06
   46.8899994       4.76087507E-06
   46.9500008       5.52483061E-06
   47.0099983       6.39914651E-06
   47.0699997       7.39774941E-06
   47.1300011       8.53602614E-06
   47.1899986       9.83094378E-06
   47.2500000       1.13011583E-05
   47.3100014       1.29671198E-05
   47.3699989       1.48511781E-05
   47.4300003       1.69776686E-05
   47.4900017       1.93730029E-05
   47.5499992       2.20657512E-05
   47.6100006       2.50867251E-05
   47.6699982       2.84690541E-05
   47.7299995       3.22482338E-05
   47.7900009       3.64621919E-05
   47.8499985       4.11513138E-05
   47.9099998       4.63584583E-05
   47.9700012       5.21289694E-05
   48.0299988       5.85106318E-05
   48.0900002       6.55536060E-05
   48.1500015       7.33103443E-05
   48.2099991       8.18354310E-05
   48.2700005       9.11854440E-05
   48.3300018       1.01418707E-04
   48.3899994       1.12595080E-04
   48.4500008       1.24775674E-04
   48.5099983       1.38022529E-04
   48.5699997       1.52398279E-04
   48.6300011       1.67965758E-04
   48.6899986       1.84787626E-04
   48.7500000       2.02925759E-04
   48.8100014       2.22440809E-04
   48.8699989       2.43391623E-04
   48.9300003       2.65834649E-04
   48.9900017       2.89823365E-04
   49.0499992       3.15407495E-04
   49.1100006       3.42632527E-04
   49.1699982       3.71538830E-04
   49.2299995       4.02161240E-04
   49.2900009       4.34528192E-04
   49.3499985       4.68660932E-04
   49.4099998       5.04573167E-04
   49.4700012       5.42270020E-04
   49.5299988       5.81747852E-04
   49.5900002       6.22993277E-04
   49.6500015       6.65983127E-04
   49.7099991       7.10683758E-04
   49.7700005       7.57050933E-04
   49.8300018       8.05029238E-04
   49.8899994       8.54552200E-04
   49.9500008       9.05542285E-04
   50.0099983       9.57910554E-04
   50.0699997       1.01155718E-03
   50.1300011       1.06637168E-03
   50.1899986       1.12223334E-03
   50.2500000       1.17901142E-03
   50.3100014       1.23656634E-03
   50.3699989       1.29475025E-03
   50.4300003       1.35340786E-03
   50.4900017       1.41237793E-03
   50.5499992       1.47149374E-03
   50.6100006       1.53058534E-03