  -2.400000      0.0000000E+00
  -2.340000      0.0000000E+00
  -2.280000      0.0000000E+00
  -2.220000      0.0000000E+00
  -2.160000      0.0000000E+00
  -2.100000      2.7741792E-19
  -2.040000      1.8136487E-18
  -1.980000      5.3734769E-18
  -1.920000      7.7951549E-18
  -1.860000     -1.8046951E-18
  -1.800000     -3.7398063E-17
  -1.740000     -9.5844782E-17
  -1.680000     -1.2981137E-16
  -1.620000     -4.5818957E-17
  -1.560000      2.3455470E-16
  -1.500000      6.4982102E-16
  -1.440000      8.8767195E-16
  -1.380000      4.3219716E-16
  -1.320000     -1.1138220E-15
  -1.260000     -3.4858116E-15
  -1.200000     -5.3099907E-15
  -1.140000     -4.2464578E-15
  -1.080000      1.9057089E-15
  -1.020000      1.3294350E-14
 -0.9600000      2.6200686E-14
 -0.9000000      3.2771837E-14
 -0.8400000      2.3522938E-14
 -0.7800000     -7.4097790E-15
 -0.7200000     -5.6205180E-14
 -0.6600000     -1.0603538E-13
 -0.6000000     -1.3009202E-13
 -0.5400000     -1.0228281E-13
 -0.4800000     -1.2714263E-14
 -0.4200000      1.1921657E-13
 -0.3600000      2.4302180E-13
 -0.3000000      2.9253761E-13
 -0.2400000      2.1672742E-13
 -0.1800000      1.4305629E-14
 -0.1200000     -2.4610479E-13
 -5.9999999E-02 -4.3724315E-13
  0.0000000E+00 -4.2139716E-13
  5.9999999E-02 -1.2239516E-13
  0.1200000      4.0934820E-13
  0.1800000      9.7606612E-13
  0.2400000      1.2819120E-12
  0.3000000      1.0490918E-12
  0.3600000      1.6186865E-13
  0.4200000     -1.2261122E-12
  0.4800000     -2.6847624E-12
  0.5400000     -3.6304486E-12
  0.6000000     -3.5510364E-12
  0.6600000     -2.2480169E-12
  0.7200000      1.6971139E-14
  0.7800000      2.5612902E-12
  0.8400000      4.5238479E-12
  0.9000000      5.2326112E-12
  0.9600000      4.5417945E-12
   1.020000      2.9677419E-12
   1.080000      1.5173529E-12
   1.140000      1.2316179E-12
   1.200000      2.6087689E-12
   1.260000      5.1613184E-12
   1.320000      7.3479946E-12
   1.380000      6.9952742E-12
   1.440000      2.1249736E-12
   1.500000     -8.0864282E-12
   1.560000     -2.2589092E-11
   1.620000     -3.8306448E-11
   1.680000     -5.0685116E-11
   1.740000     -5.4828492E-11
   1.800000     -4.6869286E-11
   1.860000     -2.5139455E-11
   1.920000      9.2288156E-12
   1.980000      5.2419336E-11
   2.040000      9.8644287E-11
   2.100000      1.4112866E-10
   2.160000      1.7299517E-10
   2.220000      1.8780753E-10
   2.280000      1.7977925E-10
   2.340000      1.4390496E-10
   2.400000      7.6403092E-11
   2.460000     -2.4208885E-11
   2.520000     -1.5534352E-10
   2.580000     -3.0817457E-10
   2.640000     -4.6568882E-10
   2.700000     -6.0172933E-10
   2.760000     -6.8169498E-10
   2.820000     -6.6522188E-10
   2.880000     -5.1068116E-10
   2.940000     -1.8083321E-10
   3.000000      3.5136874E-10
   3.060000      1.0979379E-09
   3.120000      2.0529196E-09
   3.180000      3.1919116E-09
   3.240000      4.4740611E-09
   3.300000      5.8460854E-09
   3.360000      7.2474782E-09
   3.420000      8.6159888E-09
   3.480000      9.8925623E-09
   3.540000      1.1025277E-08
   3.600000      1.1972185E-08
   3.660000      1.2703254E-08
   3.720000      1.3201691E-08
   3.780000      1.3464787E-08
   3.840000      1.3504126E-08
   3.900000      1.3344756E-08
   3.960000      1.3022886E-08
   4.020000      1.2581935E-08
   4.080000      1.2067256E-08
   4.140000      1.1520456E-08
   4.200000      1.0974545E-08
   4.260000      1.0451089E-08
   4.320000      9.9599875E-09
   4.380000      9.5017052E-09
   4.440000      9.0709618E-09
   4.500000      8.6604928E-09
   4.560000      8.2636671E-09
   4.620000      7.8753519E-09
   4.680000      7.4913800E-09
   4.740000      7.1076114E-09
   4.800000      6.7198140E-09
   4.860000      6.3251422E-09
   4.920000      5.9250920E-09
   4.980000      5.5288991E-09
   5.040000      5.1557523E-09
   5.100000      4.8343520E-09
   5.160000      4.5991313E-09
   5.220000      4.4836597E-09
   5.280000      4.5128759E-09
   5.340000      4.6964077E-09
   5.400000      5.0250444E-09
   5.460000      5.4715596E-09
   5.520000      5.9957692E-09
   5.580000      6.5524537E-09
   5.640000      7.0999895E-09
   5.700000      7.6074587E-09
   5.760000      8.0586142E-09
   5.820000      8.4521536E-09
   5.880000      8.7989269E-09
   5.940000      9.1174543E-09
   6.000000      9.4294483E-09
   6.060000      9.7565502E-09
   6.120000      1.0118731E-08
   6.180000      1.0533844E-08
   6.240000      1.1017297E-08
   6.300000      1.1580768E-08
   6.360000      1.2229477E-08
   6.420000      1.2958453E-08
   6.480000      1.3749037E-08
   6.540000      1.4567276E-08
   6.600000      1.5365584E-08
   6.660000      1.6088229E-08
   6.720000      1.6680017E-08
   6.780000      1.7096413E-08
   6.840000      1.7312624E-08
   6.900000      1.7329116E-08
   6.960000      1.7171665E-08
   7.020000      1.6885421E-08
   7.080000      1.6524069E-08
   7.140000      1.6136729E-08
   7.200000      1.5756155E-08
   7.260000      1.5391503E-08
   7.320000      1.5027714E-08
   7.380000      1.4631460E-08
   7.440000      1.4161449E-08
   7.500000      1.3579693E-08
   7.560000      1.2860276E-08
   7.620000      1.1993501E-08
   7.680000      1.0985218E-08
   7.740000      9.8527959E-09
   7.800000      8.6200211E-09
   7.860000      7.3127713E-09
   7.920000      5.9562475E-09
   7.980000      4.5734287E-09
   8.040000      3.1838630E-09
   8.100000      1.8022155E-09
   8.160000      4.3673037E-10
   8.220000     -9.1153973E-10
   8.280000     -2.2477766E-09
   8.340000     -3.5803229E-09
   8.400000     -4.9160938E-09
   8.460000     -6.2559193E-09
   8.520000     -7.5915532E-09
   8.580000     -8.9056149E-09
   8.640000     -1.0174700E-08
   8.700000     -1.1374730E-08
   8.760000     -1.2486826E-08
   8.820000     -1.3501759E-08
   8.880000     -1.4421625E-08
   8.940000     -1.5258278E-08
   9.000000     -1.6029187E-08
   9.060000     -1.6752091E-08
   9.120000     -1.7440087E-08
   9.180000     -1.8098328E-08
   9.240000     -1.8722925E-08
   9.300000     -1.9301797E-08
   9.360000     -1.9816905E-08
   9.420000     -2.0247269E-08
   9.480000     -2.0572442E-08
   9.540000     -2.0776364E-08
   9.600000     -2.0851447E-08
   9.660000     -2.0802252E-08
   9.720000     -2.0647638E-08
   9.780000     -2.0419989E-08
   9.840000     -2.0160661E-08
   9.900000     -1.9911900E-08
   9.960000     -1.9707031E-08
   10.02000     -1.9561805E-08
   10.08000     -1.9469855E-08
   10.14000     -1.9404133E-08
   10.20000     -1.9324101E-08
   10.26000     -1.9186389E-08
   10.32000     -1.8955369E-08
   10.38000     -1.8610272E-08
   10.44000     -1.8147045E-08
   10.50000     -1.7575232E-08
   10.56000     -1.6912072E-08
   10.62000     -1.6176537E-08
   10.68000     -1.5385380E-08
   10.74000     -1.4551683E-08
   10.80000     -1.3684941E-08
   10.86000     -1.2791223E-08
   10.92000     -1.1872435E-08
   10.98000     -1.0925067E-08
   11.04000     -9.9397006E-09
   11.10000     -8.9026697E-09
   11.16000     -7.8002103E-09
   11.22000     -6.6238970E-09
   11.28000     -5.3751497E-09
   11.34000     -4.0666683E-09
   11.40000     -2.7200289E-09
   11.46000     -1.3604847E-09
   11.52000     -1.1323315E-11
   11.58000      1.3098340E-09
   11.64000      2.5916280E-09
   11.70000      3.8270369E-09
   11.76000      5.0107567E-09
   11.82000      6.1377885E-09
   11.88000      7.2040498E-09
   11.94000      8.2083309E-09
   12.00000      9.1539105E-09
   12.06000      1.0048263E-08
   12.12000      1.0900488E-08
   12.18000      1.1717643E-08
   12.24000      1.2502127E-08
   12.30000      1.3252116E-08
   12.36000      1.3965572E-08
   12.42000      1.4646425E-08
   12.48000      1.5309945E-08
   12.54000      1.5984156E-08
   12.60000      1.6705552E-08
   12.66000      1.7509889E-08
   12.72000      1.8421320E-08
   12.78000      1.9444318E-08
   12.84000      2.0562036E-08
   12.90000      2.1742034E-08
   12.96000      2.2947148E-08
   13.02000      2.4146898E-08
   13.08000      2.5324750E-08
   13.14000      2.6478782E-08
   13.20000      2.7616423E-08
   13.26000      2.8746763E-08
   13.32000      2.9874474E-08
   13.38000      3.0997896E-08
   13.44000      3.2110929E-08
   13.50000      3.3206337E-08
   13.56000      3.4277424E-08
   13.62000      3.5316916E-08
   13.68000      3.6314145E-08
   13.74000      3.7253361E-08
   13.80000      3.8115680E-08
   13.86000      3.8884931E-08
   13.92000      3.9555101E-08
   13.98000      4.0135426E-08
   14.04000      4.0649816E-08
   14.10000      4.1129827E-08
   14.16000      4.1603521E-08
   14.22000      4.2084597E-08
   14.28000      4.2566239E-08
   14.34000      4.3022023E-08
   14.40000      4.3413451E-08
   14.46000      4.3701018E-08
   14.52000      4.3854932E-08
   14.58000      4.3862052E-08
   14.64000      4.3727564E-08
   14.70000      4.3471751E-08
   14.76000      4.3123787E-08
   14.82000      4.2714721E-08
   14.88000      4.2271434E-08
   14.94000      4.1812530E-08
   15.00000      4.1346134E-08
   15.06000      4.0869242E-08
   15.12000      4.0368381E-08
   15.18000      3.9821632E-08
   15.24000      3.9202167E-08
   15.30000      3.8483389E-08
   15.36000      3.7644913E-08
   15.42000      3.6678028E-08
   15.48000      3.5588879E-08
   15.54000      3.4398131E-08
   15.60000      3.3136914E-08
   15.66000      3.1840347E-08
   15.72000      3.0540679E-08
   15.78000      2.9262178E-08
   15.84000      2.8018933E-08
   15.90000      2.6815533E-08
   15.96000      2.5649605E-08
   16.02000      2.4514936E-08
   16.08000      2.3404347E-08
   16.14000      2.2312040E-08
   16.20000      2.1235497E-08
   16.26000      2.0176836E-08
   16.32000      1.9143270E-08
   16.38000      1.8146117E-08
   16.44000      1.7198285E-08
   16.50000      1.6310882E-08
   16.56000      1.5490329E-08
   16.62000      1.4737329E-08
   16.68000      1.4048330E-08
   16.74000      1.3418924E-08
   16.80000      1.2847510E-08
   16.86000      1.2337363E-08
   16.92000      1.1895926E-08
   16.98000      1.1531485E-08
   17.04000      1.1248698E-08
   17.10000      1.1044987E-08
   17.16000      1.0909472E-08
   17.22000      1.0824935E-08
   17.28000      1.0772093E-08
   17.34000      1.0734468E-08
   17.40000      1.0702108E-08
   17.46000      1.0672923E-08
   17.52000      1.0651510E-08
   17.58000      1.0646164E-08
   17.64000      1.0665381E-08
   17.70000      1.0715011E-08
   17.76000      1.0796724E-08
   17.82000      1.0907727E-08
   17.88000      1.1041181E-08
   17.94000      1.1186727E-08
   18.00000      1.1330852E-08
   18.06000      1.1457334E-08
   18.12000      1.1548326E-08
   18.18000      1.1586438E-08
   18.24000      1.1557563E-08
   18.30000      1.1453505E-08
   18.36000      1.1273096E-08
   18.42000      1.1020940E-08
   18.48000      1.0703884E-08
   18.54000      1.0326609E-08
   18.60000      9.8883186E-09
   18.66000      9.3822887E-09
   18.72000      8.7987457E-09
   18.78000      8.1299625E-09
   18.84000      7.3752902E-09
   18.90000      6.5437589E-09
   18.96000      5.6529044E-09
   19.02000      4.7241242E-09
   19.08000      3.7763055E-09
   19.14000      2.8200702E-09
   19.20000      1.8545442E-09
   19.26000      8.6744495E-10
   19.32000     -1.6193429E-10
   19.38000     -1.2580684E-09
   19.44000     -2.4442992E-09
   19.50000     -3.7388457E-09
   19.56000     -5.1524069E-09
   19.62000     -6.6875825E-09
   19.68000     -8.3399589E-09
   19.74000     -1.0100418E-08
   19.80000     -1.1958035E-08
   19.86000     -1.3902875E-08
   19.92000     -1.5928171E-08
   19.98000     -1.8031702E-08
   20.04000     -2.0216488E-08
   20.10000     -2.2491012E-08
   20.16000     -2.4868964E-08
   20.22000     -2.7368158E-08
   20.28000     -3.0008081E-08
   20.34000     -3.2805914E-08
   20.40000     -3.5771407E-08
   20.46000     -3.8902080E-08
   20.52000     -4.2180321E-08
   20.58000     -4.5573760E-08
   20.64000     -4.9039013E-08
   20.70000     -5.2527675E-08
   20.76000     -5.5992405E-08
   20.82000     -5.9391020E-08
   20.88000     -6.2687398E-08
   20.94000     -6.5849463E-08
   21.00000     -6.8845516E-08
   21.06000     -7.1641118E-08
   21.12000     -7.4197686E-08
   21.18000     -7.6473682E-08
   21.24000     -7.8427767E-08
   21.30000     -8.0022666E-08
   21.36000     -8.1228407E-08
   21.42000     -8.2023746E-08
   21.48000     -8.2395488E-08
   21.54000     -8.2336157E-08
   21.60000     -8.1841186E-08
   21.66000     -8.0906979E-08
   21.72000     -7.9531119E-08
   21.78000     -7.7714830E-08
   21.84000     -7.5467099E-08
   21.90000     -7.2808852E-08
   21.96000     -6.9775325E-08
   22.02000     -6.6415332E-08
   22.08000     -6.2787400E-08
   22.14000     -5.8953876E-08
   22.20000     -5.4974915E-08
   22.26000     -5.0904159E-08
   22.32000     -4.6786962E-08
   22.38000     -4.2660950E-08
   22.44000     -3.8557790E-08
   22.50000     -3.4504978E-08
   22.56000     -3.0526984E-08
   22.62000     -2.6645830E-08
   22.68000     -2.2881588E-08
   22.74000     -1.9253184E-08
   22.80000     -1.5779344E-08
   22.86000     -1.2478976E-08
   22.92000     -9.3702353E-09
   22.98000     -6.4681265E-09
   23.04000     -3.7813890E-09
   23.10000     -1.3101131E-09
   23.16000      9.5443387E-10
   23.22000      3.0270304E-09
   23.28000      4.9232804E-09
   23.34000      6.6535235E-09
   23.40000      8.2178628E-09
   23.46000      9.6038892E-09
   23.52000      1.0787637E-08
   23.58000      1.1737233E-08
   23.64000      1.2418018E-08
   23.70000      1.2797836E-08
   23.76000      1.2851594E-08
   23.82000      1.2564702E-08
   23.88000      1.1935292E-08
   23.94000      1.0975151E-08
   24.00000      9.7091579E-09
   24.06000      8.1730098E-09
   24.12000      6.4094015E-09
   24.18000      4.4632955E-09
   24.24000      2.3774867E-09
   24.30000      1.8964286E-10
   24.36000     -2.0684552E-09
   24.42000     -4.3697210E-09
   24.48000     -6.6897301E-09
   24.54000     -9.0053138E-09
   24.60000     -1.1294786E-08
   24.66000     -1.3539776E-08
   24.72000     -1.5727512E-08
   24.78000     -1.7851816E-08
   24.84000     -1.9911605E-08
   24.90000     -2.1906780E-08
   24.96000     -2.3832953E-08
   25.02000     -2.5677316E-08
   25.08000     -2.7417817E-08
   25.14000     -2.9026578E-08
   25.20000     -3.0476691E-08
   25.26000     -3.1750123E-08
   25.32000     -3.2843904E-08
   25.38000     -3.3772494E-08
   25.44000     -3.4565542E-08
   25.50000     -3.5262101E-08
   25.56000     -3.5903184E-08
   25.62000     -3.6525098E-08
   25.68000     -3.7155111E-08
   25.74000     -3.7810064E-08
   25.80000     -3.8497362E-08
   25.86000     -3.9216982E-08
   25.92000     -3.9963055E-08
   25.98000     -4.0723922E-08
   26.04000     -4.1480568E-08
   26.10000     -4.2204174E-08
   26.16000     -4.2854332E-08
   26.22000     -4.3379522E-08
   26.28000     -4.3720842E-08
   26.34000     -4.3818929E-08
   26.40000     -4.3622858E-08
   26.46000     -4.3098964E-08
   26.52000     -4.2237641E-08
   26.58000     -4.1056673E-08
   26.64000     -3.9600764E-08
   26.70000     -3.7937770E-08
   26.76000     -3.6152414E-08
   26.82000     -3.4338388E-08
   26.88000     -3.2589320E-08
   26.94000     -3.0989014E-08
   27.00000     -2.9601820E-08
   27.06000     -2.8464259E-08
   27.12000     -2.7579619E-08
   27.18000     -2.6916933E-08
   27.24000     -2.6415044E-08
   27.30000     -2.5991199E-08
   27.36000     -2.5552582E-08
   27.42000     -2.5008550E-08
   27.48000     -2.4281476E-08
   27.54000     -2.3314827E-08
   27.60000     -2.2077908E-08
   27.66000     -2.0567343E-08
   27.72000     -1.8805675E-08
   27.78000     -1.6837443E-08
   27.84000     -1.4723113E-08
   27.90000     -1.2531458E-08
   27.96000     -1.0331338E-08
   28.02000     -8.1841449E-09
   28.08000     -6.1381775E-09
   28.14000     -4.2257335E-09
   28.20000     -2.4630036E-09
   28.26000     -8.5208690E-10
   28.32000      6.1585320E-10
   28.38000      1.9570916E-09
   28.44000      3.1917800E-09
   28.50000      4.3401438E-09
   28.56000      5.4182099E-09
   28.62000      6.4333125E-09
   28.68000      7.3803621E-09
   28.74000      8.2403382E-09
   28.80000      8.9822825E-09
   28.86000      9.5690700E-09
   28.92000      9.9658291E-09
   28.98000      1.0148616E-08
   29.04000      1.0110611E-08
   29.10000      9.8638582E-09
   29.16000      9.4362855E-09
   29.22000      8.8655927E-09
   29.28000      8.1927967E-09
   29.34000      7.4581665E-09
   29.40000      6.7008408E-09
   29.46000      5.9613781E-09
   29.52000      5.2847109E-09
   29.58000      4.7204467E-09
   29.64000      4.3185113E-09
   29.70000      4.1204027E-09
   29.76000      4.1486858E-09
   29.82000      4.3986970E-09
   29.88000      4.8359885E-09
   29.94000      5.4009122E-09
   30.00000      6.0190102E-09
   30.06000      6.6137429E-09
   30.12000      7.1176172E-09
   30.18000      7.4790387E-09
   30.24000      7.6644167E-09
   30.30000      7.6569409E-09
   30.36000      7.4541102E-09
   30.42000      7.0653625E-09
   30.48000      6.5098140E-09
   30.54000      5.8131855E-09
   30.60000      5.0032098E-09
   30.66000      4.1039891E-09
   30.72000      3.1311027E-09
   30.78000      2.0896500E-09
   30.84000      9.7648101E-10
   30.90000     -2.1404263E-10
   30.96000     -1.4831573E-09
   31.02000     -2.8226739E-09
   31.08000     -4.2138590E-09
   31.14000     -5.6303397E-09
   31.20000     -7.0433455E-09
   31.26000     -8.4268681E-09
   31.32000     -9.7609236E-09
   31.38000     -1.1032445E-08
   31.44000     -1.2234558E-08
   31.50000     -1.3365321E-08
   31.56000     -1.4426598E-08
   31.62000     -1.5422943E-08
   31.68000     -1.6360117E-08
   31.74000     -1.7243208E-08
   31.80000     -1.8075093E-08
   31.86000     -1.8856470E-08
   31.92000     -1.9588251E-08
   31.98000     -2.0275973E-08
   32.04000     -2.0934488E-08
   32.10000     -2.1590557E-08
   32.16000     -2.2281444E-08
   32.22000     -2.3049170E-08
   32.28000     -2.3931998E-08
   32.34000     -2.4955876E-08
   32.40000     -2.6128554E-08
   32.46000     -2.7437967E-08
   32.52000     -2.8854712E-08
   32.58000     -3.0337056E-08
   32.64000     -3.1836375E-08
   32.70000     -3.3301447E-08
   32.76000     -3.4681030E-08
   32.82000     -3.5925336E-08
   32.88000     -3.6987498E-08
   32.94000     -3.7826002E-08
   33.00000     -3.8408292E-08
   33.06000     -3.8714937E-08
   33.12000     -3.8743018E-08
   33.18000     -3.8507377E-08
   33.24000     -3.8038987E-08
   33.30000     -3.7380619E-08
   33.36000     -3.6580875E-08
   33.42000     -3.5688146E-08
   33.48000     -3.4745923E-08
   33.54000     -3.3790137E-08
   33.60000     -3.2848419E-08
   33.66000     -3.1940626E-08
   33.72000     -3.1079885E-08
   33.78000     -3.0273828E-08
   33.84000     -2.9526092E-08
   33.90000     -2.8838267E-08
   33.96000     -2.8212250E-08
   34.02000     -2.7652311E-08
   34.08000     -2.7166053E-08
   34.14000     -2.6763484E-08
   34.20000     -2.6454270E-08
   34.26000     -2.6244043E-08
   34.32000     -2.6131074E-08
   34.38000     -2.6104493E-08
   34.44000     -2.6144438E-08
   34.50000     -2.6223775E-08
   34.56000     -2.6310607E-08
   34.62000     -2.6371078E-08
   34.68000     -2.6372428E-08
   34.74000     -2.6286562E-08
   34.80000     -2.6094163E-08
   34.86000     -2.5788582E-08
   34.92000     -2.5378208E-08
   34.98000     -2.4885995E-08
   35.04000     -2.4345800E-08
   35.10000     -2.3796499E-08
   35.16000     -2.3276018E-08
   35.22000     -2.2817257E-08
   35.28000     -2.2446940E-08
   35.34000     -2.2186613E-08
   35.40000     -2.2053991E-08
   35.46000     -2.2062732E-08
   35.52000     -2.2220036E-08
   35.58000     -2.2523041E-08
   35.64000     -2.2956158E-08
   35.70000     -2.3491216E-08
   35.76000     -2.4091085E-08
   35.82000     -2.4715646E-08
   35.88000     -2.5327978E-08
   35.94000     -2.5898782E-08
   36.00000     -2.6408228E-08
   36.06000     -2.6845827E-08
   36.12000     -2.7209607E-08
   36.18000     -2.7505600E-08
   36.24000     -2.7747516E-08
   36.30000     -2.7955497E-08
   36.36000     -2.8152753E-08
   36.42000     -2.8359866E-08
   36.48000     -2.8588174E-08
   36.54000     -2.8834837E-08
   36.60000     -2.9082193E-08
   36.66000     -2.9302514E-08
   36.72000     -2.9466923E-08
   36.78000     -2.9555128E-08
   36.84000     -2.9562047E-08
   36.90000     -2.9498556E-08
   36.96000     -2.9386243E-08
   37.02000     -2.9248683E-08
   37.08000     -2.9103280E-08
   37.14000     -2.8957190E-08
   37.20000     -2.8808687E-08
   37.26000     -2.8652581E-08
   37.32000     -2.8486504E-08
   37.38000     -2.8314853E-08
   37.44000     -2.8148886E-08
   37.50000     -2.8003772E-08
   37.56000     -2.7895009E-08
   37.62000     -2.7836601E-08
   37.68000     -2.7841780E-08
   37.74000     -2.7925120E-08
   37.80000     -2.8103635E-08
   37.86000     -2.8394988E-08
   37.92000     -2.8812700E-08
   37.98000     -2.9360365E-08
   38.04000     -3.0027827E-08
   38.10000     -3.0791529E-08
   38.16000     -3.1619177E-08
   38.22000     -3.2476514E-08
   38.28000     -3.3333109E-08
   38.34000     -3.4164717E-08
   38.40000     -3.4951917E-08
   38.46000     -3.5676937E-08
   38.52000     -3.6321577E-08
   38.58000     -3.6868236E-08
   38.64000     -3.7304154E-08
   38.70000     -3.7626787E-08
   38.76000     -3.7847418E-08
   38.82000     -3.7990745E-08
   38.88000     -3.8090363E-08
   38.94000     -3.8181870E-08
   39.00000     -3.8296349E-08
   39.06000     -3.8456303E-08
   39.12000     -3.8674536E-08
   39.18000     -3.8954717E-08
   39.24000     -3.9291820E-08
   39.30000     -3.9671463E-08
   39.36000     -4.0068592E-08
   39.42000     -4.0447510E-08
   39.48000     -4.0765062E-08
   39.54000     -4.0977724E-08
   39.60000     -4.1050921E-08
   39.66000     -4.0967333E-08
   39.72000     -4.0730740E-08
   39.78000     -4.0363386E-08
   39.84000     -3.9897778E-08
   39.90000     -3.9365947E-08
   39.96000     -3.8790454E-08
   40.02000     -3.8180151E-08
   40.08000     -3.7531471E-08
   40.14000     -3.6833537E-08
   40.20000     -3.6074010E-08
   40.26000     -3.5243229E-08
   40.32000     -3.4335642E-08
   40.38000     -3.3349590E-08
   40.44000     -3.2287218E-08
   40.50000     -3.1155842E-08
   40.56000     -2.9970344E-08
   40.62000     -2.8754961E-08
   40.68000     -2.7542360E-08
   40.74000     -2.6369078E-08
   40.80000     -2.5268431E-08
   40.86000     -2.4263528E-08
   40.92000     -2.3363439E-08
   40.98000     -2.2564114E-08
   41.04000     -2.1853392E-08
   41.10000     -2.1217446E-08
   41.16000     -2.0645276E-08
   41.22000     -2.0129164E-08
   41.28000     -1.9661289E-08
   41.34000     -1.9228906E-08
   41.40000     -1.8811521E-08
   41.46000     -1.8382504E-08
   41.52000     -1.7915360E-08
   41.58000     -1.7392374E-08
   41.64000     -1.6811988E-08
   41.70000     -1.6191610E-08
   41.76000     -1.5564577E-08
   41.82000     -1.4972478E-08
   41.88000     -1.4455884E-08
   41.94000     -1.4046858E-08
   42.00000     -1.3765409E-08
   42.06000     -1.3619948E-08
   42.12000     -1.3610158E-08
   42.18000     -1.3730062E-08
   42.24000     -1.3969840E-08
   42.30000     -1.4316385E-08
   42.36000     -1.4753780E-08
   42.42000     -1.5264979E-08
   42.48000     -1.5835028E-08
   42.54000     -1.6454701E-08
   42.60000     -1.7122506E-08
   42.66000     -1.7843382E-08
   42.72000     -1.8624034E-08
   42.78000     -1.9466810E-08
   42.84000     -2.0365173E-08
   42.90000     -2.1303389E-08
   42.96000     -2.2261034E-08
   43.02000     -2.3220439E-08
   43.08000     -2.4173620E-08
   43.14000     -2.5125571E-08
   43.20000     -2.6092785E-08
   43.26000     -2.7098517E-08
   43.32000     -2.8168028E-08
   43.38000     -2.9326785E-08
   43.44000     -3.0602706E-08
   43.50000     -3.2030872E-08
   43.56000     -3.3657635E-08
   43.62000     -3.5541387E-08
   43.68000     -3.7749246E-08
   43.74000     -4.0351541E-08
   43.80000     -4.3417383E-08
   43.86000     -4.7014247E-08
   43.92000     -5.1212417E-08
   43.98000     -5.6092759E-08
   44.04000     -6.1754697E-08
   44.10000     -6.8321683E-08
   44.16000     -7.5943404E-08
   44.22000     -8.4795872E-08
   44.28000     -9.5082243E-08
   44.34000     -1.0703658E-07
   44.40000     -1.2093138E-07
   44.46000     -1.3708760E-07
   44.52000     -1.5588481E-07
   44.58000     -1.7776911E-07
   44.64000     -2.0325780E-07
   44.70000     -2.3294172E-07
   44.76000     -2.6748722E-07
   44.82000     -3.0764033E-07
   44.88000     -3.5423417E-07
   44.94000     -4.0819998E-07
   45.00000     -4.7058060E-07
   45.06000     -5.4254457E-07
   45.12000     -6.2540016E-07
   45.18000     -7.2060817E-07
   45.24000     -8.2979557E-07
   45.30000     -9.5477094E-07
   45.36000     -1.0975431E-06
   45.42000     -1.2603407E-06
   45.48000     -1.4456335E-06
   45.54000     -1.6561507E-06
   45.60000     -1.8948964E-06
   45.66000     -2.1651606E-06
   45.72000     -2.4705289E-06
   45.78000     -2.8148941E-06
   45.84000     -3.2024684E-06
   45.90000     -3.6378001E-06
   45.96000     -4.1257881E-06
   46.02000     -4.6716941E-06
   46.08000     -5.2811520E-06
   46.14000     -5.9601634E-06
   46.20000     -6.7150995E-06
   46.26000     -7.5526914E-06
   46.32000     -8.4800322E-06
   46.38000     -9.5045698E-06
   46.44000     -1.0634109E-05
   46.50000     -1.1876793E-05
   46.56000     -1.3241100E-05
   46.62000     -1.4735809E-05
   46.68000     -1.6369968E-05
   46.74000     -1.8152861E-05
   46.80000     -2.0093934E-05
   46.86000     -2.2202757E-05
   46.92000     -2.4488951E-05
   46.98000     -2.6962098E-05
   47.04000     -2.9631685E-05
   47.10000     -3.2507010E-05
   47.16000     -3.5597128E-05
   47.22000     -3.8910744E-05
   47.28000     -4.2456155E-05
   47.34000     -4.6241137E-05
   47.40000     -5.0272854E-05
   47.46000     -5.4557750E-05
   47.52000     -5.9101436E-05
   47.58000     -6.3908607E-05
   47.64000     -6.8982925E-05
   47.70000     -7.4326876E-05
   47.76000     -7.9941776E-05
   47.82000     -8.5827545E-05
   47.88000     -9.1982722E-05
   47.94000     -9.8404365E-05
   48.00000     -1.0508799E-04
   48.06000     -1.1202753E-04
   48.12000     -1.1921524E-04
   48.18000     -1.2664175E-04
   48.24000     -1.3429591E-04
   48.30000     -1.4216489E-04
   48.36000     -1.5023413E-04
   48.42000     -1.5848748E-04
   48.48000     -1.6690721E-04
   48.54000     -1.7547407E-04
   48.60000     -1.8416744E-04
   48.66000     -1.9296538E-04
   48.72000     -2.0184492E-04
   48.78000     -2.1078203E-04
   48.84000     -2.1975194E-04
   48.90000     -2.2872932E-04
   48.96000     -2.3768841E-04
   49.02000     -2.4660322E-04
   49.08000     -2.5544790E-04
   49.14000     -2.6419669E-04
   49.20000     -2.7282437E-04
   49.26000     -2.8130657E-04
   49.32000     -2.8961973E-04
   49.38000     -2.9774167E-04
   49.44000     -3.0565160E-04
   49.50000     -3.1333044E-04
   49.56000     -3.2076112E-04
   49.62000     -3.2792854E-04
   49.68000     -3.3482004E-04
   49.74000     -3.4142527E-04
   49.80000     -3.4773650E-04
   49.86000     -3.5374865E-04
   49.92000     -3.5945934E-04
   49.98000     -3.6486899E-04
   50.04000     -3.6998084E-04
   50.10000     -3.7480093E-04
   50.16000     -3.7933810E-04
   50.22000     -3.8360368E-04
   50.28000     -3.8761133E-04
   50.34000     -3.9137702E-04
   50.40000     -3.9491875E-04
   50.46000     -3.9825658E-04
   50.52000     -4.0141234E-04
   50.58000     -4.0440925E-04
   50.64000     -4.0727176E-04
   50.70000     -4.1002492E-04
   50.76000     -4.1269429E-04
   50.82000     -4.1530543E-04
   50.88000     -4.1788380E-04
   50.94000     -4.2045431E-04
   51.00000     -4.2304103E-04
   51.06000     -4.2566701E-04
   51.12000     -4.2835367E-04
   51.18000     -4.3112066E-04
   51.24000     -4.3398552E-04
   51.30000     -4.3696363E-04
   51.36000     -4.4006776E-04
   51.42000     -4.4330815E-04
   51.48000     -4.4669223E-04
   51.54000     -4.5022450E-04
   51.60000     -4.5390666E-04
   51.66000     -4.5773736E-04
   51.72000     -4.6171236E-04
   51.78000     -4.6582453E-04
   51.84000     -4.7006397E-04
   51.90000     -4.7441816E-04
   51.96000     -4.7887236E-04
   52.02000     -4.8340956E-04
   52.08000     -4.8801079E-04
   52.14000     -4.9265544E-04
   52.20000     -4.9732142E-04
   52.26000     -5.0198555E-04
   52.32000     -5.0662394E-04
   52.38000     -5.1121251E-04
   52.44000     -5.1572704E-04
   52.50000     -5.2014383E-04
   52.56000     -5.2443973E-04
   52.62000     -5.2859256E-04
   52.68000     -5.3258124E-04
   52.74000     -5.3638639E-04
   52.80000     -5.3999049E-04
   52.86000     -5.4337812E-04
   52.92000     -5.4653629E-04
   52.98000     -5.4945442E-04
   53.04000     -5.5212440E-04
   53.10000     -5.5454060E-04
   53.16000     -5.5669993E-04
   53.22000     -5.5860204E-04
   53.28000     -5.6024949E-04
   53.34000     -5.6164723E-04
   53.40000     -5.6280300E-04
   53.46000     -5.6372635E-04
   53.52000     -5.6442898E-04
   53.58000     -5.6492421E-04
   53.64000     -5.6522683E-04
   53.70000     -5.6535297E-04
   53.76000     -5.6531996E-04
   53.82000     -5.6514581E-04
   53.88000     -5.6484895E-04
   53.94000     -5.6444766E-04
   54.00000     -5.6396006E-04
   54.06000     -5.6340330E-04
   54.12000     -5.6279375E-04
   54.18000     -5.6214631E-04
   54.24000     -5.6147471E-04
   54.30000     -5.6079082E-04
   54.36000     -5.6010467E-04
   54.42000     -5.5942411E-04
   54.48000     -5.5875466E-04
   54.54000     -5.5809936E-04
   54.60000     -5.5745908E-04
   54.66000     -5.5683247E-04
   54.72000     -5.5621547E-04
   54.78000     -5.5560202E-04
   54.84000     -5.5498356E-04
   54.90000     -5.5434945E-04
   54.96000     -5.5368693E-04
   55.02000     -5.5298151E-04
   55.08000     -5.5221724E-04
   55.14000     -5.5137678E-04
   55.20000     -5.5044214E-04
   55.26000     -5.4939440E-04
   55.32000     -5.4821442E-04
   55.38000     -5.4688286E-04
   55.44000     -5.4538093E-04
   55.50000     -5.4369005E-04
   55.56000     -5.4179254E-04