  -2.400000      0.0000000E+00
  -2.340000      0.0000000E+00
  -2.280000      0.0000000E+00
  -2.220000      0.0000000E+00
  -2.160000      0.0000000E+00
  -2.100000      3.7232180E-19
  -2.040000      2.9699140E-18
  -1.980000      1.1970120E-17
  -1.920000      3.1200224E-17
  -1.860000      5.4424037E-17
  -1.800000      5.0728138E-17
  -1.740000     -4.0914239E-17
  -1.680000     -2.8419586E-16
  -1.620000     -6.7076094E-16
  -1.560000     -1.0237899E-15
  -1.500000     -9.6233330E-16
  -1.440000     -3.4431228E-17
  -1.380000      1.9384055E-15
  -1.320000      4.4347397E-15
  -1.260000      6.0505224E-15
  -1.200000      4.9338259E-15
  -1.140000     -5.1535284E-17
  -1.080000     -7.8834034E-15
  -1.020000     -1.4680152E-14
 -0.9600000     -1.4850524E-14
 -0.9000000     -4.4212049E-15
 -0.8400000      1.4685710E-14
 -0.7800000      3.2191101E-14
 -0.7200000      3.1876662E-14
 -0.6600000      7.3351538E-17
 -0.6000000     -6.2402659E-14
 -0.5400000     -1.3145779E-13
 -0.4800000     -1.6200455E-13
 -0.4200000     -1.0573629E-13
 -0.3600000      5.9423325E-14
 -0.3000000      3.0152562E-13
 -0.2400000      5.2682229E-13
 -0.1800000      6.0577059E-13
 -0.1200000      4.3139071E-13
 -5.9999999E-02 -1.1755239E-14
  0.0000000E+00 -6.0440715E-13
  5.9999999E-02 -1.1098136E-12
  0.1200000     -1.2626887E-12
  0.1800000     -9.0360472E-13
  0.2400000     -9.7773203E-14
  0.3000000      8.3339358E-13
  0.3600000      1.4125489E-12
  0.4200000      1.2229331E-12
  0.4800000      1.5679726E-13
  0.5400000     -1.4299889E-12
  0.6000000     -2.7667191E-12
  0.6600000     -2.9501269E-12
  0.7200000     -1.3748461E-12
  0.7800000      1.8713987E-12
  0.8400000      5.8564104E-12
  0.9000000      9.0275946E-12
  0.9600000      9.7830711E-12
   1.020000      7.1840619E-12
   1.080000      1.4952270E-12
   1.140000     -5.7313837E-12
   1.200000     -1.2139102E-11
   1.260000     -1.5471175E-11
   1.320000     -1.4530077E-11
   1.380000     -9.7506265E-12
   1.440000     -3.0771965E-12
   1.500000      2.8655607E-12
   1.560000      5.9776229E-12
   1.620000      5.7122215E-12
   1.680000      3.3993927E-12
   1.740000      1.6217197E-12
   1.800000      2.8410789E-12
   1.860000      7.8758779E-12
   1.920000      1.4988726E-11
   1.980000      2.0157740E-11
   2.040000      1.8617564E-11
   2.100000      7.1625483E-12
   2.160000     -1.3730858E-11
   2.220000     -3.8964474E-11
   2.280000     -5.9679879E-11
   2.340000     -6.5842214E-11
   2.400000     -4.9738321E-11
   2.460000     -9.1391252E-12
   2.520000      5.1066984E-11
   2.580000      1.1940084E-10
   2.640000      1.8026224E-10
   2.700000      2.1735221E-10
   2.760000      2.1669881E-10
   2.820000      1.6817621E-10
   2.880000      6.5152071E-11
   2.940000     -9.7166809E-11
   3.000000     -3.2343164E-10
   3.060000     -6.1852240E-10
   3.120000     -9.8580588E-10
   3.180000     -1.4235413E-09
   3.240000     -1.9207622E-09
   3.300000     -2.4545461E-09
   3.360000     -2.9903464E-09
   3.420000     -3.4860277E-09
   3.480000     -3.8987897E-09
   3.540000     -4.1928931E-09
   3.600000     -4.3455812E-09
   3.660000     -4.3491371E-09
   3.720000     -4.2084305E-09
   3.780000     -3.9350772E-09
   3.840000     -3.5406720E-09
   3.900000     -3.0319101E-09
   3.960000     -2.4095563E-09
   4.020000     -1.6715268E-09
   4.080000     -8.1851947E-10
   4.140000      1.4052048E-10
   4.200000      1.1857705E-09
   4.260000      2.2881694E-09
   4.320000      3.4148744E-09
   4.380000      4.5363837E-09
   4.440000      5.6324074E-09
   4.500000      6.6940942E-09
   4.560000      7.7217948E-09
   4.620000      8.7194589E-09
   4.680000      9.6881836E-09
   4.740000      1.0621751E-08
   4.800000      1.1506052E-08
   4.860000      1.2322582E-08
   4.920000      1.3054387E-08
   4.980000      1.3691781E-08
   5.040000      1.4235294E-08
   5.100000      1.4694411E-08
   5.160000      1.5082586E-08
   5.220000      1.5410508E-08
   5.280000      1.5680474E-08
   5.340000      1.5884295E-08
   5.400000      1.6005828E-08
   5.460000      1.6027386E-08
   5.520000      1.5937726E-08
   5.580000      1.5738603E-08
   5.640000      1.5447419E-08
   5.700000      1.5094825E-08
   5.760000      1.4718052E-08
   5.820000      1.4352191E-08
   5.880000      1.4022344E-08
   5.940000      1.3739124E-08
   6.000000      1.3498664E-08
   6.060000      1.3286689E-08
   6.120000      1.3084808E-08
   6.180000      1.2876693E-08
   6.240000      1.2652112E-08
   6.300000      1.2407821E-08
   6.360000      1.2145705E-08
   6.420000      1.1869550E-08
   6.480000      1.1582208E-08
   6.540000      1.1284611E-08
   6.600000      1.0976973E-08
   6.660000      1.0661392E-08
   6.720000      1.0344073E-08
   6.780000      1.0035364E-08
   6.840000      9.7465485E-09
   6.900000      9.4840109E-09
   6.960000      9.2429921E-09
   7.020000      9.0041157E-09
   7.080000      8.7353982E-09
   7.140000      8.4004546E-09
   7.200000      7.9708800E-09
   7.260000      7.4383824E-09
   7.320000      6.8215340E-09
   7.380000      6.1635412E-09
   7.440000      5.5208673E-09
   7.500000      4.9463793E-09
   7.560000      4.4732511E-09
   7.620000      4.1057970E-09
   7.680000      3.8206287E-09
   7.740000      3.5772407E-09
   7.800000      3.3332457E-09
   7.860000      3.0578549E-09
   7.920000      2.7384601E-09
   7.980000      2.3787143E-09
   8.040000      1.9905255E-09
   8.100000      1.5849282E-09
   8.160000      1.1667657E-09
   8.220000      7.3560175E-10
   8.280000      2.9167660E-10
   8.340000     -1.5713238E-10
   8.400000     -5.9208016E-10
   8.460000     -9.8695230E-10
   8.520000     -1.3175838E-09
   8.580000     -1.5736361E-09
   8.640000     -1.7671661E-09
   8.700000     -1.9334743E-09
   8.760000     -2.1228772E-09
   8.820000     -2.3860189E-09
   8.880000     -2.7583003E-09
   8.940000     -3.2495879E-09
   9.000000     -3.8432679E-09
   9.060000     -4.5048187E-09
   9.120000     -5.1961764E-09
   9.180000     -5.8899383E-09
   9.240000     -6.5779573E-09
   9.300000     -7.2716597E-09
   9.360000     -7.9952409E-09
   9.420000     -8.7757384E-09
   9.480000     -9.6347215E-09
   9.540000     -1.0584648E-08
   9.600000     -1.1629981E-08
   9.660000     -1.2770500E-08
   9.720000     -1.4003377E-08
   9.780000     -1.5321717E-08
   9.840000     -1.6709871E-08
   9.900000     -1.8138103E-08
   9.960000     -1.9560122E-08
   10.02000     -2.0915799E-08
   10.08000     -2.2139051E-08
   10.14000     -2.3168491E-08
   10.20000     -2.3957293E-08
   10.26000     -2.4479462E-08
   10.32000     -2.4731508E-08
   10.38000     -2.4730671E-08
   10.44000     -2.4511799E-08
   10.50000     -2.4124690E-08
   10.56000     -2.3632387E-08
   10.62000     -2.3109394E-08
   10.68000     -2.2638234E-08
   10.74000     -2.2303288E-08
   10.80000     -2.2182192E-08
   10.86000     -2.2336508E-08
   10.92000     -2.2804024E-08
   10.98000     -2.3594602E-08
   11.04000     -2.4690314E-08
   11.10000     -2.6049246E-08
   11.16000     -2.7611481E-08
   11.22000     -2.9305721E-08
   11.28000     -3.1055588E-08
   11.34000     -3.2785394E-08
   11.40000     -3.4425433E-08
   11.46000     -3.5916845E-08
   11.52000     -3.7215493E-08
   11.58000     -3.8293884E-08
   11.64000     -3.9140392E-08
   11.70000     -3.9755754E-08
   11.76000     -4.0147906E-08
   11.82000     -4.0326917E-08
   11.88000     -4.0301870E-08
   11.94000     -4.0080387E-08
   12.00000     -3.9670116E-08
   12.06000     -3.9080355E-08
   12.12000     -3.8321719E-08
   12.18000     -3.7403048E-08
   12.24000     -3.6326590E-08
   12.30000     -3.5084163E-08
   12.36000     -3.3657560E-08
   12.42000     -3.2024683E-08
   12.48000     -3.0170600E-08
   12.54000     -2.8099496E-08
   12.60000     -2.5842542E-08
   12.66000     -2.3457661E-08
   12.72000     -2.1020560E-08
   12.78000     -1.8610249E-08
   12.84000     -1.6294869E-08
   12.90000     -1.4123360E-08
   12.96000     -1.2125596E-08
   13.02000     -1.0319132E-08
   13.08000     -8.7175129E-09
   13.14000     -7.3344997E-09
   13.20000     -6.1813306E-09
   13.26000     -5.2585780E-09
   13.32000     -4.5478057E-09
   13.38000     -4.0089816E-09
   13.44000     -3.5868153E-09
   13.50000     -3.2243190E-09
   13.56000     -2.8776315E-09
   13.62000     -2.5249522E-09
   13.68000     -2.1651163E-09
   13.74000     -1.8065553E-09
   13.80000     -1.4523605E-09
   13.86000     -1.0891585E-09
   13.92000     -6.8546729E-10
   13.98000     -2.0018932E-10
   14.04000      4.0333847E-10
   14.10000      1.1449962E-09
   14.16000      2.0232520E-09
   14.22000      3.0199070E-09
   14.28000      4.1108472E-09
   14.34000      5.2764411E-09
   14.40000      6.5057946E-09
   14.46000      7.7927558E-09
   14.52000      9.1262278E-09
   14.58000      1.0480576E-08
   14.64000      1.1811991E-08
   14.70000      1.3063786E-08
   14.76000      1.4179288E-08
   14.82000      1.5117354E-08
   14.88000      1.5864350E-08
   14.94000      1.6437905E-08
   15.00000      1.6881028E-08
   15.06000      1.7248835E-08
   15.12000      1.7592521E-08
   15.18000      1.7945775E-08
   15.24000      1.8317662E-08
   15.30000      1.8693596E-08
   15.36000      1.9043449E-08
   15.42000      1.9333772E-08
   15.48000      1.9540069E-08
   15.54000      1.9655326E-08
   15.60000      1.9692500E-08
   15.66000      1.9680751E-08
   15.72000      1.9657518E-08
   15.78000      1.9659698E-08
   15.84000      1.9717234E-08
   15.90000      1.9850807E-08
   15.96000      2.0073276E-08
   16.02000      2.0392621E-08
   16.08000      2.0813644E-08
   16.14000      2.1336762E-08
   16.20000      2.1954195E-08
   16.26000      2.2645867E-08
   16.32000      2.3378037E-08
   16.38000      2.4106864E-08
   16.44000      2.4786830E-08
   16.50000      2.5381670E-08
   16.56000      2.5873906E-08
   16.62000      2.6269321E-08
   16.68000      2.6594524E-08
   16.74000      2.6888317E-08
   16.80000      2.7189975E-08
   16.86000      2.7528595E-08
   16.92000      2.7917180E-08
   16.98000      2.8353204E-08
   17.04000      2.8824836E-08
   17.10000      2.9319811E-08
   17.16000      2.9832904E-08
   17.22000      3.0368625E-08
   17.28000      3.0937716E-08
   17.34000      3.1548826E-08
   17.40000      3.2198923E-08
   17.46000      3.2867050E-08
   17.52000      3.3514844E-08
   17.58000      3.4094761E-08
   17.64000      3.4563641E-08
   17.70000      3.4896754E-08
   17.76000      3.5096733E-08
   17.82000      3.5193395E-08
   17.88000      3.5233661E-08
   17.94000      3.5264456E-08
   18.00000      3.5314422E-08
   18.06000      3.5380822E-08
   18.12000      3.5426478E-08
   18.18000      3.5388233E-08
   18.24000      3.5194297E-08
   18.30000      3.4784904E-08
   18.36000      3.4129489E-08
   18.42000      3.3234844E-08
   18.48000      3.2141767E-08
   18.54000      3.0911767E-08
   18.60000      2.9608536E-08
   18.66000      2.8280645E-08
   18.72000      2.6951161E-08
   18.78000      2.5617274E-08
   18.84000      2.4259480E-08
   18.90000      2.2856538E-08
   18.96000      2.1400520E-08
   19.02000      1.9906546E-08
   19.08000      1.8413710E-08
   19.14000      1.6976879E-08
   19.20000      1.5652230E-08
   19.26000      1.4481460E-08
   19.32000      1.3480021E-08
   19.38000      1.2633196E-08
   19.44000      1.1901013E-08
   19.50000      1.1229876E-08
   19.56000      1.0566491E-08
   19.62000      9.8692041E-09
   19.68000      9.1132426E-09
   19.74000      8.2891045E-09
   19.80000      7.3961521E-09
   19.86000      6.4351262E-09
   19.92000      5.4031384E-09
   19.98000      4.2928989E-09
   20.04000      3.0955811E-09
   20.10000      1.8050010E-09
   20.16000      4.2059906E-10
   20.22000     -1.0520975E-09
   20.28000     -2.6030960E-09
   20.34000     -4.2200723E-09
   20.40000     -5.8895946E-09
   20.46000     -7.5972784E-09
   20.52000     -9.3281010E-09
   20.58000     -1.1068583E-08
   20.64000     -1.2811444E-08
   20.70000     -1.4561355E-08
   20.76000     -1.6338539E-08
   20.82000     -1.8176763E-08
   20.88000     -2.0114161E-08
   20.94000     -2.2178728E-08
   21.00000     -2.4373554E-08
   21.06000     -2.6668165E-08
   21.12000     -2.9000685E-08
   21.18000     -3.1291371E-08
   21.24000     -3.3463195E-08
   21.30000     -3.5461778E-08
   21.36000     -3.7266961E-08
   21.42000     -3.8891496E-08
   21.48000     -4.0367627E-08
   21.54000     -4.1727358E-08
   21.60000     -4.2984535E-08
   21.66000     -4.4125780E-08
   21.72000     -4.5113278E-08
   21.78000     -4.5897405E-08
   21.84000     -4.6433474E-08
   21.90000     -4.6695909E-08
   21.96000     -4.6685237E-08
   22.02000     -4.6426905E-08
   22.08000     -4.5964477E-08
   22.14000     -4.5351317E-08
   22.20000     -4.4644178E-08
   22.26000     -4.3899732E-08
   22.32000     -4.3172683E-08
   22.38000     -4.2512958E-08
   22.44000     -4.1960345E-08
   22.50000     -4.1537216E-08
   22.56000     -4.1241989E-08
   22.62000     -4.1046835E-08
   22.68000     -4.0901771E-08
   22.74000     -4.0744528E-08
   22.80000     -4.0512827E-08
   22.86000     -4.0154749E-08
   22.92000     -3.9633928E-08
   22.98000     -3.8929432E-08
   23.04000     -3.8032958E-08
   23.10000     -3.6947363E-08
   23.16000     -3.5689126E-08
   23.22000     -3.4294214E-08
   23.28000     -3.2823298E-08
   23.34000     -3.1361363E-08
   23.40000     -3.0008213E-08
   23.46000     -2.8860843E-08
   23.52000     -2.7992931E-08
   23.58000     -2.7439075E-08
   23.64000     -2.7190083E-08
   23.70000     -2.7201253E-08
   23.76000     -2.7410190E-08
   23.82000     -2.7757045E-08
   23.88000     -2.8199596E-08
   23.94000     -2.8718629E-08
   24.00000     -2.9313627E-08
   24.06000     -2.9992627E-08
   24.12000     -3.0761598E-08
   24.18000     -3.1617379E-08
   24.24000     -3.2545518E-08
   24.30000     -3.3521808E-08
   24.36000     -3.4515146E-08
   24.42000     -3.5490114E-08
   24.48000     -3.6408856E-08
   24.54000     -3.7233150E-08
   24.60000     -3.7927496E-08
   24.66000     -3.8463252E-08
   24.72000     -3.8822812E-08
   24.78000     -3.9002281E-08
   24.84000     -3.9011642E-08
   24.90000     -3.8872251E-08
   24.96000     -3.8612548E-08
   25.02000     -3.8263149E-08
   25.08000     -3.7852271E-08
   25.14000     -3.7401698E-08
   25.20000     -3.6923371E-08
   25.26000     -3.6416985E-08
   25.32000     -3.5869419E-08
   25.38000     -3.5257337E-08
   25.44000     -3.4553665E-08
   25.50000     -3.3737404E-08
   25.56000     -3.2804284E-08
   25.62000     -3.1774693E-08
   25.68000     -3.0695226E-08
   25.74000     -2.9632162E-08
   25.80000     -2.8657945E-08
   25.86000     -2.7834675E-08
   25.92000     -2.7200121E-08
   25.98000     -2.6761164E-08
   26.04000     -2.6496719E-08
   26.10000     -2.6368570E-08
   26.16000     -2.6335263E-08
   26.22000     -2.6363191E-08
   26.28000     -2.6430371E-08
   26.34000     -2.6521951E-08
   26.40000     -2.6620333E-08
   26.46000     -2.6695428E-08
   26.52000     -2.6700624E-08
   26.58000     -2.6577466E-08
   26.64000     -2.6268220E-08
   26.70000     -2.5731758E-08
   26.76000     -2.4956687E-08
   26.82000     -2.3966569E-08
   26.88000     -2.2815279E-08
   26.94000     -2.1574435E-08
   27.00000     -2.0317596E-08
   27.06000     -1.9106841E-08
   27.12000     -1.7985645E-08
   27.18000     -1.6979198E-08
   27.24000     -1.6100167E-08
   27.30000     -1.5356164E-08
   27.36000     -1.4755157E-08
   27.42000     -1.4306631E-08
   27.48000     -1.4018638E-08
   27.54000     -1.3892839E-08
   27.60000     -1.3920422E-08
   27.66000     -1.4081286E-08
   27.72000     -1.4347295E-08
   27.78000     -1.4688626E-08
   27.84000     -1.5080920E-08
   27.90000     -1.5510611E-08
   27.96000     -1.5976530E-08
   28.02000     -1.6487185E-08
   28.08000     -1.7054782E-08
   28.14000     -1.7688087E-08
   28.20000     -1.8386665E-08
   28.26000     -1.9138547E-08
   28.32000     -1.9922140E-08
   28.38000     -2.0711724E-08
   28.44000     -2.1484473E-08
   28.50000     -2.2226356E-08
   28.56000     -2.2934548E-08
   28.62000     -2.3615240E-08
   28.68000     -2.4277554E-08
   28.74000     -2.4925844E-08
   28.80000     -2.5553518E-08
   28.86000     -2.6140993E-08
   28.92000     -2.6658940E-08
   28.98000     -2.7075775E-08
   29.04000     -2.7366628E-08
   29.10000     -2.7520420E-08
   29.16000     -2.7542287E-08
   29.22000     -2.7450616E-08
   29.28000     -2.7270007E-08
   29.34000     -2.7023200E-08
   29.40000     -2.6725301E-08
   29.46000     -2.6382576E-08
   29.52000     -2.5996020E-08
   29.58000     -2.5567880E-08
   29.64000     -2.5108031E-08
   29.70000     -2.4637226E-08
   29.76000     -2.4185733E-08
   29.82000     -2.3787861E-08
   29.88000     -2.3474627E-08
   29.94000     -2.3267338E-08
   30.00000     -2.3174207E-08
   30.06000     -2.3190356E-08
   30.12000     -2.3300188E-08
   30.18000     -2.3480270E-08
   30.24000     -2.3701499E-08
   30.30000     -2.3930442E-08
   30.36000     -2.4130950E-08
   30.42000     -2.4267322E-08
   30.48000     -2.4309301E-08
   30.54000     -2.4237787E-08
   30.60000     -2.4048967E-08
   30.66000     -2.3754714E-08
   30.72000     -2.3378535E-08
   30.78000     -2.2948432E-08
   30.84000     -2.2489534E-08
   30.90000     -2.2019451E-08
   30.96000     -2.1547914E-08
   31.02000     -2.1079938E-08
   31.08000     -2.0620041E-08
   31.14000     -2.0174594E-08
   31.20000     -1.9750590E-08
   31.26000     -1.9351260E-08
   31.32000     -1.8970836E-08
   31.38000     -1.8591475E-08
   31.44000     -1.8184515E-08
   31.50000     -1.7716312E-08
   31.56000     -1.7156847E-08
   31.62000     -1.6488015E-08
   31.68000     -1.5708524E-08
   31.74000     -1.4833594E-08
   31.80000     -1.3889591E-08
   31.86000     -1.2905666E-08
   31.92000     -1.1905465E-08
   31.98000     -1.0902013E-08
   32.04000     -9.8975939E-09
   32.10000     -8.8886418E-09
   32.16000     -7.8736520E-09
   32.22000     -6.8609962E-09
   32.28000     -5.8734044E-09
   32.34000     -4.9470961E-09
   32.40000     -4.1254427E-09
   32.46000     -3.4490524E-09
   32.52000     -2.9454696E-09
   32.58000     -2.6218845E-09
   32.64000     -2.4633187E-09
   32.70000     -2.4370337E-09
   32.76000     -2.5019882E-09
   32.82000     -2.6205516E-09
   32.88000     -2.7688818E-09
   32.94000     -2.9425520E-09
   33.00000     -3.1553278E-09
   33.06000     -3.4311201E-09
   33.12000     -3.7915453E-09
   33.18000     -4.2433896E-09
   33.24000     -4.7707500E-09
   33.30000     -5.3352998E-09
   33.36000     -5.8852558E-09
   33.42000     -6.3702141E-09
   33.48000     -6.7565060E-09
   33.54000     -7.0372717E-09
   33.60000     -7.2333459E-09
   33.66000     -7.3846422E-09
   33.72000     -7.5354265E-09
   33.78000     -7.7191391E-09
   33.84000     -7.9483273E-09
   33.90000     -8.2129414E-09
   33.96000     -8.4868592E-09
   34.02000     -8.7394625E-09
   34.08000     -8.9476035E-09
   34.14000     -9.1036956E-09
   34.20000     -9.2175201E-09
   34.26000     -9.3117576E-09
   34.32000     -9.4133021E-09
   34.38000     -9.5435473E-09
   34.44000     -9.7109112E-09
   34.50000     -9.9080051E-09
   34.56000     -1.0114375E-08
   34.62000     -1.0304053E-08
   34.68000     -1.0455464E-08
   34.74000     -1.0560276E-08
   34.80000     -1.0627698E-08
   34.86000     -1.0682029E-08
   34.92000     -1.0753544E-08
   34.98000     -1.0865498E-08
   35.04000     -1.1021995E-08
   35.10000     -1.1201878E-08
   35.16000     -1.1362064E-08
   35.22000     -1.1450400E-08
   35.28000     -1.1424262E-08
   35.34000     -1.1268355E-08
   35.40000     -1.1004722E-08
   35.46000     -1.0690322E-08
   35.52000     -1.0402053E-08
   35.58000     -1.0214021E-08
   35.64000     -1.0175357E-08
   35.70000     -1.0297094E-08
   35.76000     -1.0553500E-08
   35.82000     -1.0897505E-08
   35.88000     -1.1283993E-08
   35.94000     -1.1691189E-08
   36.00000     -1.2130895E-08
   36.06000     -1.2642958E-08
   36.12000     -1.3276279E-08
   36.18000     -1.4064727E-08
   36.24000     -1.5008862E-08
   36.30000     -1.6071922E-08
   36.36000     -1.7192194E-08
   36.42000     -1.8306491E-08
   36.48000     -1.9374454E-08
   36.54000     -2.0393090E-08
   36.60000     -2.1395365E-08
   36.66000     -2.2433825E-08
   36.72000     -2.3556540E-08
   36.78000     -2.4785466E-08
   36.84000     -2.6105679E-08
   36.90000     -2.7468701E-08
   36.96000     -2.8807266E-08
   37.02000     -3.0054785E-08
   37.08000     -3.1161928E-08
   37.14000     -3.2105149E-08
   37.20000     -3.2885971E-08
   37.26000     -3.3523307E-08
   37.32000     -3.4043310E-08
   37.38000     -3.4470819E-08
   37.44000     -3.4825106E-08
   37.50000     -3.5120223E-08
   37.56000     -3.5368437E-08
   37.62000     -3.5584232E-08
   37.68000     -3.5786268E-08
   37.74000     -3.5995633E-08
   37.80000     -3.6230357E-08
   37.86000     -3.6497841E-08
   37.92000     -3.6788272E-08
   37.98000     -3.7072333E-08
   38.04000     -3.7305480E-08
   38.10000     -3.7438685E-08
   38.16000     -3.7432766E-08
   38.22000     -3.7271437E-08
   38.28000     -3.6967826E-08
   38.34000     -3.6561215E-08
   38.40000     -3.6104222E-08
   38.46000     -3.5644440E-08
   38.52000     -3.5207137E-08
   38.58000     -3.4785597E-08
   38.64000     -3.4343067E-08
   38.70000     -3.3825884E-08
   38.76000     -3.3182960E-08
   38.82000     -3.2384186E-08
   38.88000     -3.1430691E-08
   38.94000     -3.0353142E-08
   39.00000     -2.9199231E-08
   39.06000     -2.8015975E-08
   39.12000     -2.6834487E-08
   39.18000     -2.5663550E-08
   39.24000     -2.4494160E-08
   39.30000     -2.3311967E-08
   39.36000     -2.2110884E-08
   39.42000     -2.0900664E-08
   39.48000     -1.9704467E-08
   39.54000     -1.8547599E-08
   39.60000     -1.7443444E-08
   39.66000     -1.6384295E-08
   39.72000     -1.5342632E-08
   39.78000     -1.4283235E-08
   39.84000     -1.3180977E-08
   39.90000     -1.2035957E-08
   39.96000     -1.0878562E-08
   40.02000     -9.7616040E-09
   40.08000     -8.7426626E-09
   40.14000     -7.8642932E-09
   40.20000     -7.1405779E-09
   40.26000     -6.5554739E-09
   40.32000     -6.0729008E-09
   40.38000     -5.6533334E-09
   40.44000     -5.2690874E-09
   40.50000     -4.9116240E-09
   40.56000     -4.5882391E-09
   40.62000     -4.3105657E-09
   40.68000     -4.0810160E-09
   40.74000     -3.8841215E-09
   40.80000     -3.6874035E-09
   40.86000     -3.4520871E-09
   40.92000     -3.1494680E-09
   40.98000     -2.7760183E-09
   41.04000     -2.3604836E-09
   41.10000     -1.9592206E-09
   41.16000     -1.6406976E-09
   41.22000     -1.4645404E-09
   41.28000     -1.4629057E-09
   41.34000     -1.6313083E-09
   41.40000     -1.9324733E-09
   41.46000     -2.3117057E-09
   41.52000     -2.7177078E-09
   41.58000     -3.1205831E-09
   41.64000     -3.5198497E-09
   41.70000     -3.9393049E-09
   41.76000     -4.4109103E-09
   41.82000     -4.9544511E-09
   41.88000     -5.5616716E-09
   41.94000     -6.1921086E-09
   42.00000     -6.7833352E-09
   42.06000     -7.2725204E-09
   42.12000     -7.6212663E-09
   42.18000     -7.8336777E-09
   42.24000     -7.9595521E-09
   42.30000     -8.0799483E-09
   42.36000     -8.2793408E-09
   42.42000     -8.6143208E-09
   42.48000     -9.0908863E-09
   42.54000     -9.6596242E-09
   42.60000     -1.0231237E-08
   42.66000     -1.0706615E-08
   42.72000     -1.1009369E-08
   42.78000     -1.1107295E-08
   42.84000     -1.1013484E-08
   42.90000     -1.0766149E-08
   42.96000     -1.0395262E-08
   43.02000     -9.8898623E-09
   43.08000     -9.1797219E-09
   43.14000     -8.1390752E-09
   43.20000     -6.6106103E-09
   43.26000     -4.4391606E-09
   43.32000     -1.5002021E-09
   43.38000      2.2897346E-09
   43.44000      6.9861690E-09
   43.50000      1.2649148E-08
   43.56000      1.9383394E-08
   43.62000      2.7372009E-08
   43.68000      3.6893315E-08
   43.74000      4.8318356E-08
   43.80000      6.2094777E-08
   43.86000      7.8728505E-08
   43.92000      9.8774542E-08
   43.98000      1.2284370E-07
   44.04000      1.5162503E-07
   44.10000      1.8591803E-07
   44.16000      2.2666596E-07
   44.22000      2.7498436E-07
   44.28000      3.3218265E-07
   44.34000      3.9978210E-07
   44.40000      4.7953642E-07
   44.46000      5.7345972E-07
   44.52000      6.8386453E-07
   44.58000      8.1340755E-07
   44.64000      9.6514032E-07
   44.70000      1.1425594E-06
   44.76000      1.3496561E-06
   44.82000      1.5909651E-06
   44.88000      1.8716171E-06
   44.94000      2.1973979E-06
   45.00000      2.5748150E-06
   45.06000      3.0111721E-06
   45.12000      3.5146495E-06
   45.18000      4.0943878E-06
   45.24000      4.7605777E-06
   45.30000      5.5245519E-06
   45.36000      6.3988864E-06
   45.42000      7.3975079E-06
   45.48000      8.5358042E-06
   45.54000      9.8307437E-06
   45.60000      1.1300983E-05
   45.66000      1.2966972E-05
   45.72000      1.4851057E-05
   45.78000      1.6977576E-05
   45.84000      1.9372934E-05
   45.90000      2.2065706E-05
   45.96000      2.5086705E-05
   46.02000      2.8469058E-05
   46.08000      3.2248259E-05
   46.14000      3.6462236E-05
   46.20000      4.1151361E-05
   46.26000      4.6358513E-05
   46.32000      5.2129028E-05
   46.38000      5.8510694E-05
   46.44000      6.5553671E-05
   46.50000      7.3310410E-05
   46.56000      8.1835504E-05
   46.62000      9.1185531E-05
   46.68000      1.0141881E-04
   46.74000      1.1259520E-04
   46.80000      1.2477580E-04
   46.86000      1.3802266E-04
   46.92000      1.5239842E-04
   46.98000      1.6796595E-04
   47.04000      1.8478782E-04
   47.10000      2.0292596E-04
   47.16000      2.2244103E-04
   47.22000      2.4339186E-04
   47.28000      2.6583494E-04
   47.34000      2.8982369E-04
   47.40000      3.1540784E-04
   47.46000      3.4263288E-04
   47.52000      3.7153927E-04
   47.58000      4.0216176E-04
   47.64000      4.3452877E-04
   47.70000      4.6866157E-04
   47.76000      5.0457381E-04
   47.82000      5.4227072E-04
   47.88000      5.8174855E-04
   47.94000      6.2299403E-04
   48.00000      6.6598400E-04
   48.06000      7.1068469E-04
   48.12000      7.5705192E-04
   48.18000      8.0503034E-04
   48.24000      8.5455342E-04
   48.30000      9.0554345E-04
   48.36000      9.5791172E-04
   48.42000      1.0115586E-03
   48.48000      1.0663731E-03
   48.54000      1.1222346E-03
   48.60000      1.1790127E-03
   48.66000      1.2365676E-03
   48.72000      1.2947513E-03
   48.78000      1.3534088E-03
   48.84000      1.4123789E-03
   48.90000      1.4714950E-03
   48.96000      1.5305867E-03
   49.02000      1.5894814E-03
   49.08000      1.6480047E-03
   49.14000      1.7059839E-03
   49.20000      1.7632472E-03
   49.26000      1.8196267E-03
   49.32000      1.8749599E-03
   49.38000      1.9290908E-03
   49.44000      1.9818714E-03
   49.50000      2.0331643E-03
   49.56000      2.0828424E-03
   49.62000      2.1307913E-03
   49.68000      2.1769111E-03
   49.74000      2.2211156E-03
   49.80000      2.2633357E-03
   49.86000      2.3035177E-03
   49.92000      2.3416255E-03
   49.98000      2.3776405E-03
   50.04000      2.4115616E-03
   50.10000      2.4434060E-03
   50.16000      2.4732079E-03
   50.22000      2.5010188E-03
   50.28000      2.5269068E-03
   50.34000      2.5509556E-03
   50.40000      2.5732634E-03
   50.46000      2.5939411E-03
   50.52000      2.6131126E-03
   50.58000      2.6309108E-03
   50.64000      2.6474779E-03
   50.70000      2.6629625E-03
   50.76000      2.6775177E-03
   50.82000      2.6912997E-03
   50.88000      2.7044660E-03
   50.94000      2.7171716E-03
   51.00000      2.7295686E-03
   51.06000      2.7418039E-03
   51.12000      2.7540158E-03
   51.18000      2.7663347E-03
   51.24000      2.7788789E-03
   51.30000      2.7917561E-03
   51.36000      2.8050591E-03
   51.42000      2.8188659E-03
   51.48000      2.8332388E-03
   51.54000      2.8482224E-03
   51.60000      2.8638446E-03
   51.66000      2.8801162E-03
   51.72000      2.8970304E-03
   51.78000      2.9145642E-03
   51.84000      2.9326766E-03
   51.90000      2.9513112E-03
   51.96000      2.9703961E-03
   52.02000      2.9898460E-03
   52.08000      3.0095631E-03
   52.14000      3.0294391E-03
   52.20000      3.0493564E-03
   52.26000      3.0691901E-03
   52.32000      3.0888098E-03
   52.38000      3.1080814E-03
   52.44000      3.1268690E-03
   52.50000      3.1450377E-03
   52.56000      3.1624546E-03
   52.62000      3.1789928E-03
   52.68000      3.1945307E-03
   52.74000      3.2089555E-03
   52.80000      3.2221642E-03
   52.86000      3.2340644E-03
   52.92000      3.2445758E-03
   52.98000      3.2536320E-03
   53.04000      3.2611804E-03
   53.10000      3.2671839E-03
   53.16000      3.2716214E-03
   53.22000      3.2744862E-03
   53.28000      3.2757868E-03
   53.34000      3.2755467E-03
   53.40000      3.2738047E-03
   53.46000      3.2706114E-03
   53.52000      3.2660314E-03
   53.58000      3.2601398E-03
   53.64000      3.2530222E-03
   53.70000      3.2447719E-03
   53.76000      3.2354889E-03
   53.82000      3.2252793E-03
   53.88000      3.2142513E-03
   53.94000      3.2025152E-03
   54.00000      3.1901810E-03
   54.06000      3.1773560E-03
   54.12000      3.1641442E-03
   54.18000      3.1506431E-03
   54.24000      3.1369431E-03
   54.30000      3.1231267E-03
   54.36000      3.1092661E-03
   54.42000      3.0954219E-03
   54.48000      3.0816442E-03
   54.54000      3.0679691E-03
   54.60000      3.0544205E-03
   54.66000      3.0410083E-03
   54.72000      3.0277290E-03
   54.78000      3.0145659E-03
   54.84000      3.0014890E-03
   54.90000      2.9884558E-03
   54.96000      2.9754122E-03
   55.02000      2.9622936E-03
   55.08000      2.9490266E-03
   55.14000      2.9355290E-03
   55.20000      2.9217124E-03
   55.26000      2.9074822E-03
   55.32000      2.8927410E-03
   55.38000      2.8773881E-03
   55.44000      2.8613231E-03
   55.50000      2.8444461E-03
   55.56000      2.8266613E-03