 -0.750000000       0.00000000    
 -0.689999998       0.00000000    
 -0.629999995       0.00000000    
 -0.569999993       0.00000000    
 -0.509999990       0.00000000    
 -0.449999988       9.17496134E-21
 -0.389999986       9.20428295E-20
 -0.330000013       4.47256092E-19
 -0.270000011       1.34944012E-18
 -0.209999993       2.60702452E-18
 -0.150000006       2.44249023E-18
  -9.00000036E-02  -3.27093808E-18
  -2.99999993E-02  -1.92610792E-17
   2.99999993E-02  -4.47697775E-17
   9.00000036E-02  -6.47697904E-17
  0.150000006      -4.57999483E-17
  0.209999993       5.30467420E-17
  0.270000011       2.48657639E-16
  0.330000013       4.91934501E-16
  0.389999986       6.43290924E-16
  0.449999988       4.99431696E-16
  0.509999990      -1.13468931E-16
  0.569999993      -1.20589857E-15
  0.629999995      -2.51713353E-15
  0.689999998      -3.51039782E-15
  0.750000000      -3.51044906E-15
  0.810000002      -1.95177652E-15
  0.870000005       1.35601769E-15
  0.930000007       6.04779068E-15
  0.990000010       1.11581437E-14
   1.04999995       1.51953052E-14
   1.11000001       1.62984030E-14
   1.16999996       1.25047931E-14
   1.23000002       2.24407869E-15
   1.28999996      -1.48267375E-14
   1.35000002      -3.67287750E-14
   1.40999997      -5.82521363E-14
   1.47000003      -7.10003006E-14
   1.52999997      -6.51342925E-14
   1.59000003      -3.29887010E-14
   1.64999998       2.63026939E-14
   1.71000004       1.03069422E-13
   1.76999998       1.76545519E-13
   1.83000004       2.19049740E-13
   1.88999999       2.04654205E-13
   1.95000005       1.19869460E-13
   2.00999999      -2.77038050E-14
   2.06999993      -2.06820102E-13
   2.13000011      -3.68381405E-13
   2.19000006      -4.58783998E-13
   2.25000000      -4.36982319E-13
   2.30999994      -2.89665048E-13
   2.36999989      -3.91819959E-14
   2.43000007       2.58992182E-13
   2.49000001       5.29239738E-13
   2.54999995       6.95979949E-13
   2.60999990       7.05506508E-13
   2.67000008       5.43122567E-13
   2.73000002       2.40075836E-13
   2.78999996      -1.32721796E-13
   2.84999990      -4.83436696E-13
   2.91000009      -7.25531343E-13
   2.97000003      -8.03153171E-13
   3.02999997      -7.06636247E-13
   3.08999991      -4.71962692E-13
   3.15000010      -1.64231652E-13
   3.21000004       1.47615617E-13
   3.26999998       4.12894708E-13
   3.32999992       6.07124214E-13
   3.39000010       7.22006981E-13
   3.45000005       7.44190245E-13
   3.50999999       6.37983319E-13
   3.56999993       3.48062047E-13
   3.63000011      -1.70673900E-13
   3.69000006      -9.04468286E-13
   3.75000000      -1.73627020E-12
   3.80999994      -2.43375437E-12
   3.86999989      -2.68908030E-12
   3.93000007      -2.20866879E-12
   3.99000001      -8.27014184E-13
   4.05000019       1.39723161E-12
   4.11000013       4.14322222E-12
   4.17000008       6.86840168E-12
   4.23000002       8.91727144E-12
   4.28999996       9.66001324E-12
   4.34999990       8.60961649E-12
   4.40999985       5.47477385E-12
   4.46999979       1.32980730E-13
   4.53000021      -7.45676958E-12
   4.59000015      -1.73543922E-11
   4.65000010      -2.96948681E-11
   4.71000004      -4.46560185E-11
   4.76999998      -6.23250826E-11
   4.82999992      -8.24914997E-11
   4.88999987      -1.04427578E-10
   4.94999981      -1.26737329E-10
   5.01000023      -1.47347246E-10
   5.07000017      -1.63682221E-10
   5.13000011      -1.73019876E-10
   5.19000006      -1.72961520E-10
   5.25000000      -1.61915203E-10
   5.30999994      -1.39472559E-10
   5.36999989      -1.06585879E-10
   5.42999983      -6.55092508E-11
   5.48999977      -1.95409054E-11
   5.55000019       2.73403002E-11
   5.61000013       7.08342829E-11
   5.67000008       1.06599847E-10
   5.73000002       1.30446487E-10
   5.78999996       1.38494965E-10
   5.84999990       1.27389432E-10
   5.90999985       9.46138515E-11
   5.96999979       3.88915115E-11
   6.03000021      -3.94302542E-11
   6.09000015      -1.38141054E-10
   6.15000010      -2.53172344E-10
   6.21000004      -3.78860165E-10
   6.26999998      -5.08387665E-10
   6.32999992      -6.34291342E-10
   6.38999987      -7.48942741E-10
   6.44999981      -8.45001846E-10
   6.51000023      -9.15915899E-10
   6.57000017      -9.56547064E-10
   6.63000011      -9.63931712E-10
   6.69000006      -9.38026767E-10
   6.75000000      -8.82172002E-10
   6.80999994      -8.02971689E-10
   6.86999989      -7.09417136E-10
   6.92999983      -6.11314166E-10
   6.98999977      -5.17350940E-10
   7.05000019      -4.33322628E-10
   7.11000013      -3.61040031E-10
   7.17000008      -2.98267189E-10
   7.23000002      -2.39722686E-10
   7.28999996      -1.78863327E-10
   7.34999990      -1.09954199E-10
   7.40999985      -2.98844630E-11
   7.46999979       6.07001810E-11
   7.53000021       1.57169264E-10
   7.59000015       2.51585863E-10
   7.65000010       3.34117678E-10
   7.71000004       3.94888983E-10
   7.76999998       4.25904728E-10
   7.82999992       4.22642421E-10
   7.88999987       3.84933529E-10
   7.94999981       3.16883603E-10
   8.01000023       2.25833838E-10
   8.06999969       1.20691346E-10
   8.13000011       1.02302949E-11
   8.18999958      -9.79609033E-11
   8.25000000      -1.97432765E-10
   8.31000042      -2.81727836E-10
   8.36999989      -3.42641693E-10
   8.43000031      -3.68704511E-10
   8.48999977      -3.44622719E-10
   8.55000019      -2.52000421E-10
   8.60999966      -7.10796699E-11
   8.67000008       2.17180926E-10
   8.72999954       6.29440167E-10
   8.78999996       1.17915844E-09
   8.85000038       1.87658666E-09
   8.90999985       2.72910894E-09
   8.97000027       3.74143116E-09
   9.02999973       4.91531305E-09
   9.09000015       6.24892005E-09
   9.14999962       7.73614062E-09
   9.21000004       9.36620559E-09
   9.27000046       1.11237393E-08
   9.32999992       1.29890481E-08
   9.39000034       1.49383386E-08
   9.44999981       1.69435896E-08
   9.51000023       1.89721341E-08
   9.56999969       2.09862812E-08
   9.63000011       2.29435368E-08
   9.68999958       2.47979024E-08
   9.75000000       2.65023896E-08
   9.81000042       2.80125096E-08
   9.86999989       2.92900211E-08
   9.93000031       3.03059622E-08
   9.98999977       3.10420987E-08
   10.0500002       3.14902664E-08
   10.1099997       3.16497335E-08
   10.1700001       3.15235091E-08
   10.2299995       3.11148654E-08
   10.2900000       3.04254613E-08
   10.3500004       2.94558706E-08
   10.4099998       2.82083743E-08
   10.4700003       2.66910121E-08
   10.5299997       2.49212704E-08
   10.5900002       2.29279991E-08
   10.6499996       2.07507789E-08
   10.7100000       1.84369782E-08
   10.7700005       1.60374753E-08
   10.8299999       1.36022864E-08
   10.8900003       1.11771294E-08
   10.9499998       8.80123352E-09
   11.0100002       6.50624221E-09
   11.0699997       4.31570113E-09
   11.1300001       2.24471819E-09
   11.1899996       2.99653136E-10
   11.2500000      -1.52206481E-09
   11.3100004      -3.23185523E-09
   11.3699999      -4.84957807E-09
   11.4300003      -6.40289333E-09
   11.4899998      -7.92647725E-09
   11.5500002      -9.46100531E-09
   11.6099997      -1.10515490E-08
   11.6700001      -1.27448976E-08
   11.7299995      -1.45854386E-08
   11.7900000      -1.66097038E-08
   11.8500004      -1.88402520E-08
   11.9099998      -2.12800426E-08
   11.9700003      -2.39085871E-08
   12.0299997      -2.66808140E-08
   12.0900002      -2.95289819E-08
   12.1499996      -3.23672324E-08
   12.2100000      -3.50979299E-08
   12.2700005      -3.76187579E-08
   12.3299999      -3.98297963E-08
   12.3900003      -4.16401171E-08
   12.4499998      -4.29737490E-08
   12.5100002      -4.37749677E-08
   12.5699997      -4.40127081E-08
   12.6300001      -4.36836238E-08
   12.6899996      -4.28133227E-08
   12.7500000      -4.14551558E-08
   12.8100004      -3.96863591E-08
   12.8699999      -3.76017439E-08
   12.9300003      -3.53056251E-08
   12.9899998      -3.29029568E-08
   13.0500002      -3.04908312E-08
   13.1099997      -2.81513870E-08
   13.1700001      -2.59467683E-08
   13.2299995      -2.39165292E-08
   13.2900000      -2.20774812E-08
   13.3500004      -2.04258033E-08
   13.4099998      -1.89411047E-08
   13.4700003      -1.75919475E-08
   13.5299997      -1.63422200E-08
   13.5900002      -1.51575072E-08
   13.6499996      -1.40104328E-08
   13.7100000      -1.28841240E-08
   13.7700005      -1.17733094E-08
   13.8299999      -1.06831353E-08
   13.8900003      -9.62633617E-09
   13.9499998      -8.61956995E-09
   14.0100002      -7.67959563E-09
   14.0699997      -6.81954448E-09
   14.1300001      -6.04530337E-09
   14.1899996      -5.35204103E-09
   14.2500000      -4.72137129E-09
   14.3100004      -4.12012557E-09
   14.3699999      -3.50184060E-09
   14.4300003      -2.81158141E-09
   14.4899998      -1.99369743E-09
   14.5500002      -1.00094466E-09
   14.6099997       1.97282884E-10
   14.6700001       1.60978819E-09
   14.7299995       3.22275029E-09
   14.7900000       5.00320940E-09
   14.8500004       6.90559121E-09
   14.9099998       8.87928397E-09
   14.9700003       1.08752403E-08
   15.0299997       1.28501094E-08
   15.0900002       1.47673269E-08
   15.1499996       1.65955907E-08
   15.2100000       1.83060038E-08
   15.2700005       1.98696029E-08
   15.3299999       2.12569145E-08
   15.3900003       2.24403589E-08
   15.4499998       2.33992612E-08
   15.5100002       2.41260452E-08
   15.5699997       2.46314773E-08
   15.6300001       2.49469707E-08
   15.6899996       2.51226293E-08
   15.7500000       2.52209880E-08
   15.8100004       2.53073260E-08
   15.8699999       2.54383092E-08
   15.9300003       2.56509267E-08
   15.9899998       2.59538648E-08
   16.0499992       2.63233204E-08
   16.1100006       2.67048303E-08
   16.1700001       2.70217626E-08
   16.2299995       2.71895750E-08
   16.2900009       2.71331082E-08
   16.3500004       2.68027840E-08
   16.4099998       2.61853579E-08
   16.4699993       2.53061305E-08
   16.5300007       2.42221532E-08
   16.5900002       2.30086279E-08
   16.6499996       2.17428315E-08
   16.7099991       2.04903028E-08
   16.7700005       1.92968095E-08
   16.8299999       1.81875421E-08
   16.8899994       1.71725389E-08
   16.9500008       1.62556066E-08
   17.0100002       1.54432360E-08
   17.0699997       1.47501256E-08
   17.1299992       1.41989593E-08
   17.1900005       1.38138416E-08
   17.2500000       1.36088225E-08
   17.3099995       1.35750451E-08
   17.3700008       1.36712677E-08
   17.4300003       1.38223895E-08
   17.4899998       1.39286369E-08
   17.5499992       1.38848186E-08
   17.6100006       1.36053746E-08
   17.6700001       1.30483135E-08
   17.7299995       1.22305899E-08
   17.7900009       1.12293366E-08
   17.8500004       1.01671986E-08
   17.9099998       9.18454202E-09
   17.9699993       8.40526226E-09
   18.0300007       7.90511923E-09
   18.0900002       7.69134623E-09
   18.1499996       7.69971908E-09
   18.2099991       7.81077780E-09
   18.2700005       7.88160559E-09
   18.3299999       7.78479059E-09
   18.3899994       7.44359019E-09
   18.4500008       6.85285251E-09
   18.5100002       6.07917272E-09
   18.5699997       5.24008303E-09
   18.6299992       4.46870940E-09
   18.6900005       3.87503052E-09
   18.7500000       3.51591156E-09
   18.8099995       3.38307315E-09
   18.8700008       3.41221140E-09
   18.9300003       3.50965834E-09
   18.9899998       3.58755758E-09
   19.0499992       3.59610364E-09
   19.1100006       3.54251539E-09
   19.1700001       3.49058915E-09
   19.2299995       3.54057605E-09
   19.2900009       3.79521126E-09
   19.3500004       4.32221858E-09
   19.4099998       5.12527842E-09
   19.4699993       6.13342888E-09
   19.5300007       7.21358662E-09
   19.5900002       8.20357915E-09
   19.6499996       8.95617713E-09
   19.7099991       9.38048839E-09
   19.7700005       9.46739753E-09
   19.8299999       9.29060118E-09
   19.8899994       8.98257735E-09
   19.9500008       8.69283934E-09
   20.0100002       8.54129301E-09
   20.0699997       8.58076898E-09
   20.1299992       8.77962147E-09
   20.1900005       9.02904329E-09
   20.2500000       9.17250631E-09
   20.3099995       9.04853525E-09
   20.3700008       8.53451976E-09
   20.4300003       7.57917551E-09
   20.4899998       6.21455198E-09
   20.5499992       4.54430360E-09
   20.6100006       2.71187695E-09
   20.6700001       8.58254301E-10
   20.7299995      -9.17797116E-10
   20.7900009      -2.58476551E-09
   20.8500004      -4.18118740E-09
   20.9099998      -5.79590465E-09
   20.9699993      -7.53289608E-09
   21.0300007      -9.47275325E-09
   21.0900002      -1.16438024E-08
   21.1499996      -1.40123637E-08
   21.2099991      -1.64950702E-08
   21.2700005      -1.89887004E-08
   21.3299999      -2.14070752E-08
   21.3899994      -2.37120918E-08
   21.4500008      -2.59278039E-08
   21.5100002      -2.81319696E-08
   21.5699997      -3.04270671E-08
   21.6299992      -3.29001182E-08
   21.6900005      -3.55850318E-08
   21.7500000      -3.84411614E-08
   21.8099995      -4.13567101E-08
   21.8700008      -4.41773338E-08
   21.9300003      -4.67514063E-08
   21.9899998      -4.89770819E-08
   22.0499992      -5.08352649E-08
   22.1100006      -5.23969064E-08
   22.1700001      -5.38016103E-08
   22.2299995      -5.52140804E-08
   22.2900009      -5.67721337E-08
   22.3500004      -5.85426356E-08
   22.4099998      -6.04989339E-08
   22.4699993      -6.25262331E-08
   22.5300007      -6.44527418E-08
   22.5900002      -6.60962840E-08
   22.6499996      -6.73120226E-08
   22.7099991      -6.80265160E-08
   22.7700005      -6.82485251E-08
   22.8299999      -6.80540424E-08
   22.8899994      -6.75515892E-08
   22.9500008      -6.68400162E-08
   23.0100002      -6.59732606E-08
   23.0699997      -6.49440679E-08
   23.1299992      -6.36918074E-08
   23.1900005      -6.21311642E-08
   23.2500000      -6.01910699E-08
   23.3099995      -5.78499026E-08
   23.3700008      -5.51540928E-08
   23.4300003      -5.22136858E-08
   23.4899998      -4.91762933E-08
   23.5499992      -4.61883332E-08
   23.6100006      -4.33568346E-08
   23.6700001      -4.07241849E-08
   23.7299995      -3.82638738E-08
   23.7900009      -3.58977879E-08
   23.8500004      -3.35289094E-08
   23.9099998      -3.10785353E-08
   23.9699993      -2.85163431E-08
   24.0300007      -2.58744972E-08
   24.0900002      -2.32423041E-08
   24.1499996      -2.07439239E-08
   24.2099991      -1.85064142E-08
   24.2700005      -1.66276681E-08
   24.3299999      -1.51531374E-08
   24.3899994      -1.40672327E-08
   24.4500008      -1.33009586E-08
   24.5100002      -1.27529578E-08
   24.5699997      -1.23180195E-08
   24.6299992      -1.19155876E-08
   24.6900005      -1.15113030E-08
   24.7500000      -1.11265281E-08
   24.8099995      -1.08337987E-08
   24.8700008      -1.07393712E-08
   24.9300003      -1.09570166E-08
   24.9899998      -1.15793082E-08
   25.0499992      -1.26534845E-08
   25.1100006      -1.41681173E-08
   25.1700001      -1.60544538E-08
   25.2299995      -1.82026714E-08
   25.2900009      -2.04892601E-08
   25.3500004      -2.28084858E-08
   25.4099998      -2.50992471E-08
   25.4699993      -2.73595706E-08
   25.5300007      -2.96441254E-08
   25.5900002      -3.20449693E-08
   25.6499996      -3.46606619E-08
   25.7099991      -3.75625291E-08
   25.7700005      -4.07680112E-08
   25.8299999      -4.42290364E-08
   25.8899994      -4.78391335E-08
   25.9500008      -5.14574054E-08
   26.0100002      -5.49423724E-08
   26.0699997      -5.81857620E-08
   26.1299992      -6.11363049E-08
   26.1900005      -6.38065956E-08
   26.2500000      -6.62614212E-08
   26.3099995      -6.85914969E-08
   26.3700008      -7.08811356E-08
   26.4300003      -7.31798480E-08
   26.4899998      -7.54866107E-08
   26.5499992      -7.77509470E-08
   26.6100006      -7.98895599E-08
   26.6700001      -8.18122743E-08
   26.7299995      -8.34481710E-08
   26.7900009      -8.47633146E-08
   26.8500004      -8.57645901E-08
   26.9099998      -8.64892726E-08
   26.9699993      -8.69847057E-08
   27.0300007      -8.72857768E-08
   27.0900002      -8.73982842E-08
   27.1499996      -8.72940547E-08
   27.2099991      -8.69194849E-08
   27.2700005      -8.62146265E-08
   27.3299999      -8.51364987E-08
   27.3899994      -8.36787848E-08
   27.4500008      -8.18813817E-08
   27.5100002      -7.98265134E-08
   27.5699997      -7.76221398E-08
   27.6299992      -7.53774998E-08
   27.6900005      -7.31779792E-08
   27.7500000      -7.10666370E-08
   27.8099995      -6.90377391E-08
   27.8700008      -6.70440556E-08
   27.9300003      -6.50158043E-08
   27.9899998      -6.28856469E-08
   28.0499992      -6.06125852E-08
   28.1100006      -5.81979904E-08
   28.1700001      -5.56890605E-08
   28.2299995      -5.31687014E-08
   28.2900009      -5.07345845E-08
   28.3500004      -4.84734706E-08
   28.4099998      -4.64386041E-08
   28.4699993      -4.46373072E-08
   28.5300007      -4.30329372E-08
   28.5900002      -4.15609094E-08
   28.6499996      -4.01534344E-08
   28.7099991      -3.87646217E-08
   28.7700005      -3.73868687E-08
   28.8299999      -3.60526897E-08
   28.8899994      -3.48212481E-08
   28.9500008      -3.37546915E-08
   29.0100002      -3.28931193E-08
   29.0699997      -3.22375513E-08
   29.1299992      -3.17469500E-08
   29.1900005      -3.13499875E-08
   29.2500000      -3.09667101E-08
   29.3099995      -3.05317940E-08
   29.3700008      -3.00109058E-08
   29.4300003      -2.94046192E-08
   29.4899998      -2.87391675E-08
   29.5499992      -2.80481824E-08
   29.6100006      -2.73527032E-08
   29.6700001      -2.66473386E-08
   29.7299995      -2.58980286E-08
   29.7900009      -2.50526817E-08
   29.8500004      -2.40610056E-08
   29.9099998      -2.28961721E-08
   29.9699993      -2.15698126E-08
   30.0300007      -2.01338217E-08
   30.0900002      -1.86671567E-08
   30.1499996      -1.72515318E-08
   30.2099991      -1.59444813E-08
   30.2700005      -1.47597072E-08
   30.3299999      -1.36622349E-08
   30.3899994      -1.25804345E-08
   30.4500008      -1.14305374E-08
   30.5100002      -1.01446274E-08
   30.5699997      -8.69196182E-09
   30.6299992      -7.08646697E-09
   30.6900005      -5.37885780E-09
   30.7500000      -3.63777564E-09
   30.8099995      -1.92811389E-09
   30.8700008      -2.94884894E-10
   30.9300003       1.24213440E-09
   30.9899998       2.68271649E-09
   31.0499992       4.03373379E-09
   31.1100006       5.29652766E-09
   31.1700001       6.45997966E-09
   31.2299995       7.50207008E-09
   31.2900009       8.39867376E-09
   31.3500004       9.13514064E-09
   31.4099998       9.71513625E-09
   31.4699993       1.01624504E-08
   31.5300007       1.05144897E-08
   31.5900002       1.08095959E-08
   31.6499996       1.10727463E-08
   31.7099991       1.13049365E-08
   31.7700005       1.14801999E-08
   31.8299999       1.15515428E-08
   31.8899994       1.14640173E-08
   31.9500008       1.11707594E-08
   32.0099983       1.06468629E-08
   32.0699997       9.89670568E-09
   32.1300011       8.95247254E-09
   32.1899986       7.86442644E-09
   32.2500000       6.68608946E-09
   32.3100014       5.45905587E-09
   32.3699989       4.20227364E-09
   32.4300003       2.90909741E-09
   32.4900017       1.55289370E-09
   32.5499992       9.91185398E-11
   32.6100006      -1.48035095E-09
   32.6699982      -3.19554094E-09
   32.7299995      -5.03325426E-09
   32.7900009      -6.95995306E-09
   32.8499985      -8.93118646E-09
   32.9099998      -1.09037606E-08
   32.9700012      -1.28460069E-08
   33.0299988      -1.47424615E-08
   33.0900002      -1.65916383E-08
   33.1500015      -1.83983762E-08
   33.2099991      -2.01643129E-08
   33.2700005      -2.18806431E-08
   33.3300018      -2.35262050E-08
   33.3899994      -2.50717758E-08
   33.4500008      -2.64890332E-08
   33.5099983      -2.77608336E-08
   33.5699997      -2.88889996E-08
   33.6300011      -2.98964586E-08
   33.6899986      -3.08222532E-08
   33.7500000      -3.17100373E-08
   33.8100014      -3.25928156E-08
   33.8699989      -3.34782833E-08
   33.9300003      -3.43396671E-08
   33.9900017      -3.51162655E-08
   34.0499992      -3.57253569E-08
   34.1100006      -3.60833745E-08
   34.1699982      -3.61306647E-08
   34.2299995      -3.58514924E-08
   34.2900009      -3.52816301E-08
   34.3499985      -3.44994611E-08
   34.4099998      -3.36025252E-08
   34.4700012      -3.26772316E-08
   34.5299988      -3.17728599E-08
   34.5900002      -3.08898187E-08
   34.6500015      -2.99868468E-08
   34.7099991      -2.90045232E-08
   34.7700005      -2.78958137E-08
   34.8300018      -2.66515414E-08
   34.8899994      -2.53106691E-08
   34.9500008      -2.39512854E-08
   35.0099983      -2.26656347E-08
   35.0699997      -2.15285247E-08
   35.1300011      -2.05707682E-08
   35.1899986      -1.97673486E-08
   35.2500000      -1.90446361E-08
   35.3100014      -1.83043856E-08
   35.3699989      -1.74566477E-08
   35.4300003      -1.64507856E-08
   35.4900017      -1.52945194E-08
   35.5499992      -1.40547156E-08
   35.6100006      -1.28395534E-08
   35.6699982      -1.17676331E-08
   35.7299995      -1.09339666E-08
   35.7900009      -1.03838502E-08
   35.8499985      -1.01031397E-08
   35.9099998      -1.00280477E-08
   35.9700012      -1.00709689E-08
   36.0299988      -1.01533519E-08
   36.0900002      -1.02341655E-08
   36.1500015      -1.03240119E-08
   36.2099991      -1.04799707E-08
   36.2700005      -1.07830598E-08
   36.3300018      -1.13063869E-08
   36.3899994      -1.20854553E-08
   36.4500008      -1.31012943E-08
   36.5099983      -1.42826151E-08
   36.5699997      -1.55263127E-08
   36.6300011      -1.67291727E-08
   36.6899986      -1.78197261E-08
   36.7500000      -1.87793674E-08
   36.8100014      -1.96458636E-08
   36.8699989      -2.04987511E-08
   36.9300003      -2.14322196E-08
   36.9900017      -2.25248726E-08
   37.0499992      -2.38159732E-08
   37.1100006      -2.52947920E-08
   37.1699982      -2.69048712E-08
   37.2299995      -2.85604749E-08
   37.2900009      -3.01692751E-08
   37.3499985      -3.16545012E-08
   37.4099998      -3.29706999E-08
   37.4700012      -3.41094264E-08
   37.5299988      -3.50941285E-08
   37.5900002      -3.59662486E-08
   37.6500015      -3.67669770E-08
   37.7099991      -3.75206959E-08
   37.7700005      -3.82257639E-08
   37.8300018      -3.88561965E-08
   37.8899994      -3.93739974E-08
   37.9500008      -3.97476541E-08
   38.0099983      -3.99695139E-08
   38.0699997      -4.00646734E-08
   38.1300011      -4.00871123E-08
   38.1899986      -4.01038633E-08
   38.2500000      -4.01730951E-08
   38.3100014      -4.03245330E-08
   38.3699989      -4.05497147E-08
   38.4300003      -4.08056557E-08
   38.4900017      -4.10299812E-08
   38.5499992      -4.11616021E-08
   38.6100006      -4.11592893E-08
   38.6699982      -4.10122638E-08
   38.7299995      -4.07404741E-08
   38.7900009      -4.03861762E-08
   38.8499985      -4.00010158E-08
   38.9099998      -3.96333597E-08
   38.9700012      -3.93193567E-08
   39.0299988      -3.90791648E-08
   39.0900002      -3.89178929E-08
   39.1500015      -3.88296257E-08
   39.2099991      -3.88027104E-08
   39.2700005      -3.88247763E-08
   39.3300018      -3.88864585E-08
   39.3899994      -3.89831314E-08
   39.4500008      -3.91144681E-08
   39.5099983      -3.92818293E-08
   39.5699997      -3.94843482E-08
   39.6300011      -3.97148092E-08
   39.6899986      -3.99570332E-08
   39.7500000      -4.01861158E-08
   39.8100014      -4.03721927E-08
   39.8699989      -4.04871443E-08
   39.9300003      -4.05124183E-08
   39.9900017      -4.04454532E-08
   40.0499992      -4.03022540E-08
   40.1100006      -4.01148732E-08
   40.1699982      -3.99239894E-08
   40.2299995      -3.97685085E-08
   40.2900009      -3.96750117E-08
   40.3499985      -3.96499082E-08
   40.4099998      -3.96763795E-08
   40.4700012      -3.97167561E-08
   40.5299988      -3.97197084E-08
   40.5900002      -3.96306739E-08
   40.6500015      -3.94032611E-08
   40.7099991      -3.90093220E-08
   40.7700005      -3.84454459E-08
   40.8300018      -3.77340967E-08
   40.8899994      -3.69185145E-08
   40.9500008      -3.60519294E-08
   41.0099983      -3.51835112E-08
   41.0699997      -3.43448612E-08
   41.1300011      -3.35412764E-08
   41.1899986      -3.27510143E-08
   41.2500000      -3.19332756E-08
   41.3100014      -3.10424859E-08
   41.3699989      -3.00442089E-08
   41.4300003      -2.89272553E-08
   41.4900017      -2.77078911E-08
   41.5499992      -2.64251359E-08
   41.6100006      -2.51290349E-08
   41.6699982      -2.38662814E-08
   41.7299995      -2.26678214E-08
   41.7900009      -2.15420943E-08
   41.8499985      -2.04754098E-08
   41.9099998      -1.94388026E-08
   41.9700012      -1.83991364E-08
   42.0299988      -1.73313683E-08
   42.0900002      -1.62286558E-08
   42.1500015      -1.51073412E-08
   42.2099991      -1.40047716E-08
   42.2700005      -1.29696618E-08
   42.3300018      -1.20470141E-08
   42.3899994      -1.12620269E-08
   42.4500008      -1.06088640E-08
   42.5099983      -1.00495328E-08
   42.5699997      -9.52520551E-09
   42.6300011      -8.97760444E-09
   42.6899986      -8.37350012E-09
   42.7500000      -7.72291475E-09
   42.8100014      -7.08281345E-09
   42.8699989      -6.54291066E-09
   42.9300003      -6.19709084E-09
   42.9900017      -6.11003781E-09
   43.0499992      -6.29135632E-09
   43.1100006      -6.68737909E-09
   43.1699982      -7.19456184E-09
   43.2299995      -7.69040120E-09
   43.2900009      -8.07123524E-09
   43.3499985      -8.28381097E-09
   43.4099998      -8.33994296E-09
   43.4700012      -8.30984082E-09
   43.5299988      -8.29726066E-09
   43.5900002      -8.40555980E-09
   43.6500015      -8.70613270E-09
   43.7099991      -9.21904331E-09
   43.7700005      -9.91097160E-09
   43.8300018      -1.07098126E-08
   43.8899994      -1.15302941E-08
   43.9500008      -1.23021628E-08
   44.0099983      -1.29923503E-08
   44.0699997      -1.36146880E-08
   44.1300011      -1.42246046E-08
   44.1899986      -1.49005199E-08
   44.2500000      -1.57176299E-08
   44.3100014      -1.67221454E-08
   44.3699989      -1.79142940E-08
   44.4300003      -1.92460661E-08
   44.4900017      -2.06353370E-08
   44.5499992      -2.19927685E-08
   44.6100006      -2.32533726E-08
   44.6699982      -2.44025742E-08
   44.7299995      -2.54878074E-08
   44.7900009      -2.66112217E-08
   44.8499985      -2.79052657E-08
   44.9099998      -2.94988673E-08
   44.9700012      -3.14853494E-08
   45.0299988      -3.39027793E-08
   45.0900002      -3.67333506E-08
   45.1500015      -3.99219005E-08
   45.2099991      -4.34074359E-08
   45.2700005      -4.71574282E-08
   45.3300018      -5.11941742E-08
   45.3899994      -5.56057884E-08
   45.4500008      -6.05396480E-08
   45.5099983      -6.61818618E-08
   45.5699997      -7.27309271E-08
   45.6300011      -8.03749813E-08
   45.6899986      -8.92814711E-08
   45.7500000      -9.96039375E-08
   45.8100014      -1.11505607E-07
   45.8699989      -1.25194347E-07
   45.9300003      -1.40958988E-07
   45.9900017      -1.59196745E-07
   46.0499992      -1.80423200E-07
   46.1100006      -2.05262481E-07
   46.1699982      -2.34422529E-07
   46.2299995      -2.68666639E-07
   46.2900009      -3.08794370E-07
   46.3499985      -3.55643778E-07
   46.4099998      -4.10118020E-07
   46.4700012      -4.73233257E-07
   46.5299988      -5.46175556E-07
   46.5900002      -6.30353327E-07
   46.6500015      -7.27433417E-07
   46.7099991      -8.39356176E-07
   46.7700005      -9.68332301E-07
   46.8300018      -1.11682994E-06
   46.8899994      -1.28756460E-06
   46.9500008      -1.48350227E-06
   47.0099983      -1.70788030E-06
   47.0699997      -1.96424708E-06
   47.1300011      -2.25651365E-06
   47.1899986      -2.58900513E-06
   47.2500000      -2.96650751E-06
   47.3100014      -3.39430039E-06
   47.3699989      -3.87817363E-06
   47.4300003      -4.42443752E-06
   47.4900017      -5.03992578E-06
   47.5499992      -5.73200987E-06
   47.6100006      -6.50861739E-06
   47.6699982      -7.37826304E-06
   47.7299995      -8.35008723E-06
   47.7900009      -9.43388750E-06
   47.8499985      -1.06401467E-05
   47.9099998      -1.19800343E-05
   47.9700012      -1.34654001E-05
   48.0299988      -1.51087415E-05
   48.0900002      -1.69231589E-05
   48.1500015      -1.89223174E-05
   48.2099991      -2.11203969E-05
   48.2700005      -2.35320622E-05
   48.3300018      -2.61724490E-05
   48.3899994      -2.90571297E-05
   48.4500008      -3.22020896E-05
   48.5099983      -3.56236778E-05
   48.5699997      -3.93385162E-05
   48.6300011      -4.33633941E-05
   48.6899986      -4.77151043E-05
   48.7500000      -5.24102907E-05
   48.8100014      -5.74653204E-05
   48.8699989      -6.28960843E-05
   48.9300003      -6.87178981E-05
   48.9900017      -7.49453247E-05
   49.0499992      -8.15921157E-05
   49.1100006      -8.86710186E-05
   49.1699982      -9.61936603E-05
   49.2299995      -1.04170402E-04
   49.2900009      -1.12610083E-04
   49.3499985      -1.21519923E-04
   49.4099998      -1.30905217E-04
   49.4700012      -1.40769189E-04
   49.5299988      -1.51112850E-04
   49.5900002      -1.61934848E-04
   49.6500015      -1.73231310E-04
   49.7099991      -1.84995879E-04
   49.7700005      -1.97219561E-04
   49.8300018      -2.09890699E-04
   49.8899994      -2.22994960E-04
   49.9500008      -2.36515276E-04
   50.0099983      -2.50431738E-04
   50.0699997      -2.64721806E-04
   50.1300011      -2.79360102E-04
   50.1899986      -2.94318539E-04
   50.2500000      -3.09566647E-04
   50.3100014      -3.25071567E-04
   50.3699989      -3.40798317E-04
   50.4300003      -3.56710079E-04
   50.4900017      -3.72768409E-04
   50.5499992      -3.88933433E-04
   50.6100006      -4.05164319E-04