 -0.750000000       0.00000000    
 -0.689999998       0.00000000    
 -0.629999995       0.00000000    
 -0.569999993       0.00000000    
 -0.509999990       0.00000000    
 -0.449999988       2.79310795E-19
 -0.389999986       1.83590359E-18
 -0.330000013       5.48868871E-18
 -0.270000011       8.13811802E-18
 -0.209999993      -1.23811691E-18
 -0.150000006      -3.73503413E-17
  -9.00000036E-02  -9.85509930E-17
  -2.99999993E-02  -1.38746551E-16
   2.99999993E-02  -6.26513280E-17
   9.00000036E-02   2.16411478E-16
  0.150000006       6.51752784E-16
  0.209999993       9.44232731E-16
  0.270000011       5.71986050E-16
  0.330000013      -9.05582935E-16
  0.389999986      -3.30537307E-15
  0.449999988      -5.33778352E-15
  0.509999990      -4.67829892E-15
  0.569999993       1.00167512E-15
  0.629999995       1.21361381E-14
  0.689999998       2.53518537E-14
  0.750000000       3.29884300E-14
  0.810000002       2.53666886E-14
  0.870000005      -4.05184563E-15
  0.930000007      -5.24111225E-14
  0.990000010      -1.03656999E-13
   1.04999995      -1.30986246E-13
   1.11000001      -1.07219599E-13
   1.16999996      -2.05331357E-14
   1.23000002       1.11575435E-13
   1.28999996       2.39330094E-13
   1.35000002       2.95302818E-13
   1.40999997       2.25419957E-13
   1.47000003       2.49592369E-14
   1.52999997      -2.39267509E-13
   1.59000003      -4.38597807E-13
   1.64999998      -4.30686872E-13
   1.71000004      -1.33526802E-13
   1.76999998       4.06095052E-13
   1.83000004       9.88725052E-13
   1.88999999       1.31070046E-12
   1.95000005       1.08292954E-12
   2.00999999       1.80473339E-13
   2.06999993      -1.24395817E-12
   2.13000011      -2.74947426E-12
   2.19000006      -3.73176230E-12
   2.25000000      -3.65574931E-12
   2.30999994      -2.30862551E-12
   2.36999989       4.41702508E-14
   2.43000007       2.69504362E-12
   2.49000001       4.74296947E-12
   2.54999995       5.47532939E-12
   2.60999990       4.72246981E-12
   2.67000008       3.00670209E-12
   2.73000002       1.37316710E-12
   2.78999996       9.22664831E-13
   2.84999990       2.21397683E-12
   2.91000009       4.79769219E-12
   2.97000003       7.13196906E-12
   3.02999997       7.00205042E-12
   3.08999991       2.36154347E-12
   3.15000010      -7.68388478E-12
   3.21000004      -2.21324382E-11
   3.26999998      -3.79168467E-11
   3.32999992      -5.04540958E-11
   3.39000010      -5.47942525E-11
   3.45000005      -4.70163665E-11
   3.50999999      -2.54188996E-11
   3.56999993       8.87155627E-12
   3.63000011       5.20250995E-11
   3.69000006       9.82412485E-11
   3.75000000       1.40754033E-10
   3.80999994       1.72724487E-10
   3.86999989       1.87770077E-10
   3.93000007       1.80139084E-10
   3.99000001       1.44800186E-10
   4.05000019       7.78560896E-11
   4.11000013      -2.23781098E-11
   4.17000008      -1.53557875E-10
   4.23000002      -3.07057629E-10
   4.28999996      -4.65928240E-10
   4.34999990      -6.03865735E-10
   4.40999985      -6.85892398E-10
   4.46999979      -6.71092515E-10
   4.53000021      -5.17230092E-10
   4.59000015      -1.86557755E-10
   4.65000010       3.48241158E-10
   4.71000004       1.09913489E-09
   4.76999998       2.05981809E-09
   4.82999992       3.20532223E-09
   4.88999987       4.49414461E-09
   4.94999981       5.87239146E-09
   5.01000023       7.27905469E-09
   5.07000017       8.65148753E-09
   5.13000011       9.93030458E-09
   5.19000006       1.10632854E-08
   5.25000000       1.20082273E-08
   5.30999994       1.27349828E-08
   5.36999989       1.32269147E-08
   5.42999983       1.34818583E-08
   5.48999977       1.35123468E-08
   5.55000019       1.33446640E-08
   5.61000013       1.30162912E-08
   5.67000008       1.25716495E-08
   5.73000002       1.20565780E-08
   5.78999996       1.15125482E-08
   5.84999990       1.09719114E-08
   5.90999985       1.04553060E-08
   5.96999979       9.97175764E-09
   6.03000021       9.52115187E-09
   6.09000015       9.09801212E-09
   6.15000010       8.69515748E-09
   6.21000004       8.30605451E-09
   6.26999998       7.92542831E-09
   6.32999992       7.54856533E-09
   6.38999987       7.17041582E-09
   6.44999981       6.78571244E-09
   6.51000023       6.39077902E-09
   6.57000017       5.98680128E-09
   6.63000011       5.58336355E-09
   6.69000006       5.20059418E-09
   6.75000000       4.86846519E-09
   6.80999994       4.62267558E-09
   6.86999989       4.49777460E-09
   6.92999983       4.51925297E-09
   6.98999977       4.69688599E-09
   7.05000019       5.02133801E-09
   7.11000013       5.46513368E-09
   7.17000008       5.98780314E-09
   7.23000002       6.54381171E-09
   7.28999996       7.09114412E-09
   7.34999990       7.59840013E-09
   7.40999985       8.04882028E-09
   7.46999979       8.44071213E-09
   7.53000021       8.78481199E-09
   7.59000015       9.09991016E-09
   7.65000010       9.40832123E-09
   7.71000004       9.73242287E-09
   7.76999998       1.00927888E-08
   7.82999992       1.05075406E-08
   7.88999987       1.09919940E-08
   7.94999981       1.15575425E-08
   8.01000023       1.22092265E-08
   8.06999969       1.29422224E-08
   8.13000011       1.37383758E-08
   8.18999958       1.45643648E-08
   8.25000000       1.53729935E-08
   8.31000042       1.61083307E-08
   8.36999989       1.67143028E-08
   8.43000031       1.71449628E-08
   8.48999977       1.73739423E-08
   8.55000019       1.74003034E-08
   8.60999966       1.72487891E-08
   8.67000008       1.69638685E-08
   8.72999954       1.65988308E-08
   8.78999996       1.62026748E-08
   8.85000038       1.58084354E-08
   8.90999985       1.54261421E-08
   8.97000027       1.50423141E-08
   9.02999973       1.46257388E-08
   9.09000015       1.41373775E-08
   9.14999962       1.35411486E-08
   9.21000004       1.28123512E-08
   9.27000046       1.19417534E-08
   9.32999992       1.09350786E-08
   9.39000034       9.80922454E-09
   9.44999981       8.58726779E-09
   9.51000023       7.29411287E-09
   9.56999969       5.95366867E-09
   9.63000011       4.58740201E-09
   9.68999958       3.21344595E-09
   9.75000000       1.84556093E-09
   9.81000042       4.91841845E-10
   9.86999989      -8.46160753E-10
   9.93000031      -2.17295004E-09
   9.98999977      -3.49659235E-09
   10.0500002      -4.82450124E-09
   10.1099997      -6.15873841E-09
   10.1700001      -7.49261897E-09
   10.2299995      -8.81014106E-09
   10.2900000      -1.00887378E-08
   10.3500004      -1.13045502E-08
   10.4099998      -1.24383721E-08
   10.4700003      -1.34801663E-08
   10.5299997      -1.44306602E-08
   10.5900002      -1.52996744E-08
   10.6499996      -1.61020228E-08
   10.7100000      -1.68525496E-08
   10.7700005      -1.75618329E-08
   10.8299999      -1.82334698E-08
   10.8900003      -1.88632150E-08
   10.9499998      -1.94396108E-08
   11.0100002      -1.99456771E-08
   11.0699997      -2.03614476E-08
   11.1300001      -2.06672812E-08
   11.1899996      -2.08479367E-08
   11.2500000      -2.08969642E-08
   11.3100004      -2.08204458E-08
   11.3699999      -2.06387956E-08
   11.4300003      -2.03853361E-08
   11.4899998      -2.01012345E-08
   11.5500002      -1.98274055E-08
   11.6099997      -1.95953120E-08
   11.6700001      -1.94192378E-08
   11.7299995      -1.92925249E-08
   11.7900000      -1.91891925E-08
   11.8500004      -1.90706579E-08
   11.9099998      -1.88955340E-08
   11.9700003      -1.86294358E-08
   12.0299997      -1.82518303E-08
   12.0900002      -1.77581558E-08
   12.1499996      -1.71573475E-08
   12.2100000      -1.64665259E-08
   12.2700005      -1.57053428E-08
   12.3299999      -1.48919481E-08
   12.3900003      -1.40412117E-08
   12.4499998      -1.31644429E-08
   12.5100002      -1.22692407E-08
   12.5699997      -1.13585799E-08
   12.6300001      -1.04293925E-08
   12.6899996      -9.47192547E-09
   12.7500000      -8.47128767E-09
   12.8100004      -7.41159978E-09
   12.8699999      -6.28165786E-09
   12.9300003      -5.07986586E-09
   12.9899998      -3.81621890E-09
   13.0500002      -2.51042098E-09
   13.1099997      -1.18702870E-09
   13.1700001       1.30122982E-10
   13.2299995       1.42184886E-09
   13.2900000       2.67470401E-09
   13.3500004       3.87970811E-09
   13.4099998       5.03036723E-09
   13.4700003       6.12169204E-09
   13.5299997       7.15084880E-09
   13.5900002       8.11871281E-09
   13.6499996       9.03076458E-09
   13.7100000       9.89608218E-09
   13.7700005       1.07243689E-08
   13.8299999       1.15224035E-08
   13.8900003       1.22919737E-08
   13.9499998       1.30309337E-08
   14.0100002       1.37375302E-08
   14.0699997       1.44163410E-08
   14.1300001       1.50830228E-08
   14.1899996       1.57651083E-08
   14.2500000       1.64975518E-08
   14.3100004       1.73139743E-08
   14.3699999       1.82366655E-08
   14.4300003       1.92692724E-08
   14.4899998       2.03953299E-08
   14.5500002       2.15834817E-08
   14.6099997       2.27974368E-08
   14.6700001       2.40065976E-08
   14.7299995       2.51931951E-08
   14.7900000       2.63534385E-08
   14.8500004       2.74930887E-08
   14.9099998       2.86204056E-08
   14.9700003       2.97402121E-08
   15.0299997       3.08516448E-08
   15.0900002       3.19496429E-08
   15.1499996       3.30280869E-08
   15.2100000       3.40816939E-08
   15.2700005       3.51052094E-08
   15.3299999       3.60905936E-08
   15.3900003       3.70247832E-08
   15.4499998       3.78906293E-08
   15.5100002       3.86718284E-08
   15.5699997       3.93600956E-08
   15.6300001       3.99607671E-08
   15.6899996       4.04934681E-08
   15.7500000       4.09863752E-08
   15.8100004       4.14658921E-08
   15.8699999       4.19458530E-08
   15.9300003       4.24208331E-08
   15.9899998       4.28663363E-08
   16.0499992       4.32458371E-08
   16.1100006       4.35217480E-08
   16.1700001       4.36662475E-08
   16.2299995       4.36682654E-08
   16.2900009       4.35348397E-08
   16.3500004       4.32873684E-08
   16.4099998       4.29547882E-08
   16.4699993       4.25663345E-08
   16.5300007       4.21458672E-08
   16.5900002       4.17085779E-08
   16.6499996       4.12598347E-08
   16.7099991       4.07953493E-08
   16.7700005       4.03020799E-08
   16.8299999       3.97597937E-08
   16.8899994       3.91438348E-08
   16.9500008       3.84293628E-08
   17.0100002       3.75968661E-08
   17.0699997       3.66376405E-08
   17.1299992       3.55574237E-08
   17.1900005       3.43765265E-08
   17.2500000       3.31260033E-08
   17.3099995       3.18409406E-08
   17.3700008       3.05531458E-08
   17.4300003       2.92856672E-08
   17.4899998       2.80506995E-08
   17.5499992       2.68508717E-08
   17.6100006       2.56826045E-08
   17.6700001       2.45398262E-08
   17.7299995       2.34168542E-08
   17.7900009       2.23101413E-08
   17.8500004       2.12192965E-08
   17.9099998       2.01478283E-08
   17.9699993       1.91035152E-08
   18.0300007       1.80978734E-08
   18.0900002       1.71442380E-08
   18.1499996       1.62546598E-08
   18.2099991       1.54367736E-08
   18.2700005       1.46921542E-08
   18.3299999       1.40172620E-08
   18.3899994       1.34067335E-08
   18.4500008       1.28574893E-08
   18.5100002       1.23714878E-08
   18.5699997       1.19554837E-08
   18.6299992       1.16176704E-08
   18.6900005       1.13626637E-08
   18.7500000       1.11872396E-08
   18.8099995       1.10789218E-08
   18.8700008       1.10182050E-08
   18.9300003       1.09835252E-08
   18.9899998       1.09569624E-08
   19.0499992       1.09284333E-08
   19.1100006       1.08969935E-08
   19.1700001       1.08691323E-08
   19.2299995       1.08551115E-08
   19.2900009       1.08649205E-08
   19.3500004       1.09052101E-08
   19.4099998       1.09778258E-08
   19.4699993       1.10797425E-08
   19.5300007       1.12037144E-08
   19.5900002       1.13389689E-08
   19.6499996       1.14716627E-08
   19.7099991       1.15853904E-08
   19.7700005       1.16622658E-08
   19.8299999       1.16849668E-08
   19.8899994       1.16394689E-08
   19.9500008       1.15175940E-08
   20.0100002       1.13181429E-08
   20.0699997       1.10457838E-08
   20.1299992       1.07077565E-08
   20.1900005       1.03096358E-08
   20.2500000       9.85199389E-09
   20.3099995       9.32964728E-09
   20.3700008       8.73404638E-09
   20.4300003       8.05790368E-09
   20.4899998       7.30000682E-09
   20.5499992       6.46798393E-09
   20.6100006       5.57760682E-09
   20.6700001       4.64874361E-09
   20.7299995       3.69943853E-09
   20.7900009       2.74027956E-09
   20.8500004       1.77097081E-09
   20.9099998       7.80032039E-10
   20.9699993      -2.52589755E-10
   21.0300007      -1.35107403E-09
   21.0900002      -2.53883825E-09
   21.1499996      -3.83442966E-09
   21.2099991      -5.24897992E-09
   21.2700005      -6.78550105E-09
   21.3299999      -8.43987369E-09
   21.3899994      -1.02030446E-08
   21.4500008      -1.20638095E-08
   21.5100002      -1.40115350E-08
   21.5699997      -1.60384133E-08
   21.6299992      -1.81411046E-08
   21.6900005      -2.03218598E-08
   21.7500000      -2.25891252E-08
   21.8099995      -2.49574637E-08
   21.8700008      -2.74462710E-08
   21.9300003      -3.00768406E-08
   21.9899998      -3.28677494E-08
   22.0499992      -3.58293590E-08
   22.1100006      -3.89589658E-08
   22.1700001      -4.22382485E-08
   22.2299995      -4.56341134E-08
   22.2900009      -4.91028516E-08
   22.3500004      -5.25960608E-08
   22.4099998      -5.60664404E-08
   22.4699993      -5.94714358E-08
   22.5300007      -6.27739780E-08
   22.5900002      -6.59405757E-08
   22.6499996      -6.89383270E-08
   22.7099991      -7.17322379E-08
   22.7700005      -7.42841877E-08
   22.8299999      -7.65539312E-08
   22.8899994      -7.85016852E-08
   22.9500008      -8.00914393E-08
   23.0100002      -8.12938055E-08
   23.0699997      -8.20875243E-08
   23.1299992      -8.24590600E-08
   23.1900005      -8.24005326E-08
   23.2500000      -8.19069541E-08
   23.3099995      -8.09740541E-08
   23.3700008      -7.95981308E-08
   23.4300003      -7.77785587E-08
   23.4899998      -7.55223795E-08
   23.5499992      -7.28491756E-08
   23.6100006      -6.97940763E-08
   23.6700001      -6.64071891E-08
   23.7299995      -6.27492298E-08
   23.7900009      -5.88846696E-08
   23.8500004      -5.48749384E-08
   23.9099998      -5.07737425E-08
   23.9699993      -4.66256864E-08
   24.0300007      -4.24676898E-08
   24.0900002      -3.83315601E-08
   24.1499996      -3.42461526E-08
   24.2099991      -3.02382084E-08
   24.2700005      -2.63321791E-08
   24.3299999      -2.25499264E-08
   24.3899994      -1.89110860E-08
   24.4500008      -1.54340789E-08
   24.5100002      -1.21369732E-08
   24.5699997      -9.03715769E-09
   24.6299992      -6.14941564E-09
   24.6900005      -3.48293860E-09
   24.7500000      -1.03874742E-09
   24.8099995       1.19091825E-09
   24.8700008       3.22036620E-09
   24.9300003       5.06570919E-09
   24.9899998       6.73903777E-09
   25.0499992       8.24338109E-09
   25.1100006       9.56997948E-09
   25.1700001       1.06985469E-08
   25.2299995       1.16001759E-08
   25.2900009       1.22419523E-08
   25.3500004       1.25921433E-08
   25.4099998       1.26250521E-08
   25.4699993       1.23249588E-08
   25.5300007       1.16888152E-08
   25.5900002       1.07274198E-08
   25.6499996       9.46488221E-09
   25.7099991       7.93630051E-09
   25.7700005       6.18391072E-09
   25.8299999       4.25242863E-09
   25.8899994       2.18464646E-09
   25.9500008       1.83880793E-11
   26.0100002      -2.21451946E-09
   26.0699997      -4.48736204E-09
   26.1299992      -6.77666279E-09
   26.1900005      -9.06062958E-09
   26.2500000      -1.13189964E-08
   26.3099995      -1.35344411E-08
   26.3700008      -1.56946882E-08
   26.4300003      -1.77937132E-08
   26.4899998      -1.98306083E-08
   26.5499992      -2.18057981E-08
   26.6100006      -2.37157209E-08
   26.6700001      -2.55482728E-08
   26.7299995      -2.72814393E-08
   26.7900009      -2.88863564E-08
   26.8500004      -3.03342738E-08
   26.9099998      -3.16050617E-08
   26.9699993      -3.26941461E-08
   27.0300007      -3.36153789E-08
   27.0900002      -3.43988766E-08
   27.1499996      -3.50848026E-08
   27.2099991      -3.57154484E-08
   27.2700005      -3.63281387E-08
   27.3299999      -3.69508086E-08
   27.3899994      -3.76007421E-08
   27.4500008      -3.82856342E-08
   27.5100002      -3.90055988E-08
   27.5699997      -3.97545143E-08
   27.6299992      -4.05199572E-08
   27.6900005      -4.12816874E-08
   27.7500000      -4.20095532E-08
   27.8099995      -4.26621654E-08
   27.8700008      -4.31878071E-08
   27.9300003      -4.35282530E-08
   27.9899998      -4.36254410E-08
   28.0499992      -4.34298499E-08
   28.1100006      -4.29087983E-08
   28.1700001      -4.20528536E-08
   28.2299995      -4.08790761E-08
   28.2900009      -3.94307733E-08
   28.3500004      -3.77740754E-08
   28.4099998      -3.59921124E-08
   28.4699993      -3.41774928E-08
   28.5300007      -3.24234897E-08
   28.5900002      -3.08143342E-08
   28.6499996      -2.94153697E-08
   28.7099991      -2.82643864E-08
   28.7700005      -2.73658838E-08
   28.8299999      -2.66898112E-08
   28.8899994      -2.61755702E-08
   28.9500008      -2.57407198E-08
   29.0100002      -2.52926604E-08
   29.0699997      -2.47410181E-08
   29.1299992      -2.40085321E-08
   29.1900005      -2.30390835E-08
   29.2500000      -2.18023679E-08
   29.3099995      -2.02952926E-08
   29.3700008      -1.85405025E-08
   29.4300003      -1.65823977E-08
   29.4899998      -1.44809693E-08
   29.5499992      -1.23041186E-08
   29.6100006      -1.01194448E-08
   29.6700001      -7.98683253E-09
   29.7299995      -5.95311356E-09
   29.7900009      -4.04951717E-09
   29.8500004      -2.29186048E-09
   29.9099998      -6.82701562E-10
   29.9699993       7.85584875E-10
   30.0300007       2.12758788E-09
   30.0900002       3.36169736E-09
   30.1499996       4.50671411E-09
   30.2099991       5.57790747E-09
   30.2700005       6.58270327E-09
   30.3299999       7.51691953E-09
   30.3899994       8.36302583E-09
   30.4500008       9.09173181E-09
   30.5100002       9.66732561E-09
   30.5699997       1.00557243E-08
   30.6299992       1.02329976E-08
   30.6900005       1.01916369E-08
   30.7500000       9.94254368E-09
   30.8099995       9.51236601E-09
   30.8700008       8.93764796E-09
   30.9300003       8.25857072E-09
   30.9899998       7.51496820E-09
   31.0499992       6.74595757E-09
   31.1100006       5.99243366E-09
   31.1700001       5.29985877E-09
   31.2299995       4.71831951E-09
   31.2900009       4.29792824E-09
   31.3500004       4.07997547E-09
   31.4099998       4.08659551E-09
   31.4699993       4.31290514E-09
   31.5300007       4.72495909E-09
   31.5900002       5.26462651E-09
   31.6499996       5.85979487E-09
   31.7099991       6.43641451E-09
   31.7700005       6.92870428E-09
   31.8299999       7.28528926E-09
   31.8899994       7.47118190E-09
   31.9500008       7.46713802E-09
   32.0099983       7.26820870E-09
   32.0699997       6.88235513E-09
   32.1300011       6.32866204E-09
   32.1899986       5.63405012E-09
   32.2500000       4.82793272E-09
   32.3100014       3.93570110E-09
   32.3699989       2.97325475E-09
   32.4300003       1.94499372E-09
   32.4900017       8.46446357E-10
   32.5499992      -3.29372973E-10
   32.6100006      -1.58458602E-09
   32.6699982      -2.91122881E-09
   32.7299995      -4.29024505E-09
   32.7900009      -5.69469538E-09
   32.8499985      -7.09532744E-09
   32.9099998      -8.46597636E-09
   32.9700012      -9.78688597E-09
   33.0299988      -1.10455129E-08
   33.0900002      -1.22355859E-08
   33.1500015      -1.33556393E-08
   33.2099991      -1.44077283E-08
   33.2700005      -1.53963224E-08
   33.3300018      -1.63269238E-08
   33.3899994      -1.72043464E-08
   33.4500008      -1.80312476E-08
   33.5099983      -1.88081035E-08
   33.5699997      -1.95354417E-08
   33.6300011      -2.02181507E-08
   33.6899986      -2.08702335E-08
   33.7500000      -2.15176588E-08
   33.8100014      -2.21973000E-08
   33.8699989      -2.29514132E-08
   33.9300003      -2.38190161E-08
   33.9900017      -2.48269281E-08
   34.0499992      -2.59834252E-08
   34.1100006      -2.72763430E-08
   34.1699982      -2.86756894E-08
   34.2299995      -3.01391054E-08
   34.2900009      -3.16178763E-08
   34.3499985      -3.30614753E-08
   34.4099998      -3.44199691E-08
   34.4700012      -3.56449199E-08
   34.5299988      -3.66903095E-08
   34.5900002      -3.75146776E-08
   34.6500015      -3.80849698E-08
   34.7099991      -3.83811987E-08
   34.7700005      -3.84003194E-08
   34.8300018      -3.81576406E-08
   34.8899994      -3.76849201E-08
   34.9500008      -3.70255435E-08
   35.0099983      -3.62281689E-08
   35.0699997      -3.53406513E-08
   35.1300011      -3.44056517E-08
   35.1899986      -3.34584271E-08
   35.2500000      -3.25264011E-08
   35.3100014      -3.16296536E-08
   35.3699989      -3.07816954E-08
   35.4300003      -2.99903604E-08
   35.4900017      -2.92591338E-08
   35.5499992      -2.85891613E-08
   35.6100006      -2.79817893E-08
   35.6699982      -2.74408816E-08
   35.7299995      -2.69738596E-08
   35.7900009      -2.65907723E-08
   35.8499985      -2.63014890E-08
   35.9099998      -2.61119446E-08
   35.9700012      -2.60208015E-08
   36.0299988      -2.60176218E-08
   36.0900002      -2.60828799E-08
   36.1500015      -2.61895199E-08
   36.2099991      -2.63053508E-08
   36.2700005      -2.63958224E-08
   36.3300018      -2.64272124E-08
   36.3899994      -2.63703797E-08
   36.4500008      -2.62050222E-08
   36.5099983      -2.59236490E-08
   36.5699997      -2.55339589E-08
   36.6300011      -2.50584051E-08
   36.6899986      -2.45306140E-08
   36.7500000      -2.39896139E-08
   36.8100014      -2.34738753E-08
   36.8699989      -2.30171402E-08
   36.9300003      -2.26470540E-08
   36.9900017      -2.23860273E-08
   37.0499992      -2.22525358E-08
   37.1100006      -2.22610481E-08
   37.1699982      -2.24197141E-08
   37.2299995      -2.27267165E-08
   37.2900009      -2.31672512E-08
   37.3499985      -2.37132571E-08
   37.4099998      -2.43267184E-08
   37.4700012      -2.49657273E-08
   37.5299988      -2.55911754E-08
   37.5900002      -2.61718736E-08
   37.6500015      -2.66869566E-08
   37.7099991      -2.71258962E-08
   37.7700005      -2.74874452E-08
   37.8300018      -2.77786629E-08
   37.8899994      -2.80142274E-08
   37.9500008      -2.82150641E-08
   38.0099983      -2.84050277E-08
   38.0699997      -2.86052657E-08
   38.1300011      -2.88275430E-08
   38.1899986      -2.90691506E-08
   38.2500000      -2.93121580E-08
   38.3100014      -2.95282732E-08
   38.3699989      -2.96880049E-08
   38.4300003      -2.97706855E-08
   38.4900017      -2.97712379E-08
   38.5499992      -2.97008160E-08
   38.6100006      -2.95813507E-08
   38.6699982      -2.94366735E-08
   38.7299995      -2.92844042E-08
   38.7900009      -2.91320212E-08
   38.8499985      -2.89783255E-08
   38.9099998      -2.88186968E-08
   38.9700012      -2.86510495E-08
   39.0299988      -2.84794694E-08
   39.0900002      -2.83142718E-08
   39.1500015      -2.81694241E-08
   39.2099991      -2.80595227E-08
   39.2700005      -2.79983876E-08
   39.3300018      -2.79998282E-08
   39.3899994      -2.80793575E-08
   39.4500008      -2.82547603E-08
   39.5099983      -2.85439725E-08
   39.5699997      -2.89603825E-08
   39.6300011      -2.95074170E-08
   39.6899986      -3.01750660E-08
   39.7500000      -3.09402672E-08
   39.8100014      -3.17712008E-08
   39.8699989      -3.26336256E-08
   39.9300003      -3.34963985E-08
   39.9900017      -3.43340218E-08
   40.0499992      -3.51258365E-08
   40.1100006      -3.58533931E-08
   40.1699982      -3.64985446E-08
   40.2299995      -3.70442734E-08
   40.2900009      -3.74784399E-08
   40.3499985      -3.77988307E-08
   40.4099998      -3.80167542E-08
   40.4700012      -3.81570544E-08
   40.5299988      -3.82540009E-08
   40.5900002      -3.83445169E-08
   40.6500015      -3.84612910E-08
   40.7099991      -3.86280234E-08
   40.7700005      -3.88575891E-08
   40.8300018      -3.91523436E-08
   40.8899994      -3.95048971E-08
   40.9500008      -3.98982358E-08
   41.0099983      -4.03053342E-08
   41.0699997      -4.06897485E-08
   41.1300011      -4.10090273E-08
   41.1899986      -4.12213907E-08
   41.2500000      -4.12944878E-08
   41.3100014      -4.12130916E-08
   41.3699989      -4.09824565E-08
   41.4300003      -4.06255154E-08
   41.4900017      -4.01746512E-08
   41.5499992      -3.96611917E-08
   41.6100006      -3.91066308E-08
   41.6699982      -3.85186745E-08
   41.7299995      -3.78927467E-08
   41.7900009      -3.72172302E-08
   41.8499985      -3.64794097E-08
   41.9099998      -3.56695082E-08
   41.9700012      -3.47820901E-08
   42.0299988      -3.38157307E-08
   42.0900002      -3.27728671E-08
   42.1500015      -3.16610418E-08
   42.2099991      -3.04952437E-08
   42.2700005      -2.92996223E-08
   42.3300018      -2.81065269E-08
   42.3899994      -2.69520228E-08
   42.4500008      -2.58688750E-08
   42.5099983      -2.48796717E-08
   42.5699997      -2.39930547E-08
   42.6300011      -2.32046293E-08
   42.6899986      -2.25019861E-08
   42.7500000      -2.18710845E-08
   42.8100014      -2.13008047E-08
   42.8699989      -2.07834638E-08
   42.9300003      -2.03114539E-08
   42.9900017      -1.98724184E-08
   43.0499992      -1.94463130E-08
   43.1100006      -1.90068672E-08
   43.1699982      -1.85277429E-08
   43.2299995      -1.79911357E-08
   43.2900009      -1.73951946E-08
   43.3499985      -1.67569283E-08
   43.4099998      -1.61092650E-08
   43.4700012      -1.54934536E-08
   43.5299988      -1.49498529E-08
   43.5900002      -1.45105297E-08
   43.6500015      -1.41957646E-08
   43.7099991      -1.40145673E-08
   43.7700005      -1.39674929E-08
   43.8300018      -1.40495633E-08
   43.8899994      -1.42518708E-08
   43.9500008      -1.45619348E-08
   44.0099983      -1.49640691E-08
   44.0699997      -1.54411133E-08
   44.1300011      -1.59778146E-08
   44.1899986      -1.65646377E-08
   44.2500000      -1.71999144E-08
   44.3100014      -1.78885546E-08
   44.3699989      -1.86373210E-08
   44.4300003      -1.94485725E-08
   44.4900017      -2.03156478E-08
   44.5499992      -2.12225313E-08
   44.6100006      -2.21483827E-08
   44.6699982      -2.30750690E-08
   44.7299995      -2.39941791E-08
   44.7900009      -2.49103831E-08
   44.8499985      -2.58399773E-08
   44.9099998      -2.68061839E-08
   44.9700012      -2.78344174E-08
   45.0299988      -2.89505504E-08
   45.0900002      -3.01831413E-08
   45.1500015      -3.15681170E-08
   45.2099991      -3.31527197E-08
   45.2700005      -3.49960558E-08
   45.3300018      -3.71655346E-08
   45.3899994      -3.97312050E-08
   45.4500008      -4.27613358E-08
   45.5099983      -4.63222598E-08
   45.5699997      -5.04832123E-08
   45.6300011      -5.53244810E-08
   45.6899986      -6.09457373E-08
   45.7500000      -6.74715892E-08
   45.8100014      -7.50536060E-08
   45.8699989      -8.38700487E-08
   45.9300003      -9.41261078E-08
   45.9900017      -1.06057144E-07
   46.0499992      -1.19935848E-07
   46.1100006      -1.36082321E-07
   46.1699982      -1.54874343E-07
   46.2299995      -1.76755819E-07
   46.2900009      -2.02241935E-07
   46.3499985      -2.31921959E-07
   46.4099998      -2.66461370E-07
   46.4700012      -3.06606012E-07
   46.5299988      -3.53189620E-07
   46.5900002      -4.07144626E-07
   46.6500015      -4.69515868E-07
   46.7099991      -5.41474151E-07
   46.7700005      -6.24329914E-07
   46.8300018      -7.19545426E-07
   46.8899994      -8.28748284E-07
   46.9500008      -9.53746508E-07
   47.0099983      -1.09654695E-06
   47.0699997      -1.25937629E-06
   47.1300011      -1.44470198E-06
   47.1899986      -1.65525159E-06
   47.2500000      -1.89402851E-06
   47.3100014      -2.16432295E-06
   47.3699989      -2.46972127E-06
   47.4300003      -2.81411690E-06
   47.4900017      -3.20172285E-06
   47.5499992      -3.63708682E-06
   47.6100006      -4.12510872E-06
   47.6699982      -4.67104883E-06
   47.7299995      -5.28054079E-06
   47.7900009      -5.95958772E-06
   47.8499985      -6.71455882E-06
   47.9099998      -7.55218753E-06
   47.9700012      -8.47956562E-06
   48.0299988      -9.50414051E-06
   48.0900002      -1.06337120E-05
   48.1500015      -1.18764310E-05
   48.2099991      -1.32407686E-05
   48.2700005      -1.47355076E-05
   48.3300018      -1.63696968E-05
   48.3899994      -1.81526102E-05
   48.4500008      -2.00937066E-05
   48.5099983      -2.22025519E-05
   48.5699997      -2.44887578E-05
   48.6300011      -2.69619159E-05
   48.6899986      -2.96315156E-05
   48.7500000      -3.25068650E-05
   48.8100014      -3.55970078E-05
   48.8699989      -3.89106572E-05
   48.9300003      -4.24560967E-05
   48.9900017      -4.62411044E-05
   49.0499992      -5.02728435E-05
   49.1100006      -5.45577641E-05
   49.1699982      -5.91014905E-05
   49.2299995      -6.39087011E-05
   49.2900009      -6.89830340E-05
   49.3499985      -7.43269993E-05
   49.4099998      -7.99418849E-05
   49.4700012      -8.58276399E-05
   49.5299988      -9.19828090E-05
   49.5900002      -9.84044746E-05
   49.6500015      -1.05088147E-04
   49.7099991      -1.12027730E-04
   49.7700005      -1.19215496E-04
   49.8300018      -1.26642015E-04
   49.8899994      -1.34296191E-04
   49.9500008      -1.42165169E-04
   50.0099983      -1.50234438E-04
   50.0699997      -1.58487834E-04
   50.1300011      -1.66907615E-04
   50.1899986      -1.75474503E-04
   50.2500000      -1.84167860E-04
   50.3100014      -1.92965788E-04
   50.3699989      -2.01845251E-04
   50.4300003      -2.10782280E-04
   50.4900017      -2.19752139E-04
   50.5499992      -2.28729506E-04
   50.6100006      -2.37688655E-04