  -2.400000      0.0000000E+00
  -2.340000      0.0000000E+00
  -2.280000      0.0000000E+00
  -2.220000      0.0000000E+00
  -2.160000      0.0000000E+00
  -2.100000      0.0000000E+00
  -2.040000      0.0000000E+00
  -1.980000      4.9766168E-26
  -1.920000      4.2062004E-25
  -1.860000      1.3033391E-24
  -1.800000     -6.4057798E-25
  -1.740000     -2.2602695E-23
  -1.680000     -1.0776877E-22
  -1.620000     -3.0706054E-22
  -1.560000     -5.6844297E-22
  -1.500000     -5.0233880E-22
  -1.440000      8.3618206E-22
  -1.380000      4.7153516E-21
  -1.320000      1.1469544E-20
  -1.260000      1.8135874E-20
  -1.200000      1.6313549E-20
  -1.140000     -6.7225049E-21
  -1.080000     -6.0478412E-20
  -1.020000     -1.3764562E-19
 -0.9600000     -2.0209807E-19
 -0.9000000     -1.9262185E-19
 -0.8400000     -5.3826368E-20
 -0.7800000      2.1264863E-19
 -0.7200000      5.1255233E-19
 -0.6600000      6.9271708E-19
 -0.6000000      6.7292466E-19
 -0.5400000      6.2234029E-19
 -0.4800000      1.0182601E-18
 -0.4200000      2.3786189E-18
 -0.3600000      4.5834235E-18
 -0.3000000      6.0330848E-18
 -0.2400000      3.3104850E-18
 -0.1800000     -7.7861576E-18
 -0.1200000     -2.9351965E-17
 -5.9999999E-02 -5.7251380E-17
  0.0000000E+00 -7.7909918E-17
  5.9999999E-02 -6.9227023E-17
  0.1200000     -8.2911713E-18
  0.1800000      1.1420864E-16
  0.2400000      2.7753728E-16
  0.3000000      4.2143825E-16
  0.3600000      4.5383226E-16
  0.4200000      2.8150550E-16
  0.4800000     -1.4055526E-16
  0.5400000     -7.5825447E-16
  0.6000000     -1.3922008E-15
  0.6600000     -1.7616211E-15
  0.7200000     -1.5690846E-15
  0.7800000     -6.3068437E-16
  0.8400000      9.9203260E-16
  0.9000000      2.9194907E-15
  0.9600000      4.4962982E-15
   1.020000      4.9701585E-15
   1.080000      3.7747392E-15
   1.140000      8.2632749E-16
   1.200000     -3.2911292E-15
   1.260000     -7.3682913E-15
   1.320000     -9.8912586E-15
   1.380000     -9.5840330E-15
   1.440000     -5.9983625E-15
   1.500000      9.9164159E-17
   1.560000      6.7775041E-15
   1.620000      1.1531930E-14
   1.680000      1.2292258E-14
   1.740000      8.4834229E-15
   1.800000      1.6312448E-15
   1.860000     -4.9261475E-15
   1.920000     -7.3429532E-15
   1.980000     -3.2176721E-15
   2.040000      6.6385568E-15
   2.100000      1.7623239E-14
   2.160000      2.2652150E-14
   2.220000      1.5267886E-14
   2.280000     -6.5434341E-15
   2.340000     -3.7656249E-14
   2.400000     -6.6046215E-14
   2.460000     -7.6784289E-14
   2.520000     -5.8849308E-14
   2.580000     -1.2032372E-14
   2.640000      4.9676788E-14
   2.700000      1.0106967E-13
   2.760000      1.1543372E-13
   2.820000      7.7986161E-14
   2.880000     -2.7814508E-15
   2.940000     -9.2275810E-14
   3.000000     -1.3948529E-13
   3.060000     -9.8110878E-14
   3.120000      4.7789921E-14
   3.180000      2.6465519E-13
   3.240000      4.6772747E-13
   3.300000      5.4270098E-13
   3.360000      3.8767188E-13
   3.420000     -3.7283856E-14
   3.480000     -6.7193571E-13
   3.540000     -1.3479057E-12
   3.600000     -1.8216327E-12
   3.660000     -1.8451391E-12
   3.720000     -1.2560879E-12
   3.780000     -5.7586131E-14
   3.840000      1.5435282E-12
   3.900000      3.1614334E-12
   3.960000      4.3213059E-12
   4.020000      4.5936440E-12
   4.080000      3.7332520E-12
   4.140000      1.7763706E-12
   4.200000     -9.4126139E-13
   4.260000     -3.8585771E-12
   4.320000     -6.3371517E-12
   4.380000     -7.8365404E-12
   4.440000     -8.0572979E-12
   4.500000     -7.0002884E-12
   4.560000     -4.9198341E-12
   4.620000     -2.1886909E-12
   4.680000      8.7015345E-13
   4.740000      4.1114460E-12
   4.800000      7.5915645E-12
   4.860000      1.1461486E-11
   4.920000      1.5754575E-11
   4.980000      2.0144206E-11
   5.040000      2.3772746E-11
   5.100000      2.5244598E-11
   5.160000      2.2831943E-11
   5.220000      1.4875774E-11
   5.280000      2.9870719E-13
   5.340000     -2.0896829E-11
   5.400000     -4.7276228E-11
   5.460000     -7.5862636E-11
   5.520000     -1.0230473E-10
   5.580000     -1.2129406E-10
   5.640000     -1.2716050E-10
   5.700000     -1.1456654E-10
   5.760000     -7.9247345E-11
   5.820000     -1.8787782E-11
   5.880000      6.6538143E-11
   5.940000      1.7284030E-10
   6.000000      2.9161915E-10
   6.060000      4.0881423E-10
   6.120000      5.0409732E-10
   6.180000      5.5067995E-10
   6.240000      5.1590215E-10
   6.300000      3.6278228E-10
   6.360000      5.2541589E-11
   6.420000     -4.5208506E-10
   6.480000     -1.1831267E-09
   6.540000     -2.1637274E-09
   6.600000     -3.4050582E-09
   6.660000     -4.9041637E-09
   6.720000     -6.6429333E-09
   6.780000     -8.5881906E-09
   6.840000     -1.0692741E-08
   6.900000     -1.2897151E-08
   6.960000     -1.5132112E-08
   7.020000     -1.7321323E-08
   7.080000     -1.9384951E-08
   7.140000     -2.1243800E-08
   7.200000     -2.2824224E-08
   7.260000     -2.4063613E-08
   7.320000     -2.4916041E-08
   7.380000     -2.5357361E-08
   7.440000     -2.5388868E-08
   7.500000     -2.5038689E-08
   7.560000     -2.4360284E-08
   7.620000     -2.3427910E-08
   7.680000     -2.2329408E-08
   7.740000     -2.1157218E-08
   7.800000     -1.9998861E-08
   7.860000     -1.8928262E-08
   7.920000     -1.7999144E-08
   7.980000     -1.7241325E-08
   8.040000     -1.6660241E-08
   8.100000     -1.6239511E-08
   8.160000     -1.5945869E-08
   8.220000     -1.5735546E-08
   8.280000     -1.5561088E-08
   8.340000     -1.5377697E-08
   8.400000     -1.5148387E-08
   8.460000     -1.4847633E-08
   8.520000     -1.4463391E-08
   8.580000     -1.3997662E-08
   8.640000     -1.3465845E-08
   8.700000     -1.2895127E-08
   8.760000     -1.2322073E-08
   8.820000     -1.1789454E-08
   8.880000     -1.1342355E-08
   8.940000     -1.1023617E-08
   9.000000     -1.0868913E-08
   9.060000     -1.0901997E-08
   9.120000     -1.1130864E-08
   9.180000     -1.1545699E-08
   9.240000     -1.2119294E-08
   9.300000     -1.2810273E-08
   9.360000     -1.3568862E-08
   9.420000     -1.4344356E-08
   9.480000     -1.5092922E-08
   9.540000     -1.5784204E-08
   9.600000     -1.6405261E-08
   9.660000     -1.6960987E-08
   9.720000     -1.7470803E-08
   9.780000     -1.7962297E-08
   9.840000     -1.8463234E-08
   9.900000     -1.8993727E-08
   9.960000     -1.9560334E-08
   10.02000     -2.0153525E-08
   10.08000     -2.0749102E-08
   10.14000     -2.1313257E-08
   10.20000     -2.1810067E-08
   10.26000     -2.2209598E-08
   10.32000     -2.2494591E-08
   10.38000     -2.2664079E-08
   10.44000     -2.2733008E-08
   10.50000     -2.2727960E-08
   10.56000     -2.2680130E-08
   10.62000     -2.2617405E-08
   10.68000     -2.2557554E-08
   10.74000     -2.2504304E-08
   10.80000     -2.2447166E-08
   10.86000     -2.2364883E-08
   10.92000     -2.2231337E-08
   10.98000     -2.2022185E-08
   11.04000     -2.1720275E-08
   11.10000     -2.1318419E-08
   11.16000     -2.0818934E-08
   11.22000     -2.0230436E-08
   11.28000     -1.9563259E-08
   11.34000     -1.8825370E-08
   11.40000     -1.8020435E-08
   11.46000     -1.7149020E-08
   11.52000     -1.6212589E-08
   11.58000     -1.5218969E-08
   11.64000     -1.4187106E-08
   11.70000     -1.3148967E-08
   11.76000     -1.2147235E-08
   11.82000     -1.1228710E-08
   11.88000     -1.0434879E-08
   11.94000     -9.7921244E-09
   12.00000     -9.3044470E-09
   12.06000     -8.9510213E-09
   12.12000     -8.6897112E-09
   12.18000     -8.4660510E-09
   12.24000     -8.2256975E-09
   12.30000     -7.9273184E-09
   12.36000     -7.5526216E-09
   12.42000     -7.1107573E-09
   12.48000     -6.6357062E-09
   12.54000     -6.1770171E-09
   12.60000     -5.7861320E-09
   12.66000     -5.5018825E-09
   12.72000     -5.3391918E-09
   12.78000     -5.2842739E-09
   12.84000     -5.2978217E-09
   12.90000     -5.3252593E-09
   12.96000     -5.3109370E-09
   13.02000     -5.2118114E-09
   13.08000     -5.0063114E-09
   13.14000     -4.6956989E-09
   13.20000     -4.2977786E-09
   13.26000     -3.8354635E-09
   13.32000     -3.3244947E-09
   13.38000     -2.7648854E-09
   13.44000     -2.1393356E-09
   13.50000     -1.4193517E-09
   13.56000     -5.7701266E-10
   13.62000      4.0180123E-10
   13.68000      1.5075807E-09
   13.74000      2.7046565E-09
   13.80000      3.9375063E-09
   13.86000      5.1445008E-09
   13.92000      6.2751133E-09
   13.98000      7.3052617E-09
   14.04000      8.2457641E-09
   14.10000      9.1408321E-09
   14.16000      1.0056493E-08
   14.22000      1.1061941E-08
   14.28000      1.2209094E-08
   14.34000      1.3516352E-08
   14.40000      1.4961447E-08
   14.46000      1.6485613E-08
   14.52000      1.8007940E-08
   14.58000      1.9445608E-08
   14.64000      2.0733919E-08
   14.70000      2.1840078E-08
   14.76000      2.2766665E-08
   14.82000      2.3544045E-08
   14.88000      2.4214454E-08
   14.94000      2.4813161E-08
   15.00000      2.5352904E-08
   15.06000      2.5816643E-08
   15.12000      2.6160858E-08
   15.18000      2.6328177E-08
   15.24000      2.6265248E-08
   15.30000      2.5940169E-08
   15.36000      2.5354201E-08
   15.42000      2.4544264E-08
   15.48000      2.3575693E-08
   15.54000      2.2527384E-08
   15.60000      2.1473603E-08
   15.66000      2.0467404E-08
   15.72000      1.9529979E-08
   15.78000      1.8648464E-08
   15.84000      1.7782359E-08
   15.90000      1.6876482E-08
   15.96000      1.5876703E-08
   16.02000      1.4744060E-08
   16.08000      1.3463608E-08
   16.14000      1.2045871E-08
   16.20000      1.0521026E-08
   16.26000      8.9280068E-09
   16.32000      7.3020692E-09
   16.38000      5.6646594E-09
   16.44000      4.0185006E-09
   16.50000      2.3491444E-09
   16.56000      6.3225947E-10
   16.62000     -1.1557374E-09
   16.68000     -3.0269693E-09
   16.74000     -4.9744977E-09
   16.80000     -6.9700636E-09
   16.86000     -8.9678682E-09
   16.92000     -1.0913405E-08
   16.98000     -1.2754911E-08
   17.04000     -1.4454253E-08
   17.10000     -1.5994203E-08
   17.16000     -1.7380019E-08
   17.22000     -1.8634978E-08
   17.28000     -1.9791287E-08
   17.34000     -2.0879275E-08
   17.40000     -2.1918208E-08
   17.46000     -2.2911511E-08
   17.52000     -2.3847646E-08
   17.58000     -2.4705921E-08
   17.64000     -2.5464974E-08
   17.70000     -2.6110909E-08
   17.76000     -2.6642414E-08
   17.82000     -2.7071513E-08
   17.88000     -2.7420167E-08
   17.94000     -2.7714451E-08
   18.00000     -2.7978716E-08
   18.06000     -2.8232021E-08
   18.12000     -2.8488182E-08
   18.18000     -2.8759409E-08
   18.24000     -2.9062061E-08
   18.30000     -2.9422120E-08
   18.36000     -2.9877683E-08
   18.42000     -3.0476560E-08
   18.48000     -3.1268460E-08
   18.54000     -3.2293144E-08
   18.60000     -3.3567659E-08
   18.66000     -3.5076386E-08
   18.72000     -3.6767307E-08
   18.78000     -3.8556053E-08
   18.84000     -4.0336978E-08
   18.90000     -4.1998348E-08
   18.96000     -4.3437488E-08
   19.02000     -4.4572182E-08
   19.08000     -4.5346059E-08
   19.14000     -4.5728022E-08
   19.20000     -4.5707537E-08
   19.26000     -4.5288562E-08
   19.32000     -4.4484626E-08
   19.38000     -4.3316518E-08
   19.44000     -4.1812644E-08
   19.50000     -4.0011145E-08
   19.56000     -3.7962369E-08
   19.62000     -3.5730363E-08
   19.68000     -3.3392400E-08
   19.74000     -3.1036016E-08
   19.80000     -2.8753480E-08
   19.86000     -2.6634099E-08
   19.92000     -2.4755462E-08
   19.98000     -2.3175168E-08
   20.04000     -2.1925013E-08
   20.10000     -2.1009177E-08
   20.16000     -2.0407228E-08
   20.22000     -2.0081318E-08
   20.28000     -1.9985748E-08
   20.34000     -2.0076332E-08
   20.40000     -2.0317056E-08
   20.46000     -2.0682554E-08
   20.52000     -2.1156167E-08
   20.58000     -2.1724848E-08
   20.64000     -2.2372955E-08
   20.70000     -2.3077174E-08
   20.76000     -2.3804308E-08
   20.82000     -2.4512774E-08
   20.88000     -2.5157510E-08
   20.94000     -2.5697080E-08
   21.00000     -2.6101134E-08
   21.06000     -2.6356195E-08
   21.12000     -2.6468168E-08
   21.18000     -2.6460746E-08
   21.24000     -2.6370031E-08
   21.30000     -2.6236723E-08
   21.36000     -2.6097938E-08
   21.42000     -2.5980793E-08
   21.48000     -2.5899322E-08
   21.54000     -2.5855337E-08
   21.60000     -2.5842581E-08
   21.66000     -2.5852746E-08
   21.72000     -2.5881397E-08
   21.78000     -2.5932012E-08
   21.84000     -2.6016947E-08
   21.90000     -2.6154945E-08
   21.96000     -2.6365793E-08
   22.02000     -2.6663422E-08
   22.08000     -2.7049229E-08
   22.14000     -2.7507458E-08
   22.20000     -2.8004086E-08
   22.26000     -2.8489943E-08
   22.32000     -2.8907738E-08
   22.38000     -2.9201789E-08
   22.44000     -2.9328403E-08
   22.50000     -2.9264610E-08
   22.56000     -2.9013174E-08
   22.62000     -2.8602578E-08
   22.68000     -2.8081804E-08
   22.74000     -2.7510945E-08
   22.80000     -2.6949742E-08
   22.86000     -2.6446621E-08
   22.92000     -2.6030728E-08
   22.98000     -2.5708603E-08
   23.04000     -2.5465910E-08
   23.10000     -2.5273366E-08
   23.16000     -2.5095009E-08
   23.22000     -2.4896689E-08
   23.28000     -2.4653017E-08
   23.34000     -2.4351662E-08
   23.40000     -2.3994838E-08
   23.46000     -2.3598238E-08
   23.52000     -2.3187972E-08
   23.58000     -2.2795978E-08
   23.64000     -2.2454385E-08
   23.70000     -2.2189575E-08
   23.76000     -2.2016858E-08
   23.82000     -2.1936987E-08
   23.88000     -2.1935634E-08
   23.94000     -2.1986239E-08
   24.00000     -2.2055833E-08
   24.06000     -2.2112415E-08
   24.12000     -2.2131909E-08
   24.18000     -2.2102835E-08
   24.24000     -2.2027416E-08
   24.30000     -2.1918851E-08
   24.36000     -2.1795637E-08
   24.42000     -2.1674493E-08
   24.48000     -2.1563874E-08
   24.54000     -2.1459863E-08
   24.60000     -2.1345622E-08
   24.66000     -2.1194591E-08
   24.72000     -2.0976602E-08
   24.78000     -2.0665178E-08
   24.84000     -2.0243990E-08
   24.90000     -1.9710670E-08
   24.96000     -1.9077151E-08
   25.02000     -1.8366766E-08
   25.08000     -1.7609326E-08
   25.14000     -1.6835726E-08
   25.20000     -1.6073416E-08
   25.26000     -1.5343412E-08
   25.32000     -1.4658903E-08
   25.38000     -1.4025289E-08
   25.44000     -1.3441502E-08
   25.50000     -1.2902820E-08
   25.56000     -1.2405256E-08
   25.62000     -1.1951188E-08
   25.68000     -1.1554997E-08
   25.74000     -1.1246790E-08
   25.80000     -1.1072186E-08
   25.86000     -1.1086954E-08
   25.92000     -1.1346967E-08
   25.98000     -1.1895716E-08
   26.04000     -1.2752880E-08
   26.10000     -1.3907566E-08
   26.16000     -1.5318633E-08
   26.22000     -1.6922417E-08
   26.28000     -1.8645913E-08
   26.34000     -2.0421743E-08
   26.40000     -2.2200760E-08
   26.46000     -2.3958812E-08
   26.52000     -2.5696030E-08
   26.58000     -2.7429262E-08
   26.64000     -2.9180271E-08
   26.70000     -3.0963605E-08
   26.76000     -3.2778097E-08
   26.82000     -3.4604746E-08
   26.88000     -3.6411713E-08
   26.94000     -3.8164760E-08
   27.00000     -3.9839549E-08
   27.06000     -4.1431417E-08
   27.12000     -4.2958817E-08
   27.18000     -4.4458613E-08
   27.24000     -4.5974051E-08
   27.30000     -4.7538936E-08
   27.36000     -4.9163098E-08
   27.42000     -5.0824234E-08
   27.48000     -5.2469495E-08
   27.54000     -5.4027101E-08
   27.60000     -5.5424998E-08
   27.66000     -5.6610862E-08
   27.72000     -5.7567103E-08
   27.78000     -5.8315862E-08
   27.84000     -5.8911983E-08
   27.90000     -5.9426029E-08
   27.96000     -5.9922563E-08
   28.02000     -6.0440655E-08
   28.08000     -6.0982501E-08
   28.14000     -6.1513632E-08
   28.20000     -6.1973985E-08
   28.26000     -6.2296181E-08
   28.32000     -6.2424874E-08
   28.38000     -6.2331658E-08
   28.44000     -6.2021527E-08
   28.50000     -6.1529896E-08
   28.56000     -6.0912001E-08
   28.62000     -6.0228210E-08
   28.68000     -5.9529697E-08
   28.74000     -5.8848038E-08
   28.80000     -5.8190963E-08
   28.86000     -5.7544664E-08
   28.92000     -5.6881056E-08
   28.98000     -5.6167504E-08
   29.04000     -5.5375835E-08
   29.10000     -5.4488105E-08
   29.16000     -5.3497946E-08
   29.22000     -5.2407778E-08
   29.28000     -5.1223868E-08
   29.34000     -4.9951719E-08
   29.40000     -4.8593972E-08
   29.46000     -4.7151730E-08
   29.52000     -4.5628592E-08
   29.58000     -4.4035275E-08
   29.64000     -4.2392386E-08
   29.70000     -4.0729514E-08
   29.76000     -3.9080312E-08
   29.82000     -3.7474852E-08
   29.88000     -3.5931880E-08
   29.94000     -3.4453777E-08
   30.00000     -3.3026271E-08
   30.06000     -3.1623394E-08
   30.12000     -3.0216327E-08
   30.18000     -2.8783370E-08
   30.24000     -2.7317697E-08
   30.30000     -2.5830202E-08
   30.36000     -2.4346393E-08
   30.42000     -2.2898297E-08
   30.48000     -2.1514287E-08
   30.54000     -2.0210560E-08
   30.60000     -1.8987418E-08
   30.66000     -1.7831860E-08
   30.72000     -1.6725533E-08
   30.78000     -1.5655059E-08
   30.84000     -1.4620896E-08
   30.90000     -1.3641322E-08
   30.96000     -1.2749951E-08
   31.02000     -1.1987443E-08
   31.08000     -1.1389947E-08
   31.14000     -1.0977874E-08
   31.20000     -1.0748387E-08
   31.26000     -1.0673912E-08
   31.32000     -1.0707308E-08
   31.38000     -1.0792613E-08
   31.44000     -1.0878709E-08
   31.50000     -1.0932345E-08
   31.56000     -1.0946708E-08
   31.62000     -1.0942597E-08
   31.68000     -1.0961081E-08
   31.74000     -1.1049054E-08
   31.80000     -1.1241687E-08
   31.86000     -1.1547288E-08
   31.92000     -1.1939999E-08
   31.98000     -1.2363564E-08
   32.04000     -1.2745883E-08
   32.10000     -1.3020206E-08
   32.16000     -1.3146218E-08
   32.22000     -1.3123874E-08
   32.28000     -1.2994990E-08
   32.34000     -1.2831560E-08
   32.40000     -1.2714202E-08
   32.46000     -1.2707437E-08
   32.52000     -1.2839609E-08
   32.58000     -1.3093747E-08
   32.64000     -1.3412103E-08
   32.70000     -1.3712744E-08
   32.76000     -1.3912794E-08
   32.82000     -1.3950980E-08
   32.88000     -1.3802582E-08
   32.94000     -1.3482552E-08
   33.00000     -1.3036486E-08
   33.06000     -1.2523051E-08
   33.12000     -1.1994064E-08
   33.18000     -1.1478852E-08
   33.24000     -1.0977834E-08
   33.30000     -1.0466900E-08
   33.36000     -9.9105648E-09
   33.42000     -9.2790762E-09
   33.48000     -8.5636493E-09
   33.54000     -7.7849673E-09
   33.60000     -6.9926234E-09
   33.66000     -6.2562044E-09
   33.72000     -5.6512883E-09
   33.78000     -5.2448730E-09
   33.84000     -5.0843800E-09
   33.90000     -5.1926961E-09
   33.96000     -5.5694662E-09
   34.02000     -6.1968439E-09
   34.08000     -7.0468564E-09
   34.14000     -8.0877172E-09
   34.20000     -9.2875823E-09
   34.26000     -1.0615791E-08
   34.32000     -1.2042867E-08
   34.38000     -1.3540955E-08
   34.44000     -1.5085813E-08
   34.50000     -1.6660294E-08
   34.56000     -1.8258081E-08
   34.62000     -1.9885826E-08
   34.68000     -2.1562180E-08
   34.74000     -2.3313213E-08
   34.80000     -2.5165219E-08
   34.86000     -2.7136876E-08
   34.92000     -2.9233167E-08
   34.98000     -3.1442884E-08
   35.04000     -3.3740410E-08
   35.10000     -3.6091180E-08
   35.16000     -3.8459081E-08
   35.22000     -4.0813795E-08
   35.28000     -4.3135962E-08
   35.34000     -4.5419021E-08
   35.40000     -4.7667235E-08
   35.46000     -4.9890403E-08
   35.52000     -5.2096691E-08
   35.58000     -5.4285341E-08
   35.64000     -5.6441394E-08
   35.70000     -5.8534077E-08
   35.76000     -6.0519874E-08
   35.82000     -6.2349962E-08
   35.88000     -6.3980544E-08
   35.94000     -6.5383340E-08
   36.00000     -6.6553177E-08
   36.06000     -6.7510122E-08
   36.12000     -6.8294696E-08
   36.18000     -6.8956872E-08
   36.24000     -6.9541372E-08
   36.30000     -7.0073284E-08
   36.36000     -7.0548253E-08
   36.42000     -7.0930774E-08
   36.48000     -7.1161786E-08
   36.54000     -7.1174320E-08
   36.60000     -7.0913160E-08
   36.66000     -7.0353124E-08
   36.72000     -6.9510364E-08
   36.78000     -6.8442780E-08
   36.84000     -6.7238659E-08
   36.90000     -6.5996254E-08
   36.96000     -6.4799615E-08
   37.02000     -6.3697804E-08
   37.08000     -6.2693481E-08
   37.14000     -6.1744394E-08
   37.20000     -6.0777417E-08
   37.26000     -5.9710942E-08
   37.32000     -5.8479074E-08
   37.38000     -5.7050368E-08
   37.44000     -5.5436008E-08
   37.50000     -5.3685380E-08
   37.56000     -5.1871002E-08
   37.62000     -5.0067861E-08
   37.68000     -4.8333721E-08
   37.74000     -4.6696286E-08
   37.80000     -4.5150912E-08
   37.86000     -4.3669051E-08
   37.92000     -4.2214587E-08
   37.98000     -4.0762625E-08
   38.04000     -3.9314802E-08
   38.10000     -3.7906226E-08
   38.16000     -3.6601630E-08
   38.22000     -3.5481722E-08
   38.28000     -3.4623515E-08
   38.34000     -3.4080401E-08
   38.40000     -3.3867952E-08
   38.46000     -3.3959488E-08
   38.52000     -3.4292835E-08
   38.58000     -3.4786130E-08
   38.64000     -3.5358070E-08
   38.70000     -3.5946766E-08
   38.76000     -3.6522103E-08
   38.82000     -3.7088650E-08
   38.88000     -3.7679087E-08
   38.94000     -3.8340712E-08
   39.00000     -3.9119318E-08
   39.06000     -4.0044856E-08
   39.12000     -4.1122291E-08
   39.18000     -4.2329397E-08
   39.24000     -4.3621025E-08
   39.30000     -4.4938208E-08
   39.36000     -4.6219341E-08
   39.42000     -4.7410889E-08
   39.48000     -4.8475510E-08
   39.54000     -4.9396490E-08
   39.60000     -5.0178318E-08
   39.66000     -5.0844040E-08
   39.72000     -5.1430451E-08
   39.78000     -5.1982212E-08
   39.84000     -5.2545722E-08
   39.90000     -5.3163216E-08
   39.96000     -5.3867268E-08
   40.02000     -5.4676057E-08
   40.08000     -5.5589865E-08
   40.14000     -5.6589919E-08
   40.20000     -5.7640484E-08
   40.26000     -5.8694866E-08
   40.32000     -5.9704789E-08
   40.38000     -6.0631294E-08
   40.44000     -6.1454216E-08
   40.50000     -6.2177108E-08
   40.56000     -6.2825350E-08
   40.62000     -6.3437398E-08
   40.68000     -6.4051299E-08
   40.74000     -6.4690575E-08
   40.80000     -6.5354136E-08
   40.86000     -6.6013776E-08
   40.92000     -6.6620281E-08
   40.98000     -6.7116360E-08
   41.04000     -6.7452355E-08
   41.10000     -6.7599672E-08
   41.16000     -6.7557927E-08
   41.22000     -6.7353817E-08
   41.28000     -6.7032524E-08
   41.34000     -6.6644773E-08
   41.40000     -6.6233746E-08
   41.46000     -6.5825645E-08
   41.52000     -6.5426448E-08
   41.58000     -6.5024963E-08
   41.64000     -6.4600719E-08
   41.70000     -6.4133509E-08
   41.76000     -6.3611161E-08
   41.82000     -6.3033148E-08
   41.88000     -6.2408631E-08
   41.94000     -6.1749880E-08
   42.00000     -6.1063275E-08
   42.06000     -6.0341357E-08
   42.12000     -5.9558992E-08
   42.18000     -5.8675738E-08
   42.24000     -5.7644513E-08
   42.30000     -5.6424490E-08
   42.36000     -5.4994452E-08
   42.42000     -5.3362317E-08
   42.48000     -5.1567273E-08
   42.54000     -4.9672945E-08
   42.60000     -4.7752977E-08
   42.66000     -4.5872657E-08
   42.72000     -4.4072181E-08
   42.78000     -4.2356678E-08
   42.84000     -4.0696456E-08
   42.90000     -3.9037648E-08
   42.96000     -3.7320092E-08
   43.02000     -3.5496797E-08
   43.08000     -3.3548869E-08
   43.14000     -3.1491233E-08
   43.20000     -2.9367769E-08
   43.26000     -2.7238073E-08
   43.32000     -2.5160753E-08
   43.38000     -2.3179126E-08
   43.44000     -2.1313884E-08
   43.50000     -1.9564615E-08
   43.56000     -1.7918843E-08
   43.62000     -1.6364742E-08
   43.68000     -1.4902641E-08
   43.74000     -1.3551149E-08
   43.80000     -1.2345656E-08
   43.86000     -1.1329592E-08
   43.92000     -1.0541166E-08
   43.98000     -9.9998321E-09
   44.04000     -9.6969668E-09
   44.10000     -9.5941601E-09
   44.16000     -9.6303641E-09
   44.22000     -9.7364676E-09
   44.28000     -9.8534354E-09
   44.34000     -9.9487716E-09
   44.40000     -1.0026264E-08
   44.46000     -1.0125810E-08
   44.52000     -1.0313039E-08
   44.58000     -1.0661630E-08
   44.64000     -1.1233369E-08
   44.70000     -1.2061705E-08
   44.76000     -1.3143287E-08
   44.82000     -1.4439540E-08
   44.88000     -1.5887329E-08
   44.94000     -1.7415291E-08
   45.00000     -1.8961037E-08
   45.06000     -2.0484528E-08
   45.12000     -2.1974152E-08
   45.18000     -2.3444301E-08
   45.24000     -2.4925541E-08
   45.30000     -2.6450639E-08
   45.36000     -2.8040752E-08
   45.42000     -2.9696162E-08
   45.48000     -3.1394364E-08
   45.54000     -3.3096001E-08
   45.60000     -3.4756479E-08
   45.66000     -3.6339134E-08
   45.72000     -3.7825188E-08
   45.78000     -3.9217070E-08
   45.84000     -4.0533987E-08
   45.90000     -4.1801552E-08
   45.96000     -4.3039481E-08
   46.02000     -4.4251848E-08
   46.08000     -4.5423441E-08
   46.14000     -4.6523507E-08
   46.20000     -4.7515588E-08
   46.26000     -4.8370215E-08
   46.32000     -4.9076519E-08
   46.38000     -4.9649255E-08
   46.44000     -5.0129341E-08
   46.50000     -5.0577938E-08
   46.56000     -5.1066230E-08
   46.62000     -5.1664241E-08
   46.68000     -5.2432767E-08
   46.74000     -5.3421548E-08
   46.80000     -5.4674981E-08
   46.86000     -5.6244161E-08
   46.92000     -5.8201636E-08
   46.98000     -6.0654045E-08
   47.04000     -6.3748409E-08
   47.10000     -6.7670015E-08
   47.16000     -7.2633199E-08
   47.22000     -7.8869043E-08
   47.28000     -8.6615380E-08
   47.34000     -9.6114015E-08
   47.40000     -1.0761731E-07
   47.46000     -1.2140354E-07
   47.52000     -1.3779760E-07
   47.58000     -1.5719256E-07
   47.64000     -1.8006787E-07
   47.70000     -2.0700156E-07
   47.76000     -2.3867591E-07
   47.82000     -2.7587845E-07
   47.88000     -3.1950117E-07
   47.94000     -3.7054176E-07
   48.00000     -4.3011050E-07
   48.06000     -4.9944498E-07
   48.12000     -5.7993219E-07
   48.18000     -6.7313727E-07
   48.24000     -7.8083440E-07
   48.30000     -9.0503659E-07
   48.36000     -1.0480219E-06
   48.42000     -1.2123541E-06
   48.48000     -1.4009005E-06
   48.54000     -1.6168476E-06
   48.60000     -1.8637206E-06
   48.66000     -2.1454059E-06
   48.72000     -2.4661797E-06
   48.78000     -2.8307436E-06
   48.84000     -3.2442606E-06
   48.90000     -3.7123950E-06
   48.96000     -4.2413471E-06
   49.02000     -4.8378856E-06
   49.08000     -5.5093687E-06
   49.14000     -6.2637619E-06
   49.20000     -7.1096479E-06
   49.26000     -8.0562368E-06
   49.32000     -9.1133761E-06
   49.38000     -1.0291561E-05
   49.44000     -1.1601955E-05
   49.50000     -1.3056400E-05
   49.56000     -1.4667431E-05
   49.62000     -1.6448272E-05
   49.68000     -1.8412826E-05
   49.74000     -2.0575662E-05
   49.80000     -2.2951970E-05
   49.86000     -2.5557505E-05
   49.92000     -2.8408538E-05
   49.98000     -3.1521773E-05
   50.04000     -3.4914268E-05
   50.10000     -3.8603364E-05
   50.16000     -4.2606582E-05
   50.22000     -4.6941528E-05
   50.28000     -5.1625793E-05
   50.34000     -5.6676832E-05
   50.40000     -6.2111838E-05
   50.46000     -6.7947578E-05
   50.52000     -7.4200238E-05
   50.58000     -8.0885242E-05
   50.64000     -8.8017056E-05
   50.70000     -9.5609052E-05
   50.76000     -1.0367326E-04
   50.82000     -1.1222027E-04
   50.88000     -1.2125898E-04
   50.94000     -1.3079644E-04
   51.00000     -1.4083779E-04
   51.06000     -1.5138595E-04
   51.12000     -1.6244155E-04
   51.18000     -1.7400277E-04
   51.24000     -1.8606518E-04
   51.30000     -1.9862164E-04
   51.36000     -2.1166219E-04
   51.42000     -2.2517398E-04
   51.48000     -2.3914126E-04
   51.54000     -2.5354527E-04
   51.60000     -2.6836435E-04
   51.66000     -2.8357396E-04
   51.72000     -2.9914666E-04
   51.78000     -3.1505234E-04
   51.84000     -3.3125831E-04
   51.90000     -3.4772942E-04
   51.96000     -3.6442827E-04
   52.02000     -3.8131548E-04
   52.08000     -3.9834992E-04
   52.14000     -4.1548896E-04
   52.20000     -4.3268880E-04
   52.26000     -4.4990488E-04
   52.32000     -4.6709209E-04
   52.38000     -4.8420514E-04
   52.44000     -5.0119928E-04
   52.50000     -5.1803025E-04
   52.56000     -5.3465489E-04
   52.62000     -5.5103155E-04
   52.68000     -5.6712033E-04
   52.74000     -5.8288377E-04
   52.80000     -5.9828680E-04
   52.86000     -6.1329739E-04
   52.92000     -6.2788668E-04
   52.98000     -6.4202934E-04
   53.04000     -6.5570395E-04
   53.10000     -6.6889275E-04
   53.16000     -6.8158226E-04
   53.22000     -6.9376314E-04
   53.28000     -7.0543017E-04
   53.34000     -7.1658241E-04
   53.40000     -7.2722335E-04
   53.46000     -7.3736033E-04
   53.52000     -7.4700487E-04
   53.58000     -7.5617211E-04
   53.64000     -7.6488074E-04
   53.70000     -7.7315257E-04
   53.76000     -7.8101223E-04
   53.82000     -7.8848691E-04
   53.88000     -7.9560559E-04
   53.94000     -8.0239930E-04
   54.00000     -8.0889964E-04
   54.06000     -8.1513921E-04
   54.12000     -8.2115049E-04
   54.18000     -8.2696561E-04
   54.24000     -8.3261583E-04
   54.30000     -8.3813135E-04
   54.36000     -8.4354036E-04
   54.42000     -8.4886886E-04
   54.48000     -8.5414015E-04
   54.54000     -8.5937459E-04
   54.60000     -8.6458912E-04
   54.66000     -8.6979708E-04
   54.72000     -8.7500794E-04
   54.78000     -8.8022731E-04
   54.84000     -8.8545668E-04
   54.90000     -8.9069357E-04
   54.96000     -8.9593144E-04
   55.02000     -9.0115989E-04
   55.08000     -9.0636476E-04
   55.14000     -9.1152819E-04
   55.20000     -9.1662904E-04
   55.26000     -9.2164316E-04
   55.32000     -9.2654367E-04
   55.38000     -9.3130179E-04
   55.44000     -9.3588670E-04
   55.50000     -9.4026653E-04
   55.56000     -9.4440853E-04