 -0.750000000       0.00000000    
 -0.689999998       0.00000000    
 -0.629999995       0.00000000    
 -0.569999993       0.00000000    
 -0.509999990       0.00000000    
 -0.449999988       0.00000000    
 -0.389999986       0.00000000    
 -0.330000013       1.03915242E-25
 -0.270000011       6.13711992E-25
 -0.209999993       4.24235836E-25
 -0.150000006      -9.05553786E-24
  -9.00000036E-02  -4.95765821E-23
  -2.99999993E-02  -1.34522494E-22
   2.99999993E-02  -1.79330046E-22
   9.00000036E-02   1.42453903E-22
  0.150000006       1.41312882E-21
  0.209999993       3.96552244E-21
  0.270000011       6.51934443E-21
  0.330000013       4.30203106E-21
  0.389999986      -1.16059014E-20
  0.449999988      -5.05128698E-20
  0.509999990      -1.10816818E-19
  0.569999993      -1.61536664E-19
  0.629999995      -1.25036970E-19
  0.689999998       1.19822915E-19
  0.750000000       6.87115464E-19
  0.810000002       1.56502055E-18
  0.870000005       2.44091073E-18
  0.930000007       2.54839520E-18
  0.990000010       6.97412415E-19
   1.04999995      -4.30359325E-18
   1.11000001      -1.26980620E-17
   1.16999996      -2.24461332E-17
   1.23000002      -2.81220001E-17
   1.28999996      -2.11535874E-17
   1.35000002       7.36932643E-18
   1.40999997       6.08221735E-17
   1.47000003       1.29418429E-16
   1.52999997       1.84612710E-16
   1.59000003       1.81176840E-16
   1.64999998       7.19598031E-17
   1.71000004      -1.64302342E-16
   1.76999998      -4.90204701E-16
   1.83000004      -7.89202885E-16
   1.88999999      -8.79028770E-16
   1.95000005      -5.73793777E-16
   2.00999999       2.11075727E-16
   2.06999993       1.34700971E-15
   2.13000011       2.43588867E-15
   2.19000006       2.87551655E-15
   2.25000000       2.07998385E-15
   2.30999994      -1.84110353E-16
   2.36999989      -3.47365395E-15
   2.43000007      -6.54818302E-15
   2.49000001      -7.62953408E-15
   2.54999995      -5.09747223E-15
   2.60999990       1.53894801E-15
   2.67000008       1.07891880E-14
   2.73000002       1.89746459E-14
   2.78999996       2.10996517E-14
   2.84999990       1.28559781E-14
   2.91000009      -6.76648331E-15
   2.97000003      -3.33589561E-14
   3.02999997      -5.67994477E-14
   3.08999991      -6.37596868E-14
   3.15000010      -4.29561816E-14
   3.21000004       8.35138741E-15
   3.26999998       7.93701923E-14
   3.32999992       1.45397258E-13
   3.39000010       1.74059958E-13
   3.45000005       1.37644385E-13
   3.50999999       2.77773613E-14
   3.56999993      -1.33760719E-13
   3.63000011      -2.94584100E-13
   3.69000006      -3.85272706E-13
   3.75000000      -3.45097486E-13
   3.80999994      -1.51683746E-13
   3.86999989       1.57906945E-13
   3.93000007       4.86764708E-13
   3.99000001       7.04204869E-13
   4.05000019       6.93462540E-13
   4.11000013       4.05016651E-13
   4.17000008      -1.06866691E-13
   4.23000002      -6.84359470E-13
   4.28999996      -1.11091952E-12
   4.34999990      -1.19029949E-12
   4.40999985      -8.31940040E-13
   4.46999979      -1.06807134E-13
   4.53000021       7.55808881E-13
   4.59000015       1.43920607E-12
   4.65000010       1.65831552E-12
   4.71000004       1.28305450E-12
   4.76999998       4.13410110E-13
   4.82999992      -6.33299077E-13
   4.88999987      -1.43028016E-12
   4.94999981      -1.61145901E-12
   5.01000023      -1.03974370E-12
   5.07000017       9.90428713E-14
   5.13000011       1.32728507E-12
   5.19000006       2.03657317E-12
   5.25000000       1.72977876E-12
   5.30999994       2.55569193E-13
   5.36999989      -2.06143978E-12
   5.42999983      -4.46157217E-12
   5.48999977      -5.96877062E-12
   5.55000019      -5.72513564E-12
   5.61000013      -3.32824306E-12
   5.67000008       9.54177817E-13
   5.73000002       6.18341836E-12
   5.78999996       1.09828492E-11
   5.84999990       1.39409534E-11
   5.90999985       1.40541467E-11
   5.96999979       1.10561673E-11
   6.03000021       5.51231196E-12
   6.09000015      -1.36528321E-12
   6.15000010      -8.12617768E-12
   6.21000004      -1.35734228E-11
   6.26999998      -1.71582609E-11
   6.32999992      -1.91210381E-11
   6.38999987      -2.03053477E-11
   6.44999981      -2.16907048E-11
   6.51000023      -2.38019431E-11
   6.57000017      -2.62192264E-11
   6.63000011      -2.74025455E-11
   6.69000006      -2.49548056E-11
   6.75000000      -1.63029156E-11
   6.80999994       3.76372192E-13
   6.86999989       2.52650696E-11
   6.92999983       5.63431073E-11
   6.98999977       8.93686306E-11
   7.05000019       1.18445559E-10
   7.11000013       1.37036160E-10
   7.17000008       1.39132941E-10
   7.23000002       1.20261925E-10
   7.28999996       7.80710496E-11
   7.34999990       1.24402311E-11
   7.40999985      -7.47353152E-11
   7.46999979      -1.79770421E-10
   7.53000021      -2.97067870E-10
   7.59000015      -4.18412555E-10
   7.65000010      -5.31698963E-10
   7.71000004      -6.19416796E-10
   7.76999998      -6.57464361E-10
   7.82999992      -6.14940932E-10
   7.88999987      -4.55431415E-10
   7.94999981      -1.39948955E-10
   8.01000023       3.68747394E-10
   8.06999969       1.10117060E-09
   8.13000011       2.07641015E-09
   8.18999958       3.29865779E-09
   8.25000000       4.75559414E-09
   8.31000042       6.41881082E-09
   8.36999989       8.24594704E-09
   8.43000031       1.01838937E-08
   8.48999977       1.21723103E-08
   8.55000019       1.41469068E-08
   8.60999966       1.60422697E-08
   8.67000008       1.77944095E-08
   8.72999954       1.93433820E-08
   8.78999996       2.06363016E-08
   8.85000038       2.16307647E-08
   8.90999985       2.22982859E-08
   8.97000027       2.26269972E-08
   9.02999973       2.26227623E-08
   9.09000015       2.23080949E-08
   9.14999962       2.17187655E-08
   9.21000004       2.08986872E-08
   9.27000046       1.98941503E-08
   9.32999992       1.87488300E-08
   9.39000034       1.75007315E-08
   9.44999981       1.61817137E-08
   9.51000023       1.48194452E-08
   9.56999969       1.34408333E-08
   9.63000011       1.20754997E-08
   9.68999958       1.07578568E-08
   9.75000000       9.52677315E-09
   9.81000042       8.42265369E-09
   9.86999989       7.48261542E-09
   9.93000031       6.73518930E-09
   9.98999977       6.19613827E-09
   10.0500002       5.86673643E-09
   10.1099997       5.73507020E-09
   10.1700001       5.77997294E-09
   10.2299995       5.97638516E-09
   10.2900000       6.30052277E-09
   10.3500004       6.73335876E-09
   10.4099998       7.26154115E-09
   10.4700003       7.87576937E-09
   10.5299997       8.56746851E-09
   10.5900002       9.32510602E-09
   10.6499996       1.01315569E-08
   10.7100000       1.09634621E-08
   10.7700005       1.17928751E-08
   10.8299999       1.25907338E-08
   10.8900003       1.33311833E-08
   10.9499998       1.39955869E-08
   11.0100002       1.45752299E-08
   11.0699997       1.50721053E-08
   11.1300001       1.54977240E-08
   11.1899996       1.58703735E-08
   11.2500000       1.62115228E-08
   11.3100004       1.65422449E-08
   11.3699999       1.68803354E-08
   11.4300003       1.72386319E-08
   11.4899998       1.76245312E-08
   11.5500002       1.80405557E-08
   11.6099997       1.84854674E-08
   11.6700001       1.89554861E-08
   11.7299995       1.94452294E-08
   11.7900000       1.99482457E-08
   11.8500004       2.04571737E-08
   11.9099998       2.09637339E-08
   11.9700003       2.14586624E-08
   12.0299997       2.19317116E-08
   12.0900002       2.23716174E-08
   12.1499996       2.27660131E-08
   12.2100000       2.31012045E-08
   12.2700005       2.33619915E-08
   12.3299999       2.35317792E-08
   12.3900003       2.35932429E-08
   12.4499998       2.35297382E-08
   12.5100002       2.33272832E-08
   12.5699997       2.29766925E-08
   12.6300001       2.24752181E-08
   12.6899996       2.18270486E-08
   12.7500000       2.10423643E-08
   12.8100004       2.01351167E-08
   12.8699999       1.91202041E-08
   12.9300003       1.80110877E-08
   12.9899998       1.68188290E-08
   13.0500002       1.55531641E-08
   13.1099997       1.42254928E-08
   13.1700001       1.28528441E-08
   13.2299995       1.14614087E-08
   13.2900000       1.00880664E-08
   13.3500004       8.77888606E-09
   13.4099998       7.58448060E-09
   13.4700003       6.55318155E-09
   13.5299997       5.72386405E-09
   13.5900002       5.12047960E-09
   13.6499996       4.74992712E-09
   13.7100000       4.60383243E-09
   13.7700005       4.66354422E-09
   13.8299999       4.90656804E-09
   13.8900003       5.31220135E-09
   13.9499998       5.86444271E-09
   14.0100002       6.55122223E-09
   14.0699997       7.36031147E-09
   14.1300001       8.27346547E-09
   14.1899996       9.26101951E-09
   14.2500000       1.02790692E-08
   14.3100004       1.12705809E-08
   14.3699999       1.21705490E-08
   14.4300003       1.29140245E-08
   14.4899998       1.34449181E-08
   14.5500002       1.37232279E-08
   14.6099997       1.37288341E-08
   14.6700001       1.34610438E-08
   14.7299995       1.29344304E-08
   14.7900000       1.21726202E-08
   14.8500004       1.12022658E-08
   14.9099998       1.00492201E-08
   14.9700003       8.73800676E-09
   15.0299997       7.29434113E-09
   15.0900002       5.74919934E-09
   15.1499996       4.14221013E-09
   15.2100000       2.52229548E-09
   15.2700005       9.44446299E-10
   15.3299999      -5.37007216E-10
   15.3900003      -1.87682714E-09
   15.4499998      -3.04634762E-09
   15.5100002      -4.03743750E-09
   15.5699997      -4.86143259E-09
   15.6300001      -5.54316992E-09
   15.6899996      -6.11194517E-09
   15.7500000      -6.59231691E-09
   15.8100004      -6.99780411E-09
   15.8699999      -7.32957206E-09
   15.9300003      -7.58053620E-09
   15.9899998      -7.74342812E-09
   16.0499992      -7.81995624E-09
   16.1100006      -7.82775800E-09
   16.1700001      -7.80246978E-09
   16.2299995      -7.79380827E-09
   16.2900009      -7.85652343E-09
   16.3500004      -8.03875988E-09
   16.4099998      -8.37123615E-09
   16.4699993      -8.86045282E-09
   16.5300007      -9.48789047E-09
   16.5900002      -1.02153672E-08
   16.6499996      -1.09949223E-08
   16.7099991      -1.17803376E-08
   16.7700005      -1.25371651E-08
   16.8299999      -1.32486520E-08
   16.8899994      -1.39163507E-08
   16.9500008      -1.45556935E-08
   17.0100002      -1.51881796E-08
   17.0699997      -1.58325673E-08
   17.1299992      -1.64975731E-08
   17.1900005      -1.71779693E-08
   17.2500000      -1.78549495E-08
   17.3099995      -1.85004723E-08
   17.3700008      -1.90843004E-08
   17.4300003      -1.95817957E-08
   17.4899998      -1.99805008E-08
   17.5499992      -2.02838333E-08
   17.6100006      -2.05110862E-08
   17.6700001      -2.06937720E-08
   17.7299995      -2.08692779E-08
   17.7900009      -2.10734239E-08
   17.8500004      -2.13337490E-08
   17.9099998      -2.16651923E-08
   17.9699993      -2.20691678E-08
   18.0300007      -2.25361205E-08
   18.0900002      -2.30505623E-08
   18.1499996      -2.35967921E-08
   18.2099991      -2.41632385E-08
   18.2700005      -2.47437253E-08
   18.3299999      -2.53350514E-08
   18.3899994      -2.59316391E-08
   18.4500008      -2.65193414E-08
   18.5100002      -2.70709180E-08
   18.5699997      -2.75454699E-08
   18.6299992      -2.78928329E-08
   18.6900005      -2.80621979E-08
   18.7500000      -2.80127779E-08
   18.8099995      -2.77234058E-08
   18.8700008      -2.71981744E-08
   18.9300003      -2.64662461E-08
   18.9899998      -2.55756767E-08
   19.0499992      -2.45828016E-08
   19.1100006      -2.35399558E-08
   19.1700001      -2.24848442E-08
   19.2299995      -2.14343636E-08
   19.2900009      -2.03844337E-08
   19.3500004      -1.93156993E-08
   19.4099998      -1.82031705E-08
   19.4699993      -1.70267072E-08
   19.5300007      -1.57789124E-08
   19.5900002      -1.44679762E-08
   19.6499996      -1.31146347E-08
   19.7099991      -1.17446470E-08
   19.7700005      -1.03798623E-08
   19.8299999      -9.03149555E-09
   19.8899994      -7.69840991E-09
   19.9500008      -6.37113606E-09
   20.0100002      -5.03997466E-09
   20.0699997      -3.70365627E-09
   20.1299992      -2.37468289E-09
   20.1900005      -1.07866804E-09
   20.2500000       1.52539731E-10
   20.3099995       1.29157951E-09
   20.3700008       2.32602781E-09
   20.4300003       3.26440208E-09
   20.4899998       4.13513579E-09
   20.5499992       4.97862684E-09
   20.6100006       5.83508841E-09
   20.6700001       6.73251588E-09
   20.7299995       7.67899344E-09
   20.7900009       8.66194139E-09
   20.8500004       9.65433156E-09
   20.9099998       1.06254765E-08
   20.9699993       1.15525323E-08
   21.0300007       1.24287842E-08
   21.0900002       1.32661144E-08
   21.1499996       1.40910572E-08
   21.2099991       1.49359689E-08
   21.2700005       1.58282081E-08
   21.3299999       1.67805769E-08
   21.3899994       1.77857054E-08
   21.4500008       1.88156104E-08
   21.5100002       1.98262473E-08
   21.5699997       2.07654800E-08
   21.6299992       2.15822258E-08
   21.6900005       2.22344632E-08
   21.7500000       2.26942998E-08
   21.8099995       2.29493082E-08
   21.8700008       2.30003820E-08
   21.9300003       2.28573089E-08
   21.9899998       2.25338201E-08
   22.0499992       2.20438192E-08
   22.1100006       2.13999503E-08
   22.1700001       2.06147508E-08
   22.2299995       1.97036005E-08
   22.2900009       1.86880786E-08
   22.3500004       1.75981487E-08
   22.4099998       1.64720984E-08
   22.4699993       1.53539030E-08
   22.5300007       1.42885748E-08
   22.5900002       1.33166411E-08
   22.6499996       1.24690667E-08
   22.7099991       1.17637500E-08
   22.7700005       1.12043486E-08
   22.8299999       1.07816813E-08
   22.8899994       1.04775113E-08
   22.9500008       1.02700195E-08
   23.0100002       1.01397868E-08
   23.0699997       1.00747757E-08
   23.1299992       1.00727693E-08
   23.1900005       1.01402637E-08
   23.2500000       1.02878399E-08
   23.3099995       1.05233271E-08
   23.3700008       1.08450147E-08
   23.4300003       1.12374137E-08
   23.4899998       1.16712568E-08
   23.5499992       1.21079431E-08
   23.6100006       1.25069910E-08
   23.6700001       1.28339961E-08
   23.7299995       1.30665141E-08
   23.7900009       1.31962254E-08
   23.8500004       1.32271927E-08
   23.9099998       1.31714124E-08
   23.9699993       1.30435778E-08
   24.0300007       1.28568720E-08
   24.0900002       1.26208430E-08
   24.1499996       1.23413688E-08
   24.2099991       1.20218706E-08
   24.2700005       1.16645591E-08
   24.3299999       1.12706546E-08
   24.3899994       1.08391625E-08
   24.4500008       1.03645883E-08
   24.5100002       9.83467707E-09
   24.5699997       9.22956644E-09
   24.6299992       8.52345128E-09
   24.6900005       7.68901209E-09
   24.7500000       6.70373623E-09
   24.8099995       5.55631541E-09
   24.8700008       4.25094271E-09
   24.9300003       2.80793500E-09
   24.9899998       1.26034327E-09
   25.0499992      -3.52254503E-10
   25.1100006      -1.99055439E-09
   25.1700001      -3.62057828E-09
   25.2299995      -5.21552046E-09
   25.2900009      -6.75439793E-09
   25.3500004      -8.21887447E-09
   25.4099998      -9.59029212E-09
   25.4699993      -1.08486233E-08
   25.5300007      -1.19740617E-08
   25.5900002      -1.29506663E-08
   25.6499996      -1.37705891E-08
   25.7099991      -1.44371501E-08
   25.7700005      -1.49654280E-08
   25.8299999      -1.53799018E-08
   25.8899994      -1.57096629E-08
   25.9500008      -1.59824634E-08
   26.0100002      -1.62193565E-08
   26.0699997      -1.64315814E-08
   26.1299992      -1.66207688E-08
   26.1900005      -1.67825291E-08
   26.2500000      -1.69122902E-08
   26.3099995      -1.70113168E-08
   26.3700008      -1.70905885E-08
   26.4300003      -1.71709527E-08
   26.4899998      -1.72793708E-08
   26.5499992      -1.74427193E-08
   26.6100006      -1.76816428E-08
   26.6700001      -1.80067552E-08
   26.7299995      -1.84183211E-08
   26.7900009      -1.89087430E-08
   26.8500004      -1.94658742E-08
   26.9099998      -2.00750243E-08
   26.9699993      -2.07185522E-08
   27.0300007      -2.13737739E-08
   27.0900002      -2.20111893E-08
   27.1499996      -2.25952714E-08
   27.2099991      -2.30888411E-08
   27.2700005      -2.34599806E-08
   27.3299999      -2.36888642E-08
   27.3899994      -2.37713085E-08
   27.4500008      -2.37171580E-08
   27.5100002      -2.35437998E-08
   27.5699997      -2.32673667E-08
   27.6299992      -2.28953461E-08
   27.6900005      -2.24236842E-08
   27.7500000      -2.18395932E-08
   27.8099995      -2.11287343E-08
   27.8700008      -2.02836876E-08
   27.9300003      -1.93101890E-08
   27.9899998      -1.82288105E-08
   28.0499992      -1.70717396E-08
   28.1100006      -1.58764717E-08
   28.1700001      -1.46792916E-08
   28.2299995      -1.35111859E-08
   28.2900009      -1.23974715E-08
   28.3500004      -1.13604850E-08
   28.4099998      -1.04231486E-08
   28.4699993      -9.61077884E-09
   28.5300007      -8.94937635E-09
   28.5900002      -8.46036663E-09
   28.6499996      -8.15372836E-09
   28.7099991      -8.02263589E-09
   28.7700005      -8.04253197E-09
   28.8299999      -8.17603585E-09
   28.8899994      -8.38264924E-09
   28.9500008      -8.63008243E-09
   29.0100002      -8.90299479E-09
   29.0699997      -9.20567711E-09
   29.1299992      -9.55743129E-09
   29.1900005      -9.98237049E-09
   29.2500000      -1.04977431E-08
   29.3099995      -1.11057155E-08
   29.3700008      -1.17923129E-08
   29.4300003      -1.25343744E-08
   29.4899998      -1.33119142E-08
   29.5499992      -1.41206984E-08
   29.6100006      -1.49792463E-08
   29.6700001      -1.59262221E-08
   29.7299995      -1.70079062E-08
   29.7900009      -1.82595876E-08
   29.8500004      -1.96876915E-08
   29.9099998      -2.12599947E-08
   29.9699993      -2.29086297E-08
   30.0300007      -2.45459528E-08
   30.0900002      -2.60881610E-08
   30.1499996      -2.74781993E-08
   30.2099991      -2.86993398E-08
   30.2700005      -2.97742790E-08
   30.3299999      -3.07502219E-08
   30.3899994      -3.16760982E-08
   30.4500008      -3.25811982E-08
   30.5100002      -3.34638663E-08
   30.5699997      -3.42945299E-08
   30.6299992      -3.50312632E-08
   30.6900005      -3.56407632E-08
   30.7500000      -3.61154697E-08
   30.8099995      -3.64792001E-08
   30.8700008      -3.67787969E-08
   30.9300003      -3.70650532E-08
   30.9899998      -3.73707181E-08
   31.0499992      -3.76944840E-08
   31.1100006      -3.79973280E-08
   31.1700001      -3.82126295E-08
   31.2299995      -3.82662826E-08
   31.2900009      -3.80991629E-08
   31.3500004      -3.76839360E-08
   31.4099998      -3.70304853E-08
   31.4699993      -3.61786654E-08
   31.5300007      -3.51819160E-08
   31.5900002      -3.40881385E-08
   31.6499996      -3.29251648E-08
   31.7099991      -3.16958015E-08
   31.7700005      -3.03837524E-08
   31.8299999      -2.89674187E-08
   31.8899994      -2.74355010E-08
   31.9500008      -2.57978314E-08
   32.0099983      -2.40866864E-08
   32.0699997      -2.23476846E-08
   32.1300011      -2.06236148E-08
   32.1899986      -1.89374898E-08
   32.2500000      -1.72816996E-08
   32.3100014      -1.56180455E-08
   32.3699989      -1.38893705E-08
   32.4300003      -1.20392833E-08
   32.4900017      -1.00333724E-08
   32.5499992      -7.87481813E-09
   32.6100006      -5.60929880E-09
   32.6699982      -3.31781225E-09
   32.7299995      -1.10005671E-09
   32.7900009       9.46144829E-10
   32.8499985       2.74310219E-09
   32.9099998       4.24424940E-09
   32.9700012       5.43569811E-09
   33.0299988       6.32931885E-09
   33.0900002       6.95079461E-09
   33.1500015       7.32719663E-09
   33.2099991       7.47822160E-09
   33.2700005       7.41358797E-09
   33.3300018       7.13679782E-09
   33.3899994       6.65333078E-09
   33.4500008       5.97985572E-09
   33.5099983       5.15077225E-09
   33.5699997       4.21930846E-09
   33.6300011       3.25228311E-09
   33.6899986       2.31983943E-09
   33.7500000       1.48327461E-09
   33.8100014       7.84838250E-10
   33.8699989       2.42772108E-10
   33.9300003      -1.46909235E-10
   33.9900017      -4.02726102E-10
   34.0499992      -5.46974965E-10
   34.1100006      -5.95726468E-10
   34.1699982      -5.52975665E-10
   34.2299995      -4.10684320E-10
   34.2900009      -1.54211033E-10
   34.3499985       2.29359864E-10
   34.4099998       7.43501927E-10
   34.4700012       1.37833778E-09
   34.5299988       2.11222573E-09
   34.5900002       2.91841218E-09
   34.6500015       3.77434306E-09
   34.7099991       4.67011718E-09
   34.7700005       5.61270097E-09
   34.8300018       6.62392408E-09
   34.8899994       7.73241116E-09
   34.9500008       8.96181263E-09
   35.0099983       1.03191597E-08
   35.0699997       1.17873311E-08
   35.1300011       1.33244153E-08
   35.1899986       1.48705004E-08
   35.2500000       1.63598965E-08
   35.3100014       1.77348962E-08
   35.3699989       1.89565856E-08
   35.4300003       2.00092725E-08
   35.4900017       2.08974154E-08
   35.5499992       2.16366072E-08
   35.6100006       2.22424639E-08
   35.6699982       2.27218688E-08
   35.7299995       2.30700081E-08
   35.7900009       2.32741861E-08
   35.8499985       2.33225759E-08
   35.9099998       2.32138841E-08
   35.9700012       2.29636115E-08
   36.0299988       2.26040164E-08
   36.0900002       2.21777459E-08
   36.1500015       2.17277822E-08
   36.2099991       2.12881268E-08
   36.2700005       2.08790443E-08
   36.3300018       2.05085584E-08
   36.3899994       2.01788168E-08
   36.4500008       1.98935535E-08
   36.5099983       1.96624335E-08
   36.5699997       1.94996588E-08
   36.6300011       1.94172802E-08
   36.6899986       1.94164791E-08
   36.7500000       1.94815133E-08
   36.8100014       1.95798737E-08
   36.8699989       1.96694465E-08
   36.9300003       1.97099137E-08
   36.9900017       1.96736316E-08
   37.0499992       1.95511483E-08
   37.1100006       1.93491161E-08
   37.1699982       1.90818614E-08
   37.2299995       1.87608702E-08
   37.2900009       1.83874747E-08
   37.3499985       1.79523525E-08
   37.4099998       1.74422219E-08
   37.4700012       1.68504606E-08
   37.5299988       1.61864246E-08
   37.5900002       1.54785749E-08
   37.6500015       1.47692072E-08
   37.7099991       1.41022971E-08
   37.7700005       1.35090970E-08
   37.8300018       1.29972744E-08
   37.8899994       1.25481279E-08
   37.9500008       1.21231976E-08
   38.0099983       1.16779528E-08
   38.0699997       1.11773817E-08
   38.1300011       1.06076596E-08
   38.1899986       9.97959404E-09
   38.2500000       9.32275945E-09
   38.3100014       8.67271854E-09
   38.3699989       8.05628808E-09
   38.4300003       7.48033369E-09
   38.4900017       6.92811186E-09
   38.5499992       6.36417852E-09
   38.6100006       5.74574122E-09
   38.6699982       5.03604580E-09
   38.7299995       4.21495283E-09
   38.7900009       3.28320771E-09
   38.8499985       2.25948060E-09
   38.9099998       1.17193655E-09
   38.9700012       4.79316170E-11
   39.0299988      -1.09425924E-09
   39.0900002      -2.24889973E-09
   39.1500015      -3.42068374E-09
   39.2099991      -4.61836702E-09
   39.2700005      -5.84682924E-09
   39.3300018      -7.10050330E-09
   39.3899994      -8.36036129E-09
   39.4500008      -9.59529434E-09
   39.5099983      -1.07672289E-08
   39.5699997      -1.18383205E-08
   39.6300011      -1.27781217E-08
   39.6899986      -1.35688669E-08
   39.7500000      -1.42077372E-08
   39.8100014      -1.47058108E-08
   39.8699989      -1.50843462E-08
   39.9300003      -1.53695918E-08
   39.9900017      -1.55876432E-08
   40.0499992      -1.57606443E-08
   40.1100006      -1.59052096E-08
   40.1699982      -1.60331943E-08
   40.2299995      -1.61541855E-08
   40.2900009      -1.62786353E-08
   40.3499985      -1.64203176E-08
   40.4099998      -1.65971112E-08
   40.4700012      -1.68296523E-08
   40.5299988      -1.71381256E-08
   40.5900002      -1.75380173E-08
   40.6500015      -1.80360740E-08
   40.7099991      -1.86275635E-08
   40.7700005      -1.92958964E-08
   40.8300018      -2.00149266E-08
   40.8899994      -2.07538946E-08
   40.9500008      -2.14841087E-08
   41.0099983      -2.21859242E-08
   41.0699997      -2.28540618E-08
   41.1300011      -2.34993447E-08
   41.1899986      -2.41455655E-08
   41.2500000      -2.48216043E-08
   41.3100014      -2.55507171E-08
   41.3699989      -2.63404036E-08
   41.4300003      -2.71768563E-08
   41.4900017      -2.80269266E-08
   41.5499992      -2.88480546E-08
   41.6100006      -2.96034290E-08
   41.6699982      -3.02769649E-08
   41.7299995      -3.08821164E-08
   41.7900009      -3.14601571E-08
   41.8499985      -3.20675753E-08
   41.9099998      -3.27565779E-08
   41.9700012      -3.35558887E-08
   42.0299988      -3.44593403E-08
   42.0900002      -3.54269680E-08
   42.1500015      -3.63983652E-08
   42.2099991      -3.73131002E-08
   42.2700005      -3.81301426E-08
   42.3300018      -3.88386141E-08
   42.3899994      -3.94560082E-08
   42.4500008      -4.00150419E-08
   42.5099983      -4.05451139E-08
   42.5699997      -4.10560688E-08
   42.6300011      -4.15309493E-08
   42.6899986      -4.19302921E-08
   42.7500000      -4.22058406E-08
   42.8100014      -4.23179998E-08
   42.8699989      -4.22501429E-08
   42.9300003      -4.20144524E-08
   42.9900017      -4.16476027E-08
   43.0499992      -4.11983692E-08
   43.1100006      -4.07122691E-08
   43.1699982      -4.02190388E-08
   43.2299995      -3.97275137E-08
   43.2900009      -3.92295654E-08
   43.3499985      -3.87113168E-08
   43.4099998      -3.81669523E-08
   43.4700012      -3.76094142E-08
   43.5299988      -3.70730504E-08
   43.5900002      -3.66062665E-08
   43.6500015      -3.62558694E-08
   43.7099991      -3.60485082E-08
   43.7700005      -3.59761465E-08
   43.8300018      -3.59916683E-08
   43.8899994      -3.60173900E-08
   43.9500008      -3.59642627E-08
   44.0099983      -3.57553525E-08
   44.0699997      -3.53452556E-08
   44.1300011      -3.47285045E-08
   44.1899986      -3.39343167E-08
   44.2500000      -3.30106751E-08
   44.3100014      -3.20049089E-08
   44.3699989      -3.09493267E-08
   44.4300003      -2.98576381E-08
   44.4900017      -2.87329094E-08
   44.5499992      -2.75822103E-08
   44.6100006      -2.64298841E-08
   44.6699982      -2.53219739E-08
   44.7299995      -2.43185312E-08
   44.7900009      -2.34763764E-08
   44.8499985      -2.28296955E-08
   44.9099998      -2.23772467E-08
   44.9700012      -2.20823324E-08
   45.0299988      -2.18860858E-08
   45.0900002      -2.17287699E-08
   45.1500015      -2.15702691E-08
   45.2099991      -2.14013678E-08
   45.2700005      -2.12415880E-08
   45.3300018      -2.11252491E-08
   45.3899994      -2.10823732E-08
   45.4500008      -2.11228262E-08
   45.5099983      -2.12302975E-08
   45.5699997      -2.13680504E-08
   45.6300011      -2.14933298E-08
   45.6899986      -2.15738876E-08
   45.7500000      -2.15996909E-08
   45.8100014      -2.15852936E-08
   45.8699989      -2.15623306E-08
   45.9300003      -2.15655103E-08
   45.9900017      -2.16176197E-08
   46.0499992      -2.17191154E-08
   46.1100006      -2.18459757E-08
   46.1699982      -2.19565131E-08
   46.2299995      -2.20047518E-08
   46.2900009      -2.19559162E-08
   46.3499985      -2.17987370E-08
   46.4099998      -2.15502443E-08
   46.4700012      -2.12510578E-08
   46.5299988      -2.09524060E-08
   46.5900002      -2.06990958E-08
   46.6500015      -2.05145465E-08
   46.7099991      -2.03936139E-08
   46.7700005      -2.03063379E-08
   46.8300018      -2.02115888E-08
   46.8899994      -2.00754808E-08
   46.9500008      -1.98870396E-08
   47.0099983      -1.96642311E-08
   47.0699997      -1.94470609E-08
   47.1300011      -1.92797049E-08
   47.1899986      -1.91884002E-08
   47.2500000      -1.91640535E-08
   47.3100014      -1.91569605E-08
   47.3699989      -1.90864231E-08
   47.4300003      -1.88619538E-08
   47.4900017      -1.84080022E-08
   47.5499992      -1.76825772E-08
   47.6100006      -1.66825274E-08
   47.6699982      -1.54337023E-08
   47.7299995      -1.39701495E-08
   47.7900009      -1.23107951E-08
   47.8499985      -1.04425224E-08
   47.9099998      -8.31547542E-09
   47.9700012      -5.85087401E-09
   48.0299988      -2.95637514E-09
   48.0900002       4.58939220E-10
   48.1500015       4.47726611E-09
   48.2099991       9.17618603E-09
   48.2700005       1.46430095E-08
   48.3300018       2.09942250E-08
   48.3899994       2.83935115E-08
   48.4500008       3.70631668E-08
   48.5099983       4.72871307E-08
   48.5699997       5.94075935E-08
   48.6300011       7.38194430E-08
   48.6899986       9.09674611E-08
   48.7500000       1.11349962E-07
   48.8100014       1.35530470E-07
   48.8699989       1.64156944E-07
   48.9300003       1.97987035E-07
   48.9900017       2.37917050E-07
   49.0499992       2.85012419E-07
   49.1100006       3.40537866E-07
   49.1699982       4.05985276E-07
   49.2299995       4.83099370E-07
   49.2900009       5.73901275E-07
   49.3499985       6.80712958E-07
   49.4099998       8.06186392E-07
   49.4700012       9.53340475E-07
   49.5299988       1.12561065E-06
   49.5900002       1.32690820E-06
   49.6500015       1.56169074E-06
   49.7099991       1.83503380E-06
   49.7700005       2.15270438E-06
   49.8300018       2.52122891E-06
   49.8899994       2.94795950E-06
   49.9500008       3.44114437E-06
   50.0099983       4.01000489E-06
   50.0699997       4.66482606E-06
   50.1300011       5.41706231E-06
   50.1899986       6.27945383E-06
   50.2500000       7.26615372E-06
   50.3100014       8.39284894E-06
   50.3699989       9.67687993E-06
   50.4300003       1.11373465E-05
   50.4900017       1.27952135E-05
   50.5499992       1.46734092E-05
   50.6100006       1.67969411E-05