  -2.400000      0.0000000E+00
  -2.340000      0.0000000E+00
  -2.280000      0.0000000E+00
  -2.220000      0.0000000E+00
  -2.160000      0.0000000E+00
  -2.100000      0.0000000E+00
  -2.040000      0.0000000E+00
  -1.980000      3.4353592E-26
  -1.920000      3.6735966E-25
  -1.860000      1.6679839E-24
  -1.800000      2.8230971E-24
  -1.740000     -1.0563647E-23
  -1.680000     -9.4485676E-23
  -1.620000     -3.7634797E-22
  -1.560000     -1.0038851E-21
  -1.500000     -1.8397723E-21
  -1.440000     -1.7333111E-21
  -1.380000      2.4777105E-21
  -1.320000      1.6275197E-20
  -1.260000      4.5052586E-20
  -1.200000      8.6605241E-20
  -1.140000      1.1812895E-19
  -1.080000      8.3046749E-20
  -1.020000     -1.0843845E-19
 -0.9600000     -5.4476549E-19
 -0.9000000     -1.2291628E-18
 -0.8400000     -1.9571284E-18
 -0.7800000     -2.2130789E-18
 -0.7200000     -1.1944200E-18
 -0.6600000      1.9150377E-18
 -0.6000000      7.3717368E-18
 -0.5400000      1.4128347E-17
 -0.4800000      1.9293889E-17
 -0.4200000      1.8353285E-17
 -0.3600000      6.6291392E-18
 -0.3000000     -1.8002026E-17
 -0.2400000     -5.1957057E-17
 -0.1800000     -8.4042516E-17
 -0.1200000     -9.6823913E-17
 -5.9999999E-02 -7.2530697E-17
  0.0000000E+00 -2.7170122E-18
  5.9999999E-02  1.0187197E-16
  0.1200000      2.0693505E-16
  0.1800000      2.6131710E-16
  0.2400000      2.1677040E-16
  0.3000000      5.6149847E-17
  0.3600000     -1.8183652E-16
  0.4200000     -3.9715991E-16
  0.4800000     -4.5495320E-16
  0.5400000     -2.4478911E-16
  0.6000000      2.4424989E-16
  0.6600000      8.6650221E-16
  0.7200000      1.3206122E-15
  0.7800000      1.2357890E-15
  0.8400000      3.3792692E-16
  0.9000000     -1.3550370E-15
  0.9600000     -3.3982365E-15
   1.020000     -4.9448394E-15
   1.080000     -4.9917782E-15
   1.140000     -2.8184009E-15
   1.200000      1.5252361E-15
   1.260000      6.9162366E-15
   1.320000      1.1286930E-14
   1.380000      1.2305903E-14
   1.440000      8.4887482E-15
   1.500000      3.2193835E-16
   1.560000     -9.2151306E-15
   1.620000     -1.5291083E-14
   1.680000     -1.3192832E-14
   1.740000     -1.1207359E-15
   1.800000      1.7390296E-14
   1.860000      3.2959380E-14
   1.920000      3.2924713E-14
   1.980000      6.9760575E-15
   2.040000     -4.5830635E-14
   2.100000     -1.1182909E-13
   2.160000     -1.6280374E-13
   2.220000     -1.6356405E-13
   2.280000     -8.6264614E-14
   2.340000      7.2969930E-14
   2.400000      2.8228960E-13
   2.460000      4.7452038E-13
   2.520000      5.6362640E-13
   2.580000      4.7488299E-13
   2.640000      1.7948868E-13
   2.700000     -2.8014161E-13
   2.760000     -7.8751740E-13
   2.820000     -1.1781213E-12
   2.880000     -1.2899519E-12
   2.940000     -1.0230668E-12
   3.000000     -3.8625269E-13
   3.060000      4.8919061E-13
   3.120000      1.3780450E-12
   3.180000      2.0259085E-12
   3.240000      2.2290039E-12
   3.300000      1.9005351E-12
   3.360000      1.0987509E-12
   3.420000      6.0149978E-15
   3.480000     -1.1326747E-12
   3.540000     -2.0870441E-12
   3.600000     -2.7040193E-12
   3.660000     -2.9316688E-12
   3.720000     -2.7986417E-12
   3.780000     -2.3637650E-12
   3.840000     -1.6647091E-12
   3.900000     -6.9543855E-13
   3.960000      5.7171764E-13
   4.020000      2.1266246E-12
   4.080000      3.8537619E-12
   4.140000      5.4958243E-12
   4.200000      6.6796377E-12
   4.260000      7.0104643E-12
   4.320000      6.2082314E-12
   4.380000      4.2332752E-12
   4.440000      1.3428518E-12
   4.500000     -1.9610541E-12
   4.560000     -5.0914633E-12
   4.620000     -7.5948050E-12
   4.680000     -9.3435043E-12
   4.740000     -1.0611684E-11
   4.800000     -1.1972835E-11
   4.860000     -1.4018712E-11
   4.920000     -1.6971070E-11
   4.980000     -2.0316604E-11
   5.040000     -2.2617089E-11
   5.100000     -2.1618438E-11
   5.160000     -1.4707038E-11
   5.220000      3.4112668E-13
   5.280000      2.4473196E-11
   5.340000      5.6554553E-11
   5.400000      9.2875388E-11
   5.460000      1.2714281E-10
   5.520000      1.5102709E-10
   5.580000      1.5520338E-10
   5.640000      1.3071633E-10
   5.700000      7.0426727E-11
   5.760000     -2.9709638E-11
   5.820000     -1.6972870E-10
   5.880000     -3.4522046E-10
   5.940000     -5.4737848E-10
   6.000000     -7.6347234E-10
   6.060000     -9.7763864E-10
   6.120000     -1.1718894E-09
   6.180000     -1.3272642E-09
   6.240000     -1.4250893E-09
   6.300000     -1.4483298E-09
   6.360000     -1.3830177E-09
   6.420000     -1.2197138E-09
   6.480000     -9.5491826E-10
   6.540000     -5.9230582E-10
   6.600000     -1.4362912E-10
   6.660000      3.7087611E-10
   6.720000      9.2274499E-10
   6.780000      1.4763339E-09
   6.840000      1.9907662E-09
   6.900000      2.4228062E-09
   6.960000      2.7305953E-09
   7.020000      2.8780367E-09
   7.080000      2.8394276E-09
   7.140000      2.6037414E-09
   7.200000      2.1778113E-09
   7.260000      1.5876105E-09
   7.320000      8.7697266E-10
   7.380000      1.0342419E-10
   7.440000     -6.6867739E-10
   7.500000     -1.3768945E-09
   7.560000     -1.9699853E-09
   7.620000     -2.4159985E-09
   7.680000     -2.7074676E-09
   7.740000     -2.8623972E-09
   7.800000     -2.9204881E-09
   7.860000     -2.9350375E-09
   7.920000     -2.9619265E-09
   7.980000     -3.0478455E-09
   8.040000     -3.2201866E-09
   8.100000     -3.4807612E-09
   8.160000     -3.8047041E-09
   8.220000     -4.1447819E-09
   8.280000     -4.4401016E-09
   8.340000     -4.6272430E-09
   8.400000     -4.6513340E-09
   8.460000     -4.4747432E-09
   8.520000     -4.0817398E-09
   8.580000     -3.4785548E-09
   8.640000     -2.6893889E-09
   8.700000     -1.7497970E-09
   8.760000     -6.9928213E-10
   8.820000      4.2516413E-10
   8.880000      1.5933744E-09
   8.940000      2.7837013E-09
   9.000000      3.9823416E-09
   9.060000      5.1810511E-09
   9.120000      6.3742327E-09
   9.180000      7.5563404E-09
   9.240000      8.7203258E-09
   9.300000      9.8575272E-09
   9.360000      1.0959030E-08
   9.420000      1.2018209E-08
   9.480000      1.3033779E-08
   9.540000      1.4012518E-08
   9.600000      1.4970599E-08
   9.660000      1.5932763E-08
   9.720000      1.6928819E-08
   9.780000      1.7987791E-08
   9.840000      1.9130658E-08
   9.900000      2.0363391E-08
   9.960000      2.1672179E-08
   10.02000      2.3022533E-08
   10.08000      2.4363132E-08
   10.14000      2.5634025E-08
   10.20000      2.6777608E-08
   10.26000      2.7749829E-08
   10.32000      2.8528774E-08
   10.38000      2.9118324E-08
   10.44000      2.9545753E-08
   10.50000      2.9853858E-08
   10.56000      3.0089669E-08
   10.62000      3.0292806E-08
   10.68000      3.0486827E-08
   10.74000      3.0675857E-08
   10.80000      3.0847495E-08
   10.86000      3.0980914E-08
   10.92000      3.1057620E-08
   10.98000      3.1071426E-08
   11.04000      3.1034393E-08
   11.10000      3.0976626E-08
   11.16000      3.0939702E-08
   11.22000      3.0965477E-08
   11.28000      3.1083459E-08
   11.34000      3.1300765E-08
   11.40000      3.1597942E-08
   11.46000      3.1932579E-08
   11.52000      3.2250313E-08
   11.58000      3.2500768E-08
   11.64000      3.2654075E-08
   11.70000      3.2713231E-08
   11.76000      3.2718177E-08
   11.82000      3.2739575E-08
   11.88000      3.2862985E-08
   11.94000      3.3167026E-08
   12.00000      3.3701138E-08
   12.06000      3.4469245E-08
   12.12000      3.5424282E-08
   12.18000      3.6475829E-08
   12.24000      3.7509484E-08
   12.30000      3.8412960E-08
   12.36000      3.9101959E-08
   12.42000      3.9538495E-08
   12.48000      3.9736630E-08
   12.54000      3.9754035E-08
   12.60000      3.9672109E-08
   12.66000      3.9570615E-08
   12.72000      3.9504258E-08
   12.78000      3.9487837E-08
   12.84000      3.9493855E-08
   12.90000      3.9462577E-08
   12.96000      3.9321002E-08
   13.02000      3.9004792E-08
   13.08000      3.8476845E-08
   13.14000      3.7737461E-08
   13.20000      3.6823767E-08
   13.26000      3.5799069E-08
   13.32000      3.4735329E-08
   13.38000      3.3693446E-08
   13.44000      3.2706172E-08
   13.50000      3.1767637E-08
   13.56000      3.0831661E-08
   13.62000      2.9819073E-08
   13.68000      2.8632504E-08
   13.74000      2.7175552E-08
   13.80000      2.5372481E-08
   13.86000      2.3184537E-08
   13.92000      2.0619579E-08
   13.98000      1.7732978E-08
   14.04000      1.4619506E-08
   14.10000      1.1397794E-08
   14.16000      8.1904590E-09
   14.22000      5.1040452E-09
   14.28000      2.2128614E-09
   14.34000     -4.5000303E-10
   14.40000     -2.8929117E-09
   14.46000     -5.1575411E-09
   14.52000     -7.3046134E-09
   14.58000     -9.3970263E-09
   14.64000     -1.1484302E-08
   14.70000     -1.3591765E-08
   14.76000     -1.5716516E-08
   14.82000     -1.7830537E-08
   14.88000     -1.9889477E-08
   14.94000     -2.1844407E-08
   15.00000     -2.3653227E-08
   15.06000     -2.5288767E-08
   15.12000     -2.6741791E-08
   15.18000     -2.8018624E-08
   15.24000     -2.9134744E-08
   15.30000     -3.0106776E-08
   15.36000     -3.0945667E-08
   15.42000     -3.1653300E-08
   15.48000     -3.2223550E-08
   15.54000     -3.2647396E-08
   15.60000     -3.2920198E-08
   15.66000     -3.3048639E-08
   15.72000     -3.3054722E-08
   15.78000     -3.2975176E-08
   15.84000     -3.2855986E-08
   15.90000     -3.2743198E-08
   15.96000     -3.2672578E-08
   16.02000     -3.2661031E-08
   16.08000     -3.2702392E-08
   16.14000     -3.2769044E-08
   16.20000     -3.2819095E-08
   16.26000     -3.2807289E-08
   16.32000     -3.2696764E-08
   16.38000     -3.2468495E-08
   16.44000     -3.2126064E-08
   16.50000     -3.1694835E-08
   16.56000     -3.1216054E-08
   16.62000     -3.0737791E-08
   16.68000     -3.0305237E-08
   16.74000     -2.9952673E-08
   16.80000     -2.9698722E-08
   16.86000     -2.9545486E-08
   16.92000     -2.9481198E-08
   16.98000     -2.9485291E-08
   17.04000     -2.9534471E-08
   17.10000     -2.9608309E-08
   17.16000     -2.9693105E-08
   17.22000     -2.9783276E-08
   17.28000     -2.9880066E-08
   17.34000     -2.9988250E-08
   17.40000     -3.0112034E-08
   17.46000     -3.0251780E-08
   17.52000     -3.0402937E-08
   17.58000     -3.0557835E-08
   17.64000     -3.0709959E-08
   17.70000     -3.0859166E-08
   17.76000     -3.1015830E-08
   17.82000     -3.1202067E-08
   17.88000     -3.1449005E-08
   17.94000     -3.1790606E-08
   18.00000     -3.2255553E-08
   18.06000     -3.2859607E-08
   18.12000     -3.3600571E-08
   18.18000     -3.4457372E-08
   18.24000     -3.5393395E-08
   18.30000     -3.6363215E-08
   18.36000     -3.7320952E-08
   18.42000     -3.8228265E-08
   18.48000     -3.9060154E-08
   18.54000     -3.9807450E-08
   18.60000     -4.0475609E-08
   18.66000     -4.1080295E-08
   18.72000     -4.1640916E-08
   18.78000     -4.2173724E-08
   18.84000     -4.2686079E-08
   18.90000     -4.3173127E-08
   18.96000     -4.3617405E-08
   19.02000     -4.3991221E-08
   19.08000     -4.4260990E-08
   19.14000     -4.4392422E-08
   19.20000     -4.4355559E-08
   19.26000     -4.4128928E-08
   19.32000     -4.3702297E-08
   19.38000     -4.3077829E-08
   19.44000     -4.2269338E-08
   19.50000     -4.1299561E-08
   19.56000     -4.0195669E-08
   19.62000     -3.8983618E-08
   19.68000     -3.7682668E-08
   19.74000     -3.6301660E-08
   19.80000     -3.4838624E-08
   19.86000     -3.3284326E-08
   19.92000     -3.1629256E-08
   19.98000     -2.9872133E-08
   20.04000     -2.8027090E-08
   20.10000     -2.6126884E-08
   20.16000     -2.4220368E-08
   20.22000     -2.2364347E-08
   20.28000     -2.0611660E-08
   20.34000     -1.8998874E-08
   20.40000     -1.7537147E-08
   20.46000     -1.6209162E-08
   20.52000     -1.4973237E-08
   20.58000     -1.3773695E-08
   20.64000     -1.2554785E-08
   20.70000     -1.1274429E-08
   20.76000     -9.9142241E-09
   20.82000     -8.4831440E-09
   20.88000     -7.0142052E-09
   20.94000     -5.5551528E-09
   21.00000     -4.1557993E-09
   21.06000     -2.8553393E-09
   21.12000     -1.6728536E-09
   21.18000     -6.0320987E-10
   21.24000      3.8090384E-10
   21.30000      1.3216956E-09
   21.36000      2.2659021E-09
   21.42000      3.2541334E-09
   21.48000      4.3125787E-09
   21.54000      5.4488534E-09
   21.60000      6.6525052E-09
   21.66000      7.8994349E-09
   21.72000      9.1585912E-09
   21.78000      1.0399004E-08
   21.84000      1.1595518E-08
   21.90000      1.2732317E-08
   21.96000      1.3804085E-08
   22.02000      1.4815299E-08
   22.08000      1.5778303E-08
   22.14000      1.6710825E-08
   22.20000      1.7633196E-08
   22.26000      1.8565302E-08
   22.32000      1.9523185E-08
   22.38000      2.0515310E-08
   22.44000      2.1538922E-08
   22.50000      2.2577300E-08
   22.56000      2.3599021E-08
   22.62000      2.4560258E-08
   22.68000      2.5410655E-08
   22.74000      2.6102338E-08
   22.80000      2.6600494E-08
   22.86000      2.6892938E-08
   22.92000      2.6995819E-08
   22.98000      2.6953105E-08
   23.04000      2.6829081E-08
   23.10000      2.6695073E-08
   23.16000      2.6613558E-08
   23.22000      2.6623905E-08
   23.28000      2.6733735E-08
   23.34000      2.6918340E-08
   23.40000      2.7128229E-08
   23.46000      2.7302422E-08
   23.52000      2.7383509E-08
   23.58000      2.7330108E-08
   23.64000      2.7123397E-08
   23.70000      2.6766259E-08
   23.76000      2.6275840E-08
   23.82000      2.5672124E-08
   23.88000      2.4966161E-08
   23.94000      2.4151554E-08
   24.00000      2.3201874E-08
   24.06000      2.2074973E-08
   24.12000      2.0723181E-08
   24.18000      1.9106706E-08
   24.24000      1.7206297E-08
   24.30000      1.5031379E-08
   24.36000      1.2620863E-08
   24.42000      1.0036088E-08
   24.48000      7.3477309E-09
   24.54000      4.6206057E-09
   24.60000      1.9009860E-09
   24.66000     -7.8958123E-10
   24.72000     -3.4521552E-09
   24.78000     -6.1008754E-09
   24.84000     -8.7493515E-09
   24.90000     -1.1397546E-08
   24.96000     -1.4023465E-08
   25.02000     -1.6582344E-08
   25.08000     -1.9013653E-08
   25.14000     -2.1253944E-08
   25.20000     -2.3251996E-08
   25.26000     -2.4982148E-08
   25.32000     -2.6452332E-08
   25.38000     -2.7704587E-08
   25.44000     -2.8807682E-08
   25.50000     -2.9843296E-08
   25.56000     -3.0888796E-08
   25.62000     -3.2000514E-08
   25.68000     -3.3201630E-08
   25.74000     -3.4477655E-08
   25.80000     -3.5781035E-08
   25.86000     -3.7043861E-08
   25.92000     -3.8195747E-08
   25.98000     -3.9182442E-08
   26.04000     -3.9980591E-08
   26.10000     -4.0604988E-08
   26.16000     -4.1106723E-08
   26.22000     -4.1562881E-08
   26.28000     -4.2060549E-08
   26.34000     -4.2678970E-08
   26.40000     -4.3473893E-08
   26.46000     -4.4467367E-08
   26.52000     -4.5644644E-08
   26.58000     -4.6958320E-08
   26.64000     -4.8338251E-08
   26.70000     -4.9704809E-08
   26.76000     -5.0982592E-08
   26.82000     -5.2111947E-08
   26.88000     -5.3056386E-08
   26.94000     -5.3804953E-08
   27.00000     -5.4369739E-08
   27.06000     -5.4779672E-08
   27.12000     -5.5072341E-08
   27.18000     -5.5285753E-08
   27.24000     -5.5451789E-08
   27.30000     -5.5592352E-08
   27.36000     -5.5718580E-08
   27.42000     -5.5832636E-08
   27.48000     -5.5930922E-08
   27.54000     -5.6007430E-08
   27.60000     -5.6056020E-08
   27.66000     -5.6071038E-08
   27.72000     -5.6046339E-08
   27.78000     -5.5973498E-08
   27.84000     -5.5840282E-08
   27.90000     -5.5630533E-08
   27.96000     -5.5326066E-08
   28.02000     -5.4910455E-08
   28.08000     -5.4374006E-08
   28.14000     -5.3718587E-08
   28.20000     -5.2960939E-08
   28.26000     -5.2133430E-08
   28.32000     -5.1281706E-08
   28.38000     -5.0459516E-08
   28.44000     -4.9721454E-08
   28.50000     -4.9115023E-08
   28.56000     -4.8673396E-08
   28.62000     -4.8410254E-08
   28.68000     -4.8317727E-08
   28.74000     -4.8367916E-08
   28.80000     -4.8517869E-08
   28.86000     -4.8717229E-08
   28.92000     -4.8917222E-08
   28.98000     -4.9079201E-08
   29.04000     -4.9181089E-08
   29.10000     -4.9220322E-08
   29.16000     -4.9212833E-08
   29.22000     -4.9188554E-08
   29.28000     -4.9184706E-08
   29.34000     -4.9238640E-08
   29.40000     -4.9381672E-08
   29.46000     -4.9634803E-08
   29.52000     -5.0006427E-08
   29.58000     -5.0491462E-08
   29.64000     -5.1071527E-08
   29.70000     -5.1715986E-08
   29.76000     -5.2384294E-08
   29.82000     -5.3030192E-08
   29.88000     -5.3607767E-08
   29.94000     -5.4078534E-08
   30.00000     -5.4417722E-08
   30.06000     -5.4617612E-08
   30.12000     -5.4686513E-08
   30.18000     -5.4643305E-08
   30.24000     -5.4509343E-08
   30.30000     -5.4300571E-08
   30.36000     -5.4022806E-08
   30.42000     -5.3671727E-08
   30.48000     -5.3237468E-08
   30.54000     -5.2711556E-08
   30.60000     -5.2093526E-08
   30.66000     -5.1394537E-08
   30.72000     -5.0637006E-08
   30.78000     -4.9850694E-08
   30.84000     -4.9066884E-08
   30.90000     -4.8312650E-08
   30.96000     -4.7606594E-08
   31.02000     -4.6956760E-08
   31.08000     -4.6360462E-08
   31.14000     -4.5805709E-08
   31.20000     -4.5273822E-08
   31.26000     -4.4743096E-08
   31.32000     -4.4193239E-08
   31.38000     -4.3610029E-08
   31.44000     -4.2988965E-08
   31.50000     -4.2336623E-08
   31.56000     -4.1668638E-08
   31.62000     -4.1004284E-08
   31.68000     -4.0358938E-08
   31.74000     -3.9736769E-08
   31.80000     -3.9126284E-08
   31.86000     -3.8500627E-08
   31.92000     -3.7822947E-08
   31.98000     -3.7055322E-08
   32.04000     -3.6168483E-08
   32.10000     -3.5149107E-08
   32.16000     -3.4002447E-08
   32.22000     -3.2749512E-08
   32.28000     -3.1419919E-08
   32.34000     -3.0042706E-08
   32.40000     -2.8637983E-08
   32.46000     -2.7211708E-08
   32.52000     -2.5754945E-08
   32.58000     -2.4247505E-08
   32.64000     -2.2664970E-08
   32.70000     -2.0987198E-08
   32.76000     -1.9206256E-08
   32.82000     -1.7331832E-08
   32.88000     -1.5392770E-08
   32.94000     -1.3434208E-08
   33.00000     -1.1510901E-08
   33.06000     -9.6783177E-09
   33.12000     -7.9837639E-09
   33.18000     -6.4598122E-09
   33.24000     -5.1216036E-09
   33.30000     -3.9683119E-09
   33.36000     -2.9876943E-09
   33.42000     -2.1617288E-09
   33.48000     -1.4712308E-09
   33.54000     -8.9810182E-10
   33.60000     -4.2512752E-10
   33.66000     -3.4418687E-11
   33.72000      2.9386579E-10
   33.78000      5.8119870E-10
   33.84000      8.4844559E-10
   33.90000      1.1125320E-09
   33.96000      1.3835406E-09
   34.02000      1.6636630E-09
   34.08000      1.9485782E-09
   34.14000      2.2306750E-09
   34.20000      2.5026625E-09
   34.26000      2.7599729E-09
   34.32000      3.0009977E-09
   34.38000      3.2253158E-09
   34.44000      3.4310428E-09
   34.50000      3.6128118E-09
   34.56000      3.7615075E-09
   34.62000      3.8659103E-09
   34.68000      3.9154453E-09
   34.74000      3.9026768E-09
   34.80000      3.8243799E-09
   34.86000      3.6807080E-09
   34.92000      3.4728895E-09
   34.98000      3.2004379E-09
   35.04000      2.8589280E-09
   35.10000      2.4389830E-09
   35.16000      1.9265813E-09
   35.22000      1.3044341E-09
   35.28000      5.5417837E-10
   35.34000     -3.4069075E-10
   35.40000     -1.3911367E-09
   35.46000     -2.5983973E-09
   35.52000     -3.9501415E-09
   35.58000     -5.4184093E-09
   35.64000     -6.9608914E-09
   35.70000     -8.5264169E-09
   35.76000     -1.0064102E-08
   35.82000     -1.1533926E-08
   35.88000     -1.2915399E-08
   35.94000     -1.4211114E-08
   36.00000     -1.5443415E-08
   36.06000     -1.6644844E-08
   36.12000     -1.7845380E-08
   36.18000     -1.9060776E-08
   36.24000     -2.0286059E-08
   36.30000     -2.1496289E-08
   36.36000     -2.2654136E-08
   36.42000     -2.3721455E-08
   36.48000     -2.4670825E-08
   36.54000     -2.5493417E-08
   36.60000     -2.6200979E-08
   36.66000     -2.6821805E-08
   36.72000     -2.7392149E-08
   36.78000     -2.7945571E-08
   36.84000     -2.8502781E-08
   36.90000     -2.9064267E-08
   36.96000     -2.9607307E-08
   37.02000     -3.0088344E-08
   37.08000     -3.0450682E-08
   37.14000     -3.0636517E-08
   37.20000     -3.0600834E-08
   37.26000     -3.0323907E-08
   37.32000     -2.9818768E-08
   37.38000     -2.9131094E-08
   37.44000     -2.8330867E-08
   37.50000     -2.7497752E-08
   37.56000     -2.6704171E-08
   37.62000     -2.6000905E-08
   37.68000     -2.5409152E-08
   37.74000     -2.4920929E-08
   37.80000     -2.4506873E-08
   37.86000     -2.4128482E-08
   37.92000     -2.3750708E-08
   37.98000     -2.3351330E-08
   38.04000     -2.2924990E-08
   38.10000     -2.2481675E-08
   38.16000     -2.2040982E-08
   38.22000     -2.1624464E-08
   38.28000     -2.1248361E-08
   38.34000     -2.0918639E-08
   38.40000     -2.0629310E-08
   38.46000     -2.0364244E-08
   38.52000     -2.0101890E-08
   38.58000     -1.9821739E-08
   38.64000     -1.9511070E-08
   38.70000     -1.9170347E-08
   38.76000     -1.8815856E-08
   38.82000     -1.8478605E-08
   38.88000     -1.8199321E-08
   38.94000     -1.8020277E-08
   39.00000     -1.7975632E-08
   39.06000     -1.8082648E-08
   39.12000     -1.8336195E-08
   39.18000     -1.8708375E-08
   39.24000     -1.9153925E-08
   39.30000     -1.9620332E-08
   39.36000     -2.0060353E-08
   39.42000     -2.0443657E-08
   39.48000     -2.0764640E-08
   39.54000     -2.1044400E-08
   39.60000     -2.1326569E-08
   39.66000     -2.1668180E-08
   39.72000     -2.2127866E-08
   39.78000     -2.2753895E-08
   39.84000     -2.3574291E-08
   39.90000     -2.4590518E-08
   39.96000     -2.5775615E-08
   40.02000     -2.7077077E-08
   40.08000     -2.8424305E-08
   40.14000     -2.9739811E-08
   40.20000     -3.0952460E-08
   40.26000     -3.2010242E-08
   40.32000     -3.2889652E-08
   40.38000     -3.3599036E-08
   40.44000     -3.4174718E-08
   40.50000     -3.4670649E-08
   40.56000     -3.5144311E-08
   40.62000     -3.5642795E-08
   40.68000     -3.6193015E-08
   40.74000     -3.6798571E-08
   40.80000     -3.7443655E-08
   40.86000     -3.8102346E-08
   40.92000     -3.8750006E-08
   40.98000     -3.9373425E-08
   41.04000     -3.9976790E-08
   41.10000     -4.0582123E-08
   41.16000     -4.1224357E-08
   41.22000     -4.1942506E-08
   41.28000     -4.2769191E-08
   41.34000     -4.3721233E-08
   41.40000     -4.4793630E-08
   41.46000     -4.5958725E-08
   41.52000     -4.7171095E-08
   41.58000     -4.8377416E-08
   41.64000     -4.9528932E-08
   41.70000     -5.0593272E-08
   41.76000     -5.1562015E-08
   41.82000     -5.2451387E-08
   41.88000     -5.3295402E-08
   41.94000     -5.4133114E-08
   42.00000     -5.4993826E-08
   42.06000     -5.5885003E-08
   42.12000     -5.6786998E-08
   42.18000     -5.7656621E-08
   42.24000     -5.8438445E-08
   42.30000     -5.9080218E-08
   42.36000     -5.9547247E-08
   42.42000     -5.9831159E-08
   42.48000     -5.9950416E-08
   42.54000     -5.9943012E-08
   42.60000     -5.9854230E-08
   42.66000     -5.9723710E-08
   42.72000     -5.9575939E-08
   42.78000     -5.9416376E-08
   42.84000     -5.9233415E-08
   42.90000     -5.9004599E-08
   42.96000     -5.8704735E-08
   43.02000     -5.8313482E-08
   43.08000     -5.7820838E-08
   43.14000     -5.7229684E-08
   43.20000     -5.6555045E-08
   43.26000     -5.5820184E-08
   43.32000     -5.5050023E-08
   43.38000     -5.4263115E-08
   43.44000     -5.3464102E-08
   43.50000     -5.2639063E-08
   43.56000     -5.1755826E-08
   43.62000     -5.0769962E-08
   43.68000     -4.9635265E-08
   43.74000     -4.8315659E-08
   43.80000     -4.6794781E-08
   43.86000     -4.5080139E-08
   43.92000     -4.3200750E-08
   43.98000     -4.1199684E-08
   44.04000     -3.9124519E-08
   44.10000     -3.7019174E-08
   44.16000     -3.4919424E-08
   44.22000     -3.2852345E-08
   44.28000     -3.0838279E-08
   44.34000     -2.8893140E-08
   44.40000     -2.7029262E-08
   44.46000     -2.5254426E-08
   44.52000     -2.3569973E-08
   44.58000     -2.1969587E-08
   44.64000     -2.0440085E-08
   44.70000     -1.8964460E-08
   44.76000     -1.7526350E-08
   44.82000     -1.6114301E-08
   44.88000     -1.4724313E-08
   44.94000     -1.3359751E-08
   45.00000     -1.2028814E-08
   45.06000     -1.0740622E-08
   45.12000     -9.5013650E-09
   45.18000     -8.3118952E-09
   45.24000     -7.1674728E-09
   45.30000     -6.0595839E-09
   45.36000     -4.9789826E-09
   45.42000     -3.9187102E-09
   45.48000     -2.8758387E-09
   45.54000     -1.8511416E-09
   45.60000     -8.4663809E-10
   45.66000      1.3826852E-10
   45.72000      1.1107185E-09
   45.78000      2.0868152E-09
   45.84000      3.0912006E-09
   45.90000      4.1531432E-09
   45.96000      5.2995039E-09
   46.02000      6.5460406E-09
   46.08000      7.8893345E-09
   46.14000      9.3018864E-09
   46.20000      1.0732347E-08
   46.26000      1.2111522E-08
   46.32000      1.3362944E-08
   46.38000      1.4415223E-08
   46.44000      1.5212482E-08
   46.50000      1.5719644E-08
   46.56000      1.5921003E-08
   46.62000      1.5812676E-08
   46.68000      1.5391722E-08
   46.74000      1.4645541E-08
   46.80000      1.3544791E-08
   46.86000      1.2041257E-08
   46.92000      1.0069989E-08
   46.98000      7.5533002E-09
   47.04000      4.4036863E-09
   47.10000      5.2356497E-10
   47.16000     -4.1986499E-09
   47.22000     -9.8948512E-09
   47.28000     -1.6723620E-08
   47.34000     -2.4874472E-08
   47.40000     -3.4568892E-08
   47.46000     -4.6058641E-08
   47.52000     -5.9623297E-08
   47.58000     -7.5569531E-08
   47.64000     -9.4234345E-08
   47.70000     -1.1599347E-07
   47.76000     -1.4127454E-07
   47.82000     -1.7057373E-07
   47.88000     -2.0447365E-07
   47.94000     -2.4366031E-07
   48.00000     -2.8893771E-07
   48.06000     -3.4123897E-07
   48.12000     -4.0163479E-07
   48.18000     -4.7133943E-07
   48.24000     -5.5171716E-07
   48.30000     -6.4429042E-07
   48.36000     -7.5075258E-07
   48.42000     -8.7298548E-07
   48.48000     -1.0130826E-06
   48.54000     -1.1733769E-06
   48.60000     -1.3564687E-06
   48.66000     -1.5652549E-06
   48.72000     -1.8029533E-06
   48.78000     -2.0731227E-06
   48.84000     -2.3796786E-06
   48.90000     -2.7269082E-06
   48.96000     -3.1194827E-06
   49.02000     -3.5624744E-06
   49.08000     -4.0613777E-06
   49.14000     -4.6221339E-06
   49.20000     -5.2511587E-06
   49.26000     -5.9553709E-06
   49.32000     -6.7422134E-06
   49.38000     -7.6196702E-06
   49.44000     -8.5962720E-06
   49.50000     -9.6810954E-06
   49.56000     -1.0883752E-05
   49.62000     -1.2214379E-05
   49.68000     -1.3683623E-05
   49.74000     -1.5302627E-05
   49.80000     -1.7082995E-05
   49.86000     -1.9036788E-05
   49.92000     -2.1176476E-05
   49.98000     -2.3514905E-05
   50.04000     -2.6065238E-05
   50.10000     -2.8840910E-05
   50.16000     -3.1855561E-05
   50.22000     -3.5122954E-05
   50.28000     -3.8656897E-05
   50.34000     -4.2471154E-05
   50.40000     -4.6579346E-05
   50.46000     -5.0994833E-05
   50.52000     -5.5730616E-05
   50.58000     -6.0799208E-05
   50.64000     -6.6212509E-05
   50.70000     -7.1981660E-05
   50.76000     -7.8116922E-05
   50.82000     -8.4627529E-05
   50.88000     -9.1521579E-05
   50.94000     -9.8805831E-05
   51.00000     -1.0648564E-04
   51.06000     -1.1456484E-04
   51.12000     -1.2304561E-04
   51.18000     -1.3192836E-04
   51.24000     -1.4121164E-04
   51.30000     -1.5089210E-04
   51.36000     -1.6096438E-04
   51.42000     -1.7142104E-04
   51.48000     -1.8225248E-04
   51.54000     -1.9344699E-04
   51.60000     -2.0499065E-04
   51.66000     -2.1686741E-04
   51.72000     -2.2905917E-04
   51.78000     -2.4154576E-04
   51.84000     -2.5430508E-04
   51.90000     -2.6731318E-04
   51.96000     -2.8054454E-04
   52.02000     -2.9397203E-04
   52.08000     -3.0756721E-04
   52.14000     -3.2130050E-04
   52.20000     -3.3514129E-04
   52.26000     -3.4905833E-04
   52.32000     -3.6301988E-04
   52.38000     -3.7699382E-04
   52.44000     -3.9094826E-04
   52.50000     -4.0485163E-04
   52.56000     -4.1867298E-04
   52.62000     -4.3238231E-04
   52.68000     -4.4595089E-04
   52.74000     -4.5935140E-04
   52.80000     -4.7255820E-04
   52.86000     -4.8554756E-04
   52.92000     -4.9829792E-04
   52.98000     -5.1078992E-04
   53.04000     -5.2300701E-04
   53.10000     -5.3493510E-04
   53.16000     -5.4656289E-04
   53.22000     -5.5788207E-04
   53.28000     -5.6888716E-04
   53.34000     -5.7957578E-04
   53.40000     -5.8994838E-04
   53.46000     -6.0000806E-04
   53.52000     -6.0976070E-04
   53.58000     -6.1921473E-04
   53.64000     -6.2838075E-04
   53.70000     -6.3727185E-04
   53.76000     -6.4590276E-04
   53.82000     -6.5429008E-04
   53.88000     -6.6245190E-04
   53.94000     -6.7040732E-04
   54.00000     -6.7817600E-04
   54.06000     -6.8577833E-04
   54.12000     -6.9323444E-04
   54.18000     -7.0056424E-04
   54.24000     -7.0778717E-04
   54.30000     -7.1492157E-04
   54.36000     -7.2198466E-04
   54.42000     -7.2899181E-04
   54.48000     -7.3595683E-04
   54.54000     -7.4289122E-04
   54.60000     -7.4980431E-04
   54.66000     -7.5670303E-04
   54.72000     -7.6359161E-04
   54.78000     -7.7047176E-04
   54.84000     -7.7734218E-04
   54.90000     -7.8419910E-04
   54.96000     -7.9103588E-04
   55.02000     -7.9784362E-04
   55.08000     -8.0461084E-04
   55.14000     -8.1132376E-04
   55.20000     -8.1796653E-04
   55.26000     -8.2452147E-04
   55.32000     -8.3096925E-04
   55.38000     -8.3728961E-04
   55.44000     -8.4346120E-04
   55.50000     -8.4946229E-04
   55.56000     -8.5527106E-04