 -0.750000000       0.00000000    
 -0.689999998       0.00000000    
 -0.629999995       0.00000000    
 -0.569999993       0.00000000    
 -0.509999990       0.00000000    
 -0.449999988       0.00000000    
 -0.389999986       0.00000000    
 -0.330000013       7.20047968E-27
 -0.270000011      -5.04607266E-26
 -0.209999993      -1.22678649E-24
 -0.150000006      -9.08596186E-24
  -9.00000036E-02  -4.07621469E-23
  -2.99999993E-02  -1.27941437E-22
   2.99999993E-02  -2.88454651E-22
   9.00000036E-02  -4.18639193E-22
  0.150000006      -7.08284507E-23
  0.209999993       1.82690149E-21
  0.270000011       7.04974290E-21
  0.330000013       1.74219537E-20
  0.389999986       3.27023755E-20
  0.449999988       4.64655687E-20
  0.509999990       4.04624605E-20
  0.569999993      -1.96806786E-20
  0.629999995      -1.80838019E-19
  0.689999998      -4.80728059E-19
  0.750000000      -8.99031175E-19
  0.810000002      -1.28385979E-18
  0.870000005      -1.28342066E-18
  0.930000007      -3.50318718E-19
  0.990000010       2.08892614E-18
   1.04999995       6.23345608E-18
   1.11000001       1.13269224E-17
   1.16999996       1.51472288E-17
   1.23000002       1.40236330E-17
   1.28999996       3.88103755E-18
   1.35000002      -1.74897265E-17
   1.40999997      -4.74478277E-17
   1.47000003      -7.62398871E-17
   1.52999997      -8.75179058E-17
   1.59000003      -6.33537499E-17
   1.64999998       6.28715375E-18
   1.71000004       1.12568111E-16
   1.76999998       2.21140331E-16
   1.83000004       2.76622564E-16
   1.88999999       2.22215256E-16
   1.95000005       3.15797143E-17
   2.00999999      -2.58929210E-16
   2.06999993      -5.36462229E-16
   2.13000011      -6.34526039E-16
   2.19000006      -3.99165997E-16
   2.25000000       2.16245513E-16
   2.30999994       1.06628192E-15
   2.36999989       1.79160979E-15
   2.43000007       1.90439243E-15
   2.49000001       9.88026240E-16
   2.54999995      -1.04121567E-15
   2.60999990      -3.72254251E-15
   2.67000008      -6.02752711E-15
   2.73000002      -6.62727853E-15
   2.78999996      -4.44152399E-15
   2.84999990       6.96181091E-16
   2.91000009       7.56243636E-15
   2.97000003       1.35977435E-14
   3.02999997       1.56929438E-14
   3.08999991       1.15978377E-14
   3.15000010       1.44812808E-15
   3.21000004      -1.13802586E-14
   3.26999998      -2.08509527E-14
   3.32999992      -2.05721535E-14
   3.39000010      -7.27941640E-15
   3.45000005       1.59441010E-14
   3.50999999       3.86190781E-14
   3.56999993       4.55086171E-14
   3.63000011       2.30694200E-14
   3.69000006      -3.21773993E-14
   3.75000000      -1.07041146E-13
   3.80999994      -1.71022647E-13
   3.86999989      -1.84340905E-13
   3.93000007      -1.13884420E-13
   3.99000001       4.79046632E-14
   4.05000019       2.69360407E-13
   4.11000013       4.79406282E-13
   4.17000008       5.85260302E-13
   4.23000002       5.05363492E-13
   4.28999996       2.07139698E-13
   4.34999990      -2.65658101E-13
   4.40999985      -7.90292202E-13
   4.46999979      -1.19374443E-12
   4.53000021      -1.30734757E-12
   4.59000015      -1.02996192E-12
   4.65000010      -3.75898856E-13
   4.71000004       5.13387564E-13
   4.76999998       1.40272039E-12
   4.82999992       2.03337434E-12
   4.88999987       2.20620527E-12
   4.94999981       1.84715958E-12
   5.01000023       1.03013746E-12
   5.07000017      -5.14934673E-14
   5.13000011      -1.15276983E-12
   5.19000006      -2.05629611E-12
   5.25000000      -2.63032239E-12
   5.30999994      -2.84336769E-12
   5.36999989      -2.73333374E-12
   5.42999983      -2.35076455E-12
   5.48999977      -1.70890494E-12
   5.55000019      -7.70787893E-13
   5.61000013       5.14193993E-13
   5.67000008       2.13766721E-12
   5.73000002       3.95926391E-12
   5.78999996       5.67628149E-12
   5.84999990       6.86621723E-12
   5.90999985       7.10254165E-12
   5.96999979       6.10878579E-12
   6.03000021       3.89067598E-12
   6.09000015       7.83606470E-13
   6.15000010      -2.62215878E-12
   6.21000004      -5.67021690E-12
   6.26999998      -7.88189045E-12
   6.32999992      -9.16187178E-12
   6.38999987      -9.87009259E-12
   6.44999981      -1.07001803E-11
   6.51000023      -1.23704961E-11
   6.57000017      -1.52083467E-11
   6.63000011      -1.87654631E-11
   6.69000006      -2.16202022E-11
   6.75000000      -2.14885332E-11
   6.80999994      -1.56867297E-11
   6.86999989      -1.88546748E-12
   6.92999983       2.10025903E-11
   6.98999977       5.20204331E-11
   7.05000019       8.76725775E-11
   7.11000013       1.21905486E-10
   7.17000008       1.46625698E-10
   7.23000002       1.52697605E-10
   7.28999996       1.31255992E-10
   7.34999990       7.51057758E-11
   7.40999985      -2.00256183E-11
   7.46999979      -1.54570620E-10
   7.53000021      -3.24644950E-10
   7.59000015      -5.22031030E-10
   7.65000010      -7.34570516E-10
   7.71000004      -9.46880241E-10
   7.76999998      -1.14130583E-09
   7.82999992      -1.29904532E-09
   7.88999987      -1.40141054E-09
   7.94999981      -1.43119705E-09
   8.01000023      -1.37413836E-09
   8.06999969      -1.22039157E-09
   8.13000011      -9.65965197E-10
   8.18999958      -6.13969375E-10
   8.25000000      -1.75545536E-10
   8.31000042       3.29684113E-10
   8.36999989       8.73801420E-10
   8.43000031       1.42155809E-09
   8.48999977       1.93223859E-09
   8.55000019       2.36248021E-09
   8.60999966       2.67000466E-09
   8.67000008       2.81805623E-09
   8.72999954       2.78014411E-09
   8.78999996       2.54446708E-09
   8.85000038       2.11723994E-09
   8.90999985       1.52409285E-09
   8.97000027       8.08864420E-10
   9.02999973       2.94482459E-11
   9.09000015      -7.49107165E-10
   9.14999962      -1.46343393E-09
   9.21000004      -2.06124584E-09
   9.27000046      -2.50958032E-09
   9.32999992      -2.80015122E-09
   9.39000034      -2.95048053E-09
   9.44999981      -3.00022851E-09
   9.51000023      -3.00312908E-09
   9.56999969      -3.01592529E-09
   9.63000011      -3.08645243E-09
   9.68999958      -3.24332561E-09
   9.75000000      -3.48943985E-09
   9.81000042      -3.80069665E-09
   9.86999989      -4.13022416E-09
   9.93000031      -4.41710934E-09
   9.98999977      -4.59764005E-09
   10.0500002      -4.61654270E-09
   10.1099997      -4.43581705E-09
   10.1700001      -4.03947009E-09
   10.2299995      -3.43357009E-09
   10.2900000      -2.64218003E-09
   10.3500004      -1.70065606E-09
   10.4099998      -6.48199550E-10
   10.4700003       4.78557138E-10
   10.5299997       1.64973435E-09
   10.5900002       2.84373258E-09
   10.6499996       4.04642675E-09
   10.7100000       5.24885646E-09
   10.7700005       6.44442633E-09
   10.8299999       7.62655272E-09
   10.8900003       8.78739925E-09
   10.9499998       9.91802018E-09
   11.0100002       1.10098535E-08
   11.0699997       1.20572228E-08
   11.1300001       1.30602240E-08
   11.1899996       1.40271421E-08
   11.2500000       1.49755159E-08
   11.3100004       1.59310467E-08
   11.3699999       1.69239804E-08
   11.4300003       1.79831705E-08
   11.4899998       1.91288798E-08
   11.5500002       2.03659081E-08
   11.6099997       2.16789839E-08
   11.6700001       2.30320953E-08
   11.7299995       2.43725875E-08
   11.7900000       2.56396397E-08
   11.8500004       2.67754476E-08
   11.9099998       2.77365313E-08
   11.9700003       2.85022246E-08
   12.0299997       2.90780786E-08
   12.0900002       2.94930942E-08
   12.1499996       2.97914617E-08
   12.2100000       3.00209635E-08
   12.2700005       3.02212690E-08
   12.3299999       3.04153680E-08
   12.3900003       3.06064720E-08
   12.4499998       3.07812194E-08
   12.5100002       3.09180166E-08
   12.5699997       3.09978923E-08
   12.6300001       3.10144515E-08
   12.6899996       3.09796810E-08
   12.7500000       3.09236263E-08
   12.8100004       3.08877688E-08
   12.8699999       3.09138599E-08
   12.9300003       3.10313908E-08
   12.9899998       3.12476338E-08
   13.0500002       3.15434967E-08
   13.1099997       3.18770539E-08
   13.1700001       3.21944782E-08
   13.2299995       3.24458007E-08
   13.2900000       3.26013883E-08
   13.3500004       3.26642571E-08
   13.4099998       3.26742615E-08
   13.4700003       3.27019087E-08
   13.5299997       3.28326131E-08
   13.5900002       3.31448504E-08
   13.6499996       3.36879040E-08
   13.7100000       3.44654403E-08
   13.7700005       3.54300305E-08
   13.8299999       3.64908459E-08
   13.8900003       3.75330593E-08
   13.9499998       3.84441030E-08
   14.0100002       3.91395432E-08
   14.0699997       3.95814475E-08
   14.1300001       3.97840196E-08
   14.1899996       3.98051583E-08
   14.2500000       3.97265154E-08
   14.3100004       3.96281727E-08
   14.3699999       3.95653004E-08
   14.4300003       3.95533313E-08
   14.4899998       3.95654958E-08
   14.5500002       3.95426270E-08
   14.6099997       3.94118445E-08
   14.6700001       3.91081620E-08
   14.7299995       3.85929546E-08
   14.7900000       3.78643144E-08
   14.8500004       3.69569797E-08
   14.9099998       3.59323735E-08
   14.9700003       3.48617171E-08
   15.0299997       3.38066464E-08
   15.0900002       3.28020384E-08
   15.1499996       3.18449089E-08
   15.2100000       3.08918793E-08
   15.2700005       2.98656637E-08
   15.3299999       2.86693851E-08
   15.3900003       2.72057541E-08
   15.4499998       2.53972754E-08
   15.5100002       2.32033361E-08
   15.5699997       2.06305337E-08
   15.6300001       1.77339778E-08
   15.6899996       1.46091672E-08
   15.7500000       1.13760406E-08
   15.8100004       8.15858758E-09
   15.8699999       5.06431563E-09
   15.9300003       2.16788432E-09
   15.9899998      -4.97818176E-10
   16.0499992      -2.94164426E-09
   16.1100006      -5.20573362E-09
   16.1700001      -7.35101713E-09
   16.2299995      -9.44027612E-09
   16.2900009      -1.15226735E-08
   16.3500004      -1.36230902E-08
   16.4099998      -1.57382711E-08
   16.4699993      -1.78400281E-08
   16.5300007      -1.98840659E-08
   16.5900002      -2.18216840E-08
   16.6499996      -2.36111291E-08
   16.7099991      -2.52256243E-08
   16.7700005      -2.66563429E-08
   16.8299999      -2.79100227E-08
   16.8899994      -2.90025444E-08
   16.9500008      -2.99509075E-08
   17.0100002      -3.07663726E-08
   17.0699997      -3.14510551E-08
   17.1299992      -3.19989759E-08
   17.1900005      -3.24012213E-08
   17.2500000      -3.26533041E-08
   17.3099995      -3.27621876E-08
   17.3700008      -3.27503180E-08
   17.4300003      -3.26549916E-08
   17.4899998      -3.25226814E-08
   17.5499992      -3.23997149E-08
   17.6100006      -3.23217719E-08
   17.6700001      -3.23052731E-08
   17.7299995      -3.23433653E-08
   17.7900009      -3.24077583E-08
   17.8500004      -3.24561640E-08
   17.9099998      -3.24433067E-08
   17.9699993      -3.23326113E-08
   18.0300007      -3.21054152E-08
   18.0900002      -3.17655058E-08
   18.1499996      -3.13381143E-08
   18.2099991      -3.08641077E-08
   18.2700005      -3.03911527E-08
   18.3299999      -2.99643510E-08
   18.3899994      -2.96183789E-08
   18.4500008      -2.93727016E-08
   18.5100002      -2.92304030E-08
   18.5699997      -2.91803559E-08
   18.6299992      -2.92018729E-08
   18.6900005      -2.92705966E-08
   18.7500000      -2.93642906E-08
   18.8099995      -2.94672198E-08
   18.8700008      -2.95722131E-08
   18.9300003      -2.96799705E-08
   18.9899998      -2.97960234E-08
   19.0499992      -2.99264933E-08
   19.1100006      -3.00742400E-08
   19.1700001      -3.02370466E-08
   19.2299995      -3.04087067E-08
   19.2900009      -3.05828216E-08
   19.3500004      -3.07580237E-08
   19.4099998      -3.09425090E-08
   19.4699993      -3.11558814E-08
   19.5300007      -3.14271738E-08
   19.5900002      -3.17891384E-08
   19.6499996      -3.22703180E-08
   19.7099991      -3.28872076E-08
   19.7700005      -3.36387842E-08
   19.8299999      -3.45050601E-08
   19.8899994      -3.54500251E-08
   19.9500008      -3.64282471E-08
   20.0100002      -3.73933666E-08
   20.0699997      -3.83064211E-08
   20.1299992      -3.91420230E-08
   20.1900005      -3.98911801E-08
   20.2500000      -4.05601845E-08
   20.3099995      -4.11661176E-08
   20.3700008      -4.17300825E-08
   20.4300003      -4.22699422E-08
   20.4899998      -4.27941380E-08
   20.5499992      -4.32980158E-08
   20.6100006      -4.37632615E-08
   20.6700001      -4.41603198E-08
   20.7299995      -4.44530173E-08
   20.7900009      -4.46042883E-08
   20.8500004      -4.45817996E-08
   20.9099998      -4.43626540E-08
   20.9699993      -4.39364420E-08
   21.0300007      -4.33063541E-08
   21.0900002      -4.24881321E-08
   21.1499996      -4.15067980E-08
   21.2099991      -4.03916047E-08
   21.2700005      -3.91699544E-08
   21.3299999      -3.78617386E-08
   21.3899994      -3.64756545E-08
   21.4500008      -3.50089699E-08
   21.5100002      -3.34513075E-08
   21.5699997      -3.17918492E-08
   21.6299992      -3.00279588E-08
   21.6900005      -2.81725718E-08
   21.7500000      -2.62575437E-08
   21.8099995      -2.43313920E-08
   21.8700008      -2.24513101E-08
   21.9300003      -2.06713526E-08
   21.9899998      -1.90299883E-08
   22.0499992      -1.75406356E-08
   22.1100006      -1.61880855E-08
   22.1700001      -1.49321142E-08
   22.2299995      -1.37175160E-08
   22.2900009      -1.24879955E-08
   22.3500004      -1.12002096E-08
   22.4099998      -9.83430848E-09
   22.4699993      -8.39823056E-09
   22.5300007      -6.92478253E-09
   22.5900002      -5.46242918E-09
   22.6499996      -4.06234779E-09
   22.7099991      -2.76519785E-09
   22.7700005      -1.59099856E-09
   22.8299999      -5.34564948E-10
   22.8899994       4.32594488E-10
   22.9500008       1.35474976E-09
   23.0100002       2.28104713E-09
   23.0699997       3.25422200E-09
   23.1299992       4.30178826E-09
   23.1900005       5.43164447E-09
   23.2500000       6.63266597E-09
   23.3099995       7.87946242E-09
   23.3700008       9.13951581E-09
   23.4300003       1.03806101E-08
   23.4899998       1.15768239E-08
   23.5499992       1.27121371E-08
   23.6100006       1.37815563E-08
   23.6700001       1.47902846E-08
   23.7299995       1.57516666E-08
   23.7900009       1.66845489E-08
   23.8500004       1.76103097E-08
   23.9099998       1.85496098E-08
   23.9699993       1.95187635E-08
   24.0300007       2.05259028E-08
   24.0900002       2.15673115E-08
   24.1499996       2.26248673E-08
   24.2099991       2.36656010E-08
   24.2700005       2.46443612E-08
   24.3299999       2.55100119E-08
   24.3899994       2.62146322E-08
   24.4500008       2.67240807E-08
   24.5100002       2.70274221E-08
   24.5699997       2.71423168E-08
   24.6299992       2.71141403E-08
   24.6900005       2.70080864E-08
   24.7500000       2.68956093E-08
   24.8099995       2.68383875E-08
   24.8700008       2.68741971E-08
   24.9300003       2.70086069E-08
   24.9899998       2.72149450E-08
   25.0499992       2.74423648E-08
   25.1100006       2.76295093E-08
   25.1700001       2.77195920E-08
   25.2299995       2.76725807E-08
   25.2900009       2.74712075E-08
   25.3500004       2.71195777E-08
   25.4099998       2.66353606E-08
   25.4699993       2.60382986E-08
   25.5300007       2.53386485E-08
   25.5900002       2.45290437E-08
   25.6499996       2.35822792E-08
   25.7099991       2.24558327E-08
   25.7700005       2.11021156E-08
   25.8299999       1.94816749E-08
   25.8899994       1.75756387E-08
   25.9500008       1.53935620E-08
   26.0100002       1.29740991E-08
   26.0699997       1.03779083E-08
   26.1299992       7.67473995E-09
   26.1900005       4.92849495E-09
   26.2500000       2.18488494E-09
   26.3099995      -5.34490008E-10
   26.3700008      -3.22992966E-09
   26.4300003      -5.91422067E-09
   26.4899998      -8.59931326E-09
   26.5499992      -1.12835430E-08
   26.6100006      -1.39435965E-08
   26.6700001      -1.65337983E-08
   26.7299995      -1.89930880E-08
   26.7900009      -2.12577618E-08
   26.8500004      -2.32765238E-08
   26.9099998      -2.50238923E-08
   26.9699993      -2.65083031E-08
   27.0300007      -2.77727121E-08
   27.0900002      -2.88871487E-08
   27.1499996      -2.99346716E-08
   27.2099991      -3.09937818E-08
   27.2700005      -3.21213669E-08
   27.3299999      -3.33403527E-08
   27.3899994      -3.46352600E-08
   27.4500008      -3.59570222E-08
   27.5100002      -3.72361164E-08
   27.5699997      -3.84008203E-08
   27.6299992      -3.93961415E-08
   27.6900005      -4.01986924E-08
   27.7500000      -4.08239202E-08
   27.8099995      -4.13240180E-08
   27.8700008      -4.17773300E-08
   27.9300003      -4.22719673E-08
   27.9899998      -4.28876312E-08
   28.0499992      -4.36798153E-08
   28.1100006      -4.46696546E-08
   28.1700001      -4.58411797E-08
   28.2299995      -4.71458890E-08
   28.2900009      -4.85131437E-08
   28.3500004      -4.98636616E-08
   28.4099998      -5.11231910E-08
   28.4699993      -5.22337089E-08
   28.5300007      -5.31603668E-08
   28.5900002      -5.38934266E-08
   28.6499996      -5.44454757E-08
   28.7099991      -5.48452164E-08
   28.7700005      -5.51294193E-08
   28.8299999      -5.53349189E-08
   28.8899994      -5.54922366E-08
   28.9500008      -5.56219142E-08
   29.0100002      -5.57338318E-08
   29.0699997      -5.58291156E-08
   29.1299992      -5.59035875E-08
   29.1900005      -5.59513182E-08
   29.2500000      -5.59671030E-08
   29.3099995      -5.59470408E-08
   29.3700008      -5.58873126E-08
   29.4300003      -5.57818645E-08
   29.4899998      -5.56203190E-08
   29.5499992      -5.53873782E-08
   29.6100006      -5.50644401E-08
   29.6700001      -5.46335919E-08
   29.7299995      -5.40829994E-08
   29.7900009      -5.34123679E-08
   29.8500004      -5.26368922E-08
   29.9099998      -5.17883940E-08
   29.9699993      -5.09130658E-08
   30.0300007      -5.00660242E-08
   30.0900002      -4.93036261E-08
   30.1499996      -4.86749734E-08
   30.2099991      -4.82142681E-08
   30.2700005      -4.79354725E-08
   30.3299999      -4.78302589E-08
   30.3899994      -4.78698148E-08
   30.4500008      -4.80101825E-08
   30.5100002      -4.82002633E-08
   30.5699997      -4.83910121E-08
   30.6299992      -4.85440772E-08
   30.6900005      -4.86380607E-08
   30.7500000      -4.86712288E-08
   30.8099995      -4.86602403E-08
   30.8700008      -4.86354246E-08
   30.9300003      -4.86340106E-08
   30.9899998      -4.86930318E-08
   31.0499992      -4.88433791E-08
   31.1100006      -4.91057222E-08
   31.1700001      -4.94883672E-08
   31.2299995      -4.99864825E-08
   31.2900009      -5.05821660E-08
   31.3500004      -5.12453759E-08
   31.4099998      -5.19360732E-08
   31.4699993      -5.26082786E-08
   31.5300007      -5.32160307E-08
   31.5900002      -5.37204947E-08
   31.6499996      -5.40962581E-08
   31.7099991      -5.43347909E-08
   31.7700005      -5.44434684E-08
   31.8299999      -5.44402390E-08
   31.8899994      -5.43456018E-08
   31.9500008      -5.41748548E-08
   32.0099983      -5.39334906E-08
   32.0699997      -5.36172884E-08
   32.1300011      -5.32168833E-08
   32.1899986      -5.27246407E-08
   32.2500000      -5.21410293E-08
   32.3100014      -5.14779721E-08
   32.3699989      -5.07582207E-08
   32.4300003      -5.00112662E-08
   32.4900017      -4.92675518E-08
   32.5499992      -4.85529199E-08
   32.6100006      -4.78847042E-08
   32.6699982      -4.72699462E-08
   32.7299995      -4.67054839E-08
   32.7900009      -4.61794620E-08
   32.8499985      -4.56738043E-08
   32.9099998      -4.51677096E-08
   32.9700012      -4.46418085E-08
   33.0299988      -4.40825865E-08
   33.0900002      -4.34859260E-08
   33.1500015      -4.28583782E-08
   33.2099991      -4.22151487E-08
   33.2700005      -4.15747543E-08
   33.3300018      -4.09515835E-08
   33.3899994      -4.03487590E-08
   33.4500008      -3.97538962E-08
   33.5099983      -3.91395929E-08
   33.5699997      -3.84688903E-08
   33.6300011      -3.77042326E-08
   33.6899986      -3.68170419E-08
   33.7500000      -3.57948657E-08
   33.8100014      -3.46438789E-08
   33.8699989      -3.33860015E-08
   33.9300003      -3.20517515E-08
   33.9900017      -3.06710533E-08
   34.0499992      -2.92648288E-08
   34.1100006      -2.78395973E-08
   34.1699982      -2.63864930E-08
   34.2299995      -2.48847787E-08
   34.2900009      -2.33088802E-08
   34.3499985      -2.16371117E-08
   34.4099998      -1.98599981E-08
   34.4700012      -1.79860571E-08
   34.5299988      -1.60435469E-08
   34.5900002      -1.40776022E-08
   34.6500015      -1.21433317E-08
   34.7099991      -1.02966453E-08
   34.7700005      -8.58516280E-09
   34.8300018      -7.04159309E-09
   34.8899994      -5.68110003E-09
   34.9500008      -4.50288473E-09
   35.0099983      -3.49480866E-09
   35.0699997      -2.63902544E-09
   35.1300011      -1.91655847E-09
   35.1899986      -1.30955247E-09
   35.2500000      -8.01149591E-10
   35.3100014      -3.74048736E-10
   35.3699989      -9.27947996E-12
   35.4300003       3.13594456E-10
   35.4900017       6.14543028E-10
   35.5499992       9.10127251E-10
   35.6100006       1.21087484E-09
   35.6699982       1.52020896E-09
   35.7299995       1.83543458E-09
   35.7900009       2.15030904E-09
   35.8499985       2.45800313E-09
   35.9099998       2.75314149E-09
   35.9700012       3.03215453E-09
   36.0299988       3.29206817E-09
   36.0900002       3.52864404E-09
   36.1500015       3.73506825E-09
   36.2099991       3.90203070E-09
   36.2700005       4.01927513E-09
   36.3300018       4.07787937E-09
   36.3899994       4.07216127E-09
   36.4500008       4.00024369E-09
   36.5099983       3.86297261E-09
   36.5699997       3.66160191E-09
   36.6300011       3.39515860E-09
   36.6899986       3.05843395E-09
   36.7500000       2.64116373E-09
   36.8100014       2.12849316E-09
   36.8699989       1.50249369E-09
   36.9300003       7.44465323E-10
   36.9900017      -1.62077643E-10
   37.0499992      -1.22776733E-09
   37.1100006      -2.45334775E-09
   37.1699982      -3.82603860E-09
   37.2299995      -5.31763300E-09
   37.2900009      -6.88579682E-09
   37.3499985      -8.47941628E-09
   37.4099998      -1.00474820E-08
   37.4700012      -1.15494299E-08
   37.5299988      -1.29637270E-08
   37.5900002      -1.42915466E-08
   37.6500015      -1.55537361E-08
   37.7099991      -1.67816268E-08
   37.7700005      -1.80045312E-08
   37.8300018      -1.92382199E-08
   37.8899994      -2.04782751E-08
   37.9500008      -2.17006484E-08
   38.0099983      -2.28689103E-08
   38.0699997      -2.39455549E-08
   38.1300011      -2.49033576E-08
   38.1899986      -2.57331596E-08
   38.2500000      -2.64459512E-08
   38.3100014      -2.70690155E-08
   38.3699989      -2.76376166E-08
   38.4300003      -2.81845765E-08
   38.4900017      -2.87302679E-08
   38.5499992      -2.92752453E-08
   38.6100006      -2.97971567E-08
   38.6699982      -3.02529557E-08
   38.7299995      -3.05865449E-08
   38.7900009      -3.07408037E-08
   38.8499985      -3.06716039E-08
   38.9099998      -3.03603969E-08
   38.9700012      -2.98216634E-08
   39.0299988      -2.91025728E-08
   39.0900002      -2.82743073E-08
   39.1500015      -2.74171015E-08
   39.2099991      -2.66031552E-08
   39.2700005      -2.58822812E-08
   39.3300018      -2.52742716E-08
   39.3899994      -2.47696512E-08
   39.4500008      -2.43378544E-08
   39.5099983      -2.39396929E-08
   39.5699997      -2.35400606E-08
   39.6300011      -2.31173676E-08
   39.6899986      -2.26676047E-08
   39.7500000      -2.22027889E-08
   39.8100014      -2.17451053E-08
   39.8699989      -2.13188969E-08
   39.9300003      -2.09428777E-08
   39.9900017      -2.06245439E-08
   40.0499992      -2.03580015E-08
   40.1100006      -2.01256221E-08
   40.1699982      -1.99030126E-08
   40.2299995      -1.96660856E-08
   40.2900009      -1.93985432E-08
   40.3499985      -1.90979339E-08
   40.4099998      -1.87786391E-08
   40.4700012      -1.84708124E-08
   40.5299988      -1.82151965E-08
   40.5900002      -1.80546529E-08
   40.6500015      -1.80243021E-08
   40.7099991      -1.81425879E-08
   40.7700005      -1.84056770E-08
   40.8300018      -1.87869560E-08
   40.8899994      -1.92421936E-08
   40.9500008      -1.97194527E-08
   41.0099983      -2.01713810E-08
   41.0699997      -2.05668567E-08
   41.1300011      -2.08989235E-08
   41.1899986      -2.11870770E-08
   41.2500000      -2.14734612E-08
   41.3100014      -2.18140581E-08
   41.3699989      -2.22671197E-08
   41.4300003      -2.28813093E-08
   41.4900017      -2.36857982E-08
   41.5499992      -2.46837981E-08
   41.6100006      -2.58504258E-08
   41.6699982      -2.71352416E-08
   41.7299995      -2.84693069E-08
   41.7900009      -2.97760732E-08
   41.8499985      -3.09844701E-08
   41.9099998      -3.20418110E-08
   41.9700012      -3.29234311E-08
   42.0299988      -3.36364927E-08
   42.0900002      -3.42164164E-08
   42.1500015      -3.47166988E-08
   42.2099991      -3.51947378E-08
   42.2700005      -3.56977345E-08
   42.3300018      -3.62527182E-08
   42.3899994      -3.68633231E-08
   42.4500008      -3.75138391E-08
   42.5099983      -3.81786016E-08
   42.5699997      -3.88336012E-08
   42.6300011      -3.94664958E-08
   42.6899986      -4.00823801E-08
   42.7500000      -4.07038918E-08
   42.8100014      -4.13660395E-08
   42.8699989      -4.21073025E-08
   42.9300003      -4.29593427E-08
   42.9900017      -4.39378667E-08
   43.0499992      -4.50369093E-08
   43.1100006      -4.62280987E-08
   43.1699982      -4.74655195E-08
   43.2299995      -4.86952842E-08
   43.2900009      -4.98677828E-08
   43.3499985      -5.09493745E-08
   43.4099998      -5.19300301E-08
   43.4700012      -5.28243547E-08
   43.5299988      -5.36651505E-08
   43.5900002      -5.44910463E-08
   43.6500015      -5.53319097E-08
   43.7099991      -5.61967255E-08
   43.7700005      -5.70680427E-08
   43.8300018      -5.79050123E-08
   43.8899994      -5.86541553E-08
   43.9500008      -5.92643516E-08
   44.0099983      -5.97010015E-08
   44.0699997      -5.99548997E-08
   44.1300011      -6.00431633E-08
   44.1899986      -6.00024279E-08
   44.2500000      -5.98771166E-08
   44.3100014      -5.97068635E-08
   44.3699989      -5.95169176E-08
   44.4300003      -5.93139511E-08
   44.4900017      -5.90876184E-08
   44.5499992      -5.88164255E-08
   44.6100006      -5.84756492E-08
   44.6699982      -5.80450639E-08
   44.7299995      -5.75146117E-08
   44.7900009      -5.68871457E-08
   44.8499985      -5.61777398E-08
   44.9099998      -5.54096822E-08
   44.9700012      -5.46077281E-08
   45.0299988      -5.37899929E-08
   45.0900002      -5.29604947E-08
   45.1500015      -5.21047312E-08
   45.2099991      -5.11903089E-08
   45.2700005      -5.01731066E-08
   45.3300018      -4.90077419E-08
   45.3899994      -4.76592312E-08
   45.4500008      -4.61122234E-08
   45.5099983      -4.43748185E-08
   45.5699997      -4.24761026E-08
   45.6300011      -4.04587333E-08
   45.6899986      -3.83696950E-08
   45.7500000      -3.62524695E-08
   45.8100014      -3.41428681E-08
   45.8699989      -3.20685842E-08
   45.9300003      -3.00510727E-08
   45.9900017      -2.81074737E-08
   46.0499992      -2.62510103E-08
   46.1100006      -2.44895659E-08
   46.1699982      -2.28235582E-08
   46.2299995      -2.12448583E-08
   46.2900009      -1.97380459E-08
   46.3499985      -1.82841404E-08
   46.4099998      -1.68657195E-08
   46.4700012      -1.54715458E-08
   46.5299988      -1.40989718E-08
   46.5900002      -1.27533246E-08
   46.6500015      -1.14446470E-08
   46.7099991      -1.01831406E-08
   46.7700005      -8.97505803E-09
   46.8300018      -7.82041543E-09
   46.8899994      -6.71318023E-09
   46.9500008      -5.64355185E-09
   47.0099983      -4.60134952E-09
   47.0699997      -3.57912566E-09
   47.1300011      -2.57384603E-09
   47.1899986      -1.58645075E-09
   47.2500000      -6.19341134E-10
   47.3100014       3.27491617E-10
   47.3699989       1.26042521E-09
   47.4300003       2.19476304E-09
   47.4900017       3.15455284E-09
   47.5499992       4.16893320E-09
   47.6100006       5.26523447E-09
   47.6699982       6.46021059E-09
   47.7299995       7.75170150E-09
   47.7900009       9.11340159E-09
   47.8499985       1.04948645E-08
   47.9099998       1.18274652E-08
   47.9700012       1.30351054E-08
   48.0299988       1.40467034E-08
   48.0900002       1.48066768E-08
   48.1500015       1.52801096E-08
   48.2099991       1.54510733E-08
   48.2700005       1.53149422E-08
   48.3300018       1.48675623E-08
   48.3899994       1.40949670E-08
   48.4500008       1.29667246E-08
   48.5099983       1.14341390E-08
   48.5699997       9.43244594E-09
   48.6300011       6.88454938E-09
   48.6899986       3.70353570E-09
   48.7500000      -2.07906289E-10
   48.8100014      -4.96143171E-09
   48.8699989      -1.06890496E-08
   48.9300003      -1.75490786E-08
   48.9900017      -2.57300918E-08
   49.0499992      -3.54519969E-08
   49.1100006      -4.69647645E-08
   49.1699982      -6.05465047E-08
   49.2299995      -7.65031842E-08
   49.2900009      -9.51720196E-08
   49.3499985      -1.16929620E-07
   49.4099998      -1.42204811E-07
   49.4700012      -1.71494847E-07
   49.5299988      -2.05383117E-07
   49.5900002      -2.44556134E-07
   49.6500015      -2.89817990E-07
   49.7099991      -3.42101657E-07
   49.7700005      -4.02477298E-07
   49.8300018      -4.72158547E-07
   49.8899994      -5.52509107E-07
   49.9500008      -6.45051387E-07
   50.0099983      -7.51479320E-07
   50.0699997      -8.73675788E-07
   50.1300011      -1.01373564E-06
   50.1899986      -1.17399247E-06
   50.2500000      -1.35704704E-06
   50.3100014      -1.56579608E-06
   50.3699989      -1.80345671E-06
   50.4300003      -2.07358789E-06
   50.4900017      -2.38010648E-06
   50.5499992      -2.72730040E-06
   50.6100006      -3.11984172E-06