 -0.750000000       0.00000000    
 -0.689999998       0.00000000    
 -0.629999995       0.00000000    
 -0.569999993       0.00000000    
 -0.509999990       0.00000000    
 -0.449999988       0.00000000    
 -0.389999986       0.00000000    
 -0.330000013       6.15059317E-26
 -0.270000011       4.79460734E-25
 -0.209999993       1.06875664E-24
 -0.150000006      -4.46145610E-24
  -9.00000036E-02  -4.44108432E-23
  -2.99999993E-02  -1.87154889E-22
   2.99999993E-02  -5.11366649E-22
   9.00000036E-02  -9.28248714E-22
  0.150000006      -7.88655120E-22
  0.209999993       1.54271769E-21
  0.270000011       8.48417102E-21
  0.330000013       2.13676149E-20
  0.389999986       3.63185894E-20
  0.449999988       3.92336514E-20
  0.509999990       4.24792505E-21
  0.569999993      -9.78908414E-20
  0.629999995      -2.77446769E-19
  0.689999998      -4.93901841E-19
  0.750000000      -6.31750456E-19
  0.810000002      -5.08690951E-19
  0.870000005       6.59423021E-20
  0.930000007       1.18962655E-18
  0.990000010       2.76069896E-18
   1.04999995       4.42113975E-18
   1.11000001       5.57854989E-18
   1.16999996       5.48515293E-18
   1.23000002       3.31349239E-18
   1.28999996      -1.79621670E-18
   1.35000002      -1.06148978E-17
   1.40999997      -2.33847483E-17
   1.47000003      -3.88267098E-17
   1.52999997      -5.26902304E-17
   1.59000003      -5.65810862E-17
   1.64999998      -3.84489000E-17
   1.71000004       1.37955131E-17
   1.76999998       1.05061136E-16
   1.83000004       2.23923562E-16
   1.88999999       3.35739429E-16
   1.95000005       3.83698990E-16
   2.00999999       3.02354287E-16
   2.06999993       4.37871134E-17
   2.13000011      -3.90015474E-16
   2.19000006      -9.21140919E-16
   2.25000000      -1.39098692E-15
   2.30999994      -1.58783812E-15
   2.36999989      -1.30792422E-15
   2.43000007      -4.37792102E-16
   2.49000001       9.66351090E-16
   2.54999995       2.63313532E-15
   2.60999990       4.09282000E-15
   2.67000008       4.77244748E-15
   2.73000002       4.16367261E-15
   2.78999996       2.02919384E-15
   2.84999990      -1.41525378E-15
   2.91000009      -5.42491738E-15
   2.97000003      -8.83084956E-15
   3.02999997      -1.03551565E-14
   3.08999991      -9.08228791E-15
   3.15000010      -4.93178665E-15
   3.21000004       1.09105753E-15
   3.26999998       7.07161550E-15
   3.32999992       1.08537616E-14
   3.39000010       1.10242270E-14
   3.45000005       7.79549748E-15
   3.50999999       3.26513964E-15
   3.56999993       6.85524834E-16
   3.63000011       2.80961887E-15
   3.69000006       9.93994011E-15
   3.75000000       1.87169955E-14
   3.80999994       2.26405605E-14
   3.86999989       1.46802245E-14
   3.93000007      -8.74206103E-15
   3.99000001      -4.41558987E-14
   4.05000019      -7.99920026E-14
   4.11000013      -9.95572643E-14
   4.17000008      -8.77914888E-14
   4.23000002      -3.94279200E-14
   4.28999996       3.53157479E-14
   4.34999990       1.11247220E-13
   4.40999985       1.56477302E-13
   4.46999979       1.46438065E-13
   4.53000021       7.80892278E-14
   4.59000015      -2.28606891E-14
   4.65000010      -1.07312610E-13
   4.71000004      -1.21538616E-13
   4.76999998      -3.38044954E-14
   4.82999992       1.41949806E-13
   4.88999987       3.37587055E-13
   4.94999981       4.45696377E-13
   5.01000023       3.57645960E-13
   5.07000017       1.40284258E-14
   5.13000011      -5.51278424E-13
   5.19000006      -1.19396994E-12
   5.25000000      -1.68315730E-12
   5.30999994      -1.76667828E-12
   5.36999989      -1.26187396E-12
   5.42999983      -1.42488750E-13
   5.48999977       1.41200116E-12
   5.55000019       3.03044829E-12
   5.61000013       4.23416033E-12
   5.67000008       4.57293361E-12
   5.73000002       3.77293856E-12
   5.78999996       1.84638763E-12
   5.84999990      -8.79646562E-13
   5.90999985      -3.83336115E-12
   5.96999979      -6.35106637E-12
   6.03000021      -7.86456317E-12
   6.09000015      -8.05819213E-12
   6.15000010      -6.93772817E-12
   6.21000004      -4.78383088E-12
   6.26999998      -2.00713946E-12
   6.32999992       1.03633313E-12
   6.38999987       4.18918155E-12
   6.44999981       7.52498931E-12
   6.51000023       1.12379004E-11
   6.57000017       1.54156965E-11
   6.63000011       1.97768139E-11
   6.69000006       2.34809047E-11
   6.75000000       2.51132014E-11
   6.80999994       2.28950747E-11
   6.86999989       1.51019093E-11
   6.92999983       5.98599783E-13
   6.98999977      -2.06420506E-11
   7.05000019      -4.71763115E-11
   7.11000013      -7.59815613E-11
   7.17000008      -1.02637031E-10
   7.23000002      -1.21759450E-10
   7.28999996      -1.27615141E-10
   7.34999990      -1.14824650E-10
   7.40999985      -7.91057567E-11
   7.46999979      -1.80493120E-11
   7.53000021       6.80420720E-11
   7.59000015       1.75223683E-10
   7.65000010       2.94908459E-10
   7.71000004       4.12909901E-10
   7.76999998       5.08738995E-10
   7.82999992       5.55430923E-10
   7.88999987       5.20169685E-10
   7.94999981       3.65882352E-10
   8.01000023       5.38039266E-11
   8.06999969      -4.53194260E-10
   8.13000011      -1.18689669E-09
   8.18999958      -2.17014673E-09
   8.25000000      -3.41382900E-09
   8.31000042      -4.91479435E-09
   8.36999989      -6.65488109E-09
   8.43000031      -8.60102034E-09
   8.48999977      -1.07062421E-08
   8.55000019      -1.29113991E-08
   8.60999966      -1.51474424E-08
   8.67000008      -1.73382340E-08
   8.72999954      -1.94039824E-08
   8.78999996      -2.12654001E-08
   8.85000038      -2.28486385E-08
   8.90999985      -2.40908129E-08
   8.97000027      -2.49456935E-08
   9.02999973      -2.53888004E-08
   9.09000015      -2.54211052E-08
   9.14999962      -2.50704328E-08
   9.21000004      -2.43900118E-08
   9.27000046      -2.34540067E-08
   9.32999992      -2.23503616E-08
   9.39000034      -2.11718643E-08
   9.44999981      -2.00066079E-08
   9.51000023      -1.89292404E-08
   9.56999969      -1.79942301E-08
   9.63000011      -1.72319776E-08
   9.68999958      -1.66482454E-08
   9.75000000      -1.62266272E-08
   9.81000042      -1.59335176E-08
   9.86999989      -1.57245967E-08
   9.93000031      -1.55517910E-08
   9.98999977      -1.53697552E-08
   10.0500002      -1.51411310E-08
   10.1099997      -1.48402250E-08
   10.1700001      -1.44550096E-08
   10.2299995      -1.39876422E-08
   10.2900000      -1.34537546E-08
   10.3500004      -1.28808155E-08
   10.4099998      -1.23057013E-08
   10.4700003      -1.17715304E-08
   10.5299997      -1.13237446E-08
   10.5900002      -1.10055236E-08
   10.6499996      -1.08527969E-08
   10.7100000      -1.08894254E-08
   10.7700005      -1.11233192E-08
   10.8299999      -1.15443690E-08
   10.8900003      -1.21249002E-08
   10.9499998      -1.28229614E-08
   11.0100002      -1.35881679E-08
   11.0699997      -1.43692382E-08
   11.1300001      -1.51218469E-08
   11.1899996      -1.58152371E-08
   11.2500000      -1.64362088E-08
   11.3100004      -1.69895333E-08
   11.3699999      -1.74947008E-08
   11.4300003      -1.79796213E-08
   11.4899998      -1.84726563E-08
   11.5500002      -1.89947560E-08
   11.6099997      -1.95534842E-08
   11.6700001      -2.01403338E-08
   11.7299995      -2.07319601E-08
   11.7900000      -2.12950866E-08
   11.8500004      -2.17938965E-08
   11.9099998      -2.21981349E-08
   11.9700003      -2.24898731E-08
   12.0299997      -2.26672583E-08
   12.0900002      -2.27442669E-08
   12.1499996      -2.27465620E-08
   12.2100000      -2.27045351E-08
   12.2700005      -2.26454144E-08
   12.3299999      -2.25865016E-08
   12.3900003      -2.25312746E-08
   12.4499998      -2.24692780E-08
   12.5100002      -2.23795951E-08
   12.5699997      -2.22368026E-08
   12.6300001      -2.20175185E-08
   12.6899996      -2.17057163E-08
   12.7500000      -2.12953140E-08
   12.8100004      -2.07895283E-08
   12.8699999      -2.01975237E-08
   12.9300003      -1.95297396E-08
   12.9899998      -1.87938038E-08
   13.0500002      -1.79926598E-08
   13.1099997      -1.71258385E-08
   13.1700001      -1.61936118E-08
   13.2299995      -1.52025947E-08
   13.2900000      -1.41706815E-08
   13.3500004      -1.31291049E-08
   13.4099998      -1.21202524E-08
   13.4700003      -1.11911254E-08
   13.5299997      -1.03838493E-08
   13.5900002      -9.72572156E-09
   13.6499996      -9.22173538E-09
   13.7100000      -8.85195206E-09
   13.7700005      -8.57492743E-09
   13.8299999      -8.33670644E-09
   13.8900003      -8.08338196E-09
   13.9499998      -7.77410580E-09
   14.0100002      -7.39115347E-09
   14.0699997      -6.94424740E-09
   14.1300001      -6.46774545E-09
   14.1899996      -6.01114802E-09
   14.2500000      -5.62527491E-09
   14.3100004      -5.34780487E-09
   14.3699999      -5.19224885E-09
   14.4300003      -5.14358511E-09
   14.4899998      -5.16190468E-09
   14.5500002      -5.19298826E-09
   14.6099997      -5.18252108E-09
   14.6700001      -5.08947595E-09
   14.7299995      -4.89443552E-09
   14.7900000      -4.60032368E-09
   14.8500004      -4.22560875E-09
   14.9099998      -3.79262843E-09
   14.9700003      -3.31538019E-09
   15.0299997      -2.79130430E-09
   15.0900002      -2.20017737E-09
   15.1499996      -1.51072177E-09
   15.2100000      -6.92774227E-10
   15.2700005       2.69208933E-10
   15.3299999       1.36618017E-09
   15.3900003       2.56194999E-09
   15.4499998       3.79960374E-09
   15.5100002       5.01548802E-09
   15.5699997       6.15680040E-09
   15.6300001       7.19736892E-09
   15.6899996       8.14652878E-09
   15.7500000       9.04788156E-09
   15.8100004       9.96773597E-09
   15.8699999       1.09762324E-08
   15.9300003       1.21264749E-08
   15.9899998       1.34378570E-08
   16.0499992       1.48886024E-08
   16.1100006       1.64198806E-08
   16.1700001       1.79503488E-08
   16.2299995       1.93967278E-08
   16.2900009       2.06941593E-08
   16.3500004       2.18101537E-08
   16.4099998       2.27479671E-08
   16.4699993       2.35387017E-08
   16.5300007       2.42249918E-08
   16.5900002       2.48418548E-08
   16.6499996       2.54010644E-08
   16.7099991       2.58841393E-08
   16.7700005       2.62460826E-08
   16.8299999       2.64285251E-08
   16.8899994       2.63779292E-08
   16.9500008       2.60630753E-08
   17.0100002       2.54864734E-08
   17.0699997       2.46863916E-08
   17.1299992       2.37290791E-08
   17.1900005       2.26935857E-08
   17.2500000       2.16535305E-08
   17.3099995       2.06607460E-08
   17.3700008       1.97350118E-08
   17.4300003       1.88622007E-08
   17.4899998       1.80009607E-08
   17.5499992       1.70957275E-08
   17.6100006       1.60923985E-08
   17.6700001       1.49523807E-08
   17.7299995       1.36613849E-08
   17.7900009       1.22308785E-08
   17.8500004       1.06922355E-08
   17.9099998       9.08574549E-09
   17.9699993       7.44798223E-09
   18.0300007       5.80140114E-09
   18.0900002       4.14919388E-09
   18.1499996       2.47671683E-09
   18.2099991       7.58825502E-10
   18.2700005      -1.02929865E-09
   18.3299999      -2.90116042E-09
   18.3899994      -4.85107821E-09
   18.4500008      -6.85173163E-09
   18.5100002      -8.85785845E-09
   18.5699997      -1.08150955E-08
   18.6299992      -1.26715296E-08
   18.6900005      -1.43887311E-08
   18.7500000      -1.59491638E-08
   18.8099995      -1.73578787E-08
   18.8700008      -1.86380369E-08
   18.9300003      -1.98216963E-08
   18.9899998      -2.09387316E-08
   19.0499992      -2.20073666E-08
   19.1100006      -2.30291786E-08
   19.1700001      -2.39900313E-08
   19.2299995      -2.48662175E-08
   19.2900009      -2.56335699E-08
   19.3500004      -2.62763162E-08
   19.4099998      -2.67928044E-08
   19.4699993      -2.71965366E-08
   19.5300007      -2.75126091E-08
   19.5900002      -2.77713337E-08
   19.6499996      -2.80016135E-08
   19.7099991      -2.82265553E-08
   19.7700005      -2.84628801E-08
   19.8299999      -2.87242052E-08
   19.8899994      -2.90267756E-08
   19.9500008      -2.93951619E-08
   20.0100002      -2.98651806E-08
   20.0699997      -3.04819778E-08
   20.1299992      -3.12926716E-08
   20.1900005      -3.23349028E-08
   20.2500000      -3.36242678E-08
   20.3099995      -3.51444385E-08
   20.3700008      -3.68432929E-08
   20.4300003      -3.86368093E-08
   20.4899998      -4.04199021E-08
   20.5499992      -4.20814388E-08
   20.6100006      -4.35192931E-08
   20.6700001      -4.46516637E-08
   20.7299995      -4.54224853E-08
   20.7900009      -4.58008209E-08
   20.8500004      -4.57761651E-08
   20.9099998      -4.53524187E-08
   20.9699993      -4.45430430E-08
   21.0300007      -4.33688463E-08
   21.0900002      -4.18584385E-08
   21.1499996      -4.00503737E-08
   21.2099991      -3.79955658E-08
   21.2700005      -3.57586138E-08
   21.3299999      -3.34171695E-08
   21.3899994      -3.10588248E-08
   21.4500008      -2.87755313E-08
   21.5100002      -2.66559912E-08
   21.5699997      -2.47770693E-08
   21.6299992      -2.31957333E-08
   21.6900005      -2.19434071E-08
   21.7500000      -2.10243005E-08
   21.8099995      -2.04184456E-08
   21.8700008      -2.00888621E-08
   21.9300003      -1.99910186E-08
   21.9899998      -2.00820001E-08
   22.0499992      -2.03269153E-08
   22.1100006      -2.07010729E-08
   22.1700001      -2.11878284E-08
   22.2299995      -2.17734097E-08
   22.2900009      -2.24408367E-08
   22.3500004      -2.31651924E-08
   22.4099998      -2.39118361E-08
   22.4699993      -2.46382488E-08
   22.5300007      -2.52990748E-08
   22.5900002      -2.58530637E-08
   22.6499996      -2.62701363E-08
   22.7099991      -2.65367817E-08
   22.7700005      -2.66583271E-08
   22.8299999      -2.66574531E-08
   22.8899994      -2.65692162E-08
   22.9500008      -2.64337743E-08
   23.0100002      -2.62886388E-08
   23.0699997      -2.61623700E-08
   23.1299992      -2.60712234E-08
   23.1900005      -2.60194035E-08
   23.2500000      -2.60025654E-08
   23.3099995      -2.60133017E-08
   23.3700008      -2.60468607E-08
   23.4300003      -2.61053632E-08
   23.4899998      -2.61991762E-08
   23.5499992      -2.63449671E-08
   23.6100006      -2.65607802E-08
   23.6700001      -2.68593983E-08
   23.7299995      -2.72417005E-08
   23.7900009      -2.76919270E-08
   23.8500004      -2.81763786E-08
   23.9099998      -2.86463795E-08
   23.9699993      -2.90452320E-08
   24.0300007      -2.93179259E-08
   24.0900002      -2.94215408E-08
   24.1499996      -2.93339397E-08
   24.2099991      -2.90587128E-08
   24.2700005      -2.86250064E-08
   24.3299999      -2.80821570E-08
   24.3899994      -2.74902305E-08
   24.4500008      -2.69085554E-08
   24.5100002      -2.63848765E-08
   24.5699997      -2.59475694E-08
   24.6299992      -2.56024855E-08
   24.6900005      -2.53348436E-08
   24.7500000      -2.51152681E-08
   24.8099995      -2.49081413E-08
   24.8700008      -2.46801228E-08
   24.9300003      -2.44070044E-08
   24.9899998      -2.40778544E-08
   25.0499992      -2.36961775E-08
   25.1100006      -2.32785080E-08
   25.1700001      -2.28510864E-08
   25.2299995      -2.24452172E-08
   25.2900009      -2.20919123E-08
   25.3500004      -2.18163585E-08
   25.4099998      -2.16330989E-08
   25.4699993      -2.15428724E-08
   25.5300007      -2.15321201E-08
   25.5900002      -2.15755840E-08
   25.6499996      -2.16417000E-08
   25.7099991      -2.16995844E-08
   25.7700005      -2.17257661E-08
   25.8299999      -2.17088196E-08
   25.8899994      -2.16505391E-08
   25.9500008      -2.15633751E-08
   26.0100002      -2.14648406E-08
   26.0699997      -2.13705409E-08
   26.1299992      -2.12877982E-08
   26.1900005      -2.12117186E-08
   26.2500000      -2.11248103E-08
   26.3099995      -2.10003073E-08
   26.3700008      -2.08082511E-08
   26.4300003      -2.05226556E-08
   26.4899998      -2.01277270E-08
   26.5499992      -1.96215062E-08
   26.6100006      -1.90161256E-08
   26.6700001      -1.83349460E-08
   26.7299995      -1.76077268E-08
   26.7900009      -1.68653020E-08
   26.8500004      -1.61350613E-08
   26.9099998      -1.54379087E-08
   26.9699993      -1.47868429E-08
   27.0300007      -1.41869601E-08
   27.0900002      -1.36368001E-08
   27.1499996      -1.31311477E-08
   27.2099991      -1.26653772E-08
   27.2700005      -1.22410224E-08
   27.3299999      -1.18714141E-08
   27.3899994      -1.15855512E-08
   27.4500008      -1.14281500E-08
   27.5100002      -1.14546239E-08
   27.5699997      -1.17212355E-08
   27.6299992      -1.22725883E-08
   27.6900005      -1.31299007E-08
   27.7500000      -1.42837813E-08
   27.8099995      -1.56941162E-08
   27.8700008      -1.72975589E-08
   27.9300003      -1.90207441E-08
   27.9899998      -2.07955146E-08
   28.0499992      -2.25718271E-08
   28.1100006      -2.43247875E-08
   28.1700001      -2.60540798E-08
   28.2299995      -2.77764034E-08
   28.2900009      -2.95136271E-08
   28.3500004      -3.12806243E-08
   28.4099998      -3.30766881E-08
   28.4699993      -3.48833638E-08
   28.5300007      -3.66693129E-08
   28.5900002      -3.84006746E-08
   28.6499996      -4.00532940E-08
   28.7099991      -4.16225419E-08
   28.7700005      -4.31268390E-08
   28.8299999      -4.46030128E-08
   28.8899994      -4.60942502E-08
   28.9500008      -4.76341491E-08
   29.0100002      -4.92320886E-08
   29.0699997      -5.08650366E-08
   29.1299992      -5.24793329E-08
   29.1900005      -5.40027116E-08
   29.2500000      -5.53632660E-08
   29.3099995      -5.65096769E-08
   29.3700008      -5.74260497E-08
   29.4300003      -5.81364397E-08
   29.4899998      -5.86972568E-08
   29.5499992      -5.91798575E-08
   29.6100006      -5.96487695E-08
   29.6700001      -6.01423906E-08
   29.7299995      -6.06621668E-08
   29.7900009      -6.11730897E-08
   29.8500004      -6.16150118E-08
   29.9099998      -6.19207441E-08
   29.9699993      -6.20351841E-08
   30.0300007      -6.19299740E-08
   30.0900002      -6.16098959E-08
   30.1499996      -6.11099864E-08
   30.2099991      -6.04850783E-08
   30.2700005      -5.97952337E-08
   30.3299999      -5.90913878E-08
   30.3899994      -5.84048863E-08
   30.4500008      -5.77432679E-08
   30.5100002      -5.70926275E-08
   30.5699997      -5.64251081E-08
   30.6299992      -5.57087318E-08
   30.6900005      -5.49163488E-08
   30.7500000      -5.40311405E-08
   30.8099995      -5.30475148E-08
   30.8700008      -5.19680228E-08
   30.9300003      -5.07982669E-08
   30.9899998      -4.95424963E-08
   31.0499992      -4.82018834E-08
   31.1100006      -4.67762789E-08
   31.1700001      -4.52684610E-08
   31.2299995      -4.36888250E-08
   31.2900009      -4.20580157E-08
   31.3500004      -4.04058476E-08
   31.4099998      -3.87662951E-08
   31.4699993      -3.71698086E-08
   31.5300007      -3.56356011E-08
   31.5900002      -3.41665256E-08
   31.6499996      -3.27486980E-08
   31.7099991      -3.13563184E-08
   31.7700005      -2.99604999E-08
   31.8299999      -2.85393309E-08
   31.8899994      -2.70858873E-08
   31.9500008      -2.56113140E-08
   32.0099983      -2.41417837E-08
   32.0699997      -2.27103172E-08
   32.1300011      -2.13463220E-08
   32.1899986      -2.00667518E-08
   32.2500000      -1.88721714E-08
   32.3100014      -1.77493185E-08
   32.3699989      -1.66791541E-08
   32.4300003      -1.56474087E-08
   32.4900017      -1.46536019E-08
   32.5499992      -1.37151730E-08
   32.6100006      -1.28651045E-08
   32.6699982      -1.21437180E-08
   32.7299995      -1.15872183E-08
   32.7900009      -1.12164678E-08
   32.8499985      -1.10293463E-08
   32.9099998      -1.09989706E-08
   32.9700012      -1.10785159E-08
   33.0299988      -1.12116840E-08
   33.0900002      -1.13463496E-08
   33.1500015      -1.14478187E-08
   33.2099991      -1.15078072E-08
   33.2700005      -1.15459704E-08
   33.3300018      -1.16027037E-08
   33.3899994      -1.17245724E-08
   33.4500008      -1.19464767E-08
   33.5099983      -1.22763009E-08
   33.5699997      -1.26876296E-08
   33.6300011      -1.31237972E-08
   33.6899986      -1.35128104E-08
   33.7500000      -1.37887692E-08
   33.8100014      -1.39128229E-08
   33.8699989      -1.38865488E-08
   33.9300003      -1.37529357E-08
   33.9900017      -1.35842342E-08
   34.0499992      -1.34602862E-08
   34.1100006      -1.34441098E-08
   34.1699982      -1.35623797E-08
   34.2299995      -1.37968490E-08
   34.2900009      -1.40892658E-08
   34.3499985      -1.43580481E-08
   34.4099998      -1.45213983E-08
   34.4700012      -1.45195820E-08
   34.5299988      -1.43295971E-08
   34.5900002      -1.39679965E-08
   34.6500015      -1.34815856E-08
   34.7099991      -1.29295765E-08
   34.7700005      -1.23635022E-08
   34.8300018      -1.18116352E-08
   34.8899994      -1.12728902E-08
   34.9500008      -1.07217275E-08
   35.0099983      -1.01218589E-08
   35.0699997      -9.44367695E-09
   35.1300011      -8.67944561E-09
   35.1899986      -7.85141907E-09
   35.2500000      -7.01073466E-09
   35.3100014      -6.22805674E-09
   35.3699989      -5.57943425E-09
   35.4300003      -5.13188025E-09
   35.4900017      -4.93268271E-09
   35.5499992      -5.00469532E-09
   35.6100006      -5.34768541E-09
   35.6699982      -5.94395866E-09
   35.7299995      -6.76556633E-09
   35.7900009      -7.78057174E-09
   35.8499985      -8.95693653E-09
   35.9099998      -1.02639675E-08
   35.9700012      -1.16724665E-08
   36.0299988      -1.31551099E-08
   36.0900002      -1.46881698E-08
   36.1500015      -1.62546900E-08
   36.2099991      -1.78480324E-08
   36.2700005      -1.94741094E-08
   36.3300018      -2.11507096E-08
   36.3899994      -2.29033201E-08
   36.4500008      -2.47581458E-08
   36.5099983      -2.67342681E-08
   36.5699997      -2.88373059E-08
   36.6300011      -3.10566008E-08
   36.6899986      -3.33667600E-08
   36.7500000      -3.57330627E-08
   36.8100014      -3.81189729E-08
   36.8699989      -4.04935783E-08
   36.9300003      -4.28368452E-08
   36.9900017      -4.51414301E-08
   37.0499992      -4.74106443E-08
   37.1100006      -4.96533055E-08
   37.1699982      -5.18767571E-08
   37.2299995      -5.40798801E-08
   37.2900009      -5.62480125E-08
   37.3499985      -5.83512438E-08
   37.4099998      -6.03472259E-08
   37.4700012      -6.21880645E-08
   37.5299988      -6.38303064E-08
   37.5900002      -6.52453238E-08
   37.6500015      -6.64271411E-08
   37.7099991      -6.73949998E-08
   37.7700005      -6.81890455E-08
   37.8300018      -6.88594710E-08
   37.8899994      -6.94517013E-08
   37.9500008      -6.99916498E-08
   38.0099983      -7.04755365E-08
   38.0699997      -7.08680261E-08
   38.1300011      -7.11099091E-08
   38.1899986      -7.11339041E-08
   38.2500000      -7.08845960E-08
   38.3100014      -7.03367391E-08
   38.3699989      -6.95064202E-08
   38.4300003      -6.84512642E-08
   38.4900017      -6.72590303E-08
   38.5499992      -6.60272548E-08
   38.6100006      -6.48394760E-08
   38.6699982      -6.37447926E-08
   38.7299995      -6.27465582E-08
   38.7900009      -6.18037816E-08
   38.8499985      -6.08446413E-08
   38.9099998      -5.97883556E-08
   38.9700012      -5.85688547E-08
   39.0299988      -5.71535175E-08
   39.0900002      -5.55515669E-08
   39.1500015      -5.38102292E-08
   39.2099991      -5.20003134E-08
   39.2700005      -5.01960677E-08
   39.3300018      -4.84557248E-08
   39.3899994      -4.68085766E-08
   39.4500008      -4.52522713E-08
   39.5099983      -4.37607106E-08
   39.5699997      -4.22996784E-08
   39.6300011      -4.08450767E-08
   39.6899986      -3.93979427E-08
   39.7500000      -3.79914908E-08
   39.8100014      -3.66878226E-08
   39.8699989      -3.55650407E-08
   39.9300003      -3.46984166E-08
   39.9900017      -3.41410242E-08
   40.0499992      -3.39094939E-08
   40.1100006      -3.39791200E-08
   40.1699982      -3.42897835E-08
   40.2299995      -3.47610438E-08
   40.2900009      -3.53119560E-08
   40.3499985      -3.58799959E-08
   40.4099998      -3.64339101E-08
   40.4700012      -3.69772089E-08
   40.5299988      -3.75421081E-08
   40.5900002      -3.81762284E-08
   40.6500015      -3.89263946E-08
   40.7099991      -3.98239806E-08
   40.7700005      -4.08754524E-08
   40.8300018      -4.20597743E-08
   40.8899994      -4.33324487E-08
   40.9500008      -4.46344153E-08
   41.0099983      -4.59032563E-08
   41.0699997      -4.70840611E-08
   41.1300011      -4.81380269E-08
   41.1899986      -4.90474683E-08
   41.2500000      -4.98168760E-08
   41.3100014      -5.04704722E-08
   41.3699989      -5.10471239E-08
   41.4300003      -5.15937444E-08
   41.4900017      -5.21583736E-08
   41.5499992      -5.27836015E-08
   41.6100006      -5.35010010E-08
   41.6699982      -5.43267369E-08
   41.7299995      -5.52588943E-08
   41.7900009      -5.62770843E-08
   41.8499985      -5.73450905E-08
   41.9099998      -5.84169513E-08
   41.9700012      -5.94460410E-08
   42.0299988      -6.03954575E-08
   42.0900002      -6.12468867E-08
   42.1500015      -6.20050002E-08
   42.2099991      -6.26952712E-08
   42.2700005      -6.33549888E-08
   42.3300018      -6.40198579E-08
   42.3899994      -6.47103207E-08
   42.4500008      -6.54221850E-08
   42.5099983      -6.61249402E-08
   42.5699997      -6.67686209E-08
   42.6300011      -6.72970657E-08
   42.6899986      -6.76632155E-08
   42.7500000      -6.78416896E-08
   42.8100014      -6.78347192E-08
   42.8699989      -6.76700580E-08
   42.9300003      -6.73920795E-08
   42.9900017      -6.70491644E-08
   43.0499992      -6.66814728E-08
   43.1100006      -6.63124808E-08
   43.1699982      -6.59464447E-08
   43.2299995      -6.55717685E-08
   43.2900009      -6.51685852E-08
   43.3499985      -6.47178595E-08
   43.4099998      -6.42087485E-08
   43.4700012      -6.36417852E-08
   43.5299988      -6.30267607E-08
   43.5900002      -6.23760101E-08
   43.6500015      -6.16953528E-08
   43.7099991      -6.09760633E-08
   43.7700005      -6.01912191E-08
   43.8300018      -5.92984009E-08
   43.8899994      -5.82488902E-08
   43.9500008      -5.70010918E-08
   44.0099983      -5.55342439E-08
   44.0699997      -5.38579208E-08
   44.1300011      -5.20137320E-08
   44.1899986      -5.00679498E-08
   44.2500000      -4.80964282E-08
   44.3100014      -4.61659440E-08
   44.3699989      -4.43173818E-08
   44.4300003      -4.25559605E-08
   44.4900017      -4.08517806E-08
   44.5499992      -3.91506738E-08
   44.6100006      -3.73921871E-08
   44.6699982      -3.55290304E-08
   44.7299995      -3.35419692E-08
   44.7900009      -3.14455448E-08
   44.8499985      -2.92832798E-08
   44.9099998      -2.71145648E-08
   44.9700012      -2.49980143E-08
   45.0299988      -2.29772006E-08
   45.0900002      -2.10732694E-08
   45.1500015      -1.92863805E-08
   45.2099991      -1.76045862E-08
   45.2700005      -1.60163740E-08
   45.3300018      -1.45220271E-08
   45.3899994      -1.31396423E-08
   45.4500008      -1.19036834E-08
   45.5099983      -1.08564437E-08
   45.5699997      -1.00351194E-08
   45.6300011      -9.45860545E-09
   45.6899986      -9.11837272E-09
   45.7500000      -8.97670915E-09
   45.8100014      -8.97361030E-09
   45.8699989      -9.04099373E-09
   45.9300003      -9.12058340E-09
   45.9900017      -9.18031073E-09
   46.0499992      -9.22419208E-09
   46.1100006      -9.29236066E-09
   46.1699982      -9.45082768E-09
   46.2299995      -9.77378356E-09
   46.2900009      -1.03235616E-08
   46.3499985      -1.11341087E-08
   46.4099998      -1.22025696E-08
   46.4700012      -1.34909817E-08
   46.5299988      -1.49370258E-08
   46.5900002      -1.64702403E-08
   46.6500015      -1.80288851E-08
   46.7099991      -1.95728784E-08
   46.7700005      -2.10896296E-08
   46.8300018      -2.25917223E-08
   46.8899994      -2.41076084E-08
   46.9500008      -2.56683350E-08
   47.0099983      -2.72943410E-08
   47.0699997      -2.89863333E-08
   47.1300011      -3.07230472E-08
   47.1899986      -3.24665308E-08
   47.2500000      -3.41730662E-08
   47.3100014      -3.58059324E-08
   47.3699989      -3.73453979E-08
   47.4300003      -3.87923720E-08
   47.4900017      -4.01644620E-08
   47.5499992      -4.14860111E-08
   47.6100006      -4.27759552E-08
   47.6699982      -4.40380887E-08
   47.7299995      -4.52573374E-08
   47.7900009      -4.64034393E-08
   47.8499985      -4.74407287E-08
   47.9099998      -4.83408193E-08
   47.9700012      -4.90940728E-08
   48.0299988      -4.97163413E-08
   48.0900002      -5.02491204E-08
   48.1500015      -5.07533393E-08
   48.2099991      -5.12990006E-08
   48.2700005      -5.19543306E-08
   48.3300018      -5.27782298E-08
   48.3899994      -5.38191394E-08
   48.4500008      -5.51211841E-08
   48.5099983      -5.67362513E-08
   48.5699997      -5.87383333E-08
   48.6300011      -6.12355038E-08
   48.6899986      -6.43755769E-08
   48.7500000      -6.83437094E-08
   48.8100014      -7.33531422E-08
   48.8699989      -7.96332884E-08
   48.9300003      -8.74201120E-08
   48.9900017      -9.69536629E-08
   49.0499992      -1.08484919E-07
   49.1100006      -1.22291283E-07
   49.1699982      -1.38697544E-07
   49.2299995      -1.58097293E-07
   49.2900009      -1.80971128E-07
   49.3499985      -2.07898452E-07
   49.4099998      -2.39562809E-07
   49.4700012      -2.76752644E-07
   49.5299988      -3.20360471E-07
   49.5900002      -3.71384345E-07
   49.6500015      -4.30935046E-07
   49.7099991      -5.00250735E-07
   49.7700005      -5.80719075E-07
   49.8300018      -6.73905561E-07
   49.8899994      -7.81584276E-07
   49.9500008      -9.05768104E-07
   50.0099983      -1.04873482E-06
   50.0699997      -1.21304856E-06
   50.1300011      -1.40157704E-06
   50.1899986      -1.61750722E-06
   50.2500000      -1.86436409E-06
   50.3100014      -2.14603324E-06
   50.3699989      -2.46678974E-06
   50.4300003      -2.83133363E-06
   50.4900017      -3.24482835E-06
   50.5499992      -3.71293845E-06
   50.6100006      -4.24186646E-06