 -0.750000000       0.00000000    
 -0.689999998       0.00000000    
 -0.629999995       0.00000000    
 -0.569999993       0.00000000    
 -0.509999990       0.00000000    
 -0.449999988       0.00000000    
 -0.389999986       0.00000000    
 -0.330000013       0.00000000    
 -0.270000011       0.00000000    
 -0.209999993       0.00000000    
 -0.150000006       0.00000000    
  -9.00000036E-02   0.00000000    
  -2.99999993E-02   0.00000000    
   2.99999993E-02   1.11346213E-35
   9.00000036E-02  -1.15193843E-34
  0.150000006      -4.20991620E-33
  0.209999993      -4.61195158E-32
  0.270000011      -3.02502727E-31
  0.330000013      -1.37313210E-30
  0.389999986      -4.43995087E-30
  0.449999988      -9.35401680E-30
  0.509999990      -5.20471207E-30
  0.569999993       5.30928691E-29
  0.629999995       2.69866408E-28
  0.689999998       7.55318091E-28
  0.750000000       1.30167962E-27
  0.810000002       5.98289800E-28
  0.870000005      -4.67427935E-27
  0.930000007      -1.90323355E-26
  0.990000010      -4.19049908E-26
   1.04999995      -5.28960326E-26
   1.11000001       5.20806856E-27
   1.16999996       2.18829966E-25
   1.23000002       6.24305704E-25
   1.28999996       1.02778390E-24
   1.35000002       8.01677035E-25
   1.40999997      -1.06873199E-24
   1.47000003      -5.27120525E-24
   1.52999997      -1.05933141E-23
   1.59000003      -1.21961351E-23
   1.64999998      -1.82646938E-24
   1.71000004       2.72331635E-23
   1.76999998       6.96287321E-23
   1.83000004       9.68429124E-23
   1.88999999       5.82705992E-23
   1.95000005      -9.05466285E-23
   2.00999999      -3.30466531E-22
   2.06999993      -5.21494210E-22
   2.13000011      -4.10390888E-22
   2.19000006       2.29562663E-22
   2.25000000       1.32911385E-21
   2.30999994       2.27014832E-21
   2.36999989       1.93490147E-21
   2.43000007      -6.76723659E-22
   2.49000001      -5.31329450E-21
   2.54999995      -9.45091978E-21
   2.60999990      -8.51204636E-21
   2.67000008       1.70531422E-21
   2.73000002       2.06627794E-20
   2.78999996       3.91444258E-20
   2.84999990       3.97791738E-20
   2.91000009       5.39855832E-21
   2.97000003      -6.56544626E-20
   3.02999997      -1.45012607E-19
   3.08999991      -1.73698106E-19
   3.15000010      -8.67134276E-20
   3.21000004       1.38731049E-19
   3.26999998       4.33502146E-19
   3.32999992       6.24203725E-19
   3.39000010       4.93661234E-19
   3.45000005      -8.41503116E-20
   3.50999999      -9.89785606E-19
   3.56999993      -1.78900121E-18
   3.63000011      -1.85243541E-18
   3.69000006      -6.89476599E-19
   3.75000000       1.62145981E-18
   3.80999994       4.16097739E-18
   3.86999989       5.33720051E-18
   3.93000007       3.61636870E-18
   3.99000001      -1.39465298E-18
   4.05000019      -8.08006401E-18
   4.11000013      -1.28693471E-17
   4.17000008      -1.16455003E-17
   4.23000002      -2.22845207E-18
   4.28999996       1.32123847E-17
   4.34999990       2.74717666E-17
   4.40999985       3.06416121E-17
   4.46999979       1.53562276E-17
   4.53000021      -1.71438889E-17
   4.59000015      -5.37478636E-17
   4.65000010      -7.24686317E-17
   4.71000004      -5.26461020E-17
   4.76999998       1.09692016E-17
   4.82999992       9.76310027E-17
   4.88999987       1.61967906E-16
   4.94999981       1.51846074E-16
   5.01000023       3.86667298E-17
   5.07000017      -1.53723695E-16
   5.13000011      -3.40495545E-16
   5.19000006      -4.01928039E-16
   5.25000000      -2.42608950E-16
   5.30999994       1.39195280E-16
   5.36999989       6.10735901E-16
   5.42999983       9.29256765E-16
   5.48999977       8.42836375E-16
   5.55000019       2.36300672E-16
   5.61000013      -7.48318881E-16
   5.67000008      -1.69807215E-15
   5.73000002      -2.06885532E-15
   5.78999996      -1.45060237E-15
   5.84999990       1.53823989E-16
   5.90999985       2.19313644E-15
   5.96999979       3.70025538E-15
   6.03000021       3.70223532E-15
   6.09000015       1.75997660E-15
   6.15000010      -1.62874843E-15
   6.21000004      -5.03092254E-15
   6.26999998      -6.60198655E-15
   6.32999992      -4.98923836E-15
   6.38999987      -2.19970949E-16
   6.44999981       5.92262504E-15
   6.51000023       1.03871201E-14
   6.57000017       1.01777793E-14
   6.63000011       4.02208936E-15
   6.69000006      -6.43228519E-15
   6.75000000      -1.66713143E-14
   6.80999994      -2.09358000E-14
   6.86999989      -1.49699775E-14
   6.92999983       1.26389714E-15
   6.98999977       2.23592422E-14
   7.05000019       3.87775817E-14
   7.11000013       4.06828637E-14
   7.17000008       2.29444725E-14
   7.23000002      -1.10077607E-14
   7.28999996      -4.87748913E-14
   7.34999990      -7.30831885E-14
   7.40999985      -6.93293215E-14
   7.46999979      -3.34634969E-14
   7.53000021       2.37968384E-14
   7.59000015       7.93975955E-14
   7.65000010       1.07146700E-13
   7.71000004       9.02623855E-14
   7.76999998       3.13837735E-14
   7.82999992      -4.56684217E-14
   7.88999987      -1.04816878E-13
   7.94999981      -1.14546434E-13
   8.01000023      -6.51010346E-14
   8.06999969       2.30121488E-14
   8.13000011       1.05237481E-13
   8.18999958       1.33103801E-13
   8.25000000       7.98972637E-14
   8.31000042      -4.08741305E-14
   8.36999989      -1.75257934E-13
   8.43000031      -2.50057299E-13
   8.48999977      -2.07877606E-13
   8.55000019      -4.00399149E-14
   8.60999966       1.99910496E-13
   8.67000008       4.11908165E-13
   8.72999954       4.90588473E-13
   8.78999996       3.74990647E-13
   8.85000038       8.33720232E-14
   8.90999985      -2.85557846E-13
   8.97000027      -5.89156707E-13
   9.02999973      -7.01230252E-13
   9.09000015      -5.69455128E-13
   9.14999962      -2.42158507E-13
   9.21000004       1.50527567E-13
   9.27000046       4.54955572E-13
   9.32999992       5.65653806E-13
   9.39000034       4.75766724E-13
   9.44999981       2.79473520E-13
   9.51000023       1.21547534E-13
   9.56999969       1.15617138E-13
   9.63000011       2.70904745E-13
   9.68999958       4.67429860E-13
   9.75000000       4.99912774E-13
   9.81000042       1.78487433E-13
   9.86999989      -5.55833916E-13
   9.93000031      -1.55637721E-12
   9.98999977      -2.48050343E-12
   10.0500002      -2.89383361E-12
   10.1099997      -2.43684977E-12
   10.1700001      -9.89859236E-13
   10.2299995       1.23371907E-12
   10.2900000       3.71137669E-12
   10.3500004       5.75274941E-12
   10.4099998       6.71020010E-12
   10.4700003       6.18203969E-12
   10.5299997       4.13462840E-12
   10.5900002       9.03140084E-13
   10.6499996      -2.92011857E-12
   10.7100000      -6.65787781E-12
   10.7700005      -9.71009818E-12
   10.8299999      -1.16485467E-11
   10.8900003      -1.22230195E-11
   10.9499998      -1.13016428E-11
   11.0100002      -8.79789731E-12
   11.0699997      -4.64120929E-12
   11.1300001       1.17466095E-12
   11.1899996       8.47054805E-12
   11.2500000       1.67326743E-11
   11.3100004       2.50033674E-11
   11.3699999       3.18777608E-11
   11.4300003       3.56448655E-11
   11.4899998       3.45673316E-11
   11.5500002       2.72485541E-11
   11.6099997       1.30044829E-11
   11.6700001      -7.84770599E-12
   11.7299995      -3.38487641E-11
   11.7900000      -6.24256202E-11
   11.8500004      -9.00627697E-11
   11.9099998      -1.12559580E-10
   11.9700003      -1.25313898E-10
   12.0299997      -1.23599755E-10
   12.0900002      -1.02850950E-10
   12.1499996      -5.89970642E-11
   12.2100000       1.10974112E-11
   12.2700005       1.09079523E-10
   12.3299999       2.34500752E-10
   12.3900003       3.84293014E-10
   12.4499998       5.52506207E-10
   12.5100002       7.30463912E-10
   12.5699997       9.07400433E-10
   12.6300001       1.07150677E-09
   12.6899996       1.21117960E-09
   12.7500000       1.31619171E-09
   12.8100004       1.37851386E-09
   12.8699999       1.39262402E-09
   12.9300003       1.35529088E-09
   12.9899998       1.26496091E-09
   13.0500002       1.12096465E-09
   13.1099997       9.22755206E-10
   13.1700001       6.69336420E-10
   13.2299995       3.58952285E-10
   13.2900000      -1.09346638E-11
   13.3500004      -4.43355491E-10
   13.4099998      -9.41185796E-10
   13.4700003      -1.50607049E-09
   13.5299997      -2.13690243E-09
   13.5900002      -2.82795343E-09
   13.6499996      -3.56692609E-09
   13.7100000      -4.33334835E-09
   13.7700005      -5.09780840E-09
   13.8299999      -5.82247051E-09
   13.8900003      -6.46313270E-09
   13.9499998      -6.97278280E-09
   14.0100002      -7.30628935E-09
   14.0699997      -7.42556994E-09
   14.1300001      -7.30437444E-09
   14.1899996      -6.93180446E-09
   14.2500000      -6.31385388E-09
   14.3100004      -5.47263657E-09
   14.3699999      -4.44344161E-09
   14.4300003      -3.27029626E-09
   14.4899998      -2.00106021E-09
   14.5500002      -6.83157697E-10
   14.6099997       6.39205466E-10
   14.6700001       1.92601957E-09
   14.7299995       3.14093462E-09
   14.7900000       4.24995550E-09
   14.8500004       5.22027577E-09
   14.9099998       6.01994010E-09
   14.9700003       6.61862387E-09
   15.0299997       6.98936242E-09
   15.0900002       7.11077552E-09
   15.1499996       6.96929092E-09
   15.2100000       6.56100552E-09
   15.2700005       5.89300120E-09
   15.3299999       4.98403629E-09
   15.3900003       3.86450605E-09
   15.4499998       2.57552313E-09
   15.5100002       1.16695764E-09
   15.5699997      -3.05578174E-10
   15.6300001      -1.78455806E-09
   15.6899996      -3.21467120E-09
   15.7500000      -4.54659377E-09
   15.8100004      -5.73979220E-09
   15.8699999      -6.76398271E-09
   15.9300003      -7.59918528E-09
   15.9899998      -8.23460145E-09
   16.0499992      -8.66673489E-09
   16.1100006      -8.89729268E-09
   16.1700001      -8.93142449E-09
   16.2299995      -8.77680684E-09
   16.2900009      -8.44392201E-09
   16.3500004      -7.94757415E-09
   16.4099998      -7.30924476E-09
   16.4699993      -6.55945387E-09
   16.5300007      -5.73903769E-09
   16.5900002      -4.89837770E-09
   16.6499996      -4.09413081E-09
   16.7099991      -3.38379813E-09
   16.7700005      -2.81923795E-09
   16.8299999      -2.44063503E-09
   16.8899994      -2.27234631E-09
   16.9500008      -2.32146258E-09
   17.0100002      -2.57912336E-09
   17.0699997      -3.02389225E-09
   17.1299992      -3.62612185E-09
   17.1900005      -4.35224523E-09
   17.2500000      -5.16821874E-09
   17.3099995      -6.04177197E-09
   17.3700008      -6.94344982E-09
   17.4300003      -7.84665044E-09
   17.4899998      -8.72698269E-09
   17.5499992      -9.56132595E-09
   17.6100006      -1.03270423E-08
   17.6700001      -1.10018057E-08
   17.7299995      -1.15644836E-08
   17.7900009      -1.19972912E-08
   17.8500004      -1.22891759E-08
   17.9099998      -1.24399557E-08
   17.9699993      -1.24643167E-08
   18.0300007      -1.23944606E-08
   18.0900002      -1.22799975E-08
   18.1499996      -1.21839250E-08
   18.2099991      -1.21741461E-08
   18.2700005      -1.23111734E-08
   18.3299999      -1.26340334E-08
   18.3899994      -1.31476865E-08
   18.4500008      -1.38157850E-08
   18.5100002      -1.45618815E-08
   18.5699997      -1.52802659E-08
   18.6299992      -1.58547699E-08
   18.6900005      -1.61812626E-08
   18.7500000      -1.61879594E-08
   18.8099995      -1.58481388E-08
   18.8700008      -1.51820512E-08
   18.9300003      -1.42481928E-08
   18.9899998      -1.31274485E-08
   19.0499992      -1.19054473E-08
   19.1100006      -1.06584457E-08
   19.1700001      -9.44614165E-09
   19.2299995      -8.31184988E-09
   19.2900009      -7.28771932E-09
   19.3500004      -6.40107345E-09
   19.4099998      -5.67796832E-09
   19.4699993      -5.14163512E-09
   19.5300007      -4.80582241E-09
   19.5900002      -4.66541605E-09
   19.6499996      -4.68819650E-09
   19.7099991      -4.81177276E-09
   19.7700005      -4.94845231E-09
   19.8299999      -4.99841590E-09
   19.8899994      -4.86879914E-09
   19.9500008      -4.49401805E-09
   20.0100002      -3.85171850E-09
   20.0699997      -2.96955927E-09
   20.1299992      -1.92051131E-09
   20.1900005      -8.07688250E-10
   20.2500000       2.57156324E-10
   20.3099995       1.17556043E-09
   20.3700008       1.87898608E-09
   20.4300003       2.33643993E-09
   20.4899998       2.55242427E-09
   20.5499992       2.55752930E-09
   20.6100006       2.39580200E-09
   20.6700001       2.11321649E-09
   20.7299995       1.75028714E-09
   20.7900009       1.33974576E-09
   20.8500004       9.08205733E-10
   20.9099998       4.79528584E-10
   20.9699993       7.75305514E-11
   21.0300007      -2.73458645E-10
   21.0900002      -5.50333501E-10
   21.1499996      -7.34208638E-10
   21.2099991      -8.13034640E-10
   21.2700005      -7.82400367E-10
   21.3299999      -6.43935572E-10
   21.3899994      -4.01852329E-10
   21.4500008      -5.91068028E-11
   21.5100002       3.84971693E-10
   21.5699997       9.34111677E-10
   21.6299992       1.59114821E-09
   21.6900005       2.35159270E-09
   21.7500000       3.19680171E-09
   21.8099995       4.08940659E-09
   21.8700008       4.97333374E-09
   21.9300003       5.77959858E-09
   21.9899998       6.43732445E-09
   22.0499992       6.88773705E-09
   22.1100006       7.09767578E-09
   22.1700001       7.06897874E-09
   22.2299995       6.84091050E-09
   22.2900009       6.48451115E-09
   22.3500004       6.08982464E-09
   22.4099998       5.74883385E-09
   22.4699993       5.53814905E-09
   22.5300007       5.50562218E-09
   22.5900002       5.66414471E-09
   22.6499996       5.99406569E-09
   22.7099991       6.45341247E-09
   22.7700005       6.99298885E-09
   22.8299999       7.57209229E-09
   22.8899994       8.17045454E-09
   22.9500008       8.79319106E-09
   23.0100002       9.46763201E-09
   23.0699997       1.02333626E-08
   23.1299992       1.11286855E-08
   23.1900005       1.21775479E-08
   23.2500000       1.33805163E-08
   23.3099995       1.47120005E-08
   23.3700008       1.61241029E-08
   23.4300003       1.75558572E-08
   23.4899998       1.89454656E-08
   23.5499992       2.02427195E-08
   23.6100006       2.14187956E-08
   23.6700001       2.24711858E-08
   23.7299995       2.34225563E-08
   23.7900009       2.43138487E-08
   23.8500004       2.51935770E-08
   23.9099998       2.61064876E-08
   23.9699993       2.70851555E-08
   24.0300007       2.81469905E-08
   24.0900002       2.92970093E-08
   24.1499996       3.05344514E-08
   24.2099991       3.18594751E-08
   24.2700005       3.32763364E-08
   24.3299999       3.47909932E-08
   24.3899994       3.64036090E-08
   24.4500008       3.80990954E-08
   24.5100002       3.98397937E-08
   24.5699997       4.15640073E-08
   24.6299992       4.31920277E-08
   24.6900005       4.46386785E-08
   24.7500000       4.58290970E-08
   24.8099995       4.67132999E-08
   24.8700008       4.72751616E-08
   24.9300003       4.75329678E-08
   24.9899998       4.75309392E-08
   25.0499992       4.73239652E-08
   25.1100006       4.69600820E-08
   25.1700001       4.64661483E-08
   25.2299995       4.58417837E-08
   25.2900009       4.50638069E-08
   25.3500004       4.40997425E-08
   25.4099998       4.29254747E-08
   25.4699993       4.15401011E-08
   25.5300007       3.99720150E-08
   25.5900002       3.82736616E-08
   25.6499996       3.65069930E-08
   25.7099991       3.47256233E-08
   25.7700005       3.29608589E-08
   25.8299999       3.12168780E-08
   25.8899994       2.94763822E-08
   25.9500008       2.77133658E-08
   26.0100002       2.59070809E-08
   26.0699997       2.40514222E-08
   26.1299992       2.21566090E-08
   26.1900005       2.02438830E-08
   26.2500000       1.83368769E-08
   26.3099995       1.64542229E-08
   26.3700008       1.46065577E-08
   26.4300003       1.27984334E-08
   26.4899998       1.10331220E-08
   26.5499992       9.31716393E-09
   26.6100006       7.66207719E-09
   26.6700001       6.08250339E-09
   26.7299995       4.59206495E-09
   26.7900009       3.19946625E-09
   26.8500004       1.90722060E-09
   26.9099998       7.14095449E-10
   26.9699993      -3.79546672E-10
   27.0300007      -1.36596956E-09
   27.0900002      -2.22694951E-09
   27.1499996      -2.93574254E-09
   27.2099991      -3.46466567E-09
   27.2700005      -3.79632237E-09
   27.3299999      -3.93439947E-09
   27.3899994      -3.90913568E-09
   27.4500008      -3.77374842E-09
   27.5100002      -3.59111518E-09
   27.5699997      -3.41398154E-09
   27.6299992      -3.26530514E-09
   27.6900005      -3.12643844E-09
   27.7500000      -2.93888269E-09
   27.8099995      -2.62068922E-09
   27.8700008      -2.09290318E-09
   27.9300003      -1.30709188E-09
   27.9899998      -2.63932348E-10
   28.0499992       9.84286985E-10
   28.1100006       2.34855846E-09
   28.1700001       3.73028408E-09
   28.2299995       5.05094100E-09
   28.2900009       6.27381480E-09
   28.3500004       7.41047845E-09
   28.4099998       8.51047943E-09
   28.4699993       9.63874047E-09
   28.5300007       1.08492522E-08
   28.5900002       1.21643788E-08
   28.6499996       1.35664253E-08
   28.7099991       1.50032822E-08
   28.7700005       1.64047869E-08
   28.8299999       1.77027388E-08
   28.8899994       1.88467464E-08
   28.9500008       1.98102033E-08
   29.0100002       2.05849791E-08
   29.0699997       2.11682050E-08
   29.1299992       2.15478533E-08
   29.1900005       2.16943050E-08
   29.2500000       2.15625970E-08
   29.3099995       2.11053326E-08
   29.3700008       2.02915693E-08
   29.4300003       1.91238829E-08
   29.4899998       1.76462081E-08
   29.5499992       1.59382481E-08
   29.6100006       1.40973890E-08
   29.6700001       1.22138832E-08
   29.7299995       1.03477475E-08
   29.7900009       8.51535287E-09
   29.8500004       6.69033406E-09
   29.9099998       4.81856421E-09
   29.9699993       2.84221269E-09
   30.0300007       7.25030702E-10
   30.0900002      -1.52919288E-09
   30.1499996      -3.87061183E-09
   30.2099991      -6.21116714E-09
   30.2700005      -8.44329495E-09
   30.3299999      -1.04633031E-08
   30.3899994      -1.21922854E-08
   30.4500008      -1.35889939E-08
   30.5100002      -1.46523060E-08
   30.5699997      -1.54145052E-08
   30.6299992      -1.59291762E-08
   30.6900005      -1.62581948E-08
   30.7500000      -1.64611453E-08
   30.8099995      -1.65884675E-08
   30.8700008      -1.66777703E-08
   30.9300003      -1.67519474E-08
   30.9899998      -1.68182144E-08
   31.0499992      -1.68681247E-08
   31.1100006      -1.68794241E-08
   31.1700001      -1.68204739E-08
   31.2299995      -1.66569887E-08
   31.2900009      -1.63595288E-08
   31.3500004      -1.59095599E-08
   31.4099998      -1.53020938E-08
   31.4699993      -1.45442298E-08
   31.5300007      -1.36504461E-08
   31.5900002      -1.26366650E-08
   31.6499996      -1.15153895E-08
   31.7099991      -1.02935074E-08
   31.7700005      -8.97321861E-09
   31.8299999      -7.55538299E-09
   31.8899994      -6.04386541E-09
   31.9500008      -4.44925385E-09
   32.0099983      -2.79058709E-09
   32.0699997      -1.09430665E-09
   32.1300011       6.09471473E-10
   32.1899986       2.29230390E-09
   32.2500000       3.93242860E-09
   32.3100014       5.51715829E-09
   32.3699989       7.04097625E-09
   32.4300003       8.49930260E-09
   32.4900017       9.88004878E-09
   32.5499992       1.11567937E-08
   32.6100006       1.22876314E-08
   32.6699982       1.32219533E-08
   32.7299995       1.39141525E-08
   32.7900009       1.43398111E-08
   32.8499985       1.45080934E-08
   32.9099998       1.44648507E-08
   32.9700012       1.42842804E-08
   33.0299988       1.40515493E-08
   33.0900002       1.38423912E-08
   33.1500015       1.37068987E-08
   33.2099991       1.36628042E-08
   33.2700005       1.36995908E-08
   33.3300018       1.37904914E-08
   33.3899994       1.39066856E-08
   33.4500008       1.40279051E-08
   33.5099983       1.41458800E-08
   33.5699997       1.42603929E-08
   33.6300011       1.43707028E-08
   33.6899986       1.44665293E-08
   33.7500000       1.45224730E-08
   33.8100014       1.44981103E-08
   33.8699989       1.43440202E-08
   33.9300003       1.40122935E-08
   33.9900017       1.34689762E-08
   34.0499992       1.27053825E-08
   34.1100006       1.17450796E-08
   34.1699982       1.06437357E-08
   34.2299995       9.48021306E-09
   34.2900009       8.33956548E-09
   34.3499985       7.29144922E-09
   34.4099998       6.37009689E-09
   34.4700012       5.56289415E-09
   34.5299988       4.81278661E-09
   34.5900002       4.03542888E-09
   34.6500015       3.14646953E-09
   34.7099991       2.09013007E-09
   34.7700005       8.59152138E-10
   34.8300018      -5.00908981E-10
   34.8899994      -1.90435268E-09
   34.9500008      -3.25013083E-09
   35.0099983      -4.44993464E-09
   35.0699997      -5.45030510E-09
   35.1300011      -6.24246788E-09
   35.1899986      -6.85834323E-09
   35.2500000      -7.35574890E-09
   35.3100014      -7.79865150E-09
   35.3699989      -8.23891622E-09
   35.4300003      -8.70472405E-09
   35.4900017      -9.19836651E-09
   35.5499992      -9.70321068E-09
   35.6100006      -1.01968265E-08
   35.6699982      -1.06652491E-08
   35.7299995      -1.11127125E-08
   35.7900009      -1.15624728E-08
   35.8499985      -1.20475301E-08
   35.9099998      -1.25941133E-08
   35.9700012      -1.32041800E-08
   36.0299988      -1.38444225E-08
   36.0900002      -1.44474104E-08
   36.1500015      -1.49262238E-08
   36.2099991      -1.51987400E-08
   36.2700005      -1.52137538E-08
   36.3300018      -1.49699808E-08
   36.3899994      -1.45209968E-08
   36.4500008      -1.39638097E-08
   36.5099983      -1.34141098E-08
   36.5699997      -1.29756454E-08
   36.6300011      -1.27130813E-08
   36.6899986      -1.26364919E-08
   36.7500000      -1.27018147E-08
   36.8100014      -1.28264368E-08
   36.8699989      -1.29143878E-08
   36.9300003      -1.28829729E-08
   36.9900017      -1.26828903E-08
   37.0499992      -1.23067467E-08
   37.1100006      -1.17849703E-08
   37.1699982      -1.11720011E-08
   37.2299995      -1.05279518E-08
   37.2900009      -9.90126203E-09
   37.3499985      -9.31668431E-09
   37.4099998      -8.77090134E-09
   37.4700012      -8.23600743E-09
   37.5299988      -7.66921637E-09
   37.5900002      -7.02569736E-09
   37.6500015      -6.27056806E-09
   37.7099991      -5.38636291E-09
   37.7700005      -4.37388259E-09
   37.8300018      -3.24714100E-09
   37.8899994      -2.02599115E-09
   37.9500008      -7.31437633E-10
   38.0099983       6.12607409E-10
   38.0699997       1.97107553E-09
   38.1300011       3.28746141E-09
   38.1899986       4.47876358E-09
   38.2500000       5.44196599E-09
   38.3100014       6.07355544E-09
   38.3699989       6.29692565E-09
   38.4300003       6.08738082E-09
   38.4900017       5.48371704E-09
   38.5499992       4.57986937E-09
   38.6100006       3.49802542E-09
   38.6699982       2.35240072E-09
   38.7299995       1.21688348E-09
   38.7900009       1.08214861E-10
   38.8499985      -1.00994413E-09
   38.9099998      -2.20488561E-09
   38.9700012      -3.54396423E-09
   39.0299988      -5.06652720E-09
   39.0900002      -6.76789247E-09
   39.1500015      -8.59915783E-09
   39.2099991      -1.04806777E-08
   39.2700005      -1.23229880E-08
   39.3300018      -1.40478607E-08
   39.3899994      -1.56037192E-08
   39.4500008      -1.69725531E-08
   39.5099983      -1.81682509E-08
   39.5699997      -1.92281604E-08
   39.6300011      -2.02004973E-08
   39.6899986      -2.11306102E-08
   39.7500000      -2.20492460E-08
   39.8100014      -2.29658532E-08
   39.8699989      -2.38692319E-08
   39.9300003      -2.47358383E-08
   39.9900017      -2.55431853E-08
   40.0499992      -2.62832547E-08
   40.1100006      -2.69698806E-08
   40.1699982      -2.76359682E-08
   40.2299995      -2.83207200E-08
   40.2900009      -2.90518738E-08
   40.3499985      -2.98308898E-08
   40.4099998      -3.06281898E-08
   40.4700012      -3.13909752E-08
   40.5299988      -3.20603277E-08
   40.5900002      -3.25896465E-08
   40.6500015      -3.29564287E-08
   40.7099991      -3.31629835E-08
   40.7700005      -3.32276393E-08
   40.8300018      -3.31725936E-08
   40.8899994      -3.30152297E-08
   40.9500008      -3.27669198E-08
   41.0099983      -3.24380913E-08
   41.0699997      -3.20447313E-08
   41.1300011      -3.16111475E-08
   41.1899986      -3.11666710E-08
   41.2500000      -3.07383274E-08
   41.3100014      -3.03440970E-08
   41.3699989      -2.99911953E-08
   41.4300003      -2.96803471E-08
   41.4900017      -2.94133304E-08
   41.5499992      -2.91988140E-08
   41.6100006      -2.90525861E-08
   41.6699982      -2.89915221E-08
   41.7299995      -2.90245303E-08
   41.7900009      -2.91456068E-08
   41.8499985      -2.93331706E-08
   41.9099998      -2.95564053E-08
   41.9700012      -2.97856193E-08
   42.0299988      -3.00013170E-08
   42.0900002      -3.01974445E-08
   42.1500015      -3.03773611E-08
   42.2099991      -3.05449959E-08
   42.2700005      -3.06965333E-08
   42.3300018      -3.08178087E-08
   42.3899994      -3.08898258E-08
   42.4500008      -3.09004342E-08
   42.5099983      -3.08564587E-08
   42.5699997      -3.07895824E-08
   42.6300011      -3.07515151E-08
   42.6899986      -3.07988621E-08
   42.7500000      -3.09729806E-08
   42.8100014      -3.12828092E-08
   42.8699989      -3.16977378E-08
   42.9300003      -3.21534586E-08
   42.9900017      -3.25685470E-08
   43.0499992      -3.28656498E-08
   43.1100006      -3.29903429E-08
   43.1699982      -3.29227063E-08
   43.2299995      -3.26801448E-08
   43.2900009      -3.23126699E-08
   43.3499985      -3.18930020E-08
   43.4099998      -3.15034718E-08
   43.4700012      -3.12211412E-08
   43.5299988      -3.11028820E-08
   43.5900002      -3.11731263E-08
   43.6500015      -3.14180433E-08
   43.7099991      -3.17890176E-08
   43.7700005      -3.22157163E-08
   43.8300018      -3.26251666E-08
   43.8899994      -3.29604468E-08
   43.9500008      -3.31925420E-08
   44.0099983      -3.33218040E-08
   44.0699997      -3.33700889E-08
   44.1300011      -3.33684760E-08
   44.1899986      -3.33465096E-08
   44.2500000      -3.33268275E-08
   44.3100014      -3.33253425E-08
   44.3699989      -3.33537429E-08
   44.4300003      -3.34206760E-08
   44.4900017      -3.35295738E-08
   44.5499992      -3.36744108E-08
   44.6100006      -3.38370754E-08
   44.6699982      -3.39897817E-08
   44.7299995      -3.41034401E-08
   44.7900009      -3.41592603E-08
   44.8499985      -3.41582798E-08
   44.9099998      -3.41237758E-08
   44.9700012      -3.40943735E-08
   45.0299988      -3.41102080E-08
   45.0900002      -3.41980062E-08
   45.1500015      -3.43616620E-08
   45.2099991      -3.45826052E-08
   45.2700005      -3.48295188E-08
   45.3300018      -3.50725990E-08
   45.3899994      -3.52955460E-08
   45.4500008      -3.54995180E-08
   45.5099983      -3.56975320E-08
   45.5699997      -3.59022287E-08
   45.6300011      -3.61130041E-08
   45.6899986      -3.63087054E-08
   45.7500000      -3.64493040E-08
   45.8100014      -3.64861563E-08
   45.8699989      -3.63770631E-08
   45.9300003      -3.61010031E-08
   45.9900017      -3.56678385E-08
   46.0499992      -3.51202232E-08
   46.1100006      -3.45268560E-08
   46.1699982      -3.39679467E-08
   46.2299995      -3.35154802E-08
   46.2900009      -3.32126469E-08
   46.3499985      -3.30584058E-08
   46.4099998      -3.30034915E-08
   46.4700012      -3.29620491E-08
   46.5299988      -3.28379564E-08
   46.5900002      -3.25585496E-08
   46.6500015      -3.21035252E-08
   46.7099991      -3.15166524E-08
   46.7700005      -3.08935135E-08
   46.8300018      -3.03481897E-08
   46.8899994      -2.99712859E-08
   46.9500008      -2.97961833E-08
   47.0099983      -2.97871967E-08
   47.0699997      -2.98540179E-08
   47.1300011      -2.98854523E-08
   47.1899986      -2.97878007E-08
   47.2500000      -2.95126377E-08
   47.3100014      -2.90647098E-08
   47.3699989      -2.84901045E-08
   47.4300003      -2.78525025E-08
   47.4900017      -2.72082890E-08
   47.5499992      -2.65890527E-08
   47.6100006      -2.59946855E-08
   47.6699982      -2.53953534E-08
   47.7299995      -2.47381458E-08
   47.7900009      -2.39548417E-08
   47.8499985      -2.29692834E-08
   47.9099998      -2.17046274E-08
   47.9700012      -2.00908588E-08
   48.0299988      -1.80710966E-08
   48.0900002      -1.56034279E-08
   48.1500015      -1.26544597E-08
   48.2099991      -9.18305254E-09
   48.2700005      -5.11715115E-09
   48.3300018      -3.30995148E-10
   48.3899994       5.36864242E-09
   48.4500008       1.22419763E-08
   48.5099983       2.06035278E-08
   48.5699997       3.08066035E-08
   48.6300011       4.32370442E-08
   48.6899986       5.83240620E-08
   48.7500000       7.65666215E-08
   48.8100014       9.85647759E-08
   48.8699989       1.25043158E-07
   48.9300003       1.56859841E-07
   48.9900017       1.95004802E-07
   49.0499992       2.40601480E-07
   49.1100006       2.94924291E-07
   49.1699982       3.59437024E-07
   49.2299995       4.35845038E-07
   49.2900009       5.26147574E-07
   49.3499985       6.32680383E-07
   49.4099998       7.58148929E-07
   49.4700012       9.05662603E-07
   49.5299988       1.07877997E-06
   49.5900002       1.28157001E-06
   49.6500015       1.51868369E-06
   49.7099991       1.79542383E-06
   49.7700005       2.11780934E-06
   49.8300018       2.49263712E-06
   49.8899994       2.92755476E-06
   49.9500008       3.43115175E-06
   50.0099983       4.01307261E-06
   50.0699997       4.68414055E-06
   50.1300011       5.45647799E-06
   50.1899986       6.34361959E-06
   50.2500000       7.36061929E-06
   50.3100014       8.52416088E-06
   50.3699989       9.85268071E-06
   50.4300003       1.13665064E-05
   50.4900017       1.30879898E-05
   50.5499992       1.50416472E-05
   50.6100006       1.72542896E-05