  -2.400000      0.0000000E+00
  -2.340000      0.0000000E+00
  -2.280000      0.0000000E+00
  -2.220000      0.0000000E+00
  -2.160000      0.0000000E+00
  -2.100000      0.0000000E+00
  -2.040000      0.0000000E+00
  -1.980000      0.0000000E+00
  -1.920000      0.0000000E+00
  -1.860000      0.0000000E+00
  -1.800000      0.0000000E+00
  -1.740000      0.0000000E+00
  -1.680000      0.0000000E+00
  -1.620000     -5.0272335E-35
  -1.560000     -5.6981584E-34
  -1.500000     -1.8957142E-33
  -1.440000      7.5087310E-33
  -1.380000      1.0263435E-31
  -1.320000      4.8574069E-31
  -1.260000      1.1459827E-30
  -1.200000     -1.1926432E-31
  -1.140000     -1.2187543E-29
  -1.080000     -5.1716214E-29
  -1.020000     -1.1708070E-28
 -0.9600000     -9.7498037E-29
 -0.9000000      3.6660206E-28
 -0.8400000      1.8425620E-27
 -0.7800000      4.3265377E-27
 -0.7200000      5.2142030E-27
 -0.6600000     -3.0707358E-27
 -0.6000000     -3.1498298E-26
 -0.5400000     -8.1417422E-26
 -0.4800000     -1.1655536E-25
 -0.4200000     -3.6388708E-26
 -0.3600000      2.9866703E-25
 -0.3000000      9.2209478E-25
 -0.2400000      1.4885692E-24
 -0.1800000      1.0532502E-24
 -0.1200000     -1.6697085E-24
 -5.9999999E-02 -7.1032815E-24
  0.0000000E+00 -1.2759544E-23
  5.9999999E-02 -1.1773172E-23
  0.1200000      5.1468378E-24
  0.1800000      4.1760943E-23
  0.2400000      8.3658282E-23
  0.3000000      8.9820397E-23
  0.3600000      3.9966596E-24
  0.4200000     -2.0171111E-22
  0.4800000     -4.6004707E-22
  0.5400000     -5.6404645E-22
  0.6000000     -2.1828150E-22
  0.6600000      7.6036770E-22
  0.7200000      2.1357018E-21
  0.7800000      3.0340664E-21
  0.8400000      2.1164628E-21
  0.9000000     -1.6455694E-21
  0.9600000     -7.7497098E-21
   1.020000     -1.3209552E-20
   1.080000     -1.2944022E-20
   1.140000     -2.2736673E-21
   1.200000      1.8948583E-20
   1.260000      4.2801650E-20
   1.320000      5.3693725E-20
   1.380000      3.5068099E-20
   1.440000     -1.8821873E-20
   1.500000     -9.2229927E-20
   1.560000     -1.4736827E-19
   1.620000     -1.4017189E-19
   1.680000     -4.8887020E-20
   1.740000      1.0034437E-19
   1.800000      2.3286522E-19
   1.860000      2.6293735E-19
   1.920000      1.5735974E-19
   1.980000     -1.5540268E-20
   2.040000     -1.0269868E-19
   2.100000      2.8038121E-20
   2.160000      3.3539142E-19
   2.220000      5.1542430E-19
   2.280000      1.0074953E-19
   2.340000     -1.2096525E-18
   2.400000     -3.1181640E-18
   2.460000     -4.4914906E-18
   2.520000     -3.6477863E-18
   2.580000      7.1417973E-19
   2.640000      8.2506369E-18
   2.700000      1.6110679E-17
   2.760000      1.9332271E-17
   2.820000      1.2914592E-17
   2.880000     -4.9638583E-18
   2.940000     -3.0140963E-17
   3.000000     -5.2075619E-17
   3.060000     -5.7157294E-17
   3.120000     -3.5202603E-17
   3.180000      1.3534625E-17
   3.240000      7.4744464E-17
   3.300000      1.2297362E-16
   3.360000      1.3133925E-16
   3.420000      8.4527992E-17
   3.480000     -1.1071549E-17
   3.540000     -1.2592684E-16
   3.600000     -2.1677410E-16
   3.660000     -2.4365189E-16
   3.720000     -1.8705997E-16
   3.780000     -5.7173738E-17
   3.840000      1.0923909E-16
   3.900000      2.6245154E-16
   3.960000      3.5714975E-16
   4.020000      3.6559001E-16
   4.080000      2.8189542E-16
   4.140000      1.1841763E-16
   4.200000     -1.0060692E-16
   4.260000     -3.4247625E-16
   4.320000     -5.6451723E-16
   4.380000     -7.1098283E-16
   4.440000     -7.1541403E-16
   4.500000     -5.1523590E-16
   4.560000     -8.0456629E-17
   4.620000      5.5001290E-16
   4.680000      1.2401228E-15
   4.740000      1.7583820E-15
   4.800000      1.8291467E-15
   4.860000      1.2377417E-15
   4.920000     -3.5293914E-17
   4.980000     -1.7088953E-15
   5.040000     -3.2012920E-15
   5.100000     -3.7914067E-15
   5.160000     -2.9305042E-15
   5.220000     -5.9511645E-16
   5.280000      2.5055789E-15
   5.340000      5.0509667E-15
   5.400000      5.6204333E-15
   5.460000      3.4447955E-15
   5.520000     -9.5587425E-16
   5.580000     -5.6634258E-15
   5.640000     -8.0258981E-15
   5.700000     -5.9595646E-15
   5.760000      6.6916985E-16
   5.820000      9.3610964E-15
   5.880000      1.5604917E-14
   5.940000      1.4825016E-14
   6.000000      4.9261543E-15
   6.060000     -1.1826494E-14
   6.120000     -2.8800005E-14
   6.180000     -3.7321766E-14
   6.240000     -3.0636230E-14
   6.300000     -7.7561630E-15
   6.360000      2.4813639E-14
   6.420000      5.4754791E-14
   6.480000      6.8735524E-14
   6.540000      5.8400442E-14
   6.600000      2.4742546E-14
   6.660000     -2.1470628E-14
   6.720000     -6.3793046E-14
   6.780000     -8.7051107E-14
   6.840000     -8.3890699E-14
   6.900000     -5.7642381E-14
   6.960000     -1.9949720E-14
   7.020000      1.5692364E-14
   7.080000      4.1038014E-14
   7.140000      5.6783395E-14
   7.200000      7.0433819E-14
   7.260000      8.9128730E-14
   7.320000      1.1138526E-13
   7.380000      1.2308003E-13
   7.440000      1.0148691E-13
   7.500000      2.7195441E-14
   7.560000     -1.0097342E-13
   7.620000     -2.5590798E-13
   7.680000     -3.8416370E-13
   7.740000     -4.2241292E-13
   7.800000     -3.2389442E-13
   7.860000     -8.4294523E-14
   7.920000      2.4542857E-13
   7.980000      5.6785577E-13
   8.040000      7.6940304E-13
   8.100000      7.6200558E-13
   8.160000      5.1964937E-13
   8.220000      9.3839534E-14
   8.280000     -3.9978987E-13
   8.340000     -8.1925742E-13
   8.400000     -1.0432748E-12
   8.460000     -1.0086669E-12
   8.520000     -7.2448915E-13
   8.580000     -2.6065155E-13
   8.640000      2.7947103E-13
   8.700000      7.8741061E-13
   8.760000      1.1673595E-12
   8.820000      1.3416188E-12
   8.880000      1.2518921E-12
   8.940000      8.6755998E-13
   9.000000      2.0558121E-13
   9.060000     -6.4567004E-13
   9.120000     -1.5163528E-12
   9.180000     -2.1764689E-12
   9.240000     -2.3934520E-12
   9.300000     -2.0112599E-12
   9.360000     -1.0202943E-12
   9.420000      4.1445669E-13
   9.480000      1.9845104E-12
   9.540000      3.3199615E-12
   9.600000      4.0911996E-12
   9.660000      4.0909867E-12
   9.720000      3.2692998E-12
   9.780000      1.7181551E-12
   9.840000     -3.7260521E-13
   9.900000     -2.7582168E-12
   9.960000     -5.1600317E-12
   10.02000     -7.2659496E-12
   10.08000     -8.7306924E-12
   10.14000     -9.1998249E-12
   10.20000     -8.3661958E-12
   10.26000     -6.0432783E-12
   10.32000     -2.2232541E-12
   10.38000      2.9084109E-12
   10.44000      9.0058915E-12
   10.50000      1.5617077E-11
   10.56000      2.2216826E-11
   10.62000      2.8190207E-11
   10.68000      3.2773843E-11
   10.74000      3.5004385E-11
   10.80000      3.3739969E-11
   10.86000      2.7796352E-11
   10.92000      1.6182514E-11
   10.98000     -1.6420909E-12
   11.04000     -2.5596313E-11
   11.10000     -5.4976797E-11
   11.16000     -8.8643183E-11
   11.22000     -1.2532261E-10
   11.28000     -1.6391717E-10
   11.34000     -2.0370429E-10
   11.40000     -2.4437730E-10
   11.46000     -2.8594618E-10
   11.52000     -3.2856587E-10
   11.58000     -3.7236023E-10
   11.64000     -4.1727560E-10
   11.70000     -4.6296225E-10
   11.76000     -5.0867671E-10
   11.82000     -5.5322635E-10
   11.88000     -5.9501187E-10
   11.94000     -6.3222383E-10
   12.00000     -6.6319733E-10
   12.06000     -6.8684131E-10
   12.12000     -7.0299433E-10
   12.18000     -7.1256229E-10
   12.24000     -7.1737849E-10
   12.30000     -7.1985312E-10
   12.36000     -7.2256040E-10
   12.42000     -7.2790901E-10
   12.48000     -7.3793988E-10
   12.54000     -7.5417683E-10
   12.60000     -7.7740148E-10
   12.66000     -8.0728479E-10
   12.72000     -8.4195473E-10
   12.78000     -8.7770630E-10
   12.84000     -9.0907903E-10
   12.90000     -9.2939362E-10
   12.96000     -9.3162911E-10
   13.02000     -9.0937141E-10
   13.08000     -8.5757007E-10
   13.14000     -7.7301493E-10
   13.20000     -6.5466627E-10
   13.26000     -5.0408205E-10
   13.32000     -3.2608358E-10
   13.38000     -1.2952572E-10
   13.44000      7.2239603E-11
   13.50000      2.6170563E-10
   13.56000      4.1864986E-10
   13.62000      5.2254995E-10
   13.68000      5.5543975E-10
   13.74000      5.0448301E-10
   13.80000      3.6367662E-10
   13.86000      1.3446085E-10
   13.92000     -1.7460099E-10
   13.98000     -5.4871646E-10
   14.04000     -9.6803510E-10
   14.10000     -1.4090140E-09
   14.16000     -1.8460747E-09
   14.22000     -2.2536413E-09
   14.28000     -2.6084548E-09
   14.34000     -2.8918172E-09
   14.40000     -3.0912848E-09
   14.46000     -3.2014316E-09
   14.52000     -3.2235787E-09
   14.58000     -3.1646918E-09
   14.64000     -3.0358451E-09
   14.70000     -2.8506548E-09
   14.76000     -2.6239593E-09
   14.82000     -2.3708537E-09
   14.88000     -2.1060778E-09
   14.94000     -1.8436852E-09
   15.00000     -1.5968814E-09
   15.06000     -1.3778638E-09
   15.12000     -1.1974611E-09
   15.18000     -1.0644188E-09
   15.24000     -9.8436903E-10
   15.30000     -9.5878749E-10
   15.36000     -9.8445874E-10
   15.42000     -1.0539838E-09
   15.48000     -1.1575727E-09
   15.54000     -1.2858862E-09
   15.60000     -1.4332044E-09
   15.66000     -1.5999513E-09
   15.72000     -1.7937190E-09
   15.78000     -2.0283584E-09
   15.84000     -2.3212687E-09
   15.90000     -2.6894851E-09
   15.96000     -3.1454206E-09
   16.02000     -3.6931205E-09
   16.08000     -4.3257167E-09
   16.14000     -5.0245248E-09
   16.20000     -5.7599276E-09
   16.26000     -6.4939041E-09
   16.32000     -7.1837749E-09
   16.38000     -7.7865296E-09
   16.44000     -8.2630445E-09
   16.50000     -8.5816545E-09
   16.56000     -8.7208347E-09
   16.62000     -8.6710781E-09
   16.68000     -8.4362348E-09
   16.74000     -8.0345197E-09
   16.80000     -7.4991275E-09
   16.86000     -6.8780572E-09
   16.92000     -6.2326042E-09
   16.98000     -5.6340062E-09
   17.04000     -5.1581299E-09
   17.10000     -4.8785638E-09
   17.16000     -4.8589577E-09
   17.22000     -5.1456950E-09
   17.28000     -5.7620184E-09
   17.34000     -6.7044708E-09
   17.40000     -7.9421092E-09
   17.46000     -9.4185273E-09
   17.52000     -1.1056313E-08
   17.58000     -1.2763374E-08
   17.64000     -1.4440450E-08
   17.70000     -1.5989217E-08
   17.76000     -1.7320472E-08
   17.82000     -1.8361824E-08
   17.88000     -1.9064267E-08
   17.94000     -1.9406796E-08
   18.00000     -1.9398120E-08
   18.06000     -1.9074816E-08
   18.12000     -1.8495768E-08
   18.18000     -1.7733569E-08
   18.24000     -1.6864274E-08
   18.30000     -1.5957333E-08
   18.36000     -1.5067403E-08
   18.42000     -1.4229054E-08
   18.48000     -1.3454716E-08
   18.54000     -1.2735375E-08
   18.60000     -1.2043323E-08
   18.66000     -1.1336282E-08
   18.72000     -1.0562681E-08
   18.78000     -9.6680868E-09
   18.84000     -8.6028740E-09
   18.90000     -7.3308382E-09
   18.96000     -5.8377041E-09
   19.02000     -4.1377914E-09
   19.08000     -2.2766427E-09
   19.14000     -3.2769051E-10
   19.20000      1.6178408E-09
   19.26000      3.4667580E-09
   19.32000      5.1423141E-09
   19.38000      6.6005268E-09
   19.44000      7.8394518E-09
   19.50000      8.8979153E-09
   19.56000      9.8431627E-09
   19.62000      1.0750433E-08
   19.68000      1.1680291E-08
   19.74000      1.2660558E-08
   19.80000      1.3678243E-08
   19.86000      1.4683631E-08
   19.92000      1.5604655E-08
   19.98000      1.6366561E-08
   20.04000      1.6910585E-08
   20.10000      1.7206386E-08
   20.16000      1.7255468E-08
   20.22000      1.7086014E-08
   20.28000      1.6741968E-08
   20.34000      1.6270405E-08
   20.40000      1.5711151E-08
   20.46000      1.5091260E-08
   20.52000      1.4425479E-08
   20.58000      1.3721851E-08
   20.64000      1.2990274E-08
   20.70000      1.2250907E-08
   20.76000      1.1539180E-08
   20.82000      1.0905096E-08
   20.88000      1.0406222E-08
   20.94000      1.0095930E-08
   21.00000      1.0010338E-08
   21.06000      1.0158139E-08
   21.12000      1.0516873E-08
   21.18000      1.1037149E-08
   21.24000      1.1653755E-08
   21.30000      1.2300364E-08
   21.36000      1.2923604E-08
   21.42000      1.3492665E-08
   21.48000      1.4002280E-08
   21.54000      1.4468955E-08
   21.60000      1.4922085E-08
   21.66000      1.5392690E-08
   21.72000      1.5902623E-08
   21.78000      1.6456781E-08
   21.84000      1.7039856E-08
   21.90000      1.7618211E-08
   21.96000      1.8146245E-08
   22.02000      1.8575589E-08
   22.08000      1.8864769E-08
   22.14000      1.8986707E-08
   22.20000      1.8931999E-08
   22.26000      1.8707007E-08
   22.32000      1.8327356E-08
   22.38000      1.7808865E-08
   22.44000      1.7158904E-08
   22.50000      1.6371223E-08
   22.56000      1.5426448E-08
   22.62000      1.4298666E-08
   22.68000      1.2966404E-08
   22.74000      1.1424495E-08
   22.80000      9.6925099E-09
   22.86000      7.8160740E-09
   22.92000      5.8595546E-09
   22.98000      3.8915879E-09
   23.04000      1.9677020E-09
   23.10000      1.1568961E-10
   23.16000     -1.6712144E-09
   23.22000     -3.4307461E-09
   23.28000     -5.2184617E-09
   23.34000     -7.0889636E-09
   23.40000     -9.0771568E-09
   23.46000     -1.1184992E-08
   23.52000     -1.3377333E-08
   23.58000     -1.5587792E-08
   23.64000     -1.7732672E-08
   23.70000     -1.9728951E-08
   23.76000     -2.1511369E-08
   23.82000     -2.3044061E-08
   23.88000     -2.4323791E-08
   23.94000     -2.5374495E-08
   24.00000     -2.6235584E-08
   24.06000     -2.6948459E-08
   24.12000     -2.7546230E-08
   24.18000     -2.8050160E-08
   24.24000     -2.8473506E-08
   24.30000     -2.8830234E-08
   24.36000     -2.9143925E-08
   24.42000     -2.9452167E-08
   24.48000     -2.9803605E-08
   24.54000     -3.0248092E-08
   24.60000     -3.0823344E-08
   24.66000     -3.1543184E-08
   24.72000     -3.2391938E-08
   24.78000     -3.3327456E-08
   24.84000     -3.4291961E-08
   24.90000     -3.5227281E-08
   24.96000     -3.6089382E-08
   25.02000     -3.6857426E-08
   25.08000     -3.7534381E-08
   25.14000     -3.8139227E-08
   25.20000     -3.8693592E-08
   25.26000     -3.9207727E-08
   25.32000     -3.9670741E-08
   25.38000     -4.0048658E-08
   25.44000     -4.0290917E-08
   25.50000     -4.0343068E-08
   25.56000     -4.0161442E-08
   25.62000     -3.9725105E-08
   25.68000     -3.9041730E-08
   25.74000     -3.8146055E-08
   25.80000     -3.7092072E-08
   25.86000     -3.5941600E-08
   25.92000     -3.4752741E-08
   25.98000     -3.3571197E-08
   26.04000     -3.2426350E-08
   26.10000     -3.1332540E-08
   26.16000     -3.0294181E-08
   26.22000     -2.9312485E-08
   26.28000     -2.8390991E-08
   26.34000     -2.7537922E-08
   26.40000     -2.6764750E-08
   26.46000     -2.6082194E-08
   26.52000     -2.5495950E-08
   26.58000     -2.5004615E-08
   26.64000     -2.4600967E-08
   26.70000     -2.4276037E-08
   26.76000     -2.4023887E-08
   26.82000     -2.3844537E-08
   26.88000     -2.3743459E-08
   26.94000     -2.3727658E-08
   27.00000     -2.3800022E-08
   27.06000     -2.3954295E-08
   27.12000     -2.4172655E-08
   27.18000     -2.4426662E-08
   27.24000     -2.4680995E-08
   27.30000     -2.4898569E-08
   27.36000     -2.5045575E-08
   27.42000     -2.5095330E-08
   27.48000     -2.5030584E-08
   27.54000     -2.4844400E-08
   27.60000     -2.4540025E-08
   27.66000     -2.4130193E-08
   27.72000     -2.3636318E-08
   27.78000     -2.3087820E-08
   27.84000     -2.2521572E-08
   27.90000     -2.1981226E-08
   27.96000     -2.1515785E-08
   28.02000     -2.1176758E-08
   28.08000     -2.1013436E-08
   28.14000     -2.1066425E-08
   28.20000     -2.1360421E-08
   28.26000     -2.1898039E-08
   28.32000     -2.2656758E-08
   28.38000     -2.3590870E-08
   28.44000     -2.4639162E-08
   28.50000     -2.5737517E-08
   28.56000     -2.6833769E-08
   28.62000     -2.7900921E-08
   28.68000     -2.8944514E-08
   28.74000     -3.0001200E-08
   28.80000     -3.1127740E-08
   28.86000     -3.2382832E-08
   28.92000     -3.3806437E-08
   28.98000     -3.5402611E-08
   29.04000     -3.7131230E-08
   29.10000     -3.8911658E-08
   29.16000     -4.0638035E-08
   29.22000     -4.2202675E-08
   29.28000     -4.3521517E-08
   29.34000     -4.4554906E-08
   29.40000     -4.5317638E-08
   29.46000     -4.5874994E-08
   29.52000     -4.6324821E-08
   29.58000     -4.6769799E-08
   29.64000     -4.7287298E-08
   29.70000     -4.7905665E-08
   29.76000     -4.8594689E-08
   29.82000     -4.9274163E-08
   29.88000     -4.9838910E-08
   29.94000     -5.0192664E-08
   30.00000     -5.0279915E-08
   30.06000     -5.0104696E-08
   30.12000     -4.9729547E-08
   30.18000     -4.9254709E-08
   30.24000     -4.8784674E-08
   30.30000     -4.8393730E-08
   30.36000     -4.8102343E-08
   30.42000     -4.7872359E-08
   30.48000     -4.7622141E-08
   30.54000     -4.7255963E-08
   30.60000     -4.6697508E-08
   30.66000     -4.5916408E-08
   30.72000     -4.4939657E-08
   30.78000     -4.3844967E-08
   30.84000     -4.2738911E-08
   30.90000     -4.1727247E-08
   30.96000     -4.0886899E-08
   31.02000     -4.0248100E-08
   31.08000     -3.9791846E-08
   31.14000     -3.9463000E-08
   31.20000     -3.9194223E-08
   31.26000     -3.8932814E-08
   31.32000     -3.8661479E-08
   31.38000     -3.8406142E-08
   31.44000     -3.8228187E-08
   31.50000     -3.8203659E-08
   31.56000     -3.8396259E-08
   31.62000     -3.8833090E-08
   31.68000     -3.9491521E-08
   31.74000     -4.0302005E-08
   31.80000     -4.1166714E-08
   31.86000     -4.1988635E-08
   31.92000     -4.2702034E-08
   31.98000     -4.3294172E-08
   32.04000     -4.3810502E-08
   32.10000     -4.4340613E-08
   32.16000     -4.4988720E-08
   32.22000     -4.5837705E-08
   32.28000     -4.6918494E-08
   32.34000     -4.8194977E-08
   32.40000     -4.9569707E-08
   32.46000     -5.0908767E-08
   32.52000     -5.2078239E-08
   32.58000     -5.2980941E-08
   32.64000     -5.3582692E-08
   32.70000     -5.3920765E-08
   32.76000     -5.4092617E-08
   32.82000     -5.4228838E-08
   32.88000     -5.4458354E-08
   32.94000     -5.4875912E-08
   33.00000     -5.5520772E-08
   33.06000     -5.6372123E-08
   33.12000     -5.7361671E-08
   33.18000     -5.8398534E-08
   33.24000     -5.9398193E-08
   33.30000     -6.0306355E-08
   33.36000     -6.1110789E-08
   33.42000     -6.1838875E-08
   33.48000     -6.2543059E-08
   33.54000     -6.3280325E-08
   33.60000     -6.4092326E-08
   33.66000     -6.4991958E-08
   33.72000     -6.5959277E-08
   33.78000     -6.6946619E-08
   33.84000     -6.7890781E-08
   33.90000     -6.8728411E-08
   33.96000     -6.9410440E-08
   34.02000     -6.9911742E-08
   34.08000     -7.0233099E-08
   34.14000     -7.0395217E-08
   34.20000     -7.0426459E-08
   34.26000     -7.0348733E-08
   34.32000     -7.0166308E-08
   34.38000     -6.9861947E-08
   34.44000     -6.9401672E-08
   34.50000     -6.8746871E-08
   34.56000     -6.7869600E-08
   34.62000     -6.6766269E-08
   34.68000     -6.5465137E-08
   34.74000     -6.4025059E-08
   34.80000     -6.2524897E-08
   34.86000     -6.1045597E-08
   34.92000     -5.9648791E-08
   34.98000     -5.8357617E-08
   35.04000     -5.7145893E-08
   35.10000     -5.5940383E-08
   35.16000     -5.4637709E-08
   35.22000     -5.3132688E-08
   35.28000     -5.1350394E-08
   35.34000     -4.9271993E-08
   35.40000     -4.6945352E-08
   35.46000     -4.4476202E-08
   35.52000     -4.2001794E-08
   35.58000     -3.9655120E-08
   35.64000     -3.7530718E-08
   35.70000     -3.5662513E-08
   35.76000     -3.4020140E-08
   35.82000     -3.2524227E-08
   35.88000     -3.1075430E-08
   35.94000     -2.9588163E-08
   36.00000     -2.8018858E-08
   36.06000     -2.6380654E-08
   36.12000     -2.4740588E-08
   36.18000     -2.3200704E-08
   36.24000     -2.1869296E-08
   36.30000     -2.0831251E-08
   36.36000     -2.0126452E-08
   36.42000     -1.9742179E-08
   36.48000     -1.9620829E-08
   36.54000     -1.9679376E-08
   36.60000     -1.9833845E-08
   36.66000     -2.0021259E-08
   36.72000     -2.0213252E-08
   36.78000     -2.0418597E-08
   36.84000     -2.0675213E-08
   36.90000     -2.1034619E-08
   36.96000     -2.1543126E-08
   37.02000     -2.2224434E-08
   37.08000     -2.3067894E-08
   37.14000     -2.4025754E-08
   37.20000     -2.5020846E-08
   37.26000     -2.5963626E-08
   37.32000     -2.6774494E-08
   37.38000     -2.7404944E-08
   37.44000     -2.7850799E-08
   37.50000     -2.8152634E-08
   37.56000     -2.8382782E-08
   37.62000     -2.8622907E-08
   37.68000     -2.8939468E-08
   37.74000     -2.9364932E-08
   37.80000     -2.9890096E-08
   37.86000     -3.0468748E-08
   37.92000     -3.1031814E-08
   37.98000     -3.1505749E-08
   38.04000     -3.1829643E-08
   38.10000     -3.1967080E-08
   38.16000     -3.1910794E-08
   38.22000     -3.1680102E-08
   38.28000     -3.1312585E-08
   38.34000     -3.0852352E-08
   38.40000     -3.0338061E-08
   38.46000     -2.9793874E-08
   38.52000     -2.9225783E-08
   38.58000     -2.8624116E-08
   38.64000     -2.7970826E-08
   38.70000     -2.7248678E-08
   38.76000     -2.6449136E-08
   38.82000     -2.5576902E-08
   38.88000     -2.4650660E-08
   38.94000     -2.3700910E-08
   39.00000     -2.2765887E-08
   39.06000     -2.1885988E-08
   39.12000     -2.1096694E-08
   39.18000     -2.0420458E-08
   39.24000     -1.9859366E-08
   39.30000     -1.9391498E-08
   39.36000     -1.8973832E-08
   39.42000     -1.8552504E-08
   39.48000     -1.8078286E-08
   39.54000     -1.7522476E-08
   39.60000     -1.6887823E-08
   39.66000     -1.6210581E-08
   39.72000     -1.5552978E-08
   39.78000     -1.4988341E-08
   39.84000     -1.4583089E-08
   39.90000     -1.4380237E-08
   39.96000     -1.4388448E-08
   40.02000     -1.4579438E-08
   40.08000     -1.4894911E-08
   40.14000     -1.5261994E-08
   40.20000     -1.5613566E-08
   40.26000     -1.5907608E-08
   40.32000     -1.6139072E-08
   40.38000     -1.6339719E-08
   40.44000     -1.6565464E-08
   40.50000     -1.6875747E-08
   40.56000     -1.7312692E-08
   40.62000     -1.7887871E-08
   40.68000     -1.8581309E-08
   40.74000     -1.9352299E-08
   40.80000     -2.0157241E-08
   40.86000     -2.0967549E-08
   40.92000     -2.1781366E-08
   40.98000     -2.2625485E-08
   41.04000     -2.3547070E-08
   41.10000     -2.4597721E-08
   41.16000     -2.5814384E-08
   41.22000     -2.7202566E-08
   41.28000     -2.8727285E-08
   41.34000     -3.0315547E-08
   41.40000     -3.1871203E-08
   41.46000     -3.3299006E-08
   41.52000     -3.4531247E-08
   41.58000     -3.5548560E-08
   41.64000     -3.6387895E-08
   41.70000     -3.7134448E-08
   41.76000     -3.7899564E-08
   41.82000     -3.8790830E-08
   41.88000     -3.9882892E-08
   41.94000     -4.1196738E-08
   42.00000     -4.2692676E-08
   42.06000     -4.4278440E-08
   42.12000     -4.5830411E-08
   42.18000     -4.7223011E-08
   42.24000     -4.8359464E-08
   42.30000     -4.9196458E-08
   42.36000     -4.9756142E-08
   42.42000     -5.0121486E-08
   42.48000     -5.0415139E-08
   42.54000     -5.0766754E-08
   42.60000     -5.1277514E-08
   42.66000     -5.1992242E-08
   42.72000     -5.2887565E-08
   42.78000     -5.3879987E-08
   42.84000     -5.4851427E-08
   42.90000     -5.5684225E-08
   42.96000     -5.6294699E-08
   43.02000     -5.6655107E-08
   43.08000     -5.6797973E-08
   43.14000     -5.6802467E-08
   43.20000     -5.6768130E-08
   43.26000     -5.6784359E-08
   43.32000     -5.6904920E-08
   43.38000     -5.7134304E-08
   43.44000     -5.7429215E-08
   43.50000     -5.7714185E-08
   43.56000     -5.7906419E-08
   43.62000     -5.7942589E-08
   43.68000     -5.7799539E-08
   43.74000     -5.7502383E-08
   43.80000     -5.7117084E-08
   43.86000     -5.6729370E-08
   43.92000     -5.6416603E-08
   43.98000     -5.6221698E-08
   44.04000     -5.6137793E-08
   44.10000     -5.6108739E-08
   44.16000     -5.6045238E-08
   44.22000     -5.5851451E-08
   44.28000     -5.5453867E-08
   44.34000     -5.4823978E-08
   44.40000     -5.3988416E-08
   44.46000     -5.3023744E-08
   44.52000     -5.2036992E-08
   44.58000     -5.1136869E-08
   44.64000     -5.0403358E-08
   44.70000     -4.9864319E-08
   44.76000     -4.9486701E-08
   44.82000     -4.9185903E-08
   44.88000     -4.8851337E-08
   44.94000     -4.8380706E-08
   45.00000     -4.7712408E-08
   45.06000     -4.6845862E-08
   45.12000     -4.5843407E-08
   45.18000     -4.4813422E-08
   45.24000     -4.3879993E-08
   45.30000     -4.3148120E-08
   45.36000     -4.2674603E-08
   45.42000     -4.2453049E-08
   45.48000     -4.2417486E-08
   45.54000     -4.2463952E-08
   45.60000     -4.2483894E-08
   45.66000     -4.2398945E-08
   45.72000     -4.2185622E-08
   45.78000     -4.1881336E-08
   45.84000     -4.1569567E-08
   45.90000     -4.1349722E-08
   45.96000     -4.1302762E-08
   46.02000     -4.1464929E-08
   46.08000     -4.1818417E-08
   46.14000     -4.2301121E-08
   46.20000     -4.2830955E-08
   46.26000     -4.3335920E-08
   46.32000     -4.3780208E-08
   46.38000     -4.4178552E-08
   46.44000     -4.4595009E-08
   46.50000     -4.5126932E-08
   46.56000     -4.5879265E-08
   46.62000     -4.6937476E-08
   46.68000     -4.8348273E-08
   46.74000     -5.0114927E-08
   46.80000     -5.2209042E-08
   46.86000     -5.4594445E-08
   46.92000     -5.7254809E-08
   46.98000     -6.0215946E-08
   47.04000     -6.3556918E-08
   47.10000     -6.7409147E-08
   47.16000     -7.1946950E-08
   47.22000     -7.7374537E-08
   47.28000     -8.3913712E-08
   47.34000     -9.1795066E-08
   47.40000     -1.0125401E-07
   47.46000     -1.1253304E-07
   47.52000     -1.2589106E-07
   47.58000     -1.4161971E-07
   47.64000     -1.6006420E-07
   47.70000     -1.8164525E-07
   47.76000     -2.0687773E-07
   47.82000     -2.3638434E-07
   47.88000     -2.7090439E-07
   47.94000     -3.1129923E-07
   48.00000     -3.5855655E-07
   48.06000     -4.1379400E-07
   48.12000     -4.7826353E-07
   48.18000     -5.5335670E-07
   48.24000     -6.4061447E-07
   48.30000     -7.4174375E-07
   48.36000     -8.5864320E-07
   48.42000     -9.9343708E-07
   48.48000     -1.1485124E-06
   48.54000     -1.3265550E-06
   48.60000     -1.5305803E-06
   48.66000     -1.7639570E-06
   48.72000     -2.0304235E-06
   48.78000     -2.3341022E-06
   48.84000     -2.6795087E-06
   48.90000     -3.0715678E-06
   48.96000     -3.5156306E-06
   49.02000     -4.0175032E-06
   49.08000     -4.5834831E-06
   49.14000     -5.2204009E-06
   49.20000     -5.9356603E-06
   49.26000     -6.7372698E-06
   49.32000     -7.6338565E-06
   49.38000     -8.6346690E-06
   49.44000     -9.7495695E-06
   49.50000     -1.0989018E-05
   49.56000     -1.2364055E-05
   49.62000     -1.3886290E-05
   49.68000     -1.5567879E-05
   49.74000     -1.7421509E-05
   49.80000     -1.9460391E-05
   49.86000     -2.1698233E-05
   49.92000     -2.4149225E-05
   49.98000     -2.6827985E-05
   50.04000     -2.9749488E-05
   50.10000     -3.2928976E-05
   50.16000     -3.6381847E-05
   50.22000     -4.0123537E-05
   50.28000     -4.4169392E-05
   50.34000     -4.8534574E-05
   50.40000     -5.3233933E-05
   50.46000     -5.8281872E-05
   50.52000     -6.3692234E-05
   50.58000     -6.9478141E-05
   50.64000     -7.5651878E-05
   50.70000     -8.2224680E-05
   50.76000     -8.9206616E-05
   50.82000     -9.6606389E-05
   50.88000     -1.0443116E-04
   50.94000     -1.1268632E-04
   51.00000     -1.2137541E-04
   51.06000     -1.3049990E-04
   51.12000     -1.4005913E-04
   51.18000     -1.5005012E-04
   51.24000     -1.6046745E-04
   51.30000     -1.7130311E-04
   51.36000     -1.8254643E-04
   51.42000     -1.9418402E-04
   51.48000     -2.0619981E-04
   51.54000     -2.1857501E-04
   51.60000     -2.3128802E-04
   51.66000     -2.4431458E-04
   51.72000     -2.5762769E-04
   51.78000     -2.7119779E-04
   51.84000     -2.8499297E-04
   51.90000     -2.9897899E-04
   51.96000     -3.1311950E-04
   52.02000     -3.2737627E-04
   52.08000     -3.4170932E-04
   52.14000     -3.5607739E-04
   52.20000     -3.7043824E-04
   52.26000     -3.8474877E-04
   52.32000     -3.9896570E-04
   52.38000     -4.1304558E-04
   52.44000     -4.2694528E-04
   52.50000     -4.4062227E-04
   52.56000     -4.5403509E-04
   52.62000     -4.6714366E-04
   52.68000     -4.7990974E-04
   52.74000     -4.9229740E-04
   52.80000     -5.0427328E-04
   52.86000     -5.1580684E-04
   52.92000     -5.2687107E-04
   52.98000     -5.3744210E-04
   53.04000     -5.4750009E-04
   53.10000     -5.5702910E-04
   53.16000     -5.6601700E-04
   53.22000     -5.7445589E-04
   53.28000     -5.8234192E-04
   53.34000     -5.8967544E-04
   53.40000     -5.9646135E-04
   53.46000     -6.0270895E-04
   53.52000     -6.0843176E-04
   53.58000     -6.1364751E-04
   53.64000     -6.1837735E-04
   53.70000     -6.2264584E-04
   53.76000     -6.2648056E-04
   53.82000     -6.2991207E-04
   53.88000     -6.3297345E-04
   53.94000     -6.3570001E-04
   54.00000     -6.3812861E-04
   54.06000     -6.4029678E-04
   54.12000     -6.4224296E-04
   54.18000     -6.4400543E-04
   54.24000     -6.4562267E-04
   54.30000     -6.4713298E-04
   54.36000     -6.4857356E-04
   54.42000     -6.4998027E-04
   54.48000     -6.5138639E-04
   54.54000     -6.5282232E-04
   54.60000     -6.5431540E-04
   54.66000     -6.5588974E-04
   54.72000     -6.5756671E-04
   54.78000     -6.5936422E-04
   54.84000     -6.6129665E-04
   54.90000     -6.6337443E-04
   54.96000     -6.6560385E-04
   55.02000     -6.6798698E-04
   55.08000     -6.7052204E-04
   55.14000     -6.7320338E-04
   55.20000     -6.7602185E-04
   55.26000     -6.7896483E-04
   55.32000     -6.8201619E-04
   55.38000     -6.8515656E-04
   55.44000     -6.8836362E-04
   55.50000     -6.9161248E-04
   55.56000     -6.9487648E-04