  -2.400000      0.0000000E+00
  -2.340000      0.0000000E+00
  -2.280000      0.0000000E+00
  -2.220000      0.0000000E+00
  -2.160000      0.0000000E+00
  -2.100000      0.0000000E+00
  -2.040000      0.0000000E+00
  -1.980000      0.0000000E+00
  -1.920000      0.0000000E+00
  -1.860000      0.0000000E+00
  -1.800000      0.0000000E+00
  -1.740000      0.0000000E+00
  -1.680000      0.0000000E+00
  -1.620000      2.0740461E-35
  -1.560000      1.0151663E-34
  -1.500000     -2.0794758E-33
  -1.440000     -3.4825343E-32
  -1.380000     -2.7391141E-31
  -1.320000     -1.4155293E-30
  -1.260000     -5.1713841E-30
  -1.200000     -1.2852137E-29
  -1.140000     -1.4934622E-29
  -1.080000      4.0034474E-29
  -1.020000      2.9108585E-28
 -0.9600000      9.3349574E-28
 -0.9000000      1.8489991E-27
 -0.8400000      1.5591622E-27
 -0.7800000     -4.2535965E-27
 -0.7200000     -2.2428380E-26
 -0.6600000     -5.4989115E-26
 -0.6000000     -7.9435902E-26
 -0.5400000     -2.2205256E-26
 -0.4800000      2.4100889E-25
 -0.4200000      7.9152938E-25
 -0.3600000      1.4259489E-24
 -0.3000000      1.3434786E-24
 -0.2400000     -8.8671772E-25
 -0.1800000     -6.4782445E-24
 -0.1200000     -1.4305284E-23
 -5.9999999E-02 -1.8250916E-23
  0.0000000E+00 -6.7510866E-24
  5.9999999E-02  3.1357205E-23
  0.1200000      9.2558653E-23
  0.1800000      1.4143726E-22
  0.2400000      1.0728098E-22
  0.3000000     -8.2955079E-23
  0.3600000     -4.2671054E-22
  0.4200000     -7.5562787E-22
  0.4800000     -7.1898848E-22
  0.5400000      5.5759182E-23
  0.6000000      1.5996782E-21
  0.6600000      3.2012572E-21
  0.7200000      3.3478956E-21
  0.7800000      4.2477123E-22
  0.8400000     -5.7774947E-21
  0.9000000     -1.2466381E-20
  0.9600000     -1.3660789E-20
   1.020000     -2.9231422E-21
   1.080000      2.0939429E-20
   1.140000      4.7949838E-20
   1.200000      5.6153156E-20
   1.260000      2.1052107E-20
   1.320000     -6.4693776E-20
   1.380000     -1.7047962E-19
   1.440000     -2.2321221E-19
   1.500000     -1.3547678E-19
   1.560000      1.3284894E-19
   1.620000      5.0642401E-19
   1.680000      7.7098439E-19
   1.740000      6.4448175E-19
   1.800000     -5.0162572E-20
   1.860000     -1.1797511E-18
   1.920000     -2.2010908E-18
   1.980000     -2.3083453E-18
   2.040000     -8.6524519E-19
   2.100000      2.0325418E-18
   2.160000      5.2043007E-18
   2.220000      6.6139410E-18
   2.280000      4.3339421E-18
   2.340000     -2.0535212E-18
   2.400000     -1.0380157E-17
   2.460000     -1.6057167E-17
   2.520000     -1.3985498E-17
   2.580000     -1.7483116E-18
   2.640000      1.7476990E-17
   2.700000      3.4388542E-17
   2.760000      3.6868724E-17
   2.820000      1.6674090E-17
   2.880000     -2.3404941E-17
   2.940000     -6.6416198E-17
   3.000000     -8.5959848E-17
   3.060000     -5.9079238E-17
   3.120000      1.7488709E-17
   3.180000      1.1670486E-16
   3.240000      1.8539996E-16
   3.300000      1.6674173E-16
   3.360000      3.4397058E-17
   3.420000     -1.7821338E-16
   3.480000     -3.7374611E-16
   3.540000     -4.2446857E-16
   3.600000     -2.3783385E-16
   3.660000      1.7334401E-16
   3.720000      6.5679994E-16
   3.780000      9.5697677E-16
   3.840000      8.2608021E-16
   3.900000      1.7172532E-16
   3.960000     -8.3248219E-16
   4.020000     -1.7511190E-15
   4.080000     -2.0431945E-15
   4.140000     -1.3319909E-15
   4.200000      3.2843245E-16
   4.260000      2.3431362E-15
   4.320000      3.7351417E-15
   4.380000      3.5680204E-15
   4.440000      1.4759695E-15
   4.500000     -1.9631282E-15
   4.560000     -5.2674120E-15
   4.620000     -6.6040686E-15
   4.680000     -4.6992787E-15
   4.740000      2.9557429E-16
   4.800000      6.4739732E-15
   4.860000      1.0718504E-14
   4.920000      1.0071865E-14
   4.980000      3.4187874E-15
   5.040000     -7.3546702E-15
   5.100000     -1.7508589E-14
   5.160000     -2.1196063E-14
   5.220000     -1.4314039E-14
   5.280000      2.7739514E-15
   5.340000      2.4145448E-14
   5.400000      3.9888719E-14
   5.460000      4.0211297E-14
   5.520000      2.0571247E-14
   5.580000     -1.4621798E-14
   5.640000     -5.2042375E-14
   5.700000     -7.4104954E-14
   5.760000     -6.6880637E-14
   5.820000     -2.7874809E-14
   5.880000      3.0417519E-14
   5.940000      8.3907856E-14
   6.000000      1.0688296E-13
   6.060000      8.4615833E-14
   6.120000      2.2528124E-14
   6.180000     -5.3503873E-14
   6.240000     -1.0739697E-13
   6.300000     -1.1005721E-13
   6.360000     -5.5600967E-14
   6.420000      3.2147858E-14
   6.480000      1.0791862E-13
   6.540000      1.2602460E-13
   6.600000      6.5071253E-14
   6.660000     -5.6157160E-14
   6.720000     -1.8145958E-13
   6.780000     -2.4020816E-13
   6.840000     -1.8184853E-13
   6.900000     -5.9379792E-15
   6.960000      2.2828926E-13
   7.020000      4.2070053E-13
   7.080000      4.7207317E-13
   7.140000      3.3147430E-13
   7.200000      2.6879833E-14
   7.260000     -3.3765989E-13
   7.320000     -6.2055737E-13
   7.380000     -7.0217963E-13
   7.440000     -5.3911492E-13
   7.500000     -1.8728287E-13
   7.560000      2.1919913E-13
   7.620000      5.2621790E-13
   7.680000      6.2932987E-13
   7.740000      5.2184678E-13
   7.800000      2.9641881E-13
   7.860000      9.6257495E-14
   7.920000      3.6973222E-14
   7.980000      1.3675928E-13
   8.040000      2.9233698E-13
   8.100000      3.1916370E-13
   8.160000      4.4282557E-14
   8.220000     -5.8760359E-13
   8.280000     -1.4460316E-12
   8.340000     -2.2243587E-12
   8.400000     -2.5352142E-12
   8.460000     -2.0614797E-12
   8.520000     -7.0422840E-13
   8.580000      1.3352478E-12
   8.640000      3.5791862E-12
   8.700000      5.4014670E-12
   8.760000      6.2166535E-12
   8.820000      5.6619648E-12
   8.880000      3.7075221E-12
   8.940000      6.5956393E-13
   9.000000     -2.9364751E-12
   9.060000     -6.4492248E-12
   9.120000     -9.3104942E-12
   9.180000     -1.1108770E-11
   9.240000     -1.1604901E-11
   9.300000     -1.0683981E-11
   9.360000     -8.2854366E-12
   9.420000     -4.3622861E-12
   9.480000      1.0928605E-12
   9.540000      7.9481014E-12
   9.600000      1.5788542E-11
   9.660000      2.3787437E-11
   9.720000      3.0660811E-11
   9.780000      3.4758873E-11
   9.840000      3.4309527E-11
   9.900000      2.7780360E-11
   9.960000      1.4282182E-11
   10.02000     -6.0829115E-12
   10.08000     -3.2014402E-11
   10.14000     -6.0991635E-11
   10.20000     -8.9428458E-11
   10.26000     -1.1295056E-10
   10.32000     -1.2672650E-10
   10.38000     -1.2580231E-10
   10.44000     -1.0543315E-10
   10.50000     -6.1447437E-11
   10.56000      9.3070378E-12
   10.62000      1.0841638E-10
   10.68000      2.3530375E-10
   10.74000      3.8671283E-10
   10.80000      5.5645200E-10
   10.86000      7.3556433E-10
   10.92000      9.1299657E-10
   10.98000      1.0766972E-09
   11.04000      1.2149270E-09
   11.10000      1.3174801E-09
   11.16000      1.3765238E-09
   11.22000      1.3868805E-09
   11.28000      1.3457421E-09
   11.34000      1.2519712E-09
   11.40000      1.1052319E-09
   11.46000      9.0519203E-10
   11.52000      6.5095496E-10
   11.58000      3.4078299E-10
   11.64000     -2.7889541E-11
   11.70000     -4.5815060E-10
   11.76000     -9.5296826E-10
   11.82000     -1.5141310E-09
   11.88000     -2.1407289E-09
   11.94000     -2.8272567E-09
   12.00000     -3.5616112E-09
   12.06000     -4.3234309E-09
   12.12000     -5.0833080E-09
   12.18000     -5.8033360E-09
   12.24000     -6.4392549E-09
   12.30000     -6.9441142E-09
   12.36000     -7.2730413E-09
   12.42000     -7.3884072E-09
   12.48000     -7.2645276E-09
   12.54000     -6.8910473E-09
   12.60000     -6.2743499E-09
   12.66000     -5.4367053E-09
   12.72000     -4.4133412E-09
   12.78000     -3.2480758E-09
   12.84000     -1.9884854E-09
   12.90000     -6.8165845E-10
   12.96000      6.2864064E-10
   13.02000      1.9030435E-09
   13.08000      3.1061018E-09
   13.14000      4.2049408E-09
   13.20000      5.1679123E-09
   13.26000      5.9640031E-09
   13.32000      6.5633765E-09
   13.38000      6.9389849E-09
   13.44000      7.0688460E-09
   13.50000      6.9384596E-09
   13.56000      6.5429018E-09
   13.62000      5.8882983E-09
   13.68000      4.9925561E-09
   13.74000      3.8852654E-09
   13.80000      2.6067140E-09
   13.86000      1.2059351E-09
   13.92000     -2.6217717E-10
   13.98000     -1.7404939E-09
   14.04000     -3.1736009E-09
   14.10000     -4.5115094E-09
   14.16000     -5.7125571E-09
   14.22000     -6.7450880E-09
   14.28000     -7.5877553E-09
   14.34000     -8.2285831E-09
   14.40000     -8.6631919E-09
   14.46000     -8.8927097E-09
   14.52000     -8.9220062E-09
   14.58000     -8.7587848E-09
   14.64000     -8.4138918E-09
   14.70000     -7.9028641E-09
   14.76000     -7.2482709E-09
   14.82000     -6.4820127E-09
   14.88000     -5.6464859E-09
   14.94000     -4.7936846E-09
   15.00000     -3.9817971E-09
   15.06000     -3.2696175E-09
   15.12000     -2.7098750E-09
   15.18000     -2.3429936E-09
   15.24000     -2.1927578E-09
   15.30000     -2.2648183E-09
   15.36000     -2.5481435E-09
   15.42000     -3.0187484E-09
   15.48000     -3.6445396E-09
   15.54000     -4.3900763E-09
   15.60000     -5.2203171E-09
   15.66000     -6.1029239E-09
   15.72000     -7.0091204E-09
   15.78000     -7.9134184E-09
   15.84000     -8.7926573E-09
   15.90000     -9.6248440E-09
   15.96000     -1.0388255E-08
   16.02000     -1.1061250E-08
   16.08000     -1.1623145E-08
   16.14000     -1.2056380E-08
   16.20000     -1.2349888E-08
   16.26000     -1.2503238E-08
   16.32000     -1.2530652E-08
   16.38000     -1.2463675E-08
   16.44000     -1.2351077E-08
   16.50000     -1.2254830E-08
   16.56000     -1.2241666E-08
   16.62000     -1.2370934E-08
   16.68000     -1.2680800E-08
   16.74000     -1.3176040E-08
   16.80000     -1.3821078E-08
   16.86000     -1.4541225E-08
   16.92000     -1.5233171E-08
   16.98000     -1.5783167E-08
   17.04000     -1.6088833E-08
   17.10000     -1.6079078E-08
   17.16000     -1.5726869E-08
   17.22000     -1.5051702E-08
   17.28000     -1.4111620E-08
   17.34000     -1.2987845E-08
   17.40000     -1.1767140E-08
   17.46000     -1.0527116E-08
   17.52000     -9.3281862E-09
   17.58000     -8.2130569E-09
   17.64000     -7.2118160E-09
   17.70000     -6.3488121E-09
   17.76000     -5.6471690E-09
   17.82000     -5.1281446E-09
   17.88000     -4.8049236E-09
   17.94000     -4.6730362E-09
   18.00000     -4.7014619E-09
   18.06000     -4.8288284E-09
   18.12000     -4.9678461E-09
   18.18000     -5.0185109E-09
   18.24000     -4.8875606E-09
   18.30000     -4.5092334E-09
   18.36000     -3.8614503E-09
   18.42000     -2.9725493E-09
   18.48000     -1.9163742E-09
   18.54000     -7.9692442E-10
   18.60000      2.7318961E-10
   18.66000      1.1946324E-09
   18.72000      1.8979991E-09
   18.78000      2.3516611E-09
   18.84000      2.5601070E-09
   18.90000      2.5548752E-09
   18.96000      2.3819458E-09
   19.02000      2.0897926E-09
   19.08000      1.7212330E-09
   19.14000      1.3103356E-09
   19.20000      8.8366475E-10
   19.26000      4.6377441E-10
   19.32000      7.2499555E-11
   19.38000     -2.6776506E-10
   19.44000     -5.3530480E-10
   19.50000     -7.1198991E-10
   19.56000     -7.8614293E-10
   19.62000     -7.5366607E-10
   19.68000     -6.1656574E-10
   19.74000     -3.7930248E-10
   19.80000     -4.4564949E-11
   19.86000      3.8941225E-10
   19.92000      9.2826458E-10
   19.98000      1.5771315E-09
   20.04000      2.3335567E-09
   20.10000      3.1800333E-09
   20.16000      4.0791299E-09
   20.22000      4.9736686E-09
   20.28000      5.7930341E-09
   20.34000      6.4648193E-09
   20.40000      6.9292554E-09
   20.46000      7.1528010E-09
   20.52000      7.1372419E-09
   20.58000      6.9216917E-09
   20.64000      6.5766468E-09
   20.70000      6.1912617E-09
   20.76000      5.8567187E-09
   20.82000      5.6494955E-09
   20.88000      5.6183818E-09
   20.94000      5.7781828E-09
   21.00000      6.1114895E-09
   21.06000      6.5779111E-09
   21.12000      7.1283037E-09
   21.18000      7.7201925E-09
   21.24000      8.3301988E-09
   21.30000      8.9600700E-09
   21.36000      9.6347623E-09
   21.42000      1.0393299E-08
   21.48000      1.1275299E-08
   21.54000      1.2307224E-08
   21.60000      1.3492284E-08
   21.66000      1.4806670E-08
   21.72000      1.6202922E-08
   21.78000      1.7619284E-08
   21.84000      1.8992555E-08
   21.90000      2.0271244E-08
   21.96000      2.1425988E-08
   22.02000      2.2454742E-08
   22.08000      2.3381519E-08
   22.14000      2.4249090E-08
   22.20000      2.5107660E-08
   22.26000      2.6002981E-08
   22.32000      2.6967607E-08
   22.38000      2.8017935E-08
   22.44000      2.9157484E-08
   22.50000      3.0384193E-08
   22.56000      3.1697844E-08
   22.62000      3.3103543E-08
   22.68000      3.4608988E-08
   22.74000      3.6216303E-08
   22.80000      3.7911615E-08
   22.86000      3.9657142E-08
   22.92000      4.1389665E-08
   22.98000      4.3027097E-08
   23.04000      4.4481855E-08
   23.10000      4.5677456E-08
   23.16000      4.6563457E-08
   23.22000      4.7124367E-08
   23.28000      4.7379782E-08
   23.34000      4.7375483E-08
   23.40000      4.7167788E-08
   23.46000      4.6805791E-08
   23.52000      4.6316963E-08
   23.58000      4.5700975E-08
   23.64000      4.4934126E-08
   23.70000      4.3982936E-08
   23.76000      4.2822062E-08
   23.82000      4.1449553E-08
   23.88000      3.9893294E-08
   23.94000      3.8205936E-08
   24.00000      3.6450171E-08
   24.06000      3.4680433E-08
   24.12000      3.2928344E-08
   24.18000      3.1197622E-08
   24.24000      2.9469671E-08
   24.30000      2.7716780E-08
   24.36000      2.5916718E-08
   24.42000      2.4062700E-08
   24.48000      2.2165445E-08
   24.54000      2.0247843E-08
   24.60000      1.8335934E-08
   24.66000      1.6450860E-08
   24.72000      1.4605145E-08
   24.78000      1.2804022E-08
   24.84000      1.1050026E-08
   24.90000      9.3477590E-09
   24.96000      7.7062587E-09
   25.02000      6.1379795E-09
   25.08000      4.6553872E-09
   25.14000      3.2673524E-09
   25.20000      1.9776421E-09
   25.26000      7.8671869E-10
   25.32000     -3.0362748E-10
   25.38000     -1.2849123E-09
   25.44000     -2.1387916E-09
   25.50000     -2.8386389E-09
   25.56000     -3.3567431E-09
   25.62000     -3.6755110E-09
   25.68000     -3.7986805E-09
   25.74000     -3.7574059E-09
   25.80000     -3.6070420E-09
   25.86000     -3.4135601E-09
   25.92000     -3.2328442E-09
   25.98000     -3.0898448E-09
   26.04000     -2.9658878E-09
   26.10000     -2.8003282E-09
   26.16000     -2.5076796E-09
   26.22000     -2.0052604E-09
   26.28000     -1.2418281E-09
   26.34000     -2.1673463E-10
   26.40000      1.0176587E-09
   26.46000      2.3713733E-09
   26.52000      3.7444785E-09
   26.58000      5.0570779E-09
   26.64000      6.2711210E-09
   26.70000      7.3968867E-09
   26.76000      8.4827674E-09
   26.82000      9.5929007E-09
   26.88000      1.0781120E-08
   26.94000      1.2070386E-08
   27.00000      1.3444285E-08
   27.06000      1.4852441E-08
   27.12000      1.6226595E-08
   27.18000      1.7500396E-08
   27.24000      1.8625077E-08
   27.30000      1.9575214E-08
   27.36000      2.0343222E-08
   27.42000      2.0925963E-08
   27.48000      2.1310328E-08
   27.54000      2.1465025E-08
   27.60000      2.1343260E-08
   27.66000      2.0896106E-08
   27.72000      2.0091690E-08
   27.78000      1.8932338E-08
   27.84000      1.7462268E-08
   27.90000      1.5761751E-08
   27.96000      1.3928815E-08
   28.02000      1.2054217E-08
   28.08000      1.0198186E-08
   28.14000      8.3768343E-09
   28.20000      6.5629862E-09
   28.26000      4.7012483E-09
   28.32000      2.7324314E-09
   28.38000      6.1938343E-10
   28.44000     -1.6340366E-09
   28.50000     -3.9767269E-09
   28.56000     -6.3184715E-09
   28.62000     -8.5493861E-09
   28.68000     -1.0564229E-08
   28.74000     -1.2284066E-08
   28.80000     -1.3669355E-08
   28.86000     -1.4721905E-08
   28.92000     -1.5477104E-08
   28.98000     -1.5990510E-08
   29.04000     -1.6323865E-08
   29.10000     -1.6534303E-08
   29.16000     -1.6668293E-08
   29.22000     -1.6759474E-08
   29.28000     -1.6828483E-08
   29.34000     -1.6882982E-08
   29.40000     -1.6917417E-08
   29.46000     -1.6913347E-08
   29.52000     -1.6841756E-08
   29.58000     -1.6668157E-08
   29.64000     -1.6359930E-08
   29.70000     -1.5893823E-08
   29.76000     -1.5261019E-08
   29.82000     -1.4467799E-08
   29.88000     -1.3531527E-08
   29.94000     -1.2473588E-08
   30.00000     -1.1312155E-08
   30.06000     -1.0057630E-08
   30.12000     -8.7123704E-09
   30.18000     -7.2744801E-09
   30.24000     -5.7438680E-09
   30.30000     -4.1279695E-09
   30.36000     -2.4448250E-09
   30.42000     -7.2225809E-10
   30.48000      1.0066142E-09
   30.54000      2.7099356E-09
   30.60000      4.3632018E-09
   30.66000      5.9522596E-09
   30.72000      7.4714617E-09
   30.78000      8.9170733E-09
   30.84000      1.0278241E-08
   30.90000      1.1529599E-08
   30.96000      1.2629759E-08
   31.02000      1.3528145E-08
   31.08000      1.4179101E-08
   31.14000      1.4558627E-08
   31.20000      1.4677096E-08
   31.26000      1.4582179E-08
   31.32000      1.4349881E-08
   31.38000      1.4066477E-08
   31.44000      1.3807846E-08
   31.50000      1.3623684E-08
   31.56000      1.3531628E-08
   31.62000      1.3522032E-08
   31.68000      1.3569888E-08
   31.74000      1.3648157E-08
   31.80000      1.3737237E-08
   31.86000      1.3827798E-08
   31.92000      1.3917273E-08
   31.98000      1.4002573E-08
   32.04000      1.4072408E-08
   32.10000      1.4102204E-08
   32.16000      1.4053540E-08
   32.22000      1.3878790E-08
   32.28000      1.3530501E-08
   32.34000      1.2973720E-08
   32.40000      1.2198285E-08
   32.46000      1.1227159E-08
   32.52000      1.0117030E-08
   32.58000      8.9490602E-09
   32.64000      7.8105966E-09
   32.70000      6.7722281E-09
   32.76000      5.8671485E-09
   32.82000      5.0801576E-09
   32.88000      4.3511750E-09
   32.94000      3.5934442E-09
   33.00000      2.7213145E-09
   33.06000      1.6787125E-09
   33.12000      4.5873619E-10
   33.18000     -8.9227314E-10
   33.24000     -2.2874191E-09
   33.30000     -3.6240910E-09
   33.36000     -4.8123745E-09
   33.42000     -5.7977489E-09
   33.48000     -6.5714141E-09
   33.54000     -7.1663178E-09
   33.60000     -7.6417592E-09
   33.66000     -8.0627478E-09
   33.72000     -8.4811509E-09
   33.78000     -8.9241858E-09
   33.84000     -9.3929264E-09
   33.90000     -9.8701065E-09
   33.96000     -1.0333697E-08
   34.02000     -1.0770954E-08
   34.08000     -1.1187534E-08
   34.14000     -1.1607801E-08
   34.20000     -1.2065428E-08
   34.26000     -1.2587122E-08
   34.32000     -1.3175346E-08
   34.38000     -1.3797201E-08
   34.44000     -1.4385137E-08
   34.50000     -1.4851206E-08
   34.56000     -1.5111489E-08
   34.62000     -1.5112969E-08
   34.68000     -1.4853470E-08
   34.74000     -1.4387122E-08
   34.80000     -1.3812564E-08
   34.86000     -1.3247099E-08
   34.92000     -1.2794939E-08
   34.98000     -1.2519637E-08
   35.04000     -1.2429203E-08
   35.10000     -1.2477856E-08
   35.16000     -1.2582775E-08
   35.22000     -1.2649584E-08
   35.28000     -1.2598213E-08
   35.34000     -1.2381690E-08
   35.40000     -1.1993583E-08
   35.46000     -1.1463688E-08
   35.52000     -1.0844910E-08
   35.58000     -1.0196019E-08
   35.64000     -9.5651673E-09
   35.70000     -8.9780565E-09
   35.76000     -8.4330889E-09
   35.82000     -7.9040641E-09
   35.88000     -7.3491524E-09
   35.94000     -6.7233024E-09
   36.00000     -5.9901857E-09
   36.06000     -5.1299662E-09
   36.12000     -4.1407944E-09
   36.18000     -3.0346379E-09
   36.24000     -1.8307773E-09
   36.30000     -5.5153671E-10
   36.36000      7.7635376E-10
   36.42000      2.1147337E-09
   36.48000      3.4052909E-09
   36.54000      4.5655626E-09
   36.60000      5.4952869E-09
   36.66000      6.0945187E-09
   36.72000      6.2890648E-09
   36.78000      6.0540462E-09
   36.84000      5.4254414E-09
   36.90000      4.4931450E-09
   36.96000      3.3761853E-09
   37.02000      2.1881152E-09
   37.08000      1.0049861E-09
   37.14000     -1.5246900E-10
   37.20000     -1.3163999E-09
   37.26000     -2.5510520E-09
   37.32000     -3.9223687E-09
   37.38000     -5.4696123E-09
   37.44000     -7.1887070E-09
   37.50000     -9.0315577E-09
   37.56000     -1.0919353E-08
   37.62000     -1.2763473E-08
   37.68000     -1.4486427E-08
   37.74000     -1.6037033E-08
   37.80000     -1.7397149E-08
   37.86000     -1.8580108E-08
   37.92000     -1.9622689E-08
   37.98000     -2.0573076E-08
   38.04000     -2.1477401E-08
   38.10000     -2.2367898E-08
   38.16000     -2.3255765E-08
   38.22000     -2.4131353E-08
   38.28000     -2.4972158E-08
   38.34000     -2.5756197E-08
   38.40000     -2.6475455E-08
   38.46000     -2.7143306E-08
   38.52000     -2.7791758E-08
   38.58000     -2.8458849E-08
   38.64000     -2.9171268E-08
   38.70000     -2.9930018E-08
   38.76000     -3.0705863E-08
   38.82000     -3.1446962E-08
   38.88000     -3.2095201E-08
   38.94000     -3.2603971E-08
   39.00000     -3.2949629E-08
   39.06000     -3.3132626E-08
   39.12000     -3.3169567E-08
   39.18000     -3.3081847E-08
   39.24000     -3.2887229E-08
   39.30000     -3.2598273E-08
   39.36000     -3.2226712E-08
   39.42000     -3.1789611E-08
   39.48000     -3.1312140E-08
   39.54000     -3.0824697E-08
   39.60000     -3.0355778E-08
   39.66000     -2.9925072E-08
   39.72000     -2.9541090E-08
   39.78000     -2.9204882E-08
   39.84000     -2.8917494E-08
   39.90000     -2.8686328E-08
   39.96000     -2.8526086E-08
   40.02000     -2.8453220E-08
   40.08000     -2.8476789E-08
   40.14000     -2.8591094E-08
   40.20000     -2.8774625E-08
   40.26000     -2.8996475E-08
   40.32000     -2.9227097E-08
   40.38000     -2.9447728E-08
   40.44000     -2.9653464E-08
   40.50000     -2.9848508E-08
   40.56000     -3.0036556E-08
   40.62000     -3.0212224E-08
   40.68000     -3.0359050E-08
   40.74000     -3.0456192E-08
   40.80000     -3.0491037E-08
   40.86000     -3.0471384E-08
   40.92000     -3.0430350E-08
   40.98000     -3.0420264E-08
   41.04000     -3.0496786E-08
   41.10000     -3.0699113E-08
   41.16000     -3.1034155E-08
   41.22000     -3.1470837E-08
   41.28000     -3.1946499E-08
   41.34000     -3.2382751E-08
   41.40000     -3.2704946E-08
   41.46000     -3.2859337E-08
   41.52000     -3.2824016E-08
   41.58000     -3.2612498E-08
   41.64000     -3.2270840E-08
   41.70000     -3.1869678E-08
   41.76000     -3.1492220E-08
   41.82000     -3.1219084E-08
   41.88000     -3.1111785E-08
   41.94000     -3.1198503E-08
   42.00000     -3.1466655E-08
   42.06000     -3.1866023E-08
   42.12000     -3.2322731E-08
   42.18000     -3.2760017E-08
   42.24000     -3.3118617E-08
   42.30000     -3.3369442E-08
   42.36000     -3.3514652E-08
   42.42000     -3.3578495E-08
   42.48000     -3.3593537E-08
   42.54000     -3.3589078E-08
   42.60000     -3.3585952E-08
   42.66000     -3.3597754E-08
   42.72000     -3.3634727E-08
   42.78000     -3.3705739E-08
   42.84000     -3.3816146E-08
   42.90000     -3.3962785E-08
   42.96000     -3.4130178E-08
   43.02000     -3.4291958E-08
   43.08000     -3.4418743E-08
   43.14000     -3.4489851E-08
   43.20000     -3.4503479E-08
   43.26000     -3.4479967E-08
   43.32000     -3.4455759E-08
   43.38000     -3.4470116E-08
   43.44000     -3.4550304E-08
   43.50000     -3.4701841E-08
   43.56000     -3.4908290E-08
   43.62000     -3.5140356E-08
   43.68000     -3.5369826E-08
   43.74000     -3.5581376E-08
   43.80000     -3.5776615E-08
   43.86000     -3.5968480E-08
   43.92000     -3.6168913E-08
   43.98000     -3.6376033E-08
   44.04000     -3.6566970E-08
   44.10000     -3.6699991E-08
   44.16000     -3.6725282E-08
   44.22000     -3.6600461E-08
   44.28000     -3.6305387E-08
   44.34000     -3.5851738E-08
   44.40000     -3.5284476E-08
   44.46000     -3.4674532E-08
   44.52000     -3.4103671E-08
   44.58000     -3.3644316E-08
   44.64000     -3.3338889E-08
   44.70000     -3.3184854E-08
   44.76000     -3.3131681E-08
   44.82000     -3.3093269E-08
   44.88000     -3.2974441E-08
   44.94000     -3.2703724E-08
   45.00000     -3.2260829E-08
   45.06000     -3.1687357E-08
   45.12000     -3.1075000E-08
   45.18000     -3.0534039E-08
   45.24000     -3.0153508E-08
   45.30000     -2.9968341E-08
   45.36000     -2.9946403E-08
   45.42000     -3.0000479E-08
   45.48000     -3.0019997E-08
   45.54000     -2.9909412E-08
   45.60000     -2.9617969E-08
   45.66000     -2.9149961E-08
   45.72000     -2.8553673E-08
   45.78000     -2.7896091E-08
   45.84000     -2.7235386E-08
   45.90000     -2.6601869E-08
   45.96000     -2.5991943E-08
   46.02000     -2.5372639E-08
   46.08000     -2.4690387E-08
   46.14000     -2.3878709E-08
   46.20000     -2.2863629E-08
   46.26000     -2.1569127E-08
   46.32000     -1.9924821E-08
   46.38000     -1.7874411E-08
   46.44000     -1.5379216E-08
   46.50000     -1.2410776E-08
   46.56000     -8.9309333E-09
   46.62000     -4.8652122E-09
   46.68000     -8.0199500E-11
   46.74000      5.6255502E-09
   46.80000      1.2515010E-08
   46.86000      2.0897541E-08
   46.92000      3.1117096E-08
   46.98000      4.3553520E-08
   47.04000      5.8638769E-08
   47.10000      7.6881648E-08
   47.16000      9.8891327E-08
   47.22000      1.2539290E-07
   47.28000      1.5723489E-07
   47.34000      1.9539500E-07
   47.40000      2.4099128E-07
   47.46000      2.9530418E-07
   47.52000      3.5980975E-07
   47.58000      4.3622063E-07
   47.64000      5.2653172E-07
   47.70000      6.3306618E-07
   47.76000      7.5852040E-07
   47.82000      9.0600793E-07
   47.88000      1.0791038E-06
   47.94000      1.2818939E-06
   48.00000      1.5190307E-06
   48.06000      1.7958008E-06
   48.12000      2.1182004E-06
   48.18000      2.4930150E-06
   48.24000      2.9279017E-06
   48.30000      3.4314737E-06
   48.36000      4.0133941E-06
   48.42000      4.6844816E-06
   48.48000      5.4568341E-06
   48.54000      6.3439629E-06
   48.60000      7.3609176E-06
   48.66000      8.5244064E-06
   48.72000      9.8529008E-06
   48.78000      1.1366738E-05
   48.84000      1.3088255E-05
   48.90000      1.5041931E-05
   48.96000      1.7254551E-05
   49.02000      1.9755369E-05
   49.08000      2.2576221E-05
   49.14000      2.5751628E-05
   49.20000      2.9318855E-05
   49.26000      3.3317967E-05
   49.32000      3.7791917E-05
   49.38000      4.2786611E-05
   49.44000      4.8351008E-05
   49.50000      5.4537180E-05
   49.56000      6.1400344E-05
   49.62000      6.8998816E-05
   49.68000      7.7393946E-05
   49.74000      8.6650012E-05
   49.80000      9.6834039E-05
   49.86000      1.0801555E-04
   49.92000      1.2026641E-04
   49.98000      1.3366043E-04
   50.04000      1.4827322E-04
   50.10000      1.6418168E-04
   50.16000      1.8146378E-04
   50.22000      2.0019802E-04
   50.28000      2.2046293E-04
   50.34000      2.4233649E-04
   50.40000      2.6589539E-04
   50.46000      2.9121441E-04
   50.52000      3.1836570E-04
   50.58000      3.4741798E-04
   50.64000      3.7843597E-04
   50.70000      4.1147941E-04
   50.76000      4.4660221E-04
   50.82000      4.8385173E-04
   50.88000      5.2326807E-04
   50.94000      5.6488317E-04
   51.00000      6.0871983E-04
   51.06000      6.5479119E-04
   51.12000      7.0310000E-04
   51.18000      7.5363740E-04
   51.24000      8.0638286E-04
   51.30000      8.6130336E-04
   51.36000      9.1835333E-04
   51.42000      9.7747392E-04
   51.48000      1.0385930E-03
   51.54000      1.1016252E-03
   51.60000      1.1664712E-03
   51.66000      1.2330188E-03
   51.72000      1.3011427E-03
   51.78000      1.3707053E-03
   51.84000      1.4415567E-03
   51.90000      1.5135357E-03
   51.96000      1.5864710E-03
   52.02000      1.6601819E-03
   52.08000      1.7344801E-03
   52.14000      1.8091704E-03
   52.20000      1.8840519E-03
   52.26000      1.9589209E-03
   52.32000      2.0335701E-03
   52.38000      2.1077935E-03
   52.44000      2.1813847E-03
   52.50000      2.2541420E-03
   52.56000      2.3258680E-03
   52.62000      2.3963721E-03
   52.68000      2.4654726E-03
   52.74000      2.5329983E-03
   52.80000      2.5987898E-03
   52.86000      2.6627020E-03
   52.92000      2.7246042E-03
   52.98000      2.7843826E-03
   53.04000      2.8419401E-03
   53.10000      2.8971988E-03
   53.16000      2.9500998E-03
   53.22000      3.0006040E-03
   53.28000      3.0486933E-03
   53.34000      3.0943686E-03
   53.40000      3.1376514E-03
   53.46000      3.1785816E-03
   53.52000      3.2172196E-03
   53.58000      3.2536432E-03
   53.64000      3.2879470E-03
   53.70000      3.3202420E-03
   53.76000      3.3506525E-03
   53.82000      3.3793154E-03
   53.88000      3.4063784E-03
   53.94000      3.4319973E-03
   54.00000      3.4563346E-03
   54.06000      3.4795571E-03
   54.12000      3.5018336E-03
   54.18000      3.5233314E-03
   54.24000      3.5442163E-03
   54.30000      3.5646488E-03
   54.36000      3.5847826E-03
   54.42000      3.6047627E-03
   54.48000      3.6247217E-03
   54.54000      3.6447798E-03
   54.60000      3.6650426E-03
   54.66000      3.6855990E-03
   54.72000      3.7065216E-03
   54.78000      3.7278631E-03
   54.84000      3.7496595E-03
   54.90000      3.7719260E-03
   54.96000      3.7946596E-03
   55.02000      3.8178361E-03
   55.08000      3.8414125E-03
   55.14000      3.8653258E-03
   55.20000      3.8894962E-03
   55.26000      3.9138263E-03
   55.32000      3.9382032E-03
   55.38000      3.9625010E-03
   55.44000      3.9865808E-03
   55.50000      4.0102936E-03
   55.56000      4.0334794E-03