 -0.750000000       0.00000000    
 -0.689999998       0.00000000    
 -0.629999995       0.00000000    
 -0.569999993       0.00000000    
 -0.509999990       0.00000000    
 -0.449999988       0.00000000    
 -0.389999986       0.00000000    
 -0.330000013       0.00000000    
 -0.270000011       0.00000000    
 -0.209999993       0.00000000    
 -0.150000006       0.00000000    
  -9.00000036E-02   0.00000000    
  -2.99999993E-02   0.00000000    
   2.99999993E-02   1.19542759E-34
   9.00000036E-02   1.99252537E-33
  0.150000006       1.58701288E-32
  0.209999993       7.75121857E-32
  0.270000011       2.36766191E-31
  0.330000013       3.11699372E-31
  0.389999986      -1.07625197E-30
  0.449999988      -8.39182596E-30
  0.509999990      -2.92857539E-29
  0.569999993      -6.21156703E-29
  0.629999995      -5.10787677E-29
  0.689999998       1.94650899E-28
  0.750000000       1.02491386E-27
  0.810000002       2.61490519E-27
  0.870000005       3.81695202E-27
  0.930000007       2.11763171E-28
  0.990000010      -1.66783361E-26
   1.04999995      -5.36765119E-26
   1.11000001      -9.69070756E-26
   1.16999996      -8.10093898E-26
   1.23000002       1.25243822E-25
   1.28999996       6.50959588E-25
   1.35000002       1.40018127E-24
   1.40999997       1.70350292E-24
   1.47000003       1.35802343E-25
   1.52999997      -4.89421967E-24
   1.59000003      -1.31949624E-23
   1.64999998      -1.97991955E-23
   1.71000004      -1.32239680E-23
   1.76999998       2.06757493E-23
   1.83000004       8.54447937E-23
   1.88999999       1.53721551E-22
   1.95000005       1.54227469E-22
   2.00999999      -8.72959789E-24
   2.06999993      -3.82677006E-22
   2.13000011      -8.54862183E-22
   2.19000006      -1.07409019E-21
   2.25000000      -5.28824028E-22
   2.30999994       1.12403081E-21
   2.36999989       3.54228061E-21
   2.43000007       5.31156340E-21
   2.49000001       4.19633006E-21
   2.54999995      -1.59352841E-21
   2.60999990      -1.13622531E-20
   2.67000008      -2.03038461E-20
   2.73000002      -2.01402695E-20
   2.78999996      -3.37040537E-21
   2.84999990       2.96590875E-20
   2.91000009       6.47782328E-20
   2.97000003       7.51054470E-20
   3.02999997       3.36420462E-20
   3.08999991      -6.47885854E-20
   3.15000010      -1.83724168E-19
   3.21000004      -2.44978327E-19
   3.26999998      -1.61627137E-19
   3.32999992       1.00447521E-19
   3.39000010       4.62421156E-19
   3.45000005       7.21068953E-19
   3.50999999       6.23995896E-19
   3.56999993       2.57166187E-20
   3.63000011      -9.45305726E-19
   3.69000006      -1.82522241E-18
   3.75000000      -1.96068110E-18
   3.80999994      -8.66550015E-19
   3.86999989       1.35006205E-18
   3.93000007       3.76561235E-18
   3.99000001       4.87226214E-18
   4.05000019       3.32758486E-18
   4.11000013      -1.04833572E-18
   4.17000008      -6.59896403E-18
   4.23000002      -1.00986519E-17
   4.28999996      -8.22532271E-18
   4.34999990       1.96337225E-19
   4.40999985       1.23456971E-17
   4.46999979       2.14000674E-17
   4.53000021       1.92663318E-17
   4.59000015       1.53344572E-18
   4.65000010      -2.76035547E-17
   4.71000004      -5.37611646E-17
   4.76999998      -5.68272485E-17
   4.82999992      -2.14927017E-17
   4.88999987       5.00711847E-17
   4.94999981       1.30598531E-16
   5.01000023       1.72564447E-16
   5.07000017       1.28377875E-16
   5.13000011      -1.95788754E-17
   5.19000006      -2.33365412E-16
   5.25000000      -4.16406453E-16
   5.30999994      -4.45064780E-16
   5.36999989      -2.30905125E-16
   5.42999983       2.10926940E-16
   5.48999977       7.25990563E-16
   5.55000019       1.05259662E-15
   5.61000013       9.30129315E-16
   5.67000008       2.49858626E-16
   5.73000002      -8.23924724E-16
   5.78999996      -1.84438290E-15
   5.84999990      -2.23088721E-15
   5.90999985      -1.54731479E-15
   5.96999979       2.03810077E-16
   6.03000021       2.43288805E-15
   6.09000015       4.09274419E-15
   6.15000010       4.10390851E-15
   6.21000004       1.93315111E-15
   6.26999998      -1.94660263E-15
   6.32999992      -6.00312409E-15
   6.38999987      -8.14826552E-15
   6.44999981      -6.68743989E-15
   6.51000023      -1.33198461E-15
   6.57000017       6.24939214E-15
   6.63000011       1.27609240E-14
   6.69000006       1.45574386E-14
   6.75000000       9.45071929E-15
   6.80999994      -1.76423569E-15
   6.86999989      -1.49374040E-14
   6.92999983      -2.38436810E-14
   6.98999977      -2.28750412E-14
   7.05000019      -1.01025416E-14
   7.11000013       1.07983377E-14
   7.17000008       3.10575845E-14
   7.23000002       4.01067898E-14
   7.28999996       3.06333429E-14
   7.34999990       3.17394934E-15
   7.40999985      -3.22862092E-14
   7.46999979      -5.92841274E-14
   7.53000021      -6.19505396E-14
   7.59000015      -3.34131628E-14
   7.65000010       1.86095730E-14
   7.71000004       7.26299920E-14
   7.76999998       1.01623388E-13
   7.82999992       8.59161104E-14
   7.88999987       2.48755247E-14
   7.94999981      -5.90562213E-14
   8.01000023      -1.27675838E-13
   8.06999969      -1.44029130E-13
   8.13000011      -9.19379387E-14
   8.18999958       1.18760389E-14
   8.25000000       1.20905971E-13
   8.31000042       1.78356163E-13
   8.36999989       1.45627380E-13
   8.43000031       2.62755787E-14
   8.48999977      -1.28086276E-13
   8.55000019      -2.36332763E-13
   8.60999966      -2.25495200E-13
   8.67000008      -7.13479839E-14
   8.72999954       1.78566417E-13
   8.78999996       4.14394159E-13
   8.85000038       5.06817570E-13
   8.90999985       3.67611350E-13
   8.97000027       1.02071366E-15
   9.02999973      -4.80434160E-13
   9.09000015      -8.88644898E-13
   9.14999962      -1.03250861E-12
   9.21000004      -8.01819223E-13
   9.27000046      -2.25172935E-13
   9.32999992       5.27254239E-13
   9.39000034       1.20236102E-12
   9.44999981       1.56246001E-12
   9.51000023       1.48129772E-12
   9.56999969       9.93839668E-13
   9.63000011       2.74998936E-13
   9.68999958      -4.44782422E-13
   9.75000000      -9.87637055E-13
   9.81000042      -1.30597052E-12
   9.86999989      -1.48696843E-12
   9.93000031      -1.67544342E-12
   9.98999977      -1.94923656E-12
   10.0500002      -2.21196802E-12
   10.1099997      -2.16958851E-12
   10.1700001      -1.42528491E-12
   10.2299995       3.27001094E-13
   10.2900000       3.08362949E-12
   10.3500004       6.38718418E-12
   10.4099998       9.34227262E-12
   10.4700003       1.08203507E-11
   10.5299997       9.80674483E-12
   10.5900002       5.77821341E-12
   10.6499996      -1.02537033E-12
   10.7100000      -9.54297318E-12
   10.7700005      -1.80826153E-11
   10.8299999      -2.47054165E-11
   10.8900003      -2.76806078E-11
   10.9499998      -2.58691298E-11
   11.0100002      -1.89309020E-11
   11.0699997      -7.32794554E-12
   11.1300001       7.82245622E-12
   11.1899996       2.49404594E-11
   11.2500000       4.21235963E-11
   11.3100004       5.71931252E-11
   11.3699999       6.76886741E-11
   11.4300003       7.09193329E-11
   11.4899998       6.41926720E-11
   11.5500002       4.52891856E-11
   11.6099997       1.31437014E-11
   11.6700001      -3.14209526E-11
   11.7299995      -8.51386045E-11
   11.7900000      -1.42148987E-10
   11.8500004      -1.94383315E-10
   11.9099998      -2.32459385E-10
   11.9700003      -2.46891507E-10
   12.0299997      -2.29308447E-10
   12.0900002      -1.73362102E-10
   12.1499996      -7.51160661E-11
   12.2100000       6.71111153E-11
   12.2700005       2.53272875E-10
   12.3299999       4.82184015E-10
   12.3900003       7.51855023E-10
   12.4499998       1.05937747E-09
   12.5100002       1.40038159E-09
   12.5699997       1.76828729E-09
   12.6300001       2.15369256E-09
   12.6899996       2.54418531E-09
   12.7500000       2.92469138E-09
   12.8100004       3.27821659E-09
   12.8699999       3.58666941E-09
   12.9300003       3.83145027E-09
   12.9899998       3.99368627E-09
   13.0500002       4.05430756E-09
   13.1099997       3.99445188E-09
   13.1700001       3.79674336E-09
   13.2299995       3.44776807E-09
   13.2900000       2.94155655E-09
   13.3500004       2.28329888E-09
   13.4099998       1.49209856E-09
   13.4700003       6.01531380E-10
   13.5299997      -3.42794126E-10
   13.5900002      -1.28870303E-09
   13.6499996      -2.18510587E-09
   13.7100000      -2.99034464E-09
   13.7700005      -3.67953046E-09
   13.8299999      -4.24944879E-09
   13.8900003      -4.72023665E-09
   13.9499998      -5.13377119E-09
   14.0100002      -5.54925794E-09
   14.0699997      -6.03678352E-09
   14.1300001      -6.66951694E-09
   14.1899996      -7.51507567E-09
   14.2500000      -8.62643912E-09
   14.3100004      -1.00329247E-08
   14.3699999      -1.17321077E-08
   14.4300003      -1.36840441E-08
   14.4899998      -1.58094622E-08
   14.5500002      -1.79934609E-08
   14.6099997      -2.00955004E-08
   14.6700001      -2.19652101E-08
   14.7299995      -2.34620465E-08
   14.7900000      -2.44754848E-08
   14.8500004      -2.49419561E-08
   14.9099998      -2.48549732E-08
   14.9700003      -2.42663170E-08
   15.0299997      -2.32780000E-08
   15.0900002      -2.20267697E-08
   15.1499996      -2.06643467E-08
   15.2100000      -1.93371434E-08
   15.2700005      -1.81687962E-08
   15.3299999      -1.72477019E-08
   15.3900003      -1.66204188E-08
   15.4499998      -1.62906293E-08
   15.5100002      -1.62228133E-08
   15.5699997      -1.63496932E-08
   15.6300001      -1.65826997E-08
   15.6899996      -1.68247922E-08
   15.7500000      -1.69846537E-08
   15.8100004      -1.69906951E-08
   15.8699999      -1.68026677E-08
   15.9300003      -1.64183867E-08
   15.9899998      -1.58736722E-08
   16.0499992      -1.52348623E-08
   16.1100006      -1.45851660E-08
   16.1700001      -1.40078393E-08
   16.2299995      -1.35700882E-08
   16.2900009      -1.33114062E-08
   16.3500004      -1.32386928E-08
   16.4099998      -1.33284068E-08
   16.4699993      -1.35340743E-08
   16.5300007      -1.37962175E-08
   16.5900002      -1.40517278E-08
   16.6499996      -1.42405856E-08
   16.7099991      -1.43094150E-08
   16.7700005      -1.42126781E-08
   16.8299999      -1.39131124E-08
   16.8899994      -1.33828486E-08
   16.9500008      -1.26057955E-08
   17.0100002      -1.15807515E-08
   17.0699997      -1.03237729E-08
   17.1299992      -8.86813822E-09
   17.1900005      -7.26079419E-09
   17.2500000      -5.55536506E-09
   17.3099995      -3.80318665E-09
   17.3700008      -2.04480610E-09
   17.4300003      -3.04599845E-10
   17.4899998       1.40966538E-09
   17.5499992       3.10210058E-09
   17.6100006       4.78041251E-09
   17.6700001       6.44708553E-09
   17.7299995       8.09336420E-09
   17.7900009       9.69842073E-09
   17.8500004       1.12341771E-08
   17.9099998       1.26740440E-08
   17.9699993       1.40022589E-08
   18.0300007       1.52202180E-08
   18.0900002       1.63472329E-08
   18.1499996       1.74152248E-08
   18.2099991       1.84590601E-08
   18.2700005       1.95057730E-08
   18.3299999       2.05661159E-08
   18.3899994       2.16309388E-08
   18.4500008       2.26731256E-08
   18.5100002       2.36539979E-08
   18.5699997       2.45318770E-08
   18.6299992       2.52703263E-08
   18.6900005       2.58442228E-08
   18.7500000       2.62429385E-08
   18.8099995       2.64709765E-08
   18.8700008       2.65468945E-08
   18.9300003       2.65012421E-08
   18.9899998       2.63737174E-08
   19.0499992       2.62092037E-08
   19.1100006       2.60523692E-08
   19.1700001       2.59409951E-08
   19.2299995       2.58991992E-08
   19.2900009       2.59325006E-08
   19.3500004       2.60267825E-08
   19.4099998       2.61521453E-08
   19.4699993       2.62710103E-08
   19.5300007       2.63479123E-08
   19.5900002       2.63574282E-08
   19.6499996       2.62872124E-08
   19.7099991       2.61350674E-08
   19.7700005       2.59016275E-08
   19.8299999       2.55825512E-08
   19.8899994       2.51645744E-08
   19.9500008       2.46283687E-08
   20.0100002       2.39578632E-08
   20.0699997       2.31523689E-08
   20.1299992       2.22355947E-08
   20.1900005       2.12560440E-08
   20.2500000       2.02761914E-08
   20.3099995       1.93525160E-08
   20.3700008       1.85127043E-08
   20.4300003       1.77387207E-08
   20.4899998       1.69632610E-08
   20.5499992       1.60829714E-08
   20.6100006       1.49857549E-08
   20.6700001       1.35841365E-08
   20.7299995       1.18439125E-08
   20.7900009       9.79834969E-09
   20.8500004       7.54289875E-09
   20.9099998       5.21184029E-09
   20.9699993       2.94428282E-09
   21.0300007       8.50203519E-10
   21.0900002      -1.01319386E-09
   21.1499996      -2.64842148E-09
   21.2099991      -4.10730427E-09
   21.2700005      -5.46811929E-09
   21.3299999      -6.80864742E-09
   21.3899994      -8.18391754E-09
   21.4500008      -9.61499325E-09
   21.5100002      -1.10908367E-08
   21.5699997      -1.25807569E-08
   21.6299992      -1.40516363E-08
   21.6900005      -1.54830069E-08
   21.7500000      -1.68744254E-08
   21.8099995      -1.82427851E-08
   21.8700008      -1.96110577E-08
   21.9300003      -2.09932622E-08
   21.9899998      -2.23818581E-08
   22.0499992      -2.37428726E-08
   22.1100006      -2.50213255E-08
   22.1700001      -2.61556092E-08
   22.2299995      -2.70962008E-08
   22.2900009      -2.78223453E-08
   22.3500004      -2.83508594E-08
   22.4099998      -2.87337993E-08
   22.4699993      -2.90454025E-08
   22.5300007      -2.93621643E-08
   22.5900002      -2.97421359E-08
   22.6499996      -3.02097298E-08
   22.7099991      -3.07505523E-08
   22.7700005      -3.13176862E-08
   22.8299999      -3.18474136E-08
   22.8899994      -3.22795124E-08
   22.9500008      -3.25760112E-08
   23.0100002      -3.27326752E-08
   23.0699997      -3.27799761E-08
   23.1299992      -3.27732472E-08
   23.1900005      -3.27752616E-08
   23.2500000      -3.28365566E-08
   23.3099995      -3.29794823E-08
   23.3700008      -3.31905277E-08
   23.4300003      -3.34230421E-08
   23.4899998      -3.36091048E-08
   23.5499992      -3.36768835E-08
   23.6100006      -3.35685080E-08
   23.6700001      -3.32537553E-08
   23.7299995      -3.27365264E-08
   23.7900009      -3.20533609E-08
   23.8500004      -3.12654969E-08
   23.9099998      -3.04474064E-08
   23.9699993      -2.96750891E-08
   24.0300007      -2.90165794E-08
   24.0900002      -2.85258981E-08
   24.1499996      -2.82400752E-08
   24.2099991      -2.81781745E-08
   24.2700005      -2.83412529E-08
   24.3299999      -2.87129520E-08
   24.3899994      -2.92612885E-08
   24.4500008      -2.99425942E-08
   24.5100002      -3.07080477E-08
   24.5699997      -3.15119735E-08
   24.6299992      -3.23198073E-08
   24.6900005      -3.31129506E-08
   24.7500000      -3.38884618E-08
   24.8099995      -3.46532083E-08
   24.8700008      -3.54143737E-08
   24.9300003      -3.61696380E-08
   24.9899998      -3.69005946E-08
   25.0499992      -3.75718265E-08
   25.1100006      -3.81359087E-08
   25.1700001      -3.85427796E-08
   25.2299995      -3.87505743E-08
   25.2900009      -3.87350489E-08
   25.3500004      -3.84953296E-08
   25.4099998      -3.80550240E-08
   25.4699993      -3.74586726E-08
   25.5300007      -3.67644972E-08
   25.5900002      -3.60349297E-08
   25.6499996      -3.53267247E-08
   25.7099991      -3.46825928E-08
   25.7700005      -3.41259074E-08
   25.8299999      -3.36593970E-08
   25.8899994      -3.32678418E-08
   25.9500008      -3.29237544E-08
   26.0100002      -3.25946594E-08
   26.0699997      -3.22503588E-08
   26.1299992      -3.18687015E-08
   26.1900005      -3.14390256E-08
   26.2500000      -3.09626422E-08
   26.3099995      -3.04504439E-08
   26.3700008      -2.99181870E-08
   26.4300003      -2.93808426E-08
   26.4899998      -2.88476176E-08
   26.5499992      -2.83193824E-08
   26.6100006      -2.77893069E-08
   26.6700001      -2.72462568E-08
   26.7299995      -2.66792846E-08
   26.7900009      -2.60809614E-08
   26.8500004      -2.54479868E-08
   26.9099998      -2.47789220E-08
   26.9699993      -2.40705216E-08
   27.0300007      -2.33149819E-08
   27.0900002      -2.25002825E-08
   27.1499996      -2.16143174E-08
   27.2099991      -2.06518269E-08
   27.2700005      -1.96218597E-08
   27.3299999      -1.85529263E-08
   27.3899994      -1.74937345E-08
   27.4500008      -1.65085456E-08
   27.5100002      -1.56677658E-08
   27.5699997      -1.50356030E-08
   27.6299992      -1.46576840E-08
   27.6900005      -1.45517269E-08
   27.7500000      -1.47040415E-08
   27.8099995      -1.50734074E-08
   27.8700008      -1.56020192E-08
   27.9300003      -1.62310698E-08
   27.9899998      -1.69169301E-08
   28.0499992      -1.76433055E-08
   28.1100006      -1.84256841E-08
   28.1700001      -1.93064515E-08
   28.2299995      -2.03419024E-08
   28.2900009      -2.15847091E-08
   28.3500004      -2.30669190E-08
   28.4099998      -2.47883793E-08
   28.4699993      -2.67138311E-08
   28.5300007      -2.87792510E-08
   28.5900002      -3.09050705E-08
   28.6499996      -3.30118013E-08
   28.7099991      -3.50329934E-08
   28.7700005      -3.69218114E-08
   28.8299999      -3.86501675E-08
   28.8899994      -4.02023055E-08
   28.9500008      -4.15667643E-08
   29.0100002      -4.27306759E-08
   29.0699997      -4.36787708E-08
   29.1299992      -4.43969554E-08
   29.1900005      -4.48782345E-08
   29.2500000      -4.51278872E-08
   29.3099995      -4.51657023E-08
   29.3700008      -4.50244038E-08
   29.4300003      -4.47448230E-08
   29.4899998      -4.43691199E-08
   29.5499992      -4.39334471E-08
   29.6100006      -4.34613199E-08
   29.6700001      -4.29590656E-08
   29.7299995      -4.24147721E-08
   29.7900009      -4.18017976E-08
   29.8500004      -4.10866861E-08
   29.9099998      -4.02396338E-08
   29.9699993      -3.92441457E-08
   30.0300007      -3.81022396E-08
   30.0900002      -3.68331676E-08
   30.1499996      -3.54661047E-08
   30.2099991      -3.40301121E-08
   30.2700005      -3.25454721E-08
   30.3299999      -3.10196384E-08
   30.3899994      -2.94486924E-08
   30.4500008      -2.78223613E-08
   30.5100002      -2.61296762E-08
   30.5699997      -2.43626204E-08
   30.6299992      -2.25171171E-08
   30.6900005      -2.05923651E-08
   30.7500000      -1.85904341E-08
   30.8099995      -1.65173795E-08
   30.8700008      -1.43856589E-08
   30.9300003      -1.22163124E-08
   30.9899998      -1.00391180E-08
   31.0499992      -7.88967203E-09
   31.1100006      -5.80399817E-09
   31.1700001      -3.81259557E-09
   31.2299995      -1.93634575E-09
   31.2900009      -1.86062804E-10
   31.3500004       1.43395773E-09
   31.4099998       2.91966917E-09
   31.4699993       4.26067626E-09
   31.5300007       5.43589662E-09
   31.5900002       6.41329567E-09
   31.6499996       7.15405291E-09
   31.7099991       7.61999353E-09
   31.7700005       7.78202214E-09
   31.8299999       7.62710695E-09
   31.8899994       7.16198523E-09
   31.9500008       6.41288711E-09
   32.0099983       5.42169287E-09
   32.0699997       4.23962998E-09
   32.1300011       2.91986368E-09
   32.1899986       1.51029922E-09
   32.2500000       4.79316517E-11
   32.3100014      -1.44388324E-09
   32.3699989      -2.95404767E-09
   32.4300003      -4.47787230E-09
   32.4900017      -6.00796080E-09
   32.5499992      -7.52487495E-09
   32.6100006      -8.99170427E-09
   32.6699982      -1.03561124E-08
   32.7299995      -1.15608607E-08
   32.7900009      -1.25601840E-08
   32.8499985      -1.33361944E-08
   32.9099998      -1.39085650E-08
   32.9700012      -1.43327670E-08
   33.0299988      -1.46864831E-08
   33.0900002      -1.50486414E-08
   33.1500015      -1.54785553E-08
   33.2099991      -1.60026961E-08
   33.2700005      -1.66136385E-08
   33.3300018      -1.72809997E-08
   33.3899994      -1.79699455E-08
   33.4500008      -1.86603444E-08
   33.5099983      -1.93596676E-08
   33.5699997      -2.01050518E-08
   33.6300011      -2.09535198E-08
   33.6899986      -2.19631122E-08
   33.7500000      -2.31708270E-08
   33.8100014      -2.45747085E-08
   33.8699989      -2.61266653E-08
   33.9300003      -2.77395724E-08
   33.9900017      -2.93074347E-08
   34.0499992      -3.07326680E-08
   34.1100006      -3.19515010E-08
   34.1699982      -3.29489680E-08
   34.2299995      -3.37586421E-08
   34.2900009      -3.44481457E-08
   34.3499985      -3.50963987E-08
   34.4099998      -3.57711407E-08
   34.4700012      -3.65138533E-08
   34.5299988      -3.73354005E-08
   34.5900002      -3.82213017E-08
   34.6500015      -3.91426624E-08
   34.7099991      -4.00682332E-08
   34.7700005      -4.09743315E-08
   34.8300018      -4.18510133E-08
   34.8899994      -4.27039630E-08
   34.9500008      -4.35519141E-08
   35.0099983      -4.44198243E-08
   35.0699997      -4.53287505E-08
   35.1300011      -4.62851659E-08
   35.1899986      -4.72734278E-08
   35.2500000      -4.82553020E-08
   35.3100014      -4.91779488E-08
   35.3699989      -4.99886532E-08
   35.4300003      -5.06511917E-08
   35.4900017      -5.11575955E-08
   35.5499992      -5.15302752E-08
   35.6100006      -5.18132168E-08
   35.6699982      -5.20549186E-08
   35.7299995      -5.22892236E-08
   35.7900009      -5.25208641E-08
   35.8499985      -5.27214041E-08
   35.9099998      -5.28376525E-08
   35.9700012      -5.28106590E-08
   36.0299988      -5.25994217E-08
   36.0900002      -5.22013472E-08
   36.1500015      -5.16618250E-08
   36.2099991      -5.10683194E-08
   36.2700005      -5.05295432E-08
   36.3300018      -5.01457258E-08
   36.3899994      -4.99796009E-08
   36.4500008      -5.00379507E-08
   36.5099983      -5.02698256E-08
   36.5699997      -5.05815976E-08
   36.6300011      -5.08630116E-08
   36.6899986      -5.10149931E-08
   36.7500000      -5.09704101E-08
   36.8100014      -5.07024573E-08
   36.8699989      -5.02204323E-08
   36.9300003      -4.95569026E-08
   36.9900017      -4.87522414E-08
   37.0499992      -4.78421178E-08
   37.1100006      -4.68513335E-08
   37.1699982      -4.57946818E-08
   37.2299995      -4.46829880E-08
   37.2900009      -4.35312195E-08
   37.3499985      -4.23651407E-08
   37.4099998      -4.12238492E-08
   37.4700012      -4.01571931E-08
   37.5299988      -3.92190316E-08
   37.5900002      -3.84588787E-08
   37.6500015      -3.79151004E-08
   37.7099991      -3.76119651E-08
   37.7700005      -3.75609943E-08
   37.8300018      -3.77651901E-08
   37.8899994      -3.82232805E-08
   37.9500008      -3.89315460E-08
   38.0099983      -3.98820674E-08
   38.0699997      -4.10582857E-08
   38.1300011      -4.24302797E-08
   38.1899986      -4.39524968E-08
   38.2500000      -4.55660221E-08
   38.3100014      -4.72054538E-08
   38.3699989      -4.88089071E-08
   38.4300003      -5.03279622E-08
   38.4900017      -5.17343643E-08
   38.5499992      -5.30211217E-08
   38.6100006      -5.41975460E-08
   38.6699982      -5.52801218E-08
   38.7299995      -5.62825875E-08
   38.7900009      -5.72089505E-08
   38.8499985      -5.80516861E-08
   38.9099998      -5.87951483E-08
   38.9700012      -5.94220069E-08
   39.0299988      -5.99198557E-08
   39.0900002      -6.02856502E-08
   39.1500015      -6.05274550E-08
   39.2099991      -6.06642772E-08
   39.2700005      -6.07249149E-08
   39.3300018      -6.07459540E-08
   39.3899994      -6.07678388E-08
   39.4500008      -6.08281283E-08
   39.5099983      -6.09523028E-08
   39.5699997      -6.11450872E-08
   39.6300011      -6.13860607E-08
   39.6899986      -6.16326048E-08
   39.7500000      -6.18304057E-08
   39.8100014      -6.19278993E-08
   39.8699989      -6.18890823E-08
   39.9300003      -6.16998364E-08
   39.9900017      -6.13660021E-08
   40.0499992      -6.09049877E-08
   40.1100006      -6.03353598E-08
   40.1699982      -5.96685510E-08
   40.2299995      -5.89053251E-08
   40.2900009      -5.80372053E-08
   40.3499985      -5.70518068E-08
   40.4099998      -5.59403972E-08
   40.4700012      -5.47060495E-08
   40.5299988      -5.33704032E-08
   40.5900002      -5.19764924E-08
   40.6500015      -5.05853421E-08
   40.7099991      -4.92654770E-08
   40.7700005      -4.80775100E-08
   40.8300018      -4.70588652E-08
   40.8899994      -4.62148044E-08
   40.9500008      -4.55198332E-08
   41.0099983      -4.49294681E-08
   41.0699997      -4.43976695E-08
   41.1300011      -4.38929852E-08
   41.1899986      -4.34073542E-08
   41.2500000      -4.29551008E-08
   41.3100014      -4.25639435E-08
   41.3699989      -4.22624389E-08
   41.4300003      -4.20686455E-08
   41.4900017      -4.19833484E-08
   41.5499992      -4.19888195E-08
   41.6100006      -4.20527684E-08
   41.6699982      -4.21359871E-08
   41.7299995      -4.22019220E-08
   41.7900009      -4.22258282E-08
   41.8499985      -4.22012327E-08
   41.9099998      -4.21418171E-08
   41.9700012      -4.20783444E-08
   42.0299988      -4.20519086E-08
   42.0900002      -4.21060555E-08
   42.1500015      -4.22799395E-08
   42.2099991      -4.26033857E-08
   42.2700005      -4.30932801E-08
   42.3300018      -4.37503260E-08
   42.3899994      -4.45563941E-08
   42.4500008      -4.54742164E-08
   42.5099983      -4.64519339E-08
   42.5699997      -4.74334279E-08
   42.6300011      -4.83724065E-08
   42.6899986      -4.92452834E-08
   42.7500000      -5.00570074E-08
   42.8100014      -5.08363591E-08
   42.8699989      -5.16216225E-08
   42.9300003      -5.24418660E-08
   42.9900017      -5.33013065E-08
   43.0499992      -5.41730358E-08
   43.1100006      -5.50049286E-08
   43.1699982      -5.57360060E-08
   43.2299995      -5.63181075E-08
   43.2900009      -5.67359955E-08
   43.3499985      -5.70191325E-08
   43.4099998      -5.72405590E-08
   43.4700012      -5.75014241E-08
   43.5299988      -5.79041632E-08
   43.5900002      -5.85215183E-08
   43.6500015      -5.93714233E-08
   43.7099991      -6.04072170E-08
   43.7700005      -6.15283611E-08
   43.8300018      -6.26095158E-08
   43.8899994      -6.35386357E-08
   43.9500008      -6.42506066E-08
   44.0099983      -6.47444409E-08
   44.0699997      -6.50781544E-08
   44.1300011      -6.53442314E-08
   44.1899986      -6.56357884E-08
   44.2500000      -6.60158648E-08
   44.3100014      -6.65002915E-08
   44.3699989      -6.70580178E-08
   44.4300003      -6.76265799E-08
   44.4900017      -6.81352219E-08
   44.5499992      -6.85269299E-08
   44.6100006      -6.87724651E-08
   44.6699982      -6.88730353E-08
   44.7299995      -6.88527138E-08
   44.7900009      -6.87447468E-08
   44.8499985      -6.85778474E-08
   44.9099998      -6.83675623E-08
   44.9700012      -6.81154475E-08
   45.0299988      -6.78150585E-08
   45.0900002      -6.74609169E-08
   45.1500015      -6.70553320E-08
   45.2099991      -6.66096867E-08
   45.2700005      -6.61400534E-08
   45.3300018      -6.56599966E-08
   45.3899994      -6.51750227E-08
   45.4500008      -6.46816787E-08
   45.5099983      -6.41711395E-08
   45.5699997      -6.36346442E-08
   45.6300011      -6.30669916E-08
   45.6899986      -6.24662775E-08
   45.7500000      -6.18308178E-08
   45.8100014      -6.11562854E-08
   45.8699989      -6.04359656E-08
   45.9300003      -5.96645080E-08
   45.9900017      -5.88429536E-08
   46.0499992      -5.79817296E-08
   46.1100006      -5.70992000E-08
   46.1699982      -5.62163933E-08
   46.2299995      -5.53509061E-08
   46.2900009      -5.45133254E-08
   46.3499985      -5.37081206E-08
   46.4099998      -5.29379172E-08
   46.4700012      -5.22081685E-08
   46.5299988      -5.15292840E-08
   46.5900002      -5.09147604E-08
   46.6500015      -5.03764994E-08
   46.7099991      -4.99197768E-08
   46.7700005      -4.95405033E-08
   46.8300018      -4.92260774E-08
   46.8899994      -4.89593965E-08
   46.9500008      -4.87243312E-08
   47.0099983      -4.85104401E-08
   47.0699997      -4.83152931E-08
   47.1300011      -4.81437787E-08
   47.1899986      -4.80051021E-08
   47.2500000      -4.79092428E-08
   47.3100014      -4.78647308E-08
   47.3699989      -4.78786930E-08
   47.4300003      -4.79586397E-08
   47.4900017      -4.81139040E-08
   47.5499992      -4.83546252E-08
   47.6100006      -4.86876317E-08
   47.6699982      -4.91109944E-08
   47.7299995      -4.96107937E-08
   47.7900009      -5.01634432E-08
   47.8499985      -5.07443261E-08
   47.9099998      -5.13399385E-08
   47.9700012      -5.19586258E-08
   48.0299988      -5.26350270E-08
   48.0900002      -5.34264402E-08
   48.1500015      -5.44026904E-08
   48.2099991      -5.56338975E-08
   48.2700005      -5.71804080E-08
   48.3300018      -5.90877569E-08
   48.3899994      -6.13870981E-08
   48.4500008      -6.41005258E-08
   48.5099983      -6.72501201E-08
   48.5699997      -7.08699801E-08
   48.6300011      -7.50198481E-08
   48.6899986      -7.97981841E-08
   48.7500000      -8.53513029E-08
   48.8100014      -9.18758829E-08
   48.8699989      -9.96135654E-08
   48.9300003      -1.08839515E-07
   48.9900017      -1.19849872E-07
   49.0499992      -1.32954412E-07
   49.1100006      -1.48480254E-07
   49.1699982      -1.66788837E-07
   49.2299995      -1.88304710E-07
   49.2900009      -2.13549328E-07
   49.3499985      -2.43170405E-07
   49.4099998      -2.77959401E-07
   49.4700012      -3.18852813E-07
   49.5299988      -3.66922507E-07
   49.5900002      -4.23363559E-07
   49.6500015      -4.89492209E-07
   49.7099991      -5.66761628E-07
   49.7700005      -6.56794384E-07
   49.8300018      -7.61425270E-07
   49.8899994      -8.82743734E-07
   49.9500008      -1.02312879E-06
   50.0099983      -1.18527669E-06
   50.0699997      -1.37222560E-06
   50.1300011      -1.58738203E-06
   50.1899986      -1.83455052E-06
   50.2500000      -2.11796441E-06
   50.3100014      -2.44231251E-06
   50.3699989      -2.81276152E-06
   50.4300003      -3.23497807E-06
   50.4900017      -3.71516126E-06
   50.5499992      -4.26008637E-06
   50.6100006      -4.87716443E-06