  -2.400000      0.0000000E+00
  -2.340000      0.0000000E+00
  -2.280000      0.0000000E+00
  -2.220000      0.0000000E+00
  -2.160000      0.0000000E+00
  -2.100000      0.0000000E+00
  -2.040000      0.0000000E+00
  -1.980000      0.0000000E+00
  -1.920000      0.0000000E+00
  -1.860000      0.0000000E+00
  -1.800000      0.0000000E+00
  -1.740000      0.0000000E+00
  -1.680000      0.0000000E+00
  -1.620000      1.2022409E-34
  -1.560000      2.0123508E-33
  -1.500000      1.6217393E-32
  -1.440000      8.0891297E-32
  -1.380000      2.5758013E-31
  -1.320000      3.9425852E-31
  -1.260000     -8.9811417E-31
  -1.200000     -8.5160259E-30
  -1.140000     -3.2013090E-29
  -1.080000     -7.4024056E-29
  -1.020000     -8.0814584E-29
 -0.9600000      1.6095925E-28
 -0.9000000      1.0956914E-27
 -0.8400000      3.0926647E-27
 -0.7800000      5.1354883E-27
 -0.7200000      2.2466173E-27
 -0.6600000     -1.6402714E-26
 -0.6000000     -6.2240676E-26
 -0.5400000     -1.2503776E-25
 -0.4800000     -1.3155130E-25
 -0.4200000      8.5253307E-26
 -0.3600000      7.2383835E-25
 -0.3000000      1.7500120E-24
 -0.2400000      2.4261975E-24
 -0.1800000      9.5420023E-25
 -0.1200000     -4.9923910E-24
 -5.9999999E-02 -1.5943560E-23
  0.0000000E+00 -2.6585158E-23
  5.9999999E-02 -2.2581661E-23
  0.1200000      1.6067244E-23
  0.1800000      9.9150589E-23
  0.2400000      1.9877395E-22
  0.3000000      2.2683558E-22
  0.3600000      5.0884375E-23
  0.4200000     -4.1873232E-22
  0.4800000     -1.0767979E-21
  0.5400000     -1.4925744E-21
  0.6000000     -9.6550274E-22
  0.6600000      1.0784319E-21
  0.7200000      4.3809089E-21
  0.7800000      7.2163269E-21
  0.8400000      6.5259845E-21
  0.9000000     -5.4649926E-22
  0.9600000     -1.3836798E-20
   1.020000     -2.7507258E-20
   1.080000     -3.0156032E-20
   1.140000     -1.0000676E-20
   1.200000      3.5204842E-20
   1.260000      8.8381172E-20
   1.320000      1.1209769E-19
   1.380000      6.4022901E-20
   1.440000     -7.1763734E-20
   1.500000     -2.5211731E-19
   1.560000     -3.6687438E-19
   1.620000     -2.7940251E-19
   1.680000      8.3942205E-20
   1.740000      6.3416469E-19
   1.800000      1.0815461E-18
   1.860000      1.0275187E-18
   1.920000      1.9577146E-19
   1.980000     -1.2895080E-18
   2.040000     -2.7595686E-18
   2.100000     -3.1742992E-18
   2.160000     -1.6608741E-18
   2.220000      1.7772561E-18
   2.280000      5.8032246E-18
   2.340000      7.9986603E-18
   2.400000      6.0028468E-18
   2.460000     -8.2772257E-19
   2.520000     -1.0153568E-17
   2.580000     -1.6854106E-17
   2.640000     -1.5248972E-17
   2.700000     -2.7398916E-18
   2.760000      1.6986652E-17
   2.820000      3.3601483E-17
   2.880000      3.4162573E-17
   2.940000      1.0776067E-17
   3.000000     -3.1667895E-17
   3.060000     -7.2868570E-17
   3.120000     -8.3647693E-17
   3.180000     -4.1381642E-17
   3.240000      5.1905560E-17
   3.300000      1.5945240E-16
   3.360000      2.1770056E-16
   3.420000      1.6494341E-16
   3.480000     -1.8706961E-17
   3.540000     -2.8043130E-16
   3.600000     -4.9589427E-16
   3.660000     -5.1483875E-16
   3.720000     -2.4099011E-16
   3.780000      2.8860377E-16
   3.840000      8.7256580E-16
   3.900000      1.1991700E-15
   3.960000      9.8494240E-16
   4.020000      1.4761562E-16
   4.080000     -1.0744972E-15
   4.140000     -2.1438353E-15
   4.200000     -2.4212676E-15
   4.260000     -1.4870375E-15
   4.320000      5.5492554E-16
   4.380000      2.9641467E-15
   4.440000      4.5646360E-15
   4.500000      4.2460013E-15
   4.560000      1.5819512E-15
   4.620000     -2.7342891E-15
   4.680000     -6.9260999E-15
   4.740000     -8.7581640E-15
   4.800000     -6.5845893E-15
   4.860000     -3.8330128E-16
   4.920000      7.7746274E-15
   4.980000      1.4225095E-14
   5.040000      1.5184160E-14
   5.100000      8.6859341E-15
   5.160000     -3.9062792E-15
   5.220000     -1.7724420E-14
   5.280000     -2.6006185E-14
   5.340000     -2.3120743E-14
   5.400000     -7.7907549E-15
   5.460000      1.5137261E-14
   5.520000      3.5686799E-14
   5.580000      4.2693530E-14
   5.640000      2.9352897E-14
   5.700000     -2.1723045E-15
   5.760000     -3.9766079E-14
   5.820000     -6.5393620E-14
   5.880000     -6.3192229E-14
   5.940000     -2.8242394E-14
   6.000000      2.8504105E-14
   6.060000      8.2609307E-14
   6.120000      1.0613613E-13
   6.180000      8.1491895E-14
   6.240000      1.2531694E-14
   6.300000     -7.3524174E-14
   6.360000     -1.3612279E-13
   6.420000     -1.4023206E-13
   6.480000     -7.5579232E-14
   6.540000      3.3884174E-14
   6.600000      1.3701385E-13
   6.660000      1.7809307E-13
   6.720000      1.2570511E-13
   6.780000     -6.3356849E-15
   6.840000     -1.5833537E-13
   6.900000     -2.4808871E-13
   6.960000     -2.1013834E-13
   7.020000     -3.3363205E-14
   7.080000      2.2250504E-13
   7.140000      4.4313397E-13
   7.200000      5.0571521E-13
   7.260000      3.3699497E-13
   7.320000     -4.2933020E-14
   7.380000     -5.1373944E-13
   7.440000     -8.9283312E-13
   7.500000     -1.0061097E-12
   7.560000     -7.6302392E-13
   7.620000     -2.0291390E-13
   7.680000      5.1017415E-13
   7.740000      1.1452618E-12
   7.800000      1.4922095E-12
   7.860000      1.4420672E-12
   7.920000      1.0243166E-12
   7.980000      3.8390859E-13
   8.040000     -2.9117602E-13
   8.100000     -8.5677152E-13
   8.160000     -1.2699125E-12
   8.220000     -1.5852572E-12
   8.280000     -1.8884295E-12
   8.340000     -2.1977743E-12
   8.400000     -2.3877339E-12
   8.460000     -2.1847936E-12
   8.520000     -1.2588207E-12
   8.580000      6.1122911E-13
   8.640000      3.3591960E-12
   8.700000      6.5220073E-12
   8.760000      9.2647478E-12
   8.820000      1.0561743E-11
   8.880000      9.4951399E-12
   8.940000      5.5815743E-12
   9.000000     -9.8316591E-13
   9.060000     -9.2522908E-12
   9.120000     -1.7666098E-11
   9.180000     -2.4368729E-11
   9.240000     -2.7614548E-11
   9.300000     -2.6149631E-11
   9.360000     -1.9469348E-11
   9.420000     -7.9025640E-12
   9.480000      7.4638290E-12
   9.540000      2.4955317E-11
   9.600000      4.2492738E-11
   9.660000      5.7729002E-11
   9.720000      6.8135442E-11
   9.780000      7.1095137E-11
   9.840000      6.4096686E-11
   9.900000      4.5108920E-11
   9.960000      1.3148687E-11
   10.02000     -3.1050051E-11
   10.08000     -8.4454541E-11
   10.14000     -1.4147038E-10
   10.20000     -1.9418189E-10
   10.26000     -2.3314409E-10
   10.32000     -2.4858954E-10
   10.38000     -2.3175106E-10
   10.44000     -1.7593571E-10
   10.50000     -7.7057596E-11
   10.56000      6.6464750E-11
   10.62000      2.5429420E-10
   10.68000      4.8489723E-10
   10.74000      7.5600864E-10
   10.80000      1.0645758E-09
   10.86000      1.4061761E-09
   10.92000      1.7741717E-09
   10.98000      2.1590136E-09
   11.04000      2.5480515E-09
   11.10000      2.9259786E-09
   11.16000      3.2757184E-09
   11.22000      3.5793697E-09
   11.28000      3.8188124E-09
   11.34000      3.9758392E-09
   11.40000      4.0320658E-09
   11.46000      3.9691748E-09
   11.52000      3.7701247E-09
   11.58000      3.4216507E-09
   11.64000      2.9178220E-09
   11.70000      2.2638114E-09
   11.76000      1.4786330E-09
   11.82000      5.9562727E-10
   11.88000     -3.4004571E-10
   11.94000     -1.2768558E-09
   12.00000     -2.1644204E-09
   12.06000     -2.9616385E-09
   12.12000     -3.6438390E-09
   12.18000     -4.2076169E-09
   12.24000     -4.6726187E-09
   12.30000     -5.0801723E-09
   12.36000     -5.4891505E-09
   12.42000     -5.9696994E-09
   12.48000     -6.5954593E-09
   12.54000     -7.4347892E-09
   12.60000     -8.5414689E-09
   12.66000     -9.9454889E-09
   12.72000     -1.1644876E-08
   12.78000     -1.3599938E-08
   12.84000     -1.5731523E-08
   12.90000     -1.7924769E-08
   12.96000     -2.0039087E-08
   13.02000     -2.1923857E-08
   13.08000     -2.3437959E-08
   13.14000     -2.4469891E-08
   13.20000     -2.4954735E-08
   13.26000     -2.4884489E-08
   13.32000     -2.4309564E-08
   13.38000     -2.3331108E-08
   13.44000     -2.2085800E-08
   13.50000     -2.0726153E-08
   13.56000     -1.9400026E-08
   13.62000     -1.8232759E-08
   13.68000     -1.7314180E-08
   13.74000     -1.6691574E-08
   13.80000     -1.6368455E-08
   13.86000     -1.6308327E-08
   13.92000     -1.6442501E-08
   13.98000     -1.6680977E-08
   14.04000     -1.6925631E-08
   14.10000     -1.7084544E-08
   14.16000     -1.7085977E-08
   14.22000     -1.6889871E-08
   14.28000     -1.6494488E-08
   14.34000     -1.5936385E-08
   14.40000     -1.5283028E-08
   14.46000     -1.4619199E-08
   14.52000     -1.4030011E-08
   14.58000     -1.3584438E-08
   14.64000     -1.3323128E-08
   14.70000     -1.3253038E-08
   14.76000     -1.3349391E-08
   14.82000     -1.3563396E-08
   14.88000     -1.3832760E-08
   14.94000     -1.4091829E-08
   15.00000     -1.4278998E-08
   15.06000     -1.4340608E-08
   15.12000     -1.4232059E-08
   15.18000     -1.3917790E-08
   15.24000     -1.3371780E-08
   15.30000     -1.2579406E-08
   15.36000     -1.1540297E-08
   15.42000     -1.0270776E-08
   15.48000     -8.8041388E-09
   15.54000     -7.1874213E-09
   15.60000     -5.4745901E-09
   15.66000     -3.7174985E-09
   15.72000     -1.9571138E-09
   15.78000     -2.1782869E-10
   15.84000      1.4931326E-09
   15.90000      3.1808722E-09
   15.96000      4.8541975E-09
   16.02000      6.5163821E-09
   16.08000      8.1588558E-09
   16.14000      9.7603570E-09
   16.20000      1.1292027E-08
   16.26000      1.2726584E-08
   16.32000      1.4048076E-08
   16.38000      1.5258376E-08
   16.44000      1.6377818E-08
   16.50000      1.7439518E-08
   16.56000      1.8479261E-08
   16.62000      1.9524354E-08
   16.68000      2.0585095E-08
   16.74000      2.1651337E-08
   16.80000      2.2694838E-08
   16.86000      2.3676092E-08
   16.92000      2.4553197E-08
   16.98000      2.5290113E-08
   17.04000      2.5862505E-08
   17.10000      2.6260526E-08
   17.16000      2.6489120E-08
   17.22000      2.6566809E-08
   17.28000      2.6523768E-08
   17.34000      2.6399302E-08
   17.40000      2.6238215E-08
   17.46000      2.6085486E-08
   17.52000      2.5979421E-08
   17.58000      2.5944523E-08
   17.64000      2.5986173E-08
   17.70000      2.6089461E-08
   17.76000      2.6223248E-08
   17.82000      2.6348706E-08
   17.88000      2.6429573E-08
   17.94000      2.6440354E-08
   18.00000      2.6369301E-08
   18.06000      2.6215133E-08
   18.12000      2.5979302E-08
   18.18000      2.5657869E-08
   18.24000      2.5237508E-08
   18.30000      2.4698533E-08
   18.36000      2.4024530E-08
   18.42000      2.3214698E-08
   18.48000      2.2292918E-08
   18.54000      2.1307972E-08
   18.60000      2.0322480E-08
   18.66000      1.9392701E-08
   18.72000      1.8545760E-08
   18.78000      1.7762945E-08
   18.84000      1.6976555E-08
   18.90000      1.6083453E-08
   18.96000      1.4972471E-08
   19.02000      1.3557551E-08
   19.08000      1.1805843E-08
   19.14000      9.7513064E-09
   19.20000      7.4890227E-09
   19.26000      5.1518625E-09
   19.32000      2.8769604E-09
   19.38000      7.7249884E-10
   19.44000     -1.1052372E-09
   19.50000     -2.7584379E-09
   19.56000     -4.2374730E-09
   19.62000     -5.6185194E-09
   19.68000     -6.9772357E-09
   19.74000     -8.3670146E-09
   19.80000     -9.8080051E-09
   19.86000     -1.1288960E-08
   19.92000     -1.2779561E-08
   19.98000     -1.4247526E-08
   20.04000     -1.5673642E-08
   20.10000     -1.7059074E-08
   20.16000     -1.8422483E-08
   20.22000     -1.9788381E-08
   20.28000     -2.1171621E-08
   20.34000     -2.2564389E-08
   20.40000     -2.3931261E-08
   20.46000     -2.5214932E-08
   20.52000     -2.6351302E-08
   20.58000     -2.7288968E-08
   20.64000     -2.8006516E-08
   20.70000     -2.8521491E-08
   20.76000     -2.8887737E-08
   20.82000     -2.9181640E-08
   20.88000     -2.9481464E-08
   20.94000     -2.9846138E-08
   21.00000     -3.0299976E-08
   21.06000     -3.0827920E-08
   21.12000     -3.1382456E-08
   21.18000     -3.1899880E-08
   21.24000     -3.2320788E-08
   21.30000     -3.2608444E-08
   21.36000     -3.2759583E-08
   21.42000     -3.2804596E-08
   21.48000     -3.2797370E-08
   21.54000     -3.2798209E-08
   21.60000     -3.2855109E-08
   21.66000     -3.2988982E-08
   21.72000     -3.3186829E-08
   21.78000     -3.3404508E-08
   21.84000     -3.3577781E-08
   21.90000     -3.3638329E-08
   21.96000     -3.3530295E-08
   22.02000     -3.3223365E-08
   22.08000     -3.2719438E-08
   22.14000     -3.2052053E-08
   22.20000     -3.1279548E-08
   22.26000     -3.0474347E-08
   22.32000     -2.9711469E-08
   22.38000     -2.9058800E-08
   22.44000     -2.8570662E-08
   22.50000     -2.8284616E-08
   22.56000     -2.8220480E-08
   22.62000     -2.8380359E-08
   22.68000     -2.8749113E-08
   22.74000     -2.9295773E-08
   22.80000     -2.9976984E-08
   22.86000     -3.0743287E-08
   22.92000     -3.1547561E-08
   22.98000     -3.2353558E-08
   23.04000     -3.3141479E-08
   23.10000     -3.3908169E-08
   23.16000     -3.4661298E-08
   23.22000     -3.5409496E-08
   23.28000     -3.6151960E-08
   23.34000     -3.6871434E-08
   23.40000     -3.7533134E-08
   23.46000     -3.8089816E-08
   23.52000     -3.8491248E-08
   23.58000     -3.8695099E-08
   23.64000     -3.8676340E-08
   23.70000     -3.8433164E-08
   23.76000     -3.7988357E-08
   23.82000     -3.7386251E-08
   23.88000     -3.6685748E-08
   23.94000     -3.5950784E-08
   24.00000     -3.5239847E-08
   24.06000     -3.4596717E-08
   24.12000     -3.4044437E-08
   24.18000     -3.3583831E-08
   24.24000     -3.3196731E-08
   24.30000     -3.2852835E-08
   24.36000     -3.2518130E-08
   24.42000     -3.2162841E-08
   24.48000     -3.1767108E-08
   24.54000     -3.1323530E-08
   24.60000     -3.0836429E-08
   24.66000     -3.0318422E-08
   24.72000     -2.9785296E-08
   24.78000     -2.9250579E-08
   24.84000     -2.8721292E-08
   24.90000     -2.8196164E-08
   24.96000     -2.7666792E-08
   25.02000     -2.7121215E-08
   25.08000     -2.6548282E-08
   25.14000     -2.5940830E-08
   25.20000     -2.5296249E-08
   25.26000     -2.4614238E-08
   25.32000     -2.3893092E-08
   25.38000     -2.3126754E-08
   25.44000     -2.2304707E-08
   25.50000     -2.1415630E-08
   25.56000     -2.0454086E-08
   25.62000     -1.9428054E-08
   25.68000     -1.8364583E-08
   25.74000     -1.7311145E-08
   25.80000     -1.6331496E-08
   25.86000     -1.5496399E-08
   25.92000     -1.4871048E-08
   25.98000     -1.4502171E-08
   26.04000     -1.4408209E-08
   26.10000     -1.4575541E-08
   26.16000     -1.4962394E-08
   26.22000     -1.5510059E-08
   26.28000     -1.6158825E-08
   26.34000     -1.6864403E-08
   26.40000     -1.7610128E-08
   26.46000     -1.8411244E-08
   26.52000     -1.9309784E-08
   26.58000     -2.0361417E-08
   26.64000     -2.1617975E-08
   26.70000     -2.3110708E-08
   26.76000     -2.4839046E-08
   26.82000     -2.6767923E-08
   26.88000     -2.8834023E-08
   26.94000     -3.0958685E-08
   27.00000     -3.3063088E-08
   27.06000     -3.5081005E-08
   27.12000     -3.6965478E-08
   27.18000     -3.8688331E-08
   27.24000     -4.0234120E-08
   27.30000     -4.1592148E-08
   27.36000     -4.2750472E-08
   27.42000     -4.3694374E-08
   27.48000     -4.4409571E-08
   27.54000     -4.4888093E-08
   27.60000     -4.5133959E-08
   27.66000     -4.5165987E-08
   27.72000     -4.5016645E-08
   27.78000     -4.4727290E-08
   27.84000     -4.4341103E-08
   27.90000     -4.3895444E-08
   27.96000     -4.3415049E-08
   28.02000     -4.2907448E-08
   28.08000     -4.2361808E-08
   28.14000     -4.1752180E-08
   28.20000     -4.1044984E-08
   28.26000     -4.0209194E-08
   28.32000     -3.9226116E-08
   28.38000     -3.8095283E-08
   28.44000     -3.6834031E-08
   28.50000     -3.5470840E-08
   28.56000     -3.4035338E-08
   28.62000     -3.2549135E-08
   28.68000     -3.1021163E-08
   28.74000     -2.9448746E-08
   28.80000     -2.7822706E-08
   28.86000     -2.6133311E-08
   28.92000     -2.4373985E-08
   28.98000     -2.2541826E-08
   29.04000     -2.0636186E-08
   29.10000     -1.8657714E-08
   29.16000     -1.6609608E-08
   29.22000     -1.4500971E-08
   29.28000     -1.2350228E-08
   29.34000     -1.0186111E-08
   29.40000     -8.0447435E-09
   29.46000     -5.9634644E-09
   29.52000     -3.9738910E-09
   29.58000     -2.0972812E-09
   29.64000     -3.4422862E-10
   29.70000      1.2812021E-09
   29.76000      2.7747207E-09
   29.82000      4.1252064E-09
   29.88000      5.3108002E-09
   29.94000      6.2990999E-09
   30.00000      7.0514052E-09
   30.06000      7.5297777E-09
   30.12000      7.7049753E-09
   30.18000      7.5632656E-09
   30.24000      7.1104567E-09
   30.30000      6.3722214E-09
   30.36000      5.3906044E-09
   30.42000      4.2174952E-09
   30.48000      2.9065172E-09
   30.54000      1.5051606E-09
   30.60000      4.9024312E-11
   30.66000     -1.4402968E-09
   30.72000     -2.9528819E-09
   30.78000     -4.4839963E-09
   30.84000     -6.0251133E-09
   30.90000     -7.5553857E-09
   30.96000     -9.0371355E-09
   31.02000     -1.0418243E-08
   31.08000     -1.1642174E-08
   31.14000     -1.2663312E-08
   31.20000     -1.3462465E-08
   31.26000     -1.4056414E-08
   31.32000     -1.4496936E-08
   31.38000     -1.4858518E-08
   31.44000     -1.5218573E-08
   31.50000     -1.5637127E-08
   31.56000     -1.6143364E-08
   31.62000     -1.6733742E-08
   31.68000     -1.7381899E-08
   31.74000     -1.8056157E-08
   31.80000     -1.8737849E-08
   31.86000     -1.9433717E-08
   31.92000     -2.0177998E-08
   31.98000     -2.1023304E-08
   32.04000     -2.2023078E-08
   32.10000     -2.3211191E-08
   32.16000     -2.4585299E-08
   32.22000     -2.6100029E-08
   32.28000     -2.7673208E-08
   32.34000     -2.9204294E-08
   32.40000     -3.0599825E-08
   32.46000     -3.1797722E-08
   32.52000     -3.2782324E-08
   32.58000     -3.3585192E-08
   32.64000     -3.4271896E-08
   32.70000     -3.4920163E-08
   32.76000     -3.5597452E-08
   32.82000     -3.6345273E-08
   32.88000     -3.7174118E-08
   32.94000     -3.8068450E-08
   33.00000     -3.8997992E-08
   33.06000     -3.9930566E-08
   33.12000     -4.0842654E-08
   33.18000     -4.1725688E-08
   33.24000     -4.2587359E-08
   33.30000     -4.3448082E-08
   33.36000     -4.4333227E-08
   33.42000     -4.5262670E-08
   33.48000     -4.6240391E-08
   33.54000     -4.7247877E-08
   33.60000     -4.8244601E-08
   33.66000     -4.9176748E-08
   33.72000     -4.9992060E-08
   33.78000     -5.0655814E-08
   33.84000     -5.1161742E-08
   33.90000     -5.1533419E-08
   33.96000     -5.1814915E-08
   34.02000     -5.2053831E-08
   34.08000     -5.2282608E-08
   34.14000     -5.2504909E-08
   34.20000     -5.2692275E-08
   34.26000     -5.2792810E-08
   34.32000     -5.2749865E-08
   34.38000     -5.2524900E-08
   34.44000     -5.2117063E-08
   34.50000     -5.1572183E-08
   34.56000     -5.0976944E-08
   34.62000     -5.0438683E-08
   34.68000     -5.0056528E-08
   34.74000     -4.9892989E-08
   34.80000     -4.9955542E-08
   34.86000     -5.0194384E-08
   34.92000     -5.0516899E-08
   34.98000     -5.0813263E-08
   35.04000     -5.0984266E-08
   35.10000     -5.0962328E-08
   35.16000     -5.0720146E-08
   35.22000     -5.0266575E-08
   35.28000     -4.9633677E-08
   35.34000     -4.8861228E-08
   35.40000     -4.7984383E-08
   35.46000     -4.7027914E-08
   35.52000     -4.6007255E-08
   35.58000     -4.4934396E-08
   35.64000     -4.3825306E-08
   35.70000     -4.2705796E-08
   35.76000     -4.1613653E-08
   35.82000     -4.0596301E-08
   35.88000     -3.9704901E-08
   35.94000     -3.8986915E-08
   36.00000     -3.8479676E-08
   36.06000     -3.8207165E-08
   36.12000     -3.8180772E-08
   36.18000     -3.8402980E-08
   36.24000     -3.8871775E-08
   36.30000     -3.9582975E-08
   36.36000     -4.0529081E-08
   36.42000     -4.1694925E-08
   36.48000     -4.3052427E-08
   36.54000     -4.4557627E-08
   36.60000     -4.6152348E-08
   36.66000     -4.7771071E-08
   36.72000     -4.9351240E-08
   36.78000     -5.0843571E-08
   36.84000     -5.2218883E-08
   36.90000     -5.3469222E-08
   36.96000     -5.4603142E-08
   37.02000     -5.5637123E-08
   37.08000     -5.6586288E-08
   37.14000     -5.7457534E-08
   37.20000     -5.8247004E-08
   37.26000     -5.8942085E-08
   37.32000     -5.9526648E-08
   37.38000     -5.9987343E-08
   37.44000     -6.0319017E-08
   37.50000     -6.0528016E-08
   37.56000     -6.0633049E-08
   37.62000     -6.0663673E-08
   37.68000     -6.0657023E-08
   37.74000     -6.0652475E-08
   37.80000     -6.0684684E-08
   37.86000     -6.0775861E-08
   37.92000     -6.0929054E-08
   37.98000     -6.1124950E-08
   38.04000     -6.1324485E-08
   38.10000     -6.1477252E-08
   38.16000     -6.1533854E-08
   38.22000     -6.1457996E-08
   38.28000     -6.1233898E-08
   38.34000     -6.0866199E-08
   38.40000     -6.0373047E-08
   38.46000     -5.9775140E-08
   38.52000     -5.9085636E-08
   38.58000     -5.8304757E-08
   38.64000     -5.7420948E-08
   38.70000     -5.6417804E-08
   38.76000     -5.5284140E-08
   38.82000     -5.4023896E-08
   38.88000     -5.2662596E-08
   38.94000     -5.1248175E-08
   39.00000     -4.9845212E-08
   39.06000     -4.8523198E-08
   39.12000     -4.7341668E-08
   39.18000     -4.6336442E-08
   39.24000     -4.5511715E-08
   39.30000     -4.4841368E-08
   39.36000     -4.4279705E-08
   39.42000     -4.3778059E-08
   39.48000     -4.3301352E-08
   39.54000     -4.2838504E-08
   39.60000     -4.2403244E-08
   39.66000     -4.2025704E-08
   39.72000     -4.1738755E-08
   39.78000     -4.1564491E-08
   39.84000     -4.1505430E-08
   39.90000     -4.1542840E-08
   39.96000     -4.1641766E-08
   40.02000     -4.1760483E-08
   40.08000     -4.1861426E-08
   40.14000     -4.1920547E-08
   40.20000     -4.1932928E-08
   40.26000     -4.1913616E-08
   40.32000     -4.1893916E-08
   40.38000     -4.1914667E-08
   40.44000     -4.2018712E-08
   40.50000     -4.2244363E-08
   40.56000     -4.2620663E-08
   40.62000     -4.3163926E-08
   40.68000     -4.3874767E-08
   40.74000     -4.4735543E-08
   40.80000     -4.5709825E-08
   40.86000     -4.6746109E-08
   40.92000     -4.7787331E-08
   40.98000     -4.8784681E-08
   41.04000     -4.9711275E-08
   41.10000     -5.0569593E-08
   41.16000     -5.1388209E-08
   41.22000     -5.2207703E-08
   41.28000     -5.3060766E-08
   41.34000     -5.3954611E-08
   41.40000     -5.4863310E-08
   41.46000     -5.5733690E-08
   41.52000     -5.6503026E-08
   41.58000     -5.7122204E-08
   41.64000     -5.7576234E-08
   41.70000     -5.7895146E-08
   41.76000     -5.8151265E-08
   41.82000     -5.8442911E-08
   41.88000     -5.8868295E-08
   41.94000     -5.9496610E-08
   42.00000     -6.0344853E-08
   42.06000     -6.1368652E-08
   42.12000     -6.2471706E-08
   42.18000     -6.3532525E-08
   42.24000     -6.4440634E-08
   42.30000     -6.5129974E-08
   42.36000     -6.5597270E-08
   42.42000     -6.5898881E-08
   42.48000     -6.6127477E-08
   42.54000     -6.6378043E-08
   42.60000     -6.6716140E-08
   42.66000     -6.7159533E-08
   42.72000     -6.7677973E-08
   42.78000     -6.8208863E-08
   42.84000     -6.8680933E-08
   42.90000     -6.9036759E-08
   42.96000     -6.9246759E-08
   43.02000     -6.9311703E-08
   43.08000     -6.9255123E-08
   43.14000     -6.9109952E-08
   43.20000     -6.8905265E-08
   43.26000     -6.8657798E-08
   43.32000     -6.8370625E-08
   43.38000     -6.8038361E-08
   43.44000     -6.7655201E-08
   43.50000     -6.7221507E-08
   43.56000     -6.6745656E-08
   43.62000     -6.6240716E-08
   43.68000     -6.5718559E-08
   43.74000     -6.5184999E-08
   43.80000     -6.4638982E-08
   43.86000     -6.4075529E-08
   43.92000     -6.3489971E-08
   43.98000     -6.2880247E-08
   44.04000     -6.2245789E-08
   44.10000     -6.1584238E-08
   44.16000     -6.0889050E-08
   44.22000     -6.0150775E-08
   44.28000     -5.9361923E-08
   44.34000     -5.8522893E-08
   44.40000     -5.7644900E-08
   44.46000     -5.6747790E-08
   44.52000     -5.5853640E-08
   44.58000     -5.4979736E-08
   44.64000     -5.4135061E-08
   44.70000     -5.3321976E-08
   44.76000     -5.2541672E-08
   44.82000     -5.1799557E-08
   44.88000     -5.1106976E-08
   44.94000     -5.0478409E-08
   45.00000     -4.9925788E-08
   45.06000     -4.9453529E-08
   45.12000     -4.9056833E-08
   45.18000     -4.8723834E-08
   45.24000     -4.8439997E-08
   45.30000     -4.8192476E-08
   45.36000     -4.7972950E-08
   45.42000     -4.7778570E-08
   45.48000     -4.7611671E-08
   45.54000     -4.7478672E-08
   45.60000     -4.7388625E-08
   45.66000     -4.7351492E-08
   45.72000     -4.7376645E-08
   45.78000     -4.7472259E-08
   45.84000     -4.7645511E-08
   45.90000     -4.7902748E-08
   45.96000     -4.8248147E-08
   46.02000     -4.8680391E-08
   46.08000     -4.9188984E-08
   46.14000     -4.9753694E-08
   46.20000     -5.0350092E-08
   46.26000     -5.0961198E-08
   46.32000     -5.1590884E-08
   46.38000     -5.2272242E-08
   46.44000     -5.3065651E-08
   46.50000     -5.4046591E-08
   46.56000     -5.5288837E-08
   46.62000     -5.6851118E-08
   46.68000     -5.8773011E-08
   46.74000     -6.1080094E-08
   46.80000     -6.3793941E-08
   46.86000     -6.6941872E-08
   46.92000     -7.0564788E-08
   46.98000     -7.4724973E-08
   47.04000     -7.9516681E-08
   47.10000     -8.5078646E-08
   47.16000     -9.1603034E-08
   47.22000     -9.9334336E-08
   47.28000     -1.0855622E-07
   47.34000     -1.1957225E-07
   47.40000     -1.3269232E-07
   47.46000     -1.4823607E-07
   47.52000     -1.6655619E-07
   47.58000     -1.8807482E-07
   47.64000     -2.1331971E-07
   47.70000     -2.4294854E-07
   47.76000     -2.7775738E-07
   47.82000     -3.1867725E-07
   47.88000     -3.6676812E-07
   47.94000     -4.2321648E-07
   48.00000     -4.8934095E-07
   48.06000     -5.6660690E-07
   48.12000     -6.5665000E-07
   48.18000     -7.6130812E-07
   48.24000     -8.8266160E-07
   48.30000     -1.0230758E-06
   48.36000     -1.1852401E-06
   48.42000     -1.3721987E-06
   48.48000     -1.5873717E-06
   48.54000     -1.8345736E-06
   48.60000     -2.1180347E-06
   48.66000     -2.4424298E-06
   48.72000     -2.8129123E-06
   48.78000     -3.2351477E-06
   48.84000     -3.7153470E-06
   48.90000     -4.2603019E-06
   48.96000     -4.8774273E-06
   49.02000     -5.5748178E-06
   49.08000     -6.3612993E-06
   49.14000     -7.2464777E-06
   49.20000     -8.2407569E-06
   49.26000     -9.3553390E-06
   49.32000     -1.0602214E-05
   49.38000     -1.1994166E-05
   49.44000     -1.3544797E-05
   49.50000     -1.5268557E-05
   49.56000     -1.7180781E-05
   49.62000     -1.9297677E-05
   49.68000     -2.1636299E-05
   49.74000     -2.4214503E-05
   49.80000     -2.7050881E-05
   49.86000     -3.0164716E-05
   49.92000     -3.3575943E-05
   49.98000     -3.7305083E-05
   50.04000     -4.1373147E-05
   50.10000     -4.5801524E-05
   50.16000     -5.0611845E-05
   50.22000     -5.5825843E-05
   50.28000     -6.1465202E-05
   50.34000     -6.7551438E-05
   50.40000     -7.4105701E-05
   50.46000     -8.1148661E-05
   50.52000     -8.8700159E-05
   50.58000     -9.6779113E-05
   50.64000     -1.0540324E-04
   50.70000     -1.1458883E-04
   50.76000     -1.2435060E-04
   50.82000     -1.3470139E-04
   50.88000     -1.4565195E-04
   50.94000     -1.5721073E-04
   51.00000     -1.6938355E-04
   51.06000     -1.8217343E-04
   51.12000     -1.9558039E-04
   51.18000     -2.0960126E-04
   51.24000     -2.2422963E-04
   51.30000     -2.3945548E-04
   51.36000     -2.5526516E-04
   51.42000     -2.7164133E-04
   51.48000     -2.8856270E-04
   51.54000     -3.0600422E-04
   51.60000     -3.2393713E-04
   51.66000     -3.4232868E-04
   51.72000     -3.6114251E-04
   51.78000     -3.8033843E-04
   51.84000     -3.9987289E-04
   51.90000     -4.1969903E-04
   51.96000     -4.3976677E-04
   52.02000     -4.6002358E-04
   52.08000     -4.8041451E-04
   52.14000     -5.0088263E-04
   52.20000     -5.2136945E-04
   52.26000     -5.4181524E-04
   52.32000     -5.6215952E-04
   52.38000     -5.8234151E-04
   52.44000     -6.0230092E-04
   52.50000     -6.2197808E-04
   52.56000     -6.4131478E-04
   52.62000     -6.6025433E-04
   52.68000     -6.7874248E-04
   52.74000     -6.9672795E-04
   52.80000     -7.1416283E-04
   52.86000     -7.3100330E-04
   52.92000     -7.4720971E-04
   52.98000     -7.6274754E-04
   53.04000     -7.7758729E-04
   53.10000     -7.9170440E-04
   53.16000     -8.0508017E-04
   53.22000     -8.1770128E-04
   53.28000     -8.2956033E-04
   53.34000     -8.4065623E-04
   53.40000     -8.5099397E-04
   53.46000     -8.6058473E-04
   53.52000     -8.6944574E-04
   53.58000     -8.7759935E-04
   53.64000     -8.8507327E-04
   53.70000     -8.9189986E-04
   53.76000     -8.9811615E-04
   53.82000     -9.0376352E-04
   53.88000     -9.0888690E-04
   53.94000     -9.1353443E-04
   54.00000     -9.1775687E-04
   54.06000     -9.2160649E-04
   54.12000     -9.2513638E-04
   54.18000     -9.2840032E-04
   54.24000     -9.3145174E-04
   54.30000     -9.3434384E-04
   54.36000     -9.3712885E-04
   54.42000     -9.3985652E-04
   54.48000     -9.4257388E-04
   54.54000     -9.4532402E-04
   54.60000     -9.4814587E-04
   54.66000     -9.5107435E-04
   54.72000     -9.5414009E-04
   54.78000     -9.5736905E-04
   54.84000     -9.6078200E-04
   54.90000     -9.6439384E-04
   54.96000     -9.6821308E-04
   55.02000     -9.7224244E-04
   55.08000     -9.7647920E-04
   55.14000     -9.8091539E-04
   55.20000     -9.8553789E-04
   55.26000     -9.9032884E-04
   55.32000     -9.9526451E-04
   55.38000     -1.0003168E-03
   55.44000     -1.0054528E-03
   55.50000     -1.0106362E-03
   55.56000     -1.0158281E-03