 -0.750000000       0.00000000    
 -0.689999998       0.00000000    
 -0.629999995       0.00000000    
 -0.569999993       0.00000000    
 -0.509999990       0.00000000    
 -0.449999988       0.00000000    
 -0.389999986       0.00000000    
 -0.330000013       0.00000000    
 -0.270000011       0.00000000    
 -0.209999993       0.00000000    
 -0.150000006       0.00000000    
  -9.00000036E-02   0.00000000    
  -2.99999993E-02   0.00000000    
   2.99999993E-02  -2.48021588E-35
   9.00000036E-02  -2.92972773E-34
  0.150000006      -1.20628229E-33
  0.209999993       8.11794654E-34
  0.270000011       3.13134474E-32
  0.330000013       1.49816790E-31
  0.389999986       2.64815532E-31
  0.449999988      -7.55197568E-31
  0.509999990      -6.84494686E-30
  0.569999993      -2.42136369E-29
  0.629999995      -4.72045219E-29
  0.689999998      -1.42115093E-29
  0.750000000       2.53820402E-28
  0.810000002       1.01370668E-27
  0.870000005       2.18143748E-27
  0.930000007       2.28695052E-27
  0.990000010      -2.71954289E-27
   1.04999995      -1.85777005E-26
   1.11000001      -4.57451626E-26
   1.16999996      -6.41121802E-26
   1.23000002      -1.74300635E-26
   1.28999996       1.75557050E-25
   1.35000002       5.43317397E-25
   1.40999997       9.03915085E-25
   1.47000003       7.14189501E-25
   1.52999997      -8.35792410E-25
   1.59000003      -4.17640831E-24
   1.64999998      -8.10868468E-24
   1.71000004      -8.64163753E-24
   1.76999998       4.16828925E-25
   1.83000004       2.31808749E-23
   1.88999999       5.35894481E-23
   1.95000005       6.78584146E-23
   2.00999999       2.71603579E-23
   2.06999993      -9.89438509E-23
   2.13000011      -2.88002338E-22
   2.19000006      -4.21827049E-22
   2.25000000      -2.93353036E-22
   2.30999994       2.86142065E-22
   2.36999989       1.27660979E-21
   2.43000007       2.19461376E-21
   2.49000001       2.10082166E-21
   2.54999995       6.41613509E-24
   2.60999990      -4.27420500E-21
   2.67000008      -9.18887316E-21
   2.73000002      -1.11992864E-20
   2.78999996      -6.03590704E-21
   2.84999990       8.37365759E-21
   2.91000009       2.84508481E-20
   2.97000003       4.34706062E-20
   3.02999997       3.86954767E-20
   3.08999991       3.85292934E-21
   3.15000010      -5.62489344E-20
   3.21000004      -1.16021283E-19
   3.26999998      -1.35813195E-19
   3.32999992      -8.30360023E-20
   3.39000010       4.08480592E-20
   3.45000005       1.85677904E-19
   3.50999999       2.68527099E-19
   3.56999993       2.23082133E-19
   3.63000011       5.86029934E-20
   3.69000006      -1.17098544E-19
   3.75000000      -1.51036640E-19
   3.80999994       2.86231601E-20
   3.86999989       2.84324129E-19
   3.93000007       2.57201730E-19
   3.99000001      -4.36953092E-19
   4.05000019      -1.83551833E-18
   4.11000013      -3.28693782E-18
   4.17000008      -3.45648028E-18
   4.23000002      -9.16860226E-19
   4.28999996       4.75988304E-18
   4.34999990       1.19372254E-17
   4.40999985       1.66971254E-17
   4.46999979       1.41329151E-17
   4.53000021       1.08738620E-18
   4.59000015      -2.07737080E-17
   4.65000010      -4.34339106E-17
   4.71000004      -5.42657845E-17
   4.76999998      -4.13884551E-17
   4.82999992      -8.47788525E-19
   4.88999987       5.79767252E-17
   4.94999981       1.12514867E-16
   5.01000023       1.34410325E-16
   5.07000017       1.02218824E-16
   5.13000011       1.39542987E-17
   5.19000006      -1.07109976E-16
   5.25000000      -2.17649258E-16
   5.30999994      -2.69719034E-16
   5.36999989      -2.30362310E-16
   5.42999983      -9.68087918E-17
   5.48999977       9.95354041E-17
   5.55000019       3.01891277E-16
   5.61000013       4.45578453E-16
   5.67000008       4.77032015E-16
   5.73000002       3.68311948E-16
   5.78999996       1.24800590E-16
   5.84999990      -2.12911247E-16
   5.90999985      -5.71579209E-16
   5.96999979      -8.53339584E-16
   6.03000021      -9.52607663E-16
   6.09000015      -7.84067906E-16
   6.15000010      -3.18212411E-16
   6.21000004       3.86869514E-16
   6.26999998       1.17342968E-15
   6.32999992       1.80513944E-15
   6.38999987       2.02461457E-15
   6.44999981       1.63691033E-15
   6.51000023       5.96583939E-16
   6.57000017      -9.30326250E-16
   6.63000011      -2.55760730E-15
   6.69000006      -3.74460603E-15
   6.75000000      -3.94223237E-15
   6.80999994      -2.79879146E-15
   6.86999989      -3.69071605E-16
   6.92999983       2.76383992E-15
   6.98999977       5.55239626E-15
   7.05000019       6.78879331E-15
   7.11000013       5.60249911E-15
   7.17000008       1.97507987E-15
   7.23000002      -2.99231732E-15
   7.28999996      -7.29544311E-15
   7.34999990      -8.78380451E-15
   7.40999985      -6.22909342E-15
   7.46999979      -2.19188277E-16
   7.53000021       6.67158555E-15
   7.59000015       1.07502288E-14
   7.65000010       8.93420876E-15
   7.71000004       6.28415173E-16
   7.76999998      -1.12476861E-14
   7.82999992      -2.08780340E-14
   7.88999987      -2.19079481E-14
   7.94999981      -1.07099312E-14
   8.01000023       1.09637827E-14
   8.06999969       3.54795979E-14
   8.13000011       5.17040261E-14
   8.18999958       4.96469050E-14
   8.25000000       2.54685358E-14
   8.31000042      -1.55556872E-14
   8.36999989      -5.98714532E-14
   8.43000031      -9.04062049E-14
   8.48999977      -9.34738466E-14
   8.55000019      -6.48177123E-14
   8.60999966      -1.19411495E-14
   8.67000008       4.85383082E-14
   8.72999954       9.74485656E-14
   8.78999996       1.20547615E-13
   8.85000038       1.13441849E-13
   8.90999985       8.17159993E-14
   8.97000027       3.65253516E-14
   9.02999973      -1.16800821E-14
   9.09000015      -5.75938968E-14
   9.14999962      -1.00975082E-13
   9.21000004      -1.42059636E-13
   9.27000046      -1.75433087E-13
   9.32999992      -1.86874144E-13
   9.39000034      -1.56677297E-13
   9.44999981      -6.95900314E-14
   9.51000023       7.26854151E-14
   9.56999969       2.43197308E-13
   9.63000011       3.91847226E-13
   9.68999958       4.59893029E-13
   9.75000000       4.02712125E-13
   9.81000042       2.11589454E-13
   9.86999989      -7.58541518E-14
   9.93000031      -3.83000570E-13
   9.98999977      -6.18080890E-13
   10.0500002      -7.05508731E-13
   10.1099997      -6.11840494E-13
   10.1700001      -3.55824745E-13
   10.2299995       4.76539571E-16
   10.2900000       3.73692396E-13
   10.3500004       6.83137520E-13
   10.4099998       8.66744664E-13
   10.4700003       8.85572594E-13
   10.5299997       7.21528523E-13
   10.5900002       3.76958013E-13
   10.6499996      -1.18185003E-13
   10.7100000      -6.94222403E-13
   10.7700005      -1.23556113E-12
   10.8299999      -1.59317470E-12
   10.8900003      -1.62113498E-12
   10.9499998      -1.22886922E-12
   11.0100002      -4.28422055E-13
   11.0699997       6.46986479E-13
   11.1300001       1.76692894E-12
   11.1899996       2.66521072E-12
   11.2500000       3.11553149E-12
   11.3100004       2.99077039E-12
   11.3699999       2.28338594E-12
   11.4300003       1.08403716E-12
   11.4899998      -4.63980579E-13
   11.5500002      -2.20668080E-12
   11.6099997      -3.99541338E-12
   11.6700001      -5.67220836E-12
   11.7299995      -7.03895536E-12
   11.7900000      -7.83522032E-12
   11.8500004      -7.74572594E-12
   11.9099998      -6.44415988E-12
   11.9700003      -3.66403522E-12
   12.0299997       7.21688714E-13
   12.0900002       6.62961266E-12
   12.1499996       1.37141479E-11
   12.2100000       2.13402108E-11
   12.2700005       2.85861456E-11
   12.3299999       3.42872501E-11
   12.3900003       3.71316623E-11
   12.4499998       3.58116557E-11
   12.5100002       2.92135344E-11
   12.5699997       1.66066900E-11
   12.6300001      -2.22061692E-12
   12.6899996      -2.69239665E-11
   12.7500000      -5.66819924E-11
   12.8100004      -9.03739097E-11
   12.8699999      -1.26807800E-10
   12.9300003      -1.64942074E-10
   12.9899998      -2.04051637E-10
   13.0500002      -2.43810833E-10
   13.1099997      -2.84282042E-10
   13.1700001      -3.25808547E-10
   13.2299995      -3.68817088E-10
   13.2900000      -4.13551998E-10
   13.3500004      -4.59793509E-10
   13.4099998      -5.06646447E-10
   13.4700003      -5.52500101E-10
   13.5299997      -5.95228034E-10
   13.5900002      -6.32618402E-10
   13.6499996      -6.62922162E-10
   13.7100000      -6.85338231E-10
   13.7700005      -7.00256353E-10
   13.8299999      -7.09172276E-10
   13.8900003      -7.14324988E-10
   13.9499998      -7.18223536E-10
   14.0100002      -7.23250959E-10
   14.0699997      -7.31452177E-10
   14.1300001      -7.44469486E-10
   14.1899996      -7.63481334E-10
   14.2500000      -7.88993093E-10
   14.3100004      -8.20443546E-10
   14.3699999      -8.55750693E-10
   14.4300003      -8.91031637E-10
   14.4899998      -9.20706678E-10
   14.5500002      -9.38044753E-10
   14.6099997      -9.36017708E-10
   14.6700001      -9.08212949E-10
   14.7299995      -8.49596726E-10
   14.7900000      -7.57075014E-10
   14.8500004      -6.29967190E-10
   14.9099998      -4.70553541E-10
   14.9700003      -2.84730239E-10
   15.0299997      -8.25789298E-11
   15.0900002       1.21520530E-10
   15.1499996       3.09592713E-10
   15.2100000       4.61706534E-10
   15.2700005       5.58320834E-10
   15.3299999       5.82823456E-10
   15.3900003       5.23685428E-10
   15.4499998       3.75835169E-10
   15.5100002       1.41167494E-10
   15.5699997      -1.71647419E-10
   15.6300001      -5.47821177E-10
   15.6899996      -9.67445346E-10
   15.7500000      -1.40686385E-09
   15.8100004      -1.84050974E-09
   15.8699999      -2.24316943E-09
   15.9300003      -2.59240784E-09
   15.9899998      -2.87070434E-09
   16.0499992      -3.06683590E-09
   16.1100006      -3.17627546E-09
   16.1700001      -3.20066063E-09
   16.2299995      -3.14665694E-09
   16.2900009      -3.02460434E-09
   16.3500004      -2.84723667E-09
   16.4099998      -2.62860378E-09
   16.4699993      -2.38320208E-09
   16.5300007      -2.12531592E-09
   16.5900002      -1.86858684E-09
   16.6499996      -1.62582414E-09
   16.7099991      -1.40894196E-09
   16.7700005      -1.22879096E-09
   16.8299999      -1.09460585E-09
   16.8899994      -1.01297615E-09
   16.9500008      -9.86584592E-10
   17.0100002      -1.01329722E-09
   17.0699997      -1.08629539E-09
   17.1299992      -1.19567378E-09
   17.1900005      -1.33136702E-09
   17.2500000      -1.48664181E-09
   17.3099995      -1.66101777E-09
   17.3700008      -1.86155058E-09
   17.4300003      -2.10190731E-09
   17.4899998      -2.39937958E-09
   17.5499992      -2.77060419E-09
   17.6100006      -3.22708948E-09
   17.6700001      -3.77158038E-09
   17.7299995      -4.39596581E-09
   17.7900009      -5.08096720E-09
   17.8500004      -5.79747139E-09
   17.9099998      -6.50909326E-09
   17.9699993      -7.17548776E-09
   18.0300007      -7.75594700E-09
   18.0900002      -8.21294677E-09
   18.1499996      -8.51543813E-09
   18.2099991      -8.64175842E-09
   18.2700005      -8.58212346E-09
   18.3299999      -8.34057090E-09
   18.3899994      -7.93618860E-09
   18.4500008      -7.40337258E-09
   18.5100002      -6.79086876E-09
   18.5699997      -6.15944229E-09
   18.6299992      -5.57817792E-09
   18.6900005      -5.11954834E-09
   18.7500000      -4.85354690E-09
   18.8099995      -4.84128870E-09
   18.8700008      -5.12860954E-09
   18.9300003      -5.74034820E-09
   18.9899998      -6.67608857E-09
   19.0499992      -7.90814614E-09
   19.1100006      -9.38236422E-09
   19.1700001      -1.10218785E-08
   19.2299995      -1.27335307E-08
   19.2900009      -1.44161527E-08
   19.3500004      -1.59697233E-08
   19.4099998      -1.73043961E-08
   19.4699993      -1.83484907E-08
   19.5300007      -1.90546885E-08
   19.5900002      -1.94038208E-08
   19.6499996      -1.94057019E-08
   19.7099991      -1.90966709E-08
   19.7700005      -1.85339797E-08
   19.8299999      -1.77876736E-08
   19.8899994      -1.69311782E-08
   19.9500008      -1.60320734E-08
   20.0100002      -1.51444315E-08
   20.0699997      -1.43036267E-08
   20.1299992      -1.35238460E-08
   20.1900005      -1.27980728E-08
   20.2500000      -1.21000436E-08
   20.3099995      -1.13878587E-08
   20.3700008      -1.06091553E-08
   20.4300003      -9.70792335E-09
   20.4899998      -8.63291927E-09
   20.5499992      -7.34706518E-09
   20.6100006      -5.83651794E-09
   20.6700001      -4.11739576E-09
   20.7299995      -2.23792695E-09
   20.7900009      -2.74257256E-10
   20.8500004       1.68055647E-09
   20.9099998       3.53295770E-09
   20.9699993       5.20734433E-09
   21.0300007       6.66187061E-09
   21.0900002       7.89688404E-09
   21.1499996       8.95286068E-09
   21.2099991       9.89759119E-09
   21.2700005       1.08057758E-08
   21.3299999       1.17367840E-08
   21.3899994       1.27171784E-08
   21.4500008       1.37331853E-08
   21.5100002       1.47350843E-08
   21.5699997       1.56516133E-08
   21.6299992       1.64093983E-08
   21.6900005       1.69512546E-08
   21.7500000       1.72481016E-08
   21.8099995       1.73019288E-08
   21.8700008       1.71403052E-08
   21.9300003       1.68054264E-08
   21.9899998       1.63418736E-08
   22.0499992       1.57869220E-08
   22.1100006       1.51658845E-08
   22.1700001       1.44931533E-08
   22.2299995       1.37779184E-08
   22.2900009       1.30322437E-08
   22.3500004       1.22785950E-08
   22.4099998       1.15540209E-08
   22.4699993       1.09090426E-08
   22.5300007       1.04008420E-08
   22.5900002       1.00821618E-08
   22.6499996       9.98893945E-09
   22.7099991       1.01304654E-08
   22.7700005       1.04853966E-08
   22.8299999       1.10052971E-08
   22.8899994       1.16250352E-08
   22.9500008       1.22772210E-08
   23.0100002       1.29065922E-08
   23.0699997       1.34804203E-08
   23.1299992       1.39923264E-08
   23.1900005       1.44589452E-08
   23.2500000       1.49108814E-08
   23.3099995       1.53807953E-08
   23.3700008       1.58919029E-08
   23.4300003       1.64497251E-08
   23.4899998       1.70388983E-08
   23.5499992       1.76254069E-08
   23.6100006       1.81633641E-08
   23.6700001       1.86043678E-08
   23.7299995       1.89069809E-08
   23.7900009       1.90438811E-08
   23.8500004       1.90048688E-08
   23.9099998       1.87949745E-08
   23.9699993       1.84282705E-08
   24.0300007       1.79192767E-08
   24.0900002       1.72747114E-08
   24.1499996       1.64885101E-08
   24.2099991       1.55422608E-08
   24.2700005       1.44115013E-08
   24.3299999       1.30763222E-08
   24.3899994       1.15328227E-08
   24.4500008       9.80118209E-09
   24.5100002       7.92674548E-09
   24.5699997       5.97274274E-09
   24.6299992       4.00613498E-09
   24.6900005       2.08082818E-09
   24.7500000       2.23690386E-10
   24.8099995      -1.57181679E-09
   24.8700008      -3.34201777E-09
   24.9300003      -5.14031440E-09
   24.9899998      -7.01918257E-09
   25.0499992      -9.01223096E-09
   25.1100006      -1.11214904E-08
   25.1700001      -1.33133522E-08
   25.2299995      -1.55239910E-08
   25.2900009      -1.76724857E-08
   25.3500004      -1.96778398E-08
   25.4099998      -2.14752713E-08
   25.4699993      -2.30274395E-08
   25.5300007      -2.43279636E-08
   25.5900002      -2.53968757E-08
   25.6499996      -2.62702304E-08
   25.7099991      -2.69878324E-08
   25.7700005      -2.75835781E-08
   25.8299999      -2.80815264E-08
   25.8899994      -2.84985173E-08
   25.9500008      -2.88513000E-08
   26.0100002      -2.91642817E-08
   26.0699997      -2.94737248E-08
   26.1299992      -2.98257348E-08
   26.1900005      -3.02679837E-08
   26.2500000      -3.08377999E-08
   26.3099995      -3.15509112E-08
   26.3700008      -3.23952420E-08
   26.4300003      -3.33323769E-08
   26.4899998      -3.43068507E-08
   26.5499992      -3.52604594E-08
   26.6100006      -3.61469610E-08
   26.6700001      -3.69421969E-08
   26.7299995      -3.76460392E-08
   26.7900009      -3.82755374E-08
   26.8500004      -3.88517698E-08
   26.9099998      -3.93852737E-08
   26.9699993      -3.98655509E-08
   27.0300007      -4.02586799E-08
   27.0900002      -4.05138501E-08
   27.1499996      -4.05765661E-08
   27.2099991      -4.04037479E-08
   27.2700005      -3.99758058E-08
   27.3299999      -3.93019874E-08
   27.3899994      -3.84180687E-08
   27.4500008      -3.73778519E-08
   27.5100002      -3.62416586E-08
   27.5699997      -3.50651952E-08
   27.6299992      -3.38917729E-08
   27.6900005      -3.27492131E-08
   27.7500000      -3.16515454E-08
   27.8099995      -3.06040242E-08
   27.8700008      -2.96093514E-08
   27.9300003      -2.86725950E-08
   27.9899998      -2.78030221E-08
   28.0499992      -2.70123746E-08
   28.1100006      -2.63107864E-08
   28.1700001      -2.57026134E-08
   28.2299995      -2.51846330E-08
   28.2900009      -2.47478020E-08
   28.3500004      -2.43819862E-08
   28.4099998      -2.40813876E-08
   28.4699993      -2.38479423E-08
   28.5300007      -2.36907454E-08
   28.5900002      -2.36215154E-08
   28.6499996      -2.36478002E-08
   28.7099991      -2.37667059E-08
   28.7700005      -2.39615350E-08
   28.8299999      -2.42024463E-08
   28.8899994      -2.44507294E-08
   28.9500008      -2.46651499E-08
   29.0100002      -2.48084131E-08
   29.0699997      -2.48522039E-08
   29.1299992      -2.47798937E-08
   29.1900005      -2.45869085E-08
   29.2500000      -2.42794105E-08
   29.3099995      -2.38722784E-08
   29.3700008      -2.33874307E-08
   29.4300003      -2.28531629E-08
   29.4899998      -2.23044054E-08
   29.5499992      -2.17831104E-08
   29.6100006      -2.13375095E-08
   29.6700001      -2.10191473E-08
   29.7299995      -2.08773407E-08
   29.7900009      -2.09518234E-08
   29.8500004      -2.12652083E-08
   29.9099998      -2.18173959E-08
   29.9699993      -2.25837535E-08
   30.0300007      -2.35182060E-08
   30.0900002      -2.45612721E-08
   30.1499996      -2.56519499E-08
   30.2099991      -2.67412421E-08
   30.2700005      -2.78041572E-08
   30.3299999      -2.88467010E-08
   30.3899994      -2.99049496E-08
   30.4500008      -3.10350963E-08
   30.5100002      -3.22959046E-08
   30.5699997      -3.37279005E-08
   30.6299992      -3.53353862E-08
   30.6900005      -3.70771822E-08
   30.7500000      -3.88699490E-08
   30.8099995      -4.06041529E-08
   30.8700008      -4.21688569E-08
   30.9300003      -4.34786323E-08
   30.9899998      -4.44950388E-08
   31.0499992      -4.52363444E-08
   31.1100006      -4.57722429E-08
   31.1700001      -4.62044127E-08
   31.2299995      -4.66376697E-08
   31.2900009      -4.71494843E-08
   31.3500004      -4.77667719E-08
   31.4099998      -4.84572382E-08
   31.4699993      -4.91388619E-08
   31.5300007      -4.97054131E-08
   31.5900002      -5.00603967E-08
   31.6499996      -5.01484969E-08
   31.7099991      -4.99739059E-08
   31.7700005      -4.95988886E-08
   31.8299999      -4.91229848E-08
   31.8899994      -4.86498273E-08
   31.9500008      -4.82531739E-08
   32.0099983      -4.79536801E-08
   32.0699997      -4.77140674E-08
   32.1300011      -4.74539199E-08
   32.1899986      -4.70785437E-08
   32.2500000      -4.65121595E-08
   32.3100014      -4.57246934E-08
   32.3699989      -4.47437998E-08
   32.4300003      -4.36488357E-08
   32.4900017      -4.25490363E-08
   32.5499992      -4.15529655E-08
   32.6100006      -4.07390921E-08
   32.6699982      -4.01366762E-08
   32.7299995      -3.97230728E-08
   32.7900009      -3.94379072E-08
   32.8499985      -3.92090911E-08
   32.9099998      -3.89814439E-08
   32.9700012      -3.87380652E-08
   33.0299988      -3.85071743E-08
   33.0900002      -3.83524821E-08
   33.1500015      -3.83507590E-08
   33.2099991      -3.85645187E-08
   33.2700005      -3.90189001E-08
   33.3300018      -3.96903026E-08
   33.3899994      -4.05104110E-08
   33.4500008      -4.13845527E-08
   33.5099983      -4.22192166E-08
   33.5699997      -4.29504858E-08
   33.6300011      -4.35645688E-08
   33.6899986      -4.41032562E-08
   33.7500000      -4.46514612E-08
   33.8100014      -4.53095623E-08
   33.8699989      -4.61588314E-08
   33.9300003      -4.72309942E-08
   33.9900017      -4.84924776E-08
   34.0499992      -4.98490422E-08
   34.1100006      -5.11697245E-08
   34.1699982      -5.23226333E-08
   34.2299995      -5.32113411E-08
   34.2900009      -5.38010241E-08
   34.3499985      -5.41271525E-08
   34.4099998      -5.42849570E-08
   34.4700012      -5.44034719E-08
   34.5299988      -5.46116787E-08
   34.5900002      -5.50062005E-08
   34.6500015      -5.56291866E-08
   34.7099991      -5.64622766E-08
   34.7700005      -5.74378696E-08
   34.8300018      -5.84638151E-08
   34.8899994      -5.94534058E-08
   34.9500008      -6.03508354E-08
   35.0099983      -6.11442630E-08
   35.0699997      -6.18630978E-08
   35.1300011      -6.25620373E-08
   35.1899986      -6.32985788E-08
   35.2500000      -6.41122853E-08
   35.3100014      -6.50119887E-08
   35.3699989      -6.59736585E-08
   35.4300003      -6.69477274E-08
   35.4900017      -6.78723069E-08
   35.5499992      -6.86880455E-08
   35.6100006      -6.93506337E-08
   35.6699982      -6.98384071E-08
   35.7299995      -7.01531349E-08
   35.7900009      -7.03140088E-08
   35.8499985      -7.03465020E-08
   35.9099998      -7.02693370E-08
   35.9700012      -7.00843472E-08
   36.0299988      -6.97729590E-08
   36.0900002      -6.93011373E-08
   36.1500015      -6.86315005E-08
   36.2099991      -6.77385685E-08
   36.2700005      -6.66219648E-08
   36.3300018      -6.53129391E-08
   36.3899994      -6.38718802E-08
   36.4500008      -6.23768130E-08
   36.5099983      -6.09054283E-08
   36.5699997      -5.95149530E-08
   36.6300011      -5.82248205E-08
   36.6899986      -5.70074477E-08
   36.7500000      -5.57909949E-08
   36.8100014      -5.44753540E-08
   36.8699989      -5.29587147E-08
   36.9300003      -5.11680085E-08
   36.9900017      -4.90841003E-08
   37.0499992      -4.67529766E-08
   37.1100006      -4.42782131E-08
   37.1699982      -4.17958326E-08
   37.2299995      -3.94389552E-08
   37.2900009      -3.73032201E-08
   37.3499985      -3.54238807E-08
   37.4099998      -3.37715953E-08
   37.4700012      -3.22676250E-08
   37.5299988      -3.08131760E-08
   37.5900002      -2.93232763E-08
   37.6500015      -2.77549432E-08
   37.7099991      -2.61215014E-08
   37.7700005      -2.44894878E-08
   37.8300018      -2.29598545E-08
   37.8899994      -2.16396483E-08
   37.9500008      -2.06128448E-08
   38.0099983      -1.99189003E-08
   38.0699997      -1.95448973E-08
   38.1300011      -1.94328695E-08
   38.1899986      -1.94991685E-08
   38.2500000      -1.96593568E-08
   38.3100014      -1.98508392E-08
   38.3699989      -2.00468673E-08
   38.4300003      -2.02586747E-08
   38.4900017      -2.05263131E-08
   38.5499992      -2.09017781E-08
   38.6100006      -2.14295905E-08
   38.6699982      -2.21299974E-08
   38.7299995      -2.29889334E-08
   38.7900009      -2.39571207E-08
   38.8499985      -2.49587817E-08
   38.9099998      -2.59082373E-08
   38.9700012      -2.67304738E-08
   39.0299988      -2.73801888E-08
   39.0900002      -2.78534440E-08
   39.1500015      -2.81878840E-08
   39.2099991      -2.84507689E-08
   39.2700005      -2.87183539E-08
   39.3300018      -2.90531847E-08
   39.3899994      -2.94864932E-08
   39.4500008      -3.00108454E-08
   39.5099983      -3.05841965E-08
   39.5699997      -3.11427755E-08
   39.6300011      -3.16177555E-08
   39.6899986      -3.19508828E-08
   39.7500000      -3.21054081E-08
   39.8100014      -3.20708580E-08
   39.8699989      -3.18616955E-08
   39.9300003      -3.15107869E-08
   39.9900017      -3.10594430E-08
   40.0499992      -3.05462962E-08
   40.1100006      -2.99979881E-08
   40.1699982      -2.94243119E-08
   40.2299995      -2.88192066E-08
   40.2900009      -2.81669603E-08
   40.3499985      -2.74510441E-08
   40.4099998      -2.66623079E-08
   40.4700012      -2.58040789E-08
   40.5299988      -2.48934704E-08
   40.5900002      -2.39595721E-08
   40.6500015      -2.30396235E-08
   40.7099991      -2.21736549E-08
   40.7700005      -2.13974882E-08
   40.8300018      -2.07344009E-08
   40.8899994      -2.01871675E-08
   40.9500008      -1.97336600E-08
   41.0099983      -1.93292884E-08
   41.0699997      -1.89175271E-08
   41.1300011      -1.84464142E-08
   41.1899986      -1.78857995E-08
   41.2500000      -1.72391168E-08
   41.3100014      -1.65453216E-08
   41.3699989      -1.58701514E-08
   41.4300003      -1.52896291E-08
   41.4900017      -1.48708938E-08
   41.5499992      -1.46556083E-08
   41.6100006      -1.46499595E-08
   41.6699982      -1.48234358E-08
   41.7299995      -1.51167416E-08
   41.7900009      -1.54573971E-08
   41.8499985      -1.57794826E-08
   41.9099998      -1.60422431E-08
   41.9700012      -1.62415592E-08
   42.0299988      -1.64098974E-08
   42.0900002      -1.66040355E-08
   42.1500015      -1.68846004E-08
   42.2099991      -1.72949530E-08
   42.2700005      -1.78473556E-08
   42.3300018      -1.85215061E-08
   42.3899994      -1.92753493E-08
   42.4500008      -2.00634389E-08
   42.5099983      -2.08555662E-08
   42.5699997      -2.16490044E-08
   42.6300011      -2.24705339E-08
   42.6899986      -2.33679245E-08
   42.7500000      -2.43937368E-08
   42.8100014      -2.55860684E-08
   42.8699989      -2.69517226E-08
   42.9300003      -2.84569683E-08
   42.9900017      -3.00295682E-08
   43.0499992      -3.15730375E-08
   43.1100006      -3.29904495E-08
   43.1699982      -3.42114426E-08
   43.2299995      -3.52141463E-08
   43.2900009      -3.60344607E-08
   43.3499985      -3.67588413E-08
   43.4099998      -3.75019518E-08
   43.4700012      -3.83756102E-08
   43.5299988      -3.94578414E-08
   43.5900002      -4.07708605E-08
   43.6500015      -4.22736051E-08
   43.7099991      -4.38704539E-08
   43.7700005      -4.54337652E-08
   43.8300018      -4.68346784E-08
   43.8899994      -4.79749289E-08
   43.9500008      -4.88119269E-08
   44.0099983      -4.93704349E-08
   44.0699997      -4.97368582E-08
   44.1300011      -5.00366788E-08
   44.1899986      -5.04003737E-08
   44.2500000      -5.09272908E-08
   44.3100014      -5.16582617E-08
   44.3699989      -5.25655359E-08
   44.4300003      -5.35629852E-08
   44.4900017      -5.45331709E-08
   44.5499992      -5.53622712E-08
   44.6100006      -5.59719027E-08
   44.6699982      -5.63386351E-08
   44.7299995      -5.64964324E-08
   44.7900009      -5.65227900E-08
   44.8499985      -5.65137519E-08
   44.9099998      -5.65554075E-08
   44.9700012      -5.66997436E-08
   45.0299988      -5.69511727E-08
   45.0900002      -5.72671830E-08
   45.1500015      -5.75729722E-08
   45.2099991      -5.77860426E-08
   45.2700005      -5.78434936E-08
   45.3300018      -5.77233266E-08
   45.3899994      -5.74525174E-08
   45.4500008      -5.70986423E-08
   45.5099983      -5.67475951E-08
   45.5699997      -5.64747431E-08
   45.6300011      -5.63193794E-08
   45.6899986      -5.62709204E-08
   45.7500000      -5.62710660E-08
   45.8100014      -5.62307712E-08
   45.8699989      -5.60564430E-08
   45.9300003      -5.56774573E-08
   45.9900017      -5.50674741E-08
   46.0499992      -5.42538494E-08
   46.1100006      -5.33125615E-08
   46.1699982      -5.23494563E-08
   46.2299995      -5.14721812E-08
   46.2900009      -5.07599900E-08
   46.3499985      -5.02402919E-08
   46.4099998      -4.98795210E-08
   46.4700012      -4.95923267E-08
   46.5299988      -4.92672569E-08
   46.5900002      -4.88013789E-08
   46.6500015      -4.81330531E-08
   46.7099991      -4.72624144E-08
   46.7700005      -4.62531524E-08
   46.8300018      -4.52152342E-08
   46.8899994      -4.42740493E-08
   46.9500008      -4.35353229E-08
   47.0099983      -4.30559375E-08
   47.0699997      -4.28291074E-08
   47.1300011      -4.27882192E-08
   47.1899986      -4.28285603E-08
   47.2500000      -4.28406892E-08
   47.3100014      -4.27452811E-08
   47.3699989      -4.25180779E-08
   47.4300003      -4.21962660E-08
   47.4900017      -4.18638564E-08
   47.5499992      -4.16212487E-08
   47.6100006      -4.15501944E-08
   47.6699982      -4.16870058E-08
   47.7299995      -4.20133439E-08
   47.7900009      -4.24668229E-08
   47.8499985      -4.29663167E-08
   47.9099998      -4.34421992E-08
   47.9700012      -4.38612879E-08
   48.0299988      -4.42394565E-08
   48.0900002      -4.46393251E-08
   48.1500015      -4.51549020E-08
   48.2099991      -4.58880756E-08
   48.2700005      -4.69237662E-08
   48.3300018      -4.83111293E-08
   48.3899994      -5.00570643E-08
   48.4500008      -5.21352526E-08
   48.5099983      -5.45085683E-08
   48.5699997      -5.71578873E-08
   48.6300011      -6.01072117E-08
   48.6899986      -6.34369641E-08
   48.7500000      -6.72824356E-08
   48.8100014      -7.18210487E-08
   48.8699989      -7.72560682E-08
   48.9300003      -8.38040251E-08
   48.9900017      -9.16892446E-08
   49.0499992      -1.01144650E-07
   49.1100006      -1.12416231E-07
   49.1699982      -1.25770057E-07
   49.2299995      -1.41503023E-07
   49.2900009      -1.59959683E-07
   49.3499985      -1.81554327E-07
   49.4099998      -2.06794923E-07
   49.4700012      -2.36302299E-07
   49.5299988      -2.70820379E-07
   49.5900002      -3.11217860E-07
   49.6500015      -3.58486233E-07
   49.7099991      -4.13740281E-07
   49.7700005      -4.78224479E-07
   49.8300018      -5.53324867E-07
   49.8899994      -6.40583266E-07
   49.9500008      -7.41713450E-07
   50.0099983      -8.58621036E-07
   50.0699997      -9.93430831E-07
   50.1300011      -1.14852389E-06
   50.1899986      -1.32657817E-06
   50.2500000      -1.53060682E-06
   50.3100014      -1.76398362E-06
   50.3699989      -2.03045670E-06
   50.4300003      -2.33415267E-06
   50.4900017      -2.67958308E-06
   50.5499992      -3.07166169E-06
   50.6100006      -3.51573181E-06