 -0.750000000       0.00000000    
 -0.689999998       0.00000000    
 -0.629999995       0.00000000    
 -0.569999993       0.00000000    
 -0.509999990       0.00000000    
 -0.449999988       0.00000000    
 -0.389999986       0.00000000    
 -0.330000013       0.00000000    
 -0.270000011      -3.96465005E-27
 -0.209999993      -4.24846156E-26
 -0.150000006      -2.07945731E-25
  -9.00000036E-02  -5.29409188E-25
  -2.99999993E-02  -1.58553979E-25
   2.99999993E-02   4.72677645E-24
   9.00000036E-02   2.33055591E-23
  0.150000006       6.72101350E-23
  0.209999993       1.31059912E-22
  0.270000011       1.47217310E-22
  0.330000013      -7.00218499E-23
  0.389999986      -8.22076064E-22
  0.449999988      -2.34032014E-21
  0.509999990      -4.30814363E-21
  0.569999993      -5.17172504E-21
  0.629999995      -1.71486335E-21
  0.689999998       1.01955689E-20
  0.750000000       3.27483034E-20
  0.810000002       6.11561446E-20
  0.870000005       7.84333562E-20
  0.930000007       5.44757564E-20
  0.990000010      -4.48458909E-20
   1.04999995      -2.35284339E-19
   1.11000001      -4.82617908E-19
   1.16999996      -6.76798143E-19
   1.23000002      -6.35528758E-19
   1.28999996      -1.59535300E-19
   1.35000002       8.56160730E-19
   1.40999997       2.28397471E-18
   1.47000003       3.66384680E-18
   1.52999997       4.22485848E-18
   1.59000003       3.08976795E-18
   1.64999998      -3.44384525E-19
   1.71000004      -5.95296120E-18
   1.76999998      -1.25439111E-17
   1.83000004      -1.78378141E-17
   1.88999999      -1.89023525E-17
   1.95000005      -1.30247495E-17
   2.00999999       1.16848836E-18
   2.06999993       2.26590710E-17
   2.13000011       4.73909971E-17
   2.19000006       6.83034266E-17
   2.25000000       7.62131659E-17
   2.30999994       6.16391368E-17
   2.36999989       1.75964659E-17
   2.43000007      -5.67707951E-17
   2.49000001      -1.52253524E-16
   2.54999995      -2.46580079E-16
   2.60999990      -3.04409506E-16
   2.67000008      -2.82757147E-16
   2.73000002      -1.43558320E-16
   2.78999996       1.27303798E-16
   2.84999990       4.99050584E-16
   2.91000009       8.81858760E-16
   2.97000003       1.13055965E-15
   3.02999997       1.07527953E-15
   3.08999991       5.80328583E-16
   3.15000010      -3.80234255E-16
   3.21000004      -1.65612337E-15
   3.26999998      -2.89818337E-15
   3.32999992      -3.61099547E-15
   3.39000010      -3.29211997E-15
   3.45000005      -1.63464304E-15
   3.50999999       1.26928575E-15
   3.56999993       4.81233299E-15
   3.63000011       7.92674269E-15
   3.69000006       9.34758032E-15
   3.75000000       8.04209503E-15
   3.80999994       3.67527638E-15
   3.86999989      -3.07373921E-15
   3.93000007      -1.05162571E-14
   3.99000001      -1.63555269E-14
   4.05000019      -1.84065088E-14
   4.11000013      -1.54014137E-14
   4.17000008      -7.56894073E-15
   4.23000002       3.27800776E-15
   4.28999996       1.42379733E-14
   4.34999990       2.22546946E-14
   4.40999985       2.51460501E-14
   4.46999979       2.23233145E-14
   4.53000021       1.49092571E-14
   4.59000015       5.20970875E-15
   4.65000010      -4.23532313E-15
   4.71000004      -1.16195514E-14
   4.76999998      -1.64515550E-14
   4.82999992      -1.95060439E-14
   4.88999987      -2.21572808E-14
   4.94999981      -2.53541915E-14
   5.01000023      -2.86563714E-14
   5.07000017      -2.97834470E-14
   5.13000011      -2.50273248E-14
   5.19000006      -1.06376251E-14
   5.25000000       1.50726989E-14
   5.30999994       4.95807381E-14
   5.36999989       8.49823684E-14
   5.42999983       1.08832512E-13
   5.48999977       1.07532676E-13
   5.55000019       7.17687560E-14
   5.61000013       2.24659269E-15
   5.67000008      -8.69044894E-14
   5.73000002      -1.69538239E-13
   5.78999996      -2.14686220E-13
   5.84999990      -1.98001676E-13
   5.90999985      -1.13389949E-13
   5.96999979       2.04460421E-14
   6.03000021       1.62726440E-13
   6.09000015       2.63365908E-13
   6.15000010       2.82053840E-13
   6.21000004       2.06258039E-13
   6.26999998       5.99446165E-14
   6.32999992      -1.02304877E-13
   6.38999987      -2.15290635E-13
   6.44999981      -2.30388733E-13
   6.51000023      -1.38872136E-13
   6.57000017       1.94073951E-14
   6.63000011       1.67611029E-13
   6.69000006       2.21240737E-13
   6.75000000       1.24758304E-13
   6.80999994      -1.19119829E-13
   6.86999989      -4.40407232E-13
   6.92999983      -7.18876456E-13
   6.98999977      -8.22863750E-13
   7.05000019      -6.56761429E-13
   7.11000013      -2.00191683E-13
   7.17000008       4.75449595E-13
   7.23000002       1.21916398E-12
   7.28999996       1.83704506E-12
   7.34999990       2.14127847E-12
   7.40999985       1.99663246E-12
   7.46999979       1.35300516E-12
   7.53000021       2.59616195E-13
   7.59000015      -1.13687922E-12
   7.65000010      -2.60527125E-12
   7.71000004      -3.85069407E-12
   7.76999998      -4.54556618E-12
   7.82999992      -4.37614398E-12
   7.88999987      -3.10846661E-12
   7.94999981      -6.69055360E-13
   8.01000023       2.77636768E-12
   8.06999969       6.77268094E-12
   8.13000011       1.05812225E-11
   8.18999958       1.32584239E-11
   8.25000000       1.38031999E-11
   8.31000042       1.13461671E-11
   8.36999989       5.33794189E-12
   8.43000031      -4.30778026E-12
   8.48999977      -1.71461716E-11
   8.55000019      -3.22142486E-11
   8.60999966      -4.81078545E-11
   8.67000008      -6.30921079E-11
   8.72999954      -7.52176030E-11
   8.78999996      -8.24304722E-11
   8.85000038      -8.26820140E-11
   8.90999985      -7.40575587E-11
   8.97000027      -5.49407082E-11
   9.02999973      -2.42146077E-11
   9.09000015       1.85222289E-11
   9.14999962       7.27654950E-11
   9.21000004       1.36988615E-10
   9.27000046       2.08640258E-10
   9.32999992       2.84279295E-10
   9.39000034       3.59844571E-10
   9.44999981       4.31037955E-10
   9.51000023       4.93781294E-10
   9.56999969       5.44697176E-10
   9.63000011       5.81552528E-10
   9.68999958       6.03599504E-10
   9.75000000       6.11745432E-10
   9.81000042       6.08500694E-10
   9.86999989       5.97679461E-10
   9.93000031       5.83877224E-10
   9.98999977       5.71799996E-10
   10.0500002       5.65561653E-10
   10.1099997       5.68085801E-10
   10.1700001       5.80731629E-10
   10.2299995       6.03218642E-10
   10.2900000       6.33856023E-10
   10.3500004       6.70017097E-10
   10.4099998       7.08745451E-10
   10.4700003       7.47362339E-10
   10.5299997       7.83954679E-10
   10.5900002       8.17666324E-10
   10.6499996       8.48768056E-10
   10.7100000       8.78536521E-10
   10.7700005       9.09008424E-10
   10.8299999       9.42687595E-10
   10.8900003       9.82271819E-10
   10.9499998       1.03042896E-09
   11.0100002       1.08962284E-09
   11.0699997       1.16196375E-09
   11.1300001       1.24905664E-09
   11.1899996       1.35184630E-09
   11.2500000       1.47048729E-09
   11.3100004       1.60429547E-09
   11.3699999       1.75183557E-09
   11.4300003       1.91117233E-09
   11.4899998       2.08025841E-09
   11.5500002       2.25737895E-09
   11.6099997       2.44153475E-09
   11.6700001       2.63265432E-09
   11.7299995       2.83155410E-09
   11.7900000       3.03964143E-09
   11.8500004       3.25840932E-09
   11.9099998       3.48883189E-09
   11.9700003       3.73079789E-09
   12.0299997       3.98271105E-09
   12.0900002       4.24136815E-09
   12.1499996       4.50218129E-09
   12.2100000       4.75974460E-09
   12.2700005       5.00865704E-09
   12.3299999       5.24444221E-09
   12.3900003       5.46433920E-09
   12.4499998       5.66774050E-09
   12.5100002       5.85611293E-09
   12.5699997       6.03238703E-09
   12.6300001       6.19994323E-09
   12.6899996       6.36148245E-09
   12.7500000       6.51809806E-09
   12.8100004       6.66882771E-09
   12.8699999       6.81080614E-09
   12.9300003       6.93996061E-09
   12.9899998       7.05203851E-09
   13.0500002       7.14367232E-09
   13.1099997       7.21322291E-09
   13.1700001       7.26123028E-09
   13.2299995       7.29042782E-09
   13.2900000       7.30535943E-09
   13.3500004       7.31171479E-09
   13.4099998       7.31549932E-09
   13.4700003       7.32217176E-09
   13.5299997       7.33585992E-09
   13.5900002       7.35878558E-09
   13.6499996       7.39100559E-09
   13.7100000       7.43052375E-09
   13.7700005       7.47377360E-09
   13.8299999       7.51636620E-09
   13.8900003       7.55395480E-09
   13.9499998       7.58304886E-09
   14.0100002       7.60164820E-09
   14.0699997       7.60961072E-09
   14.1300001       7.60875984E-09
   14.1899996       7.60273267E-09
   14.2500000       7.59658825E-09
   14.3100004       7.59617702E-09
   14.3699999       7.60732100E-09
   14.4300003       7.63488561E-09
   14.4899998       7.68193242E-09
   14.5500002       7.74913467E-09
   14.6099997       7.83464760E-09
   14.6700001       7.93443888E-09
   14.7299995       8.04297162E-09
   14.7900000       8.15395396E-09
   14.8500004       8.26087199E-09
   14.9099998       8.35711589E-09
   14.9700003       8.43571968E-09
   15.0299997       8.48894999E-09
   15.0900002       8.50805559E-09
   15.1499996       8.48347081E-09
   15.2100000       8.40553849E-09
   15.2700005       8.26556779E-09
   15.3299999       8.05686984E-09
   15.3900003       7.77532438E-09
   15.4499998       7.41921191E-09
   15.5100002       6.98825220E-09
   15.5699997       6.48213883E-09
   15.6300001       5.89900750E-09
   15.6899996       5.23435739E-09
   15.7500000       4.48079085E-09
   15.8100004       3.62868713E-09
   15.8699999       2.66760680E-09
   15.9300003       1.58800328E-09
   15.9899998       3.82719051E-10
   16.0499992      -9.52150137E-10
   16.1100006      -2.41718401E-09
   16.1700001      -4.01017974E-09
   16.2299995      -5.72683501E-09
   16.2900009      -7.56096785E-09
   16.3500004      -9.50374890E-09
   16.4099998      -1.15417764E-08
   16.4699993      -1.36542253E-08
   16.5300007      -1.58098032E-08
   16.5900002      -1.79644619E-08
   16.6499996      -2.00608987E-08
   16.7099991      -2.20304965E-08
   16.7700005      -2.37979521E-08
   16.8299999      -2.52881556E-08
   16.8899994      -2.64343321E-08
   16.9500008      -2.71861946E-08
   17.0100002      -2.75166201E-08
   17.0699997      -2.74257399E-08
   17.1299992      -2.69416844E-08
   17.1900005      -2.61178901E-08
   17.2500000      -2.50275054E-08
   17.3099995      -2.37559288E-08
   17.3700008      -2.23926975E-08
   17.4300003      -2.10239506E-08
   17.4899998      -1.97262704E-08
   17.5499992      -1.85623161E-08
   17.6100006      -1.75781594E-08
   17.6700001      -1.68019518E-08
   17.7299995      -1.62435647E-08
   17.7900009      -1.58949192E-08
   17.8500004      -1.57309774E-08
   17.9099998      -1.57115814E-08
   17.9699993      -1.57843125E-08
   18.0300007      -1.58884621E-08
   18.0900002      -1.59599214E-08
   18.1499996      -1.59365836E-08
   18.2099991      -1.57635558E-08
   18.2700005      -1.53974611E-08
   18.3299999      -1.48091344E-08
   18.3899994      -1.39842529E-08
   18.4500008      -1.29217792E-08
   18.5100002      -1.16305836E-08
   18.5699997      -1.01250048E-08
   18.6299992      -8.42047765E-09
   18.6900005      -6.53041754E-09
   18.7500000      -4.46528947E-09
   18.8099995      -2.23427299E-09
   18.8700008       1.50832111E-10
   18.9300003       2.67051070E-09
   18.9899998       5.29276400E-09
   19.0499992       7.97024402E-09
   19.1100006       1.06404983E-08
   19.1700001       1.32298217E-08
   19.2299995       1.56603459E-08
   19.2900009       1.78592110E-08
   19.3500004       1.97681018E-08
   19.4099998       2.13512674E-08
   19.4699993       2.26003731E-08
   19.5300007       2.35350797E-08
   19.5900002       2.41991653E-08
   19.6499996       2.46528398E-08
   19.7099991       2.49627448E-08
   19.7700005       2.51915644E-08
   19.8299999       2.53892161E-08
   19.8899994       2.55870773E-08
   19.9500008       2.57960195E-08
   20.0100002       2.60080384E-08
   20.0699997       2.62005617E-08
   20.1299992       2.63421658E-08
   20.1900005       2.63983466E-08
   20.2500000       2.63363518E-08
   20.3099995       2.61285997E-08
   20.3700008       2.57545754E-08
   20.4300003       2.52015315E-08
   20.4899998       2.44643275E-08
   20.5499992       2.35448017E-08
   20.6100006       2.24508661E-08
   20.6700001       2.11954507E-08
   20.7299995       1.97953085E-08
   20.7900009       1.82696596E-08
   20.8500004       1.66387100E-08
   20.9099998       1.49221577E-08
   20.9699993       1.31378739E-08
   21.0300007       1.13010543E-08
   21.0900002       9.42410772E-09
   21.1499996       7.51748797E-09
   21.2099991       5.59143709E-09
   21.2700005       3.65838004E-09
   21.3299999       1.73540005E-09
   21.3899994      -1.53892524E-10
   21.4500008      -1.97882510E-09
   21.5100002      -3.70296216E-09
   21.5699997      -5.28736877E-09
   21.6299992      -6.69548283E-09
   21.6900005      -7.89878918E-09
   21.7500000      -8.88215190E-09
   21.8099995      -9.64759295E-09
   21.8700008      -1.02155129E-08
   21.9300003      -1.06228466E-08
   21.9899998      -1.09183134E-08
   22.0499992      -1.11556009E-08
   22.1100006      -1.13858274E-08
   22.1700001      -1.16507799E-08
   22.2299995      -1.19782122E-08
   22.2900009      -1.23799149E-08
   22.3500004      -1.28525768E-08
   22.4099998      -1.33808253E-08
   22.4699993      -1.39414480E-08
   22.5300007      -1.45077736E-08
   22.5900002      -1.50534518E-08
   22.6499996      -1.55552300E-08
   22.7099991      -1.59947504E-08
   22.7700005      -1.63595555E-08
   22.8299999      -1.66436163E-08
   22.8899994      -1.68475385E-08
   22.9500008      -1.69785324E-08
   23.0100002      -1.70501178E-08
   23.0699997      -1.70814634E-08
   23.1299992      -1.70963315E-08
   23.1900005      -1.71215824E-08
   23.2500000      -1.71852506E-08
   23.3099995      -1.73143242E-08
   23.3700008      -1.75323898E-08
   23.4300003      -1.78573920E-08
   23.4899998      -1.82998843E-08
   23.5499992      -1.88620959E-08
   23.6100006      -1.95381045E-08
   23.6700001      -2.03152748E-08
   23.7299995      -2.11768043E-08
   23.7900009      -2.21050875E-08
   23.8500004      -2.30852457E-08
   23.9099998      -2.41081786E-08
   23.9699993      -2.51724082E-08
   24.0300007      -2.62842548E-08
   24.0900002      -2.74561440E-08
   24.1499996      -2.87033508E-08
   24.2099991      -3.00397680E-08
   24.2700005      -3.14736894E-08
   24.3299999      -3.30045076E-08
   24.3899994      -3.46211344E-08
   24.4500008      -3.63024704E-08
   24.5100002      -3.80197562E-08
   24.5699997      -3.97402751E-08
   24.6299992      -4.14314627E-08
   24.6900005      -4.30646097E-08
   24.7500000      -4.46172592E-08
   24.8099995      -4.60739145E-08
   24.8700008      -4.74248516E-08
   24.9300003      -4.86634661E-08
   24.9899998      -4.97827841E-08
   25.0499992      -5.07721083E-08
   25.1100006      -5.16149470E-08
   25.1700001      -5.22889962E-08
   25.2299995      -5.27685842E-08
   25.2900009      -5.30292432E-08
   25.3500004      -5.30533555E-08
   25.4099998      -5.28353148E-08
   25.4699993      -5.23847028E-08
   25.5300007      -5.17262890E-08
   25.5900002      -5.08965385E-08
   25.6499996      -4.99374160E-08
   25.7099991      -4.88889214E-08
   25.7700005      -4.77822688E-08
   25.8299999      -4.66354990E-08
   25.8899994      -4.54525342E-08
   25.9500008      -4.42258283E-08
   26.0100002      -4.29416858E-08
   26.0699997      -4.15866808E-08
   26.1299992      -4.01532354E-08
   26.1900005      -3.86427423E-08
   26.2500000      -3.70653837E-08
   26.3099995      -3.54367664E-08
   26.3700008      -3.37725190E-08
   26.4300003      -3.20828093E-08
   26.4899998      -3.03687422E-08
   26.5499992      -2.86220274E-08
   26.6100006      -2.68284985E-08
   26.6700001      -2.49744581E-08
   26.7299995      -2.30539925E-08
   26.7900009      -2.10747721E-08
   26.8500004      -1.90602059E-08
   26.9099998      -1.70468102E-08
   26.9699993      -1.50771378E-08
   27.0300007      -1.31900837E-08
   27.0900002      -1.14113785E-08
   27.1499996      -9.74725456E-09
   27.2099991      -8.18350099E-09
   27.2700005      -6.69068401E-09
   27.3299999      -5.23442134E-09
   27.3899994      -3.78802323E-09
   27.4500008      -2.34387332E-09
   27.5100002      -9.20069521E-10
   27.5699997       4.39931508E-10
   27.6299992       1.67493952E-09
   27.6900005       2.71900724E-09
   27.7500000       3.51615270E-09
   27.8099995       4.03257649E-09
   27.8700008       4.26281010E-09
   27.9300003       4.22802549E-09
   27.9899998       3.96714483E-09
   28.0499992       3.52361518E-09
   28.1100006       2.93202551E-09
   28.1700001       2.20878471E-09
   28.2299995       1.34973044E-09
   28.2900009       3.35336314E-10
   28.3500004      -8.58254523E-10
   28.4099998      -2.24599273E-09
   28.4699993      -3.82282561E-09
   28.5300007      -5.55843815E-09
   28.5900002      -7.39972528E-09
   28.6499996      -9.28049548E-09
   28.7099991      -1.11356480E-08
   28.7700005      -1.29156561E-08
   28.8299999      -1.45970764E-08
   28.8899994      -1.61859841E-08
   28.9500008      -1.77134165E-08
   29.0100002      -1.92243199E-08
   29.0699997      -2.07634390E-08
   29.1299992      -2.23624266E-08
   29.1900005      -2.40319018E-08
   29.2500000      -2.57604285E-08
   29.3099995      -2.75201604E-08
   29.3700008      -2.92766487E-08
   29.4300003      -3.09992210E-08
   29.4899998      -3.26682787E-08
   29.5499992      -3.42773383E-08
   29.6100006      -3.58294869E-08
   29.6700001      -3.73301354E-08
   29.7299995      -3.87791559E-08
   29.7900009      -4.01656415E-08
   29.8500004      -4.14674339E-08
   29.9099998      -4.26557811E-08
   29.9699993      -4.37035119E-08
   30.0300007      -4.45937509E-08
   30.0900002      -4.53260469E-08
   30.1499996      -4.59175098E-08
   30.2099991      -4.63982879E-08
   30.2700005      -4.68026720E-08
   30.3299999      -4.71585260E-08
   30.3899994      -4.74784621E-08
   30.4500008      -4.77556270E-08
   30.5100002      -4.79656741E-08
   30.5699997      -4.80744689E-08
   30.6299992      -4.80494577E-08
   30.6900005      -4.78713176E-08
   30.7500000      -4.75424571E-08
   30.8099995      -4.70898769E-08
   30.8700008      -4.65614072E-08
   30.9300003      -4.60163747E-08
   30.9899998      -4.55132181E-08
   31.0499992      -4.50973729E-08
   31.1100006      -4.47925856E-08
   31.1700001      -4.45977371E-08
   31.2299995      -4.44898198E-08
   31.2900009      -4.44320563E-08
   31.3500004      -4.43850858E-08
   31.4099998      -4.43183659E-08
   31.4699993      -4.42190959E-08
   31.5300007      -4.40965984E-08
   31.5900002      -4.39810108E-08
   31.6499996      -4.39165007E-08
   31.7099991      -4.39504930E-08
   31.7700005      -4.41213004E-08
   31.8299999      -4.44472441E-08
   31.8899994      -4.49200037E-08
   31.9500008      -4.55042013E-08
   32.0099983      -4.61435405E-08
   32.0699997      -4.67722785E-08
   32.1300011      -4.73291415E-08
   32.1899986      -4.77701434E-08
   32.2500000      -4.80769167E-08
   32.3100014      -4.82584106E-08
   32.3699989      -4.83455764E-08
   32.4300003      -4.83807199E-08
   32.4900017      -4.84045763E-08
   32.5499992      -4.84448783E-08
   32.6100006      -4.85095555E-08
   32.6699982      -4.85864469E-08
   32.7299995      -4.86492802E-08
   32.7900009      -4.86679639E-08
   32.8499985      -4.86197358E-08
   32.9099998      -4.84976574E-08
   32.9700012      -4.83135096E-08
   33.0299988      -4.80941260E-08
   33.0900002      -4.78721027E-08
   33.1500015      -4.76737334E-08
   33.2099991      -4.75080846E-08
   33.2700005      -4.73606683E-08
   33.3300018      -4.71939678E-08
   33.3899994      -4.69549057E-08
   33.4500008      -4.65869654E-08
   33.5099983      -4.60433931E-08
   33.5699997      -4.52974049E-08
   33.6300011      -4.43463080E-08
   33.6899986      -4.32083773E-08
   33.7500000      -4.19136974E-08
   33.8100014      -4.04920861E-08
   33.8699989      -3.89620993E-08
   33.9300003      -3.73249662E-08
   33.9900017      -3.55654990E-08
   34.0499992      -3.36600898E-08
   34.1100006      -3.15894049E-08
   34.1699982      -2.93518081E-08
   34.2299995      -2.69733356E-08
   34.2900009      -2.45105518E-08
   34.3499985      -2.20450005E-08
   34.4099998      -1.96701002E-08
   34.4700012      -1.74738712E-08
   34.5299988      -1.55220548E-08
   34.5900002      -1.38463259E-08
   34.6500015      -1.24408466E-08
   34.7099991      -1.12681091E-08
   34.7700005      -1.02723758E-08
   34.8300018      -9.39680689E-09
   34.8899994      -8.59939586E-09
   34.9500008      -7.86315990E-09
   35.0099983      -7.19778948E-09
   35.0699997      -6.63242661E-09
   35.1300011      -6.20189944E-09
   35.1899986      -5.93058669E-09
   35.2500000      -5.81882587E-09
   35.3100014      -5.83596016E-09
   35.3699989      -5.92216276E-09
   35.4300003      -5.99851990E-09
   35.4900017      -5.98241767E-09
   35.5499992      -5.80373527E-09
   35.6100006      -5.41723155E-09
   35.6699982      -4.80786522E-09
   35.7299995      -3.98814448E-09
   35.7900009      -2.98916825E-09
   35.8499985      -1.84892668E-09
   35.9099998      -6.02024652E-10
   35.9700012       7.25911220E-10
   36.0299988       2.11789719E-09
   36.0900002       3.56045371E-09
   36.1500015       5.03660980E-09
   36.2099991       6.52060583E-09
   36.2700005       7.97704658E-09
   36.3300018       9.36536626E-09
   36.3899994       1.06482485E-08
   36.4500008       1.18009078E-08
   36.5099983       1.28175515E-08
   36.5699997       1.37121186E-08
   36.6300011       1.45122678E-08
   36.6899986       1.52479256E-08
   36.7500000       1.59376938E-08
   36.8100014       1.65774399E-08
   36.8699989       1.71349832E-08
   36.9300003       1.75531607E-08
   36.9900017       1.77610335E-08
   37.0499992       1.76904678E-08
   37.1100006       1.72935071E-08
   37.1699982       1.65554486E-08
   37.2299995       1.54996282E-08
   37.2900009       1.41822127E-08
   37.3499985       1.26782806E-08
   37.4099998       1.10630287E-08
   37.4700012       9.39345135E-09
   37.5299988       7.69566633E-09
   37.5900002       5.96138383E-09
   37.6500015       4.15423074E-09
   37.7099991       2.22381003E-09
   37.7700005       1.23205404E-10
   37.8300018      -2.17511809E-09
   37.8899994      -4.66932848E-09
   37.9500008      -7.32652650E-09
   38.0099983      -1.00892192E-08
   38.0699997      -1.28876056E-08
   38.1300011      -1.56539208E-08
   38.1899986      -1.83348572E-08
   38.2500000      -2.08990087E-08
   38.3100014      -2.33379751E-08
   38.3699989      -2.56616737E-08
   38.4300003      -2.78900121E-08
   38.4900017      -3.00438749E-08
   38.5499992      -3.21382458E-08
   38.6100006      -3.41793438E-08
   38.6699982      -3.61660213E-08
   38.7299995      -3.80944378E-08
   38.7900009      -3.99637763E-08
   38.8499985      -4.17807158E-08
   38.9099998      -4.35609593E-08
   38.9700012      -4.53272833E-08
   39.0299988      -4.71048764E-08
   39.0900002      -4.89156591E-08
   39.1500015      -5.07735507E-08
   39.2099991      -5.26820436E-08
   39.2700005      -5.46345689E-08
   39.3300018      -5.66169405E-08
   39.3899994      -5.86103930E-08
   39.4500008      -6.05938695E-08
   39.5099983      -6.25445296E-08
   39.5699997      -6.44367333E-08
   39.6300011      -6.62407302E-08
   39.6899986      -6.79225352E-08
   39.7500000      -6.94465001E-08
   39.8100014      -7.07808923E-08
   39.8699989      -7.19053759E-08
   39.9300003      -7.28181035E-08
   39.9900017      -7.35395886E-08
   40.0499992      -7.41111563E-08
   40.1100006      -7.45871134E-08
   40.1699982      -7.50221787E-08
   40.2299995      -7.54570451E-08
   40.2900009      -7.59065131E-08
   40.3499985      -7.63538210E-08
   40.4099998      -7.67534232E-08
   40.4700012      -7.70419959E-08
   40.5299988      -7.71547235E-08
   40.5900002      -7.70425714E-08
   40.6500015      -7.66853532E-08
   40.7099991      -7.60969669E-08
   40.7700005      -7.53210401E-08
   40.8300018      -7.44183595E-08
   40.8899994      -7.34495487E-08
   40.9500008      -7.24582989E-08
   41.0099983      -7.14597945E-08
   41.0699997      -7.04378351E-08
   41.1300011      -6.93515005E-08
   41.1899986      -6.81490633E-08
   41.2500000      -6.67851694E-08
   41.3100014      -6.52359802E-08
   41.3699989      -6.35078408E-08
   41.4300003      -6.16371452E-08
   41.4900017      -5.96816676E-08
   41.5499992      -5.77064192E-08
   41.6100006      -5.57686164E-08
   41.6699982      -5.39063869E-08
   41.7299995      -5.21345278E-08
   41.7900009      -5.04481186E-08
   41.8499985      -4.88323160E-08
   41.9099998      -4.72746180E-08
   41.9700012      -4.57754972E-08
   42.0299988      -4.43537793E-08
   42.0900002      -4.30451941E-08
   42.1500015      -4.18945270E-08
   42.2099991      -4.09438492E-08
   42.2700005      -4.02203604E-08
   42.3300018      -3.97273219E-08
   42.3899994      -3.94407493E-08
   42.4500008      -3.93128126E-08
   42.5099983      -3.92810122E-08
   42.5699997      -3.92808737E-08
   42.6300011      -3.92587047E-08
   42.6899986      -3.91812094E-08
   42.7500000      -3.90393957E-08
   42.8100014      -3.88458723E-08
   42.8699989      -3.86265029E-08
   42.9300003      -3.84088814E-08
   42.9900017      -3.82110450E-08
   43.0499992      -3.80338072E-08
   43.1100006      -3.78588112E-08
   43.1699982      -3.76528746E-08
   43.2299995      -3.73772018E-08
   43.2900009      -3.69986033E-08
   43.3499985      -3.64994150E-08
   43.4099998      -3.58830654E-08
   43.4700012      -3.51738016E-08
   43.5299988      -3.44105473E-08
   43.5900002      -3.36368231E-08
   43.6500015      -3.28897052E-08
   43.7099991      -3.21910214E-08
   43.7700005      -3.15434683E-08
   43.8300018      -3.09325650E-08
   43.8899994      -3.03337124E-08
   43.9500008      -2.97217344E-08
   44.0099983      -2.90796294E-08
   44.0699997      -2.84034005E-08
   44.1300011      -2.77013168E-08
   44.1899986      -2.69880385E-08
   44.2500000      -2.62759858E-08
   44.3100014      -2.55674379E-08
   44.3699989      -2.48506602E-08
   44.4300003      -2.41018974E-08
   44.4900017      -2.32928787E-08
   44.5499992      -2.24013554E-08
   44.6100006      -2.14210054E-08
   44.6699982      -2.03671693E-08
   44.7299995      -1.92762091E-08
   44.7900009      -1.81984774E-08
   44.8499985      -1.71869399E-08
   44.9099998      -1.62849005E-08
   44.9700012      -1.55165143E-08
   45.0299988      -1.48827617E-08
   45.0900002      -1.43638257E-08
   45.1500015      -1.39267700E-08
   45.2099991      -1.35358356E-08
   45.2700005      -1.31620874E-08
   45.3300018      -1.27895703E-08
   45.3899994      -1.24165682E-08
   45.4500008      -1.20523138E-08
   45.5099983      -1.17110366E-08
   45.5699997      -1.14059588E-08
   45.6300011      -1.11455920E-08
   45.6899986      -1.09335456E-08
   45.7500000      -1.07715747E-08
   45.8100014      -1.06643405E-08
   45.8699989      -1.06237934E-08
   45.9300003      -1.06713287E-08
   45.9900017      -1.08368452E-08
   46.0499992      -1.11550102E-08
   46.1100006      -1.16600605E-08
   46.1699982      -1.23809523E-08
   46.2299995      -1.33385409E-08
   46.2900009      -1.45457433E-08
   46.3499985      -1.60106755E-08
   46.4099998      -1.77418897E-08
   46.4700012      -1.97542853E-08
   46.5299988      -2.20742322E-08
   46.5900002      -2.47429561E-08
   46.6500015      -2.78178955E-08
   46.7099991      -3.13725081E-08
   46.7700005      -3.54953968E-08
   46.8300018      -4.02897768E-08
   46.8899994      -4.58740672E-08
   46.9500008      -5.23839212E-08
   47.0099983      -5.99757897E-08
   47.0699997      -6.88315822E-08
   47.1300011      -7.91640602E-08
   47.1899986      -9.12224252E-08
   47.2500000      -1.05297651E-07
   47.3100014      -1.21727453E-07
   47.3699989      -1.40900994E-07
   47.4300003      -1.63263920E-07
   47.4900017      -1.89324354E-07
   47.5499992      -2.19660535E-07
   47.6100006      -2.54930626E-07
   47.6699982      -2.95883979E-07
   47.7299995      -3.43373898E-07
   47.7900009      -3.98370986E-07
   47.8499985      -4.61976612E-07
   47.9099998      -5.35437096E-07
   47.9700012      -6.20159028E-07
   48.0299988      -7.17725811E-07
   48.0900002      -8.29916701E-07
   48.1500015      -9.58727242E-07
   48.2099991      -1.10639019E-06
   48.2700005      -1.27539715E-06
   48.3300018      -1.46851824E-06
   48.3899994      -1.68882093E-06
   48.4500008      -1.93968958E-06
   48.5099983      -2.22484437E-06
   48.5699997      -2.54836368E-06
   48.6300011      -2.91470792E-06
   48.6899986      -3.32874674E-06
   48.7500000      -3.79578842E-06
   48.8100014      -4.32160505E-06
   48.8699989      -4.91245692E-06
   48.9300003      -5.57511203E-06
   48.9900017      -6.31685543E-06
   49.0499992      -7.14549788E-06
   49.1100006      -8.06937624E-06
   49.1699982      -9.09735627E-06
   49.2299995      -1.02388340E-05
   49.2900009      -1.15037319E-05
   49.3499985      -1.29025038E-05
   49.4099998      -1.44461264E-05
   49.4700012      -1.61460830E-05
   49.5299988      -1.80143488E-05
   49.5900002      -2.00633476E-05
   49.6500015      -2.23058960E-05
   49.7099991      -2.47551543E-05
   49.7700005      -2.74245449E-05
   49.8300018      -3.03276884E-05
   49.8899994      -3.34783290E-05
   49.9500008      -3.68902511E-05
   50.0099983      -4.05772007E-05
   50.0699997      -4.45527876E-05
   50.1300011      -4.88303740E-05
   50.1899986      -5.34229475E-05
   50.2500000      -5.83430010E-05
   50.3100014      -6.36023688E-05
   50.3699989      -6.92120811E-05
   50.4300003      -7.51822081E-05
   50.4900017      -8.15217209E-05
   50.5499992      -8.82383392E-05
   50.6100006      -9.53384006E-05