  -2.400000      0.0000000E+00
  -2.340000      0.0000000E+00
  -2.280000      0.0000000E+00
  -2.220000      0.0000000E+00
  -2.160000      0.0000000E+00
  -2.100000      0.0000000E+00
  -2.040000      0.0000000E+00
  -1.980000      0.0000000E+00
  -1.920000      4.1977502E-28
  -1.860000      1.3106705E-26
  -1.800000      1.4962947E-25
  -1.740000      1.0077001E-24
  -1.680000      4.7280311E-24
  -1.620000      1.6672021E-23
  -1.560000      4.5602007E-23
  -1.500000      9.6092744E-23
  -1.440000      1.4347323E-22
  -1.380000      8.7017511E-23
  -1.320000     -2.9830486E-22
  -1.260000     -1.3468055E-21
  -1.200000     -3.3199259E-21
  -1.140000     -5.9735801E-21
  -1.080000     -7.9269308E-21
  -1.020000     -6.1305712E-21
 -0.9600000      4.0257891E-21
 -0.9000000      2.7387685E-20
 -0.8400000      6.6225986E-20
 -0.7800000      1.1625588E-19
 -0.7200000      1.6230506E-19
 -0.6600000      1.7458997E-19
 -0.6000000      1.0661348E-19
 -0.5400000     -1.0320051E-19
 -0.4800000     -5.2062014E-19
 -0.4200000     -1.1849041E-18
 -0.3600000     -2.0458613E-18
 -0.3000000     -2.8666790E-18
 -0.2400000     -3.1217151E-18
 -0.1800000     -1.9680453E-18
 -0.1200000      1.5865236E-18
 -5.9999999E-02  8.2051180E-18
  0.0000000E+00  1.7432595E-17
  5.9999999E-02  2.6828202E-17
  0.1200000      3.1538451E-17
  0.1800000      2.4996348E-17
  0.2400000      1.2574428E-18
  0.3000000     -4.1189518E-17
  0.3600000     -9.5379358E-17
  0.4200000     -1.4387772E-16
  0.4800000     -1.6139014E-16
  0.5400000     -1.2332180E-16
  0.6000000     -1.8814163E-17
  0.6600000      1.3681289E-16
  0.7200000      2.9778126E-16
  0.7800000      3.9846018E-16
  0.8400000      3.8006953E-16
  0.9000000      2.2550098E-16
  0.9600000     -1.4711784E-17
   1.020000     -2.2525200E-16
   1.080000     -2.6981713E-16
   1.140000     -6.8755001E-17
   1.200000      3.2069409E-16
   1.260000      6.6935820E-16
   1.320000      6.2955470E-16
   1.380000     -1.1224379E-16
   1.440000     -1.6260635E-15
   1.500000     -3.5667469E-15
   1.560000     -5.1536707E-15
   1.620000     -5.3783272E-15
   1.680000     -3.4210761E-15
   1.740000      8.6321615E-16
   1.800000      6.6210007E-15
   1.860000      1.2064857E-14
   1.920000      1.5027486E-14
   1.980000      1.3879273E-14
   2.040000      8.4480415E-15
   2.100000      4.5788526E-16
   2.160000     -6.9000456E-15
   2.220000     -1.0316595E-14
   2.280000     -8.2089622E-15
   2.340000     -2.2233480E-15
   2.400000      2.5518837E-15
   2.460000     -7.3885996E-16
   2.520000     -1.7338429E-14
   2.580000     -4.6932042E-14
   2.640000     -8.0983214E-14
   2.700000     -1.0321493E-13
   2.760000     -9.4203366E-14
   2.820000     -3.9387215E-14
   2.880000      6.2068081E-14
   2.940000      1.9135014E-13
   3.000000      3.1067065E-13
   3.060000      3.7231538E-13
   3.120000      3.3467944E-13
   3.180000      1.8048719E-13
   3.240000     -6.9784720E-14
   3.300000     -3.5596485E-13
   3.360000     -5.9121978E-13
   3.420000     -6.8822639E-13
   3.480000     -5.9100549E-13
   3.540000     -3.0126631E-13
   3.600000      1.1173896E-13
   3.660000      5.2434397E-13
   3.720000      7.9336472E-13
   3.780000      8.0325747E-13
   3.840000      5.1031857E-13
   3.900000     -3.1949646E-14
   3.960000     -6.7705211E-13
   4.020000     -1.2205926E-12
   4.080000     -1.4570348E-12
   4.140000     -1.2412276E-12
   4.200000     -5.3588573E-13
   4.260000      5.6906801E-13
   4.320000      1.8698311E-12
   4.380000      3.0886203E-12
   4.440000      3.9266359E-12
   4.500000      4.1153951E-12
   4.560000      3.4569836E-12
   4.620000      1.8526701E-12
   4.680000     -6.7297903E-13
   4.740000     -3.9436258E-12
   4.800000     -7.5960653E-12
   4.860000     -1.1049531E-11
   4.920000     -1.3504763E-11
   4.980000     -1.4005848E-11
   5.040000     -1.1591917E-11
   5.100000     -5.5436844E-12
   5.160000      4.3050737E-12
   5.220000      1.7259059E-11
   5.280000      3.1552174E-11
   5.340000      4.4339490E-11
   5.400000      5.1968537E-11
   5.460000      5.0554852E-11
   5.520000      3.6814041E-11
   5.580000      9.0268869E-12
   5.640000     -3.2045706E-11
   5.700000     -8.2508507E-11
   5.760000     -1.3513461E-10
   5.820000     -1.7976594E-10
   5.880000     -2.0436589E-10
   5.940000     -1.9667638E-10
   6.000000     -1.4633086E-10
   6.060000     -4.7190758E-11
   6.120000      1.0038599E-10
   6.180000      2.8766409E-10
   6.240000      4.9635190E-10
   6.300000      6.9839923E-10
   6.360000      8.5696689E-10
   6.420000      9.2864694E-10
   6.480000      8.6685853E-10
   6.540000      6.2617306E-10
   6.600000      1.6715432E-10
   6.660000     -5.3882432E-10
   6.720000     -1.5053842E-09
   6.780000     -2.7281222E-09
   6.840000     -4.1832009E-09
   6.900000     -5.8277654E-09
   6.960000     -7.6021864E-09
   7.020000     -9.4338803E-09
   7.080000     -1.1242324E-08
   7.140000     -1.2944736E-08
   7.200000     -1.4461939E-08
   7.260000     -1.5723916E-08
   7.320000     -1.6674681E-08
   7.380000     -1.7276145E-08
   7.440000     -1.7510780E-08
   7.500000     -1.7382886E-08
   7.560000     -1.6918346E-08
   7.620000     -1.6162790E-08
   7.680000     -1.5178134E-08
   7.740000     -1.4037592E-08
   7.800000     -1.2819364E-08
   7.860000     -1.1599436E-08
   7.920000     -1.0444086E-08
   7.980000     -9.4029486E-09
   8.040000     -8.5035712E-09
   8.100000     -7.7483922E-09
   8.160000     -7.1148931E-09
   8.220000     -6.5592931E-09
   8.280000     -6.0235816E-09
   8.340000     -5.4450897E-09
   8.400000     -4.7672257E-09
   8.460000     -3.9496206E-09
   8.520000     -2.9759011E-09
   8.580000     -1.8576238E-09
   8.640000     -6.3356048E-10
   8.700000      6.3559547E-10
   8.760000      1.8761550E-09
   8.820000      3.0123501E-09
   8.880000      3.9772661E-09
   8.940000      4.7219215E-09
   9.000000      5.2211178E-09
   9.060000      5.4754432E-09
   9.120000      5.5096110E-09
   9.180000      5.3679758E-09
   9.240000      5.1084181E-09
   9.300000      4.7957980E-09
   9.360000      4.4958828E-09
   9.420000      4.2701966E-09
   9.480000      4.1718082E-09
   9.540000      4.2418073E-09
   9.600000      4.5062278E-09
   9.660000      4.9734163E-09
   9.720000      5.6322680E-09
   9.780000      6.4520735E-09
   9.840000      7.3848430E-09
   9.900000      8.3707103E-09
   9.960000      9.3463415E-09
   10.02000      1.0255398E-08
   10.08000      1.1059159E-08
   10.14000      1.1744890E-08
   10.20000      1.2329576E-08
   10.26000      1.2857403E-08
   10.32000      1.3390744E-08
   10.38000      1.3996124E-08
   10.44000      1.4728124E-08
   10.50000      1.5615003E-08
   10.56000      1.6649778E-08
   10.62000      1.7789286E-08
   10.68000      1.8961849E-08
   10.74000      2.0081876E-08
   10.80000      2.1067851E-08
   10.86000      2.1859124E-08
   10.92000      2.2427111E-08
   10.98000      2.2777977E-08
   11.04000      2.2946246E-08
   11.10000      2.2981242E-08
   11.16000      2.2930445E-08
   11.22000      2.2824651E-08
   11.28000      2.2669383E-08
   11.34000      2.2445084E-08
   11.40000      2.2115945E-08
   11.46000      2.1644556E-08
   11.52000      2.1007619E-08
   11.58000      2.0207555E-08
   11.64000      1.9275998E-08
   11.70000      1.8267603E-08
   11.76000      1.7245759E-08
   11.82000      1.6264396E-08
   11.88000      1.5351624E-08
   11.94000      1.4500586E-08
   12.00000      1.3670913E-08
   12.06000      1.2800953E-08
   12.12000      1.1827539E-08
   12.18000      1.0707526E-08
   12.24000      9.4344639E-09
   12.30000      8.0449833E-09
   12.36000      6.6123715E-09
   12.42000      5.2286824E-09
   12.48000      3.9802521E-09
   12.54000      2.9237051E-09
   12.60000      2.0696440E-09
   12.66000      1.3791702E-09
   12.72000      7.7471218E-10
   12.78000      1.6246332E-10
   12.84000     -5.3976834E-10
   12.90000     -1.3772280E-09
   12.96000     -2.3427920E-09
   13.02000     -3.3761394E-09
   13.08000     -4.3781010E-09
   13.14000     -5.2364180E-09
   13.20000     -5.8558220E-09
   13.26000     -6.1839867E-09
   13.32000     -6.2259766E-09
   13.38000     -6.0430274E-09
   13.44000     -5.7359295E-09
   13.50000     -5.4177574E-09
   13.56000     -5.1837956E-09
   13.62000     -5.0873692E-09
   13.68000     -5.1285651E-09
   13.74000     -5.2590443E-09
   13.80000     -5.4013047E-09
   13.86000     -5.4764304E-09
   13.92000     -5.4317750E-09
   13.98000     -5.2600559E-09
   14.04000     -5.0039826E-09
   14.10000     -4.7449875E-09
   14.16000     -4.5795483E-09
   14.22000     -4.5904298E-09
   14.28000     -4.8217297E-09
   14.34000     -5.2654281E-09
   14.40000     -5.8635670E-09
   14.46000     -6.5253341E-09
   14.52000     -7.1537580E-09
   14.58000     -7.6737994E-09
   14.64000     -8.0532967E-09
   14.70000     -8.3104998E-09
   14.76000     -8.5061247E-09
   14.82000     -8.7226084E-09
   14.88000     -9.0370742E-09
   14.94000     -9.4962775E-09
   15.00000     -1.0101025E-08
   15.06000     -1.0804484E-08
   15.12000     -1.1524493E-08
   15.18000     -1.2165748E-08
   15.24000     -1.2644870E-08
   15.30000     -1.2910698E-08
   15.36000     -1.2953826E-08
   15.42000     -1.2802874E-08
   15.48000     -1.2509136E-08
   15.54000     -1.2124788E-08
   15.60000     -1.1681766E-08
   15.66000     -1.1178071E-08
   15.72000     -1.0575912E-08
   15.78000     -9.8123634E-09
   15.84000     -8.8194207E-09
   15.90000     -7.5474791E-09
   15.96000     -5.9852847E-09
   16.02000     -4.1705257E-09
   16.08000     -2.1879558E-09
   16.14000     -1.5551596E-10
   16.20000      1.7978649E-09
   16.26000      3.5570840E-09
   16.32000      5.0422715E-09
   16.38000      6.2221015E-09
   16.44000      7.1167707E-09
   16.50000      7.7911810E-09
   16.56000      8.3411074E-09
   16.62000      8.8763681E-09
   16.68000      9.5049177E-09
   16.74000      1.0320704E-08
   16.80000      1.1396410E-08
   16.86000      1.2780561E-08
   16.92000      1.4497356E-08
   16.98000      1.6547304E-08
   17.04000      1.8907224E-08
   17.10000      2.1529251E-08
   17.16000      2.4339617E-08
   17.22000      2.7238787E-08
   17.28000      3.0104736E-08
   17.34000      3.2800607E-08
   17.40000      3.5186961E-08
   17.46000      3.7137418E-08
   17.52000      3.8555282E-08
   17.58000      3.9387913E-08
   17.64000      3.9635683E-08
   17.70000      3.9352958E-08
   17.76000      3.8640120E-08
   17.82000      3.7627512E-08
   17.88000      3.6454033E-08
   17.94000      3.5244504E-08
   18.00000      3.4090380E-08
   18.06000      3.3037686E-08
   18.12000      3.2084543E-08
   18.18000      3.1188296E-08
   18.24000      3.0280006E-08
   18.30000      2.9282598E-08
   18.36000      2.8128165E-08
   18.42000      2.6770715E-08
   18.48000      2.5192097E-08
   18.54000      2.3400899E-08
   18.60000      2.1426079E-08
   18.66000      1.9308185E-08
   18.72000      1.7091354E-08
   18.78000      1.4818569E-08
   18.84000      1.2531077E-08
   18.90000      1.0271280E-08
   18.96000      8.0869071E-09
   19.02000      6.0335554E-09
   19.08000      4.1730166E-09
   19.14000      2.5661029E-09
   19.20000      1.2606042E-09
   19.26000      2.7705657E-10
   19.32000     -4.0354309E-10
   19.38000     -8.4565271E-10
   19.44000     -1.1554229E-09
   19.50000     -1.4663122E-09
   19.56000     -1.9161381E-09
   19.62000     -2.6203910E-09
   19.68000     -3.6482697E-09
   19.74000     -5.0077782E-09
   19.80000     -6.6442465E-09
   19.86000     -8.4532417E-09
   19.92000     -1.0305017E-08
   19.98000     -1.2074413E-08
   20.04000     -1.3668597E-08
   20.10000     -1.5045590E-08
   20.16000     -1.6219060E-08
   20.22000     -1.7248739E-08
   20.28000     -1.8219747E-08
   20.34000     -1.9217032E-08
   20.40000     -2.0302213E-08
   20.46000     -2.1499028E-08
   20.52000     -2.2790793E-08
   20.58000     -2.4129614E-08
   20.64000     -2.5453712E-08
   20.70000     -2.6707145E-08
   20.76000     -2.7855828E-08
   20.82000     -2.8895361E-08
   20.88000     -2.9848856E-08
   20.94000     -3.0756148E-08
   21.00000     -3.1658313E-08
   21.06000     -3.2582619E-08
   21.12000     -3.3532803E-08
   21.18000     -3.4487623E-08
   21.24000     -3.5408153E-08
   21.30000     -3.6251450E-08
   21.36000     -3.6986467E-08
   21.42000     -3.7607244E-08
   21.48000     -3.8139344E-08
   21.54000     -3.8637392E-08
   21.60000     -3.9174314E-08
   21.66000     -3.9825103E-08
   21.72000     -4.0649727E-08
   21.78000     -4.1679836E-08
   21.84000     -4.2912848E-08
   21.90000     -4.4314785E-08
   21.96000     -4.5830770E-08
   22.02000     -4.7399944E-08
   22.08000     -4.8970410E-08
   22.14000     -5.0510202E-08
   22.20000     -5.2011504E-08
   22.26000     -5.3487515E-08
   22.32000     -5.4963436E-08
   22.38000     -5.6464646E-08
   22.44000     -5.8005615E-08
   22.50000     -5.9582732E-08
   22.56000     -6.1172791E-08
   22.62000     -6.2737215E-08
   22.68000     -6.4230456E-08
   22.74000     -6.5609854E-08
   22.80000     -6.6843903E-08
   22.86000     -6.7916325E-08
   22.92000     -6.8824910E-08
   22.98000     -6.9575314E-08
   23.04000     -7.0171978E-08
   23.10000     -7.0609190E-08
   23.16000     -7.0865589E-08
   23.22000     -7.0904491E-08
   23.28000     -7.0680599E-08
   23.34000     -7.0151891E-08
   23.40000     -6.9293051E-08
   23.46000     -6.8106708E-08
   23.52000     -6.6628154E-08
   23.58000     -6.4921728E-08
   23.64000     -6.3068832E-08
   23.70000     -6.1150580E-08
   23.76000     -5.9229613E-08
   23.82000     -5.7336404E-08
   23.88000     -5.5464135E-08
   23.94000     -5.3573793E-08
   24.00000     -5.1608236E-08
   24.06000     -4.9511172E-08
   24.12000     -4.7245525E-08
   24.18000     -4.4805837E-08
   24.24000     -4.2221231E-08
   24.30000     -3.9548404E-08
   24.36000     -3.6857163E-08
   24.42000     -3.4213318E-08
   24.48000     -3.1664314E-08
   24.54000     -2.9231892E-08
   24.60000     -2.6913765E-08
   24.66000     -2.4693062E-08
   24.72000     -2.2551998E-08
   24.78000     -2.0484830E-08
   24.84000     -1.8505528E-08
   24.90000     -1.6647416E-08
   24.96000     -1.4954756E-08
   25.02000     -1.3468922E-08
   25.08000     -1.2213718E-08
   25.14000     -1.1184804E-08
   25.20000     -1.0347089E-08
   25.26000     -9.6415258E-09
   25.32000     -8.9998569E-09
   25.38000     -8.3632630E-09
   25.44000     -7.6995041E-09
   25.50000     -7.0133614E-09
   25.56000     -6.3470296E-09
   25.62000     -5.7700285E-09
   25.68000     -5.3612830E-09
   25.74000     -5.1883489E-09
   25.80000     -5.2895994E-09
   25.86000     -5.6642881E-09
   25.92000     -6.2730590E-09
   25.98000     -7.0483686E-09
   26.04000     -7.9114661E-09
   26.10000     -8.7907877E-09
   26.16000     -9.6364721E-09
   26.22000     -1.0427142E-08
   26.28000     -1.1167669E-08
   26.34000     -1.1879503E-08
   26.40000     -1.2587376E-08
   26.46000     -1.3307113E-08
   26.52000     -1.4038539E-08
   26.58000     -1.4765517E-08
   26.64000     -1.5462451E-08
   26.70000     -1.6104313E-08
   26.76000     -1.6676006E-08
   26.82000     -1.7177268E-08
   26.88000     -1.7620968E-08
   26.94000     -1.8025245E-08
   27.00000     -1.8402233E-08
   27.06000     -1.8747535E-08
   27.12000     -1.9034559E-08
   27.18000     -1.9216294E-08
   27.24000     -1.9234696E-08
   27.30000     -1.9035275E-08
   27.36000     -1.8582700E-08
   27.42000     -1.7872724E-08
   27.48000     -1.6936720E-08
   27.54000     -1.5837355E-08
   27.60000     -1.4656568E-08
   27.66000     -1.3479389E-08
   27.72000     -1.2378346E-08
   27.78000     -1.1402962E-08
   27.84000     -1.0577079E-08
   27.90000     -9.9041140E-09
   27.96000     -9.3776986E-09
   28.02000     -8.9933065E-09
   28.08000     -8.7562411E-09
   28.14000     -8.6826990E-09
   28.20000     -8.7932310E-09
   28.26000     -9.1008614E-09
   28.32000     -9.5983470E-09
   28.38000     -1.0249761E-08
   28.44000     -1.0990425E-08
   28.50000     -1.1736512E-08
   28.56000     -1.2402234E-08
   28.62000     -1.2919685E-08
   28.68000     -1.3254954E-08
   28.74000     -1.3414922E-08
   28.80000     -1.3441832E-08
   28.86000     -1.3396643E-08
   28.92000     -1.3335971E-08
   28.98000     -1.3289806E-08
   29.04000     -1.3247289E-08
   29.10000     -1.3155476E-08
   29.16000     -1.2931939E-08
   29.22000     -1.2487591E-08
   29.28000     -1.1752806E-08
   29.34000     -1.0698858E-08
   29.40000     -9.3482413E-09
   29.46000     -7.7710887E-09
   29.52000     -6.0692948E-09
   29.58000     -4.3536268E-09
   29.64000     -2.7209051E-09
   29.70000     -1.2376903E-09
   29.76000      6.5691994E-11
   29.82000      1.1905747E-09
   29.88000      2.1579141E-09
   29.94000      2.9938316E-09
   30.00000      3.7178260E-09
   30.06000      4.3371027E-09
   30.12000      4.8478310E-09
   30.18000      5.2415339E-09
   30.24000      5.5130984E-09
   30.30000      5.6666511E-09
   30.36000      5.7166942E-09
   30.42000      5.6840133E-09
   30.48000      5.5880771E-09
   30.54000      5.4391687E-09
   30.60000      5.2337104E-09
   30.66000      4.9551239E-09
   30.72000      4.5804347E-09
   30.78000      4.0905430E-09
   30.84000      3.4804619E-09
   30.90000      2.7655627E-09
   30.96000      1.9811432E-09
   31.02000      1.1750300E-09
   31.08000      3.9561976E-10
   31.14000     -3.2029843E-10
   31.20000     -9.5520580E-10
   31.26000     -1.5106736E-09
   31.32000     -1.9988333E-09
   31.38000     -2.4282285E-09
   31.44000     -2.7892384E-09
   31.50000     -3.0449563E-09
   31.56000     -3.1319483E-09
   31.62000     -2.9720970E-09
   31.68000     -2.4928402E-09
   31.74000     -1.6498967E-09
   31.80000     -4.4524523E-10
   31.86000      1.0657955E-09
   31.92000      2.7813207E-09
   31.98000      4.5720960E-09
   32.04000      6.3080852E-09
   32.10000      7.8848048E-09
   32.16000      9.2422257E-09
   32.22000      1.0371346E-08
   32.28000      1.1307416E-08
   32.34000      1.2112686E-08
   32.40000      1.2854351E-08
   32.46000      1.3584319E-08
   32.52000      1.4326154E-08
   32.58000      1.5072034E-08
   32.64000      1.5789213E-08
   32.70000      1.6432756E-08
   32.76000      1.6959754E-08
   32.82000      1.7340323E-08
   32.88000      1.7562137E-08
   32.94000      1.7627773E-08
   33.00000      1.7546588E-08
   33.06000      1.7324682E-08
   33.12000      1.6957038E-08
   33.18000      1.6425005E-08
   33.24000      1.5700278E-08
   33.30000      1.4754006E-08
   33.36000      1.3567729E-08
   33.42000      1.2141946E-08
   33.48000      1.0498804E-08
   33.54000      8.6774357E-09
   33.60000      6.7230923E-09
   33.66000      4.6735744E-09
   33.72000      2.5476328E-09
   33.78000      3.3959005E-10
   33.84000     -1.9775230E-09
   33.90000     -4.4408210E-09
   33.96000     -7.0816504E-09
   34.02000     -9.9098649E-09
   34.08000     -1.2903379E-08
   34.14000     -1.6006540E-08
   34.20000     -1.9138179E-08
   34.26000     -2.2207177E-08
   34.32000     -2.5131092E-08
   34.38000     -2.7852433E-08
   34.44000     -3.0348009E-08
   34.50000     -3.2628915E-08
   34.56000     -3.4731677E-08
   34.62000     -3.6703671E-08
   34.68000     -3.8587526E-08
   34.74000     -4.0409205E-08
   34.80000     -4.2173145E-08
   34.86000     -4.3865310E-08
   34.92000     -4.5462674E-08
   34.98000     -4.6945619E-08
   35.04000     -4.8309023E-08
   35.10000     -4.9568339E-08
   35.16000     -5.0758572E-08
   35.22000     -5.1926285E-08
   35.28000     -5.3116924E-08
   35.34000     -5.4361372E-08
   35.40000     -5.5666000E-08
   35.46000     -5.7009636E-08
   35.52000     -5.8348888E-08
   35.58000     -5.9630551E-08
   35.64000     -6.0807430E-08
   35.70000     -6.1852653E-08
   35.76000     -6.2767782E-08
   35.82000     -6.3582043E-08
   35.88000     -6.4343098E-08
   35.94000     -6.5102803E-08
   36.00000     -6.5903080E-08
   36.06000     -6.6767086E-08
   36.12000     -6.7698622E-08
   36.18000     -6.8689701E-08
   36.24000     -6.9732799E-08
   36.30000     -7.0832762E-08
   36.36000     -7.2013279E-08
   36.42000     -7.3315150E-08
   36.48000     -7.4786492E-08
   36.54000     -7.6468147E-08
   36.60000     -7.8379394E-08
   36.66000     -8.0508997E-08
   36.72000     -8.2814971E-08
   36.78000     -8.5233332E-08
   36.84000     -8.7693238E-08
   36.90000     -9.0133767E-08
   36.96000     -9.2516586E-08
   37.02000     -9.4830376E-08
   37.08000     -9.7084971E-08
   37.14000     -9.9296926E-08
   37.20000     -1.0147098E-07
   37.26000     -1.0358355E-07
   37.32000     -1.0557431E-07
   37.38000     -1.0734938E-07
   37.44000     -1.0879622E-07
   37.50000     -1.0980646E-07
   37.56000     -1.1030009E-07
   37.62000     -1.1024406E-07
   37.68000     -1.0965975E-07
   37.74000     -1.0861723E-07
   37.80000     -1.0721855E-07
   37.86000     -1.0557542E-07
   37.92000     -1.0378824E-07
   37.98000     -1.0193277E-07
   38.04000     -1.0005769E-07
   38.10000     -9.8192835E-08
   38.16000     -9.6363848E-08
   38.22000     -9.4607074E-08
   38.28000     -9.2978198E-08
   38.34000     -9.1550248E-08
   38.40000     -9.0400384E-08
   38.46000     -8.9588795E-08
   38.52000     -8.9136279E-08
   38.58000     -8.9008225E-08
   38.64000     -8.9111211E-08
   38.70000     -8.9304777E-08
   38.76000     -8.9426457E-08
   38.82000     -8.9323599E-08
   38.88000     -8.8883361E-08
   38.94000     -8.8052580E-08
   39.00000     -8.6842135E-08
   39.06000     -8.5315321E-08
   39.12000     -8.3564316E-08
   39.18000     -8.1682188E-08
   39.24000     -7.9739017E-08
   39.30000     -7.7768789E-08
   39.36000     -7.5770124E-08
   39.42000     -7.3719391E-08
   39.48000     -7.1591387E-08
   39.54000     -6.9380192E-08
   39.60000     -6.7113639E-08
   39.66000     -6.4856650E-08
   39.72000     -6.2702412E-08
   39.78000     -6.0753933E-08
   39.84000     -5.9101684E-08
   39.90000     -5.7803746E-08
   39.96000     -5.6874399E-08
   40.02000     -5.6284254E-08
   40.08000     -5.5971540E-08
   40.14000     -5.5860522E-08
   40.20000     -5.5880946E-08
   40.26000     -5.5982099E-08
   40.32000     -5.6136930E-08
   40.38000     -5.6335342E-08
   40.44000     -5.6569345E-08
   40.50000     -5.6815967E-08
   40.56000     -5.7024756E-08
   40.62000     -5.7115322E-08
   40.68000     -5.6987197E-08
   40.74000     -5.6540028E-08
   40.80000     -5.5698404E-08
   40.86000     -5.4433603E-08
   40.92000     -5.2775032E-08
   40.98000     -5.0806914E-08
   41.04000     -4.8650271E-08
   41.10000     -4.6434671E-08
   41.16000     -4.4267779E-08
   41.22000     -4.2211528E-08
   41.28000     -4.0271999E-08
   41.34000     -3.8405965E-08
   41.40000     -3.6542076E-08
   41.46000     -3.4609965E-08
   41.52000     -3.2568305E-08
   41.58000     -3.0423195E-08
   41.64000     -2.8231277E-08
   41.70000     -2.6086997E-08
   41.76000     -2.4098147E-08
   41.82000     -2.2357382E-08
   41.88000     -2.0918463E-08
   41.94000     -1.9784208E-08
   42.00000     -1.8909338E-08
   42.06000     -1.8216893E-08
   42.12000     -1.7622757E-08
   42.18000     -1.7060639E-08
   42.24000     -1.6499889E-08
   42.30000     -1.5951022E-08
   42.36000     -1.5457639E-08
   42.42000     -1.5077728E-08
   42.48000     -1.4860532E-08
   42.54000     -1.4826450E-08
   42.60000     -1.4956328E-08
   42.66000     -1.5193317E-08
   42.72000     -1.5456415E-08
   42.78000     -1.5661024E-08
   42.84000     -1.5739952E-08
   42.90000     -1.5658403E-08
   42.96000     -1.5419044E-08
   43.02000     -1.5056756E-08
   43.08000     -1.4626063E-08
   43.14000     -1.4186297E-08
   43.20000     -1.3789576E-08
   43.26000     -1.3474883E-08
   43.32000     -1.3268791E-08
   43.38000     -1.3190763E-08
   43.44000     -1.3259412E-08
   43.50000     -1.3496170E-08
   43.56000     -1.3924227E-08
   43.62000     -1.4562842E-08
   43.68000     -1.5419239E-08
   43.74000     -1.6481517E-08
   43.80000     -1.7715976E-08
   43.86000     -1.9070736E-08
   43.92000     -2.0485396E-08
   43.98000     -2.1904189E-08
   44.04000     -2.3288630E-08
   44.10000     -2.4625770E-08
   44.16000     -2.5929392E-08
   44.22000     -2.7234014E-08
   44.28000     -2.8583885E-08
   44.34000     -3.0020754E-08
   44.40000     -3.1574448E-08
   44.46000     -3.3259099E-08
   44.52000     -3.5075910E-08
   44.58000     -3.7021184E-08
   44.64000     -3.9096967E-08
   44.70000     -4.1321030E-08
   44.76000     -4.3733504E-08
   44.82000     -4.6398686E-08
   44.88000     -4.9402132E-08
   44.94000     -5.2844634E-08
   45.00000     -5.6835635E-08
   45.06000     -6.1488990E-08
   45.12000     -6.6923093E-08
   45.18000     -7.3266378E-08
   45.24000     -8.0666950E-08
   45.30000     -8.9303995E-08
   45.36000     -9.9397830E-08
   45.42000     -1.1121607E-07
   45.48000     -1.2507486E-07
   45.54000     -1.4133654E-07
   45.60000     -1.6040657E-07
   45.66000     -1.8273350E-07
   45.72000     -2.0881504E-07
   45.78000     -2.3921172E-07
   45.84000     -2.7456707E-07
   45.90000     -3.1563147E-07
   45.96000     -3.6328566E-07
   46.02000     -4.1856063E-07
   46.08000     -4.8265150E-07
   46.14000     -5.5692681E-07
   46.20000     -6.4293454E-07
   46.26000     -7.4240984E-07
   46.32000     -8.5728811E-07
   46.38000     -9.8972498E-07
   46.44000     -1.1421248E-06
   46.50000     -1.3171750E-06
   46.56000     -1.5178827E-06
   46.62000     -1.7476093E-06
   46.68000     -2.0101031E-06
   46.74000     -2.3095245E-06
   46.80000     -2.6504695E-06
   46.86000     -3.0379888E-06
   46.92000     -3.4776103E-06
   46.98000     -3.9753677E-06
   47.04000     -4.5378283E-06
   47.10000     -5.1721331E-06
   47.16000     -5.8860360E-06
   47.22000     -6.6879361E-06
   47.28000     -7.5869089E-06
   47.34000     -8.5927240E-06
   47.40000     -9.7158554E-06
   47.46000     -1.0967481E-05
   47.52000     -1.2359478E-05
   47.58000     -1.3904415E-05
   47.64000     -1.5615546E-05
   47.70000     -1.7506807E-05
   47.76000     -1.9592817E-05
   47.82000     -2.1888845E-05
   47.88000     -2.4410821E-05
   47.94000     -2.7175283E-05
   48.00000     -3.0199322E-05
   48.06000     -3.3500517E-05
   48.12000     -3.7096830E-05
   48.18000     -4.1006515E-05
   48.24000     -4.5247969E-05
   48.30000     -4.9839622E-05
   48.36000     -5.4799810E-05
   48.42000     -6.0146634E-05
   48.48000     -6.5897861E-05
   48.54000     -7.2070710E-05
   48.60000     -7.8681798E-05
   48.66000     -8.5746906E-05
   48.72000     -9.3280782E-05
   48.78000     -1.0129694E-04
   48.84000     -1.0980749E-04
   48.90000     -1.1882287E-04
   48.96000     -1.2835169E-04
   49.02000     -1.3840057E-04
   49.08000     -1.4897386E-04
   49.14000     -1.6007361E-04
   49.20000     -1.7169936E-04
   49.26000     -1.8384795E-04
   49.32000     -1.9651350E-04
   49.38000     -2.0968720E-04
   49.44000     -2.2335720E-04
   49.50000     -2.3750853E-04
   49.56000     -2.5212302E-04
   49.62000     -2.6717942E-04
   49.68000     -2.8265311E-04
   49.74000     -2.9851650E-04
   49.80000     -3.1473883E-04
   49.86000     -3.3128652E-04
   49.92000     -3.4812326E-04
   49.98000     -3.6521006E-04
   50.04000     -3.8250562E-04
   50.10000     -3.9996661E-04
   50.16000     -4.1754777E-04
   50.22000     -4.3520235E-04
   50.28000     -4.5288252E-04
   50.34000     -4.7053961E-04
   50.40000     -4.8812455E-04
   50.46000     -5.0558825E-04
   50.52000     -5.2288227E-04
   50.58000     -5.3995877E-04
   50.64000     -5.5677164E-04
   50.70000     -5.7327637E-04
   50.76000     -5.8943062E-04
   50.82000     -6.0519460E-04
   50.88000     -6.2053162E-04
   50.94000     -6.3540827E-04
   51.00000     -6.4979476E-04
   51.06000     -6.6366541E-04
   51.12000     -6.7699881E-04
   51.18000     -6.8977801E-04
   51.24000     -7.0199085E-04
   51.30000     -7.1362994E-04
   51.36000     -7.2469271E-04
   51.42000     -7.3518156E-04
   51.48000     -7.4510375E-04
   51.54000     -7.5447100E-04
   51.60000     -7.6329964E-04
   51.66000     -7.7161042E-04
   51.72000     -7.7942765E-04
   51.78000     -7.8677939E-04
   51.84000     -7.9369714E-04
   51.90000     -8.0021488E-04
   51.96000     -8.0636935E-04
   52.02000     -8.1219879E-04
   52.08000     -8.1774301E-04
   52.14000     -8.2304241E-04
   52.20000     -8.2813750E-04
   52.26000     -8.3306839E-04
   52.32000     -8.3787413E-04
   52.38000     -8.4259239E-04
   52.44000     -8.4725861E-04
   52.50000     -8.5190567E-04
   52.56000     -8.5656345E-04
   52.62000     -8.6125836E-04
   52.68000     -8.6601282E-04
   52.74000     -8.7084511E-04
   52.80000     -8.7576889E-04
   52.86000     -8.8079338E-04
   52.92000     -8.8592269E-04
   52.98000     -8.9115620E-04
   53.04000     -8.9648843E-04
   53.10000     -9.0190902E-04
   53.16000     -9.0740307E-04
   53.22000     -9.1295119E-04
   53.28000     -9.1852975E-04
   53.34000     -9.2411123E-04
   53.40000     -9.2966447E-04
   53.46000     -9.3515555E-04
   53.52000     -9.4054785E-04
   53.58000     -9.4580295E-04
   53.64000     -9.5088093E-04
   53.70000     -9.5574092E-04
   53.76000     -9.6034189E-04
   53.82000     -9.6464308E-04
   53.88000     -9.6860447E-04
   53.94000     -9.7218767E-04
   54.00000     -9.7535603E-04
   54.06000     -9.7807567E-04
   54.12000     -9.8031538E-04
   54.18000     -9.8204764E-04
   54.24000     -9.8324870E-04
   54.30000     -9.8389888E-04
   54.36000     -9.8398281E-04
   54.42000     -9.8349014E-04
   54.48000     -9.8241493E-04
   54.54000     -9.8075590E-04
   54.60000     -9.7851676E-04
   54.66000     -9.7570609E-04
   54.72000     -9.7233651E-04
   54.78000     -9.6842542E-04
   54.84000     -9.6399419E-04
   54.90000     -9.5906819E-04
   54.96000     -9.5367618E-04
   55.02000     -9.4785000E-04
   55.08000     -9.4162393E-04
   55.14000     -9.3503448E-04
   55.20000     -9.2811976E-04
   55.26000     -9.2091865E-04
   55.32000     -9.1347093E-04
   55.38000     -9.0581650E-04
   55.44000     -8.9799461E-04
   55.50000     -8.9004380E-04
   55.56000     -8.8200119E-04