 -0.750000000       0.00000000    
 -0.689999998       0.00000000    
 -0.629999995       0.00000000    
 -0.569999993       0.00000000    
 -0.509999990       0.00000000    
 -0.449999988       0.00000000    
 -0.389999986       0.00000000    
 -0.330000013       0.00000000    
 -0.270000011      -4.71164162E-27
 -0.209999993      -3.29198743E-26
 -0.150000006      -8.11391512E-27
  -9.00000036E-02   9.91139731E-25
  -2.99999993E-02   6.99855780E-24
   2.99999993E-02   2.85059148E-23
   9.00000036E-02   8.08839533E-23
  0.150000006       1.62424024E-22
  0.209999993       1.93523181E-22
  0.270000011      -7.50061634E-23
  0.330000013      -1.09963464E-21
  0.389999986      -3.33604122E-21
  0.449999988      -6.56142442E-21
  0.509999990      -8.72554377E-21
  0.569999993      -4.93238388E-21
  0.629999995       1.20238150E-20
  0.689999998       4.77544066E-20
  0.750000000       9.82404932E-20
  0.810000002       1.40075204E-19
  0.870000005       1.25953331E-19
  0.930000007      -4.59881240E-21
  0.990000010      -2.92198165E-19
   1.04999995      -7.07222932E-19
   1.11000001      -1.10568643E-18
   1.16999996      -1.22987064E-18
   1.23000002      -7.87485249E-19
   1.28999996       3.92584132E-19
   1.35000002       2.18972162E-18
   1.40999997       4.11905422E-18
   1.47000003       5.46239554E-18
   1.52999997       5.60723031E-18
   1.59000003       4.42517102E-18
   1.64999998       2.37631309E-18
   1.71000004       5.90184255E-20
   1.76999998      -2.75852409E-18
   1.83000004      -8.05085626E-18
   1.88999999      -1.93602003E-17
   1.95000005      -3.95846687E-17
   2.00999999      -6.67566783E-17
   2.06999993      -8.95915285E-17
   2.13000011      -8.62954652E-17
   2.19000006      -3.04217045E-17
   2.25000000       9.47811736E-17
   2.30999994       2.77162309E-16
   2.36999989       4.61213940E-16
   2.43000007       5.51229507E-16
   2.49000001       4.41533844E-16
   2.54999995       7.15104522E-17
   2.60999990      -5.13973293E-16
   2.67000008      -1.13252646E-15
   2.73000002      -1.49535355E-15
   2.78999996      -1.31626104E-15
   2.84999990      -4.73982061E-16
   2.91000009       8.40769350E-16
   2.97000003       2.08655110E-15
   3.02999997       2.51504601E-15
   3.08999991       1.50131497E-15
   3.15000010      -1.04000389E-15
   3.21000004      -4.34600620E-15
   3.26999998      -6.82258612E-15
   3.32999992      -6.52063285E-15
   3.39000010      -2.01341150E-15
   3.45000005       6.61831184E-15
   3.50999999       1.71577349E-14
   3.56999993       2.54377411E-14
   3.63000011       2.65553062E-14
   3.69000006       1.68929032E-14
   3.75000000      -3.74757954E-15
   3.80999994      -3.08778814E-14
   3.86999989      -5.57999488E-14
   3.93000007      -6.81438684E-14
   3.99000001      -5.99053413E-14
   4.05000019      -2.95520004E-14
   4.11000013       1.56721509E-14
   4.17000008       6.07943397E-14
   4.23000002       8.79270140E-14
   4.28999996       8.36250557E-14
   4.34999990       4.60599339E-14
   4.40999985      -1.13470456E-14
   4.46999979      -6.24325420E-14
   4.53000021      -7.73906153E-14
   4.59000015      -3.60140012E-14
   4.65000010       5.98821258E-14
   4.71000004       1.80696156E-13
   4.76999998       2.74249346E-13
   4.82999992       2.82463208E-13
   4.88999987       1.65069632E-13
   4.94999981      -7.81902687E-14
   5.01000023      -3.96717381E-13
   5.07000017      -6.96703058E-13
   5.13000011      -8.68067825E-13
   5.19000006      -8.23468138E-13
   5.25000000      -5.35604384E-13
   5.30999994      -5.71222892E-14
   5.36999989       4.88174605E-13
   5.42999983       9.43953140E-13
   5.48999977       1.17842064E-12
   5.55000019       1.13846530E-12
   5.61000013       8.76982948E-13
   5.67000008       5.36991458E-13
   5.73000002       2.92283775E-13
   5.78999996       2.63724291E-13
   5.84999990       4.44936595E-13
   5.90999985       6.73702522E-13
   5.96999979       6.72465339E-13
   6.03000021       1.55632709E-13
   6.09000015      -1.02832651E-12
   6.15000010      -2.77372721E-12
   6.21000004      -4.67042073E-12
   6.26999998      -6.06977619E-12
   6.32999992      -6.26317271E-12
   6.38999987      -4.72836397E-12
   6.44999981      -1.36573500E-12
   6.51000023       3.36223540E-12
   6.57000017       8.45306724E-12
   6.63000011       1.25652093E-11
   6.69000006       1.43569696E-11
   6.75000000       1.28737377E-11
   6.80999994       7.87154283E-12
   6.86999989      -2.16501164E-14
   6.92999983      -9.36017670E-12
   6.98999977      -1.81412177E-11
   7.05000019      -2.42040901E-11
   7.11000013      -2.56665730E-11
   7.17000008      -2.12979582E-11
   7.23000002      -1.07633390E-11
   7.28999996       5.27341365E-12
   7.34999990       2.51528555E-11
   7.40999985       4.62738667E-11
   7.46999979       6.51613416E-11
   7.53000021       7.75626091E-11
   7.59000015       7.86503918E-11
   7.65000010       6.34517300E-11
   7.71000004       2.76137151E-11
   7.76999998      -3.14550573E-11
   7.82999992      -1.13152064E-10
   7.88999987      -2.12182258E-10
   7.94999981      -3.17326193E-10
   8.01000023      -4.10838030E-10
   8.06999969      -4.68766526E-10
   8.13000011      -4.62327981E-10
   8.18999958      -3.60245306E-10
   8.25000000      -1.31760644E-10
   8.31000042       2.50113069E-10
   8.36999989       8.05567890E-10
   8.43000031       1.54559598E-09
   8.48999977       2.47043941E-09
   8.55000019       3.56895158E-09
   8.60999966       4.81878049E-09
   8.67000008       6.18721474E-09
   8.72999954       7.63253905E-09
   8.78999996       9.10582010E-09
   8.85000038       1.05531139E-08
   8.90999985       1.19181403E-08
   8.97000027       1.31454057E-08
   9.02999973       1.41836889E-08
   9.09000015       1.49895936E-08
   9.14999962       1.55307927E-08
   9.21000004       1.57884514E-08
   9.27000046       1.57584346E-08
   9.32999992       1.54509969E-08
   9.39000034       1.48889798E-08
   9.44999981       1.41047787E-08
   9.51000023       1.31365789E-08
   9.56999969       1.20245423E-08
   9.63000011       1.08075193E-08
   9.68999958       9.52076906E-09
   9.75000000       8.19485813E-09
   9.81000042       6.85566892E-09
   9.86999989       5.52517276E-09
   9.93000031       4.22251833E-09
   9.98999977       2.96499092E-09
   10.0500002       1.76852211E-09
   10.1099997       6.47655984E-10
   10.1700001      -3.84911436E-10
   10.2299995      -1.31894307E-09
   10.2900000      -2.14710694E-09
   10.3500004      -2.86503443E-09
   10.4099998      -3.47095552E-09
   10.4700003      -3.96508293E-09
   10.5299997      -4.34906244E-09
   10.5900002      -4.62582372E-09
   10.6499996      -4.80002216E-09
   10.7100000      -4.87900698E-09
   10.7700005      -4.87398744E-09
   10.8299999      -4.80086682E-09
   10.8900003      -4.68022110E-09
   10.9499998      -4.53609061E-09
   11.0100002      -4.39360726E-09
   11.0699997      -4.27588498E-09
   11.1300001      -4.20090673E-09
   11.1899996      -4.17924095E-09
   11.2500000      -4.21325819E-09
   11.3100004      -4.29814451E-09
   11.3699999      -4.42450165E-09
   11.4300003      -4.58188865E-09
   11.4899998      -4.76238604E-09
   11.5500002      -4.96327734E-09
   11.6099997      -5.18820675E-09
   11.6700001      -5.44662271E-09
   11.7299995      -5.75178882E-09
   11.7900000      -6.11798479E-09
   11.8500004      -6.55765087E-09
   11.9099998      -7.07910397E-09
   11.9700003      -7.68513075E-09
   12.0299997      -8.37243963E-09
   12.0900002      -9.13167231E-09
   12.1499996      -9.94764893E-09
   12.2100000      -1.07996287E-08
   12.2700005      -1.16616636E-08
   12.3299999      -1.25033388E-08
   12.3900003      -1.32912898E-08
   12.4499998      -1.39917073E-08
   12.5100002      -1.45737040E-08
   12.5699997      -1.50129633E-08
   12.6300001      -1.52947788E-08
   12.6899996      -1.54155817E-08
   12.7500000      -1.53823017E-08
   12.8100004      -1.52095421E-08
   12.8699999      -1.49151749E-08
   12.9300003      -1.45154919E-08
   12.9899998      -1.40212775E-08
   13.0500002      -1.34358418E-08
   13.1099997      -1.27555806E-08
   13.1700001      -1.19727854E-08
   13.2299995      -1.10798455E-08
   13.2900000      -1.00735944E-08
   13.3500004      -8.95861074E-09
   13.4099998      -7.74871278E-09
   13.4700003      -6.46645759E-09
   13.5299997      -5.14107956E-09
   13.5900002      -3.80565668E-09
   13.6499996      -2.49434096E-09
   13.7100000      -1.24023181E-09
   13.7700005      -7.40046913E-11
   13.8299999       9.77020020E-10
   13.8900003       1.88994576E-09
   13.9499998       2.64802646E-09
   14.0100002       3.24321081E-09
   14.0699997       3.67912367E-09
   14.1300001       3.97358102E-09
   14.1899996       4.15947410E-09
   14.2500000       4.28299129E-09
   14.3100004       4.39872450E-09
   14.3699999       4.56207427E-09
   14.4300003       4.82029838E-09
   14.4899998       5.20416643E-09
   14.5500002       5.72231418E-09
   14.6099997       6.35985398E-09
   14.6700001       7.08175252E-09
   14.7299995       7.84020582E-09
   14.7900000       8.58412452E-09
   14.8500004       9.26825816E-09
   14.9099998       9.85962245E-09
   14.9700003       1.03397442E-08
   15.0299997       1.07025002E-08
   15.0900002       1.09486633E-08
   15.1499996       1.10791749E-08
   15.2100000       1.10894476E-08
   15.2700005       1.09665148E-08
   15.3299999       1.06898348E-08
   15.3900003       1.02353326E-08
   15.4499998       9.58121138E-09
   15.5100002       8.71356143E-09
   15.5699997       7.62997132E-09
   15.6300001       6.34009245E-09
   15.6899996       4.86320717E-09
   15.7500000       3.22394000E-09
   15.8100004       1.44785783E-09
   15.8699999      -4.41238129E-10
   15.9300003      -2.42119080E-09
   15.9899998      -4.46848825E-09
   16.0499992      -6.55349952E-09
   16.1100006      -8.63593108E-09
   16.1700001      -1.06626299E-08
   16.2299995      -1.25693314E-08
   16.2900009      -1.42866989E-08
   16.3500004      -1.57496309E-08
   16.4099998      -1.69075172E-08
   16.4699993      -1.77326491E-08
   16.5300007      -1.82242541E-08
   16.5900002      -1.84067748E-08
   16.6499996      -1.83225719E-08
   16.7099991      -1.80208737E-08
   16.7700005      -1.75458403E-08
   16.8299999      -1.69268386E-08
   16.8899994      -1.61733453E-08
   16.9500008      -1.52755053E-08
   17.0100002      -1.42096539E-08
   17.0699997      -1.29467805E-08
   17.1299992      -1.14611725E-08
   17.1900005      -9.73675895E-09
   17.2500000      -7.76972620E-09
   17.3099995      -5.56747803E-09
   17.3700008      -3.14544724E-09
   17.4300003      -5.23959987E-10
   17.4899998       2.27276797E-09
   17.5499992       5.21453947E-09
   17.6100006       8.26056645E-09
   17.6700001       1.13543663E-08
   17.7299995       1.44209116E-08
   17.7900009       1.73684640E-08
   17.8500004       2.00961541E-08
   17.9099998       2.25064998E-08
   17.9699993       2.45202934E-08
   18.0300007       2.60902091E-08
   18.0900002       2.72097100E-08
   18.1499996       2.79149575E-08
   18.2099991       2.82793913E-08
   18.2700005       2.84026154E-08
   18.3299999       2.83965242E-08
   18.3899994       2.83720567E-08
   18.4500008       2.84292803E-08
   18.5100002       2.86520763E-08
   18.5699997       2.91070652E-08
   18.6299992       2.98451717E-08
   18.6900005       3.09033901E-08
   18.7500000       3.23048077E-08
   18.8099995       3.40557698E-08
   18.8700008       3.61406585E-08
   18.9300003       3.85158891E-08
   18.9899998       4.11057570E-08
   19.0499992       4.38026255E-08
   19.1100006       4.64730370E-08
   19.1700001       4.89698451E-08
   19.2299995       5.11486249E-08
   19.2900009       5.28852020E-08
   19.3500004       5.40905383E-08
   19.4099998       5.47195924E-08
   19.4699993       5.47721619E-08
   19.5300007       5.42857208E-08
   19.5900002       5.33222462E-08
   19.6499996       5.19526147E-08
   19.7099991       5.02425443E-08
   19.7700005       4.82435496E-08
   19.8299999       4.59907490E-08
   19.8899994       4.35073559E-08
   19.9500008       4.08138696E-08
   20.0100002       3.79384772E-08
   20.0699997       3.49252716E-08
   20.1299992       3.18375157E-08
   20.1900005       2.87548776E-08
   20.2500000       2.57654218E-08
   20.3099995       2.29546036E-08
   20.3700008       2.03942960E-08
   20.4300003       1.81345658E-08
   20.4899998       1.61998877E-08
   20.5499992       1.45899763E-08
   20.6100006       1.32840574E-08
   20.6700001       1.22466295E-08
   20.7299995       1.14327250E-08
   20.7900009       1.07913865E-08
   20.8500004       1.02671613E-08
   20.9099998       9.80041914E-09
   20.9699993       9.32792688E-09
   21.0300007       8.78499051E-09
   21.0900002       8.10989675E-09
   21.1499996       7.25034566E-09
   21.2099991       6.17064222E-09
   21.2700005       4.85784524E-09
   21.3299999       3.32514838E-09
   21.3899994       1.61136049E-09
   21.4500008      -2.23608923E-10
   21.5100002      -2.10634421E-09
   21.5699997      -3.95892785E-09
   21.6299992      -5.70750469E-09
   21.6900005      -7.28891658E-09
   21.7500000      -8.65467875E-09
   21.8099995      -9.77240688E-09
   21.8700008      -1.06254463E-08
   21.9300003      -1.12116361E-08
   21.9899998      -1.15418981E-08
   22.0499992      -1.16388605E-08
   22.1100006      -1.15351808E-08
   22.1700001      -1.12710312E-08
   22.2299995      -1.08903917E-08
   22.2900009      -1.04363069E-08
   22.3500004      -9.94588945E-09
   22.4099998      -9.44629264E-09
   22.4699993      -8.95286245E-09
   22.5300007      -8.47019699E-09
   22.5900002      -7.99598876E-09
   22.6499996      -7.52662910E-09
   22.7099991      -7.06288761E-09
   22.7700005      -6.61393829E-09
   22.8299999      -6.19839557E-09
   22.8899994      -5.84197934E-09
   22.9500008      -5.57245050E-09
   23.0100002      -5.41331913E-09
   23.0699997      -5.37825429E-09
   23.1299992      -5.46791235E-09
   23.1900005      -5.67023672E-09
   23.2500000      -5.96421001E-09
   23.3099995      -6.32603570E-09
   23.3700008      -6.73594469E-09
   23.4300003      -7.18362791E-09
   23.4899998      -7.67070496E-09
   23.5499992      -8.20956014E-09
   23.6100006      -8.81900686E-09
   23.6700001      -9.51824841E-09
   23.7299995      -1.03210640E-08
   23.7900009      -1.12319922E-08
   23.8500004      -1.22454891E-08
   23.9099998      -1.33479556E-08
   23.9699993      -1.45215857E-08
   24.0300007      -1.57484408E-08
   24.0900002      -1.70133632E-08
   24.1499996      -1.83049202E-08
   24.2099991      -1.96145304E-08
   24.2700005      -2.09345288E-08
   24.3299999      -2.22561862E-08
   24.3899994      -2.35684894E-08
   24.4500008      -2.48579202E-08
   24.5100002      -2.61089639E-08
   24.5699997      -2.73049086E-08
   24.6299992      -2.84286017E-08
   24.6900005      -2.94631892E-08
   24.7500000      -3.03931635E-08
   24.8099995      -3.12059356E-08
   24.8700008      -3.18939080E-08
   24.9300003      -3.24563985E-08
   24.9899998      -3.29005232E-08
   25.0499992      -3.32403332E-08
   25.1100006      -3.34938761E-08
   25.1700001      -3.36789761E-08
   25.2299995      -3.38090267E-08
   25.2900009      -3.38902630E-08
   25.3500004      -3.39214630E-08
   25.4099998      -3.38960859E-08
   25.4699993      -3.38057191E-08
   25.5300007      -3.36433246E-08
   25.5900002      -3.34048096E-08
   25.6499996      -3.30884191E-08
   25.7099991      -3.26924123E-08
   25.7700005      -3.22124940E-08
   25.8299999      -3.16405107E-08
   25.8899994      -3.09654169E-08
   25.9500008      -3.01765688E-08
   26.0100002      -2.92683406E-08
   26.0699997      -2.82443597E-08
   26.1299992      -2.71198939E-08
   26.1900005      -2.59214428E-08
   26.2500000      -2.46836418E-08
   26.3099995      -2.34444428E-08
   26.3700008      -2.22400409E-08
   26.4300003      -2.11009397E-08
   26.4899998      -2.00500594E-08
   26.5499992      -1.91030338E-08
   26.6100006      -1.82701303E-08
   26.6700001      -1.75587562E-08
   26.7299995      -1.69754841E-08
   26.7900009      -1.65268297E-08
   26.8500004      -1.62185341E-08
   26.9099998      -1.60537521E-08
   26.9699993      -1.60309490E-08
   27.0300007      -1.61424669E-08
   27.0900002      -1.63745195E-08
   27.1499996      -1.67088228E-08
   27.2099991      -1.71254957E-08
   27.2700005      -1.76063253E-08
   27.3299999      -1.81372766E-08
   27.3899994      -1.87093132E-08
   27.4500008      -1.93171807E-08
   27.5100002      -1.99565573E-08
   27.5699997      -2.06207229E-08
   27.6299992      -2.12982236E-08
   27.6900005      -2.19728769E-08
   27.7500000      -2.26267254E-08
   27.8099995      -2.32453878E-08
   27.8700008      -2.38242261E-08
   27.9300003      -2.43730511E-08
   27.9899998      -2.49171777E-08
   28.0499992      -2.54937564E-08
   28.1100006      -2.61437378E-08
   28.1700001      -2.69015743E-08
   28.2299995      -2.77857168E-08
   28.2900009      -2.87929378E-08
   28.3500004      -2.98982954E-08
   28.4099998      -3.10606865E-08
   28.4699993      -3.22319735E-08
   28.5300007      -3.33666357E-08
   28.5900002      -3.44289290E-08
   28.6499996      -3.53958178E-08
   28.7099991      -3.62557770E-08
   28.7700005      -3.70052398E-08
   28.8299999      -3.76450657E-08
   28.8899994      -3.81790031E-08
   28.9500008      -3.86147221E-08
   29.0100002      -3.89663022E-08
   29.0699997      -3.92562605E-08
   29.1299992      -3.95150330E-08
   29.1900005      -3.97771913E-08
   29.2500000      -4.00750793E-08
   29.3099995      -4.04321163E-08
   29.3700008      -4.08583638E-08
   29.4300003      -4.13502690E-08
   29.4899998      -4.18947295E-08
   29.5499992      -4.24759179E-08
   29.6100006      -4.30819682E-08
   29.6700001      -4.37086314E-08
   29.7299995      -4.43583090E-08
   29.7900009      -4.50347919E-08
   29.8500004      -4.57360727E-08
   29.9099998      -4.64484415E-08
   29.9699993      -4.71448054E-08
   30.0300007      -4.77884150E-08
   30.0900002      -4.83410112E-08
   30.1499996      -4.87725274E-08
   30.2099991      -4.90685998E-08
   30.2700005      -4.92330727E-08
   30.3299999      -4.92842851E-08
   30.3899994      -4.92465553E-08
   30.4500008      -4.91398602E-08
   30.5100002      -4.89716321E-08
   30.5699997      -4.87336287E-08
   30.6299992      -4.84052620E-08
   30.6900005      -4.79623274E-08
   30.7500000      -4.73882302E-08
   30.8099995      -4.66839936E-08
   30.8700008      -4.58735805E-08
   30.9300003      -4.50025119E-08
   30.9899998      -4.41300045E-08
   31.0499992      -4.33167138E-08
   31.1100006      -4.26116173E-08
   31.1700001      -4.20419219E-08
   31.2299995      -4.16088852E-08
   31.2900009      -4.12907468E-08
   31.3500004      -4.10515959E-08
   31.4099998      -4.08532799E-08
   31.4699993      -4.06664107E-08
   31.5300007      -4.04769871E-08
   31.5900002      -4.02866540E-08
   31.6499996      -4.01068476E-08
   31.7099991      -3.99492954E-08
   31.7700005      -3.98164666E-08
   31.8299999      -3.96954647E-08
   31.8899994      -3.95575412E-08
   31.9500008      -3.93630053E-08
   32.0099983      -3.90695050E-08
   32.0699997      -3.86403904E-08
   32.1300011      -3.80500040E-08
   32.1899986      -3.72843623E-08
   32.2500000      -3.63373971E-08
   32.3100014      -3.52048488E-08
   32.3699989      -3.38785924E-08
   32.4300003      -3.23438449E-08
   32.4900017      -3.05804235E-08
   32.5499992      -2.85674240E-08
   32.6100006      -2.62896425E-08
   32.6699982      -2.37434659E-08
   32.7299995      -2.09404707E-08
   32.7900009      -1.79079827E-08
   32.8499985      -1.46869299E-08
   32.9099998      -1.13281065E-08
   32.9700012      -7.88816124E-09
   33.0299988      -4.42629089E-09
   33.0900002      -1.00204256E-09
   33.1500015       2.32587039E-09
   33.2099991       5.50024026E-09
   33.2700005       8.46599768E-09
   33.3300018       1.11711653E-08
   33.3899994       1.35682177E-08
   33.4500008       1.56157380E-08
   33.5099983       1.72801418E-08
   33.5699997       1.85372517E-08
   33.6300011       1.93735961E-08
   33.6899986       1.97874019E-08
   33.7500000       1.97893417E-08
   33.8100014       1.94029823E-08
   33.8699989       1.86648563E-08
   33.9300003       1.76238117E-08
   33.9900017       1.63392446E-08
   34.0499992       1.48779629E-08
   34.1100006       1.33096076E-08
   34.1699982       1.17012124E-08
   34.2299995       1.01118349E-08
   34.2900009       8.58852989E-09
   34.3499985       7.16477055E-09
   34.4099998       5.86181725E-09
   34.4700012       4.69264672E-09
   34.5299988       3.66715258E-09
   34.5900002       2.79678880E-09
   34.6500015       2.09691708E-09
   34.7099991       1.58586699E-09
   34.7700005       1.28093225E-09
   34.8300018       1.19272270E-09
   34.8899994       1.32006128E-09
   34.9500008       1.64757408E-09
   35.0099983       2.14722462E-09
   35.0699997       2.78362067E-09
   35.1300011       3.52147578E-09
   35.1899986       4.33276481E-09
   35.2500000       5.20120658E-09
   35.3100014       6.12277118E-09
   35.3699989       7.10250259E-09
   35.4300003       8.14940471E-09
   35.4900017       9.27186417E-09
   35.5499992       1.04756781E-08
   35.6100006       1.17654482E-08
   35.6699982       1.31484086E-08
   35.7299995       1.46384700E-08
   35.7900009       1.62579212E-08
   35.8499985       1.80350597E-08
   35.9099998       1.99976800E-08
   35.9700012       2.21641390E-08
   36.0299988       2.45348790E-08
   36.0900002       2.70873617E-08
   36.1500015       2.97763734E-08
   36.2099991       3.25398339E-08
   36.2700005       3.53084495E-08
   36.3300018       3.80164451E-08
   36.3899994       4.06103169E-08
   36.4500008       4.30534790E-08
   36.5099983       4.53260434E-08
   36.5699997       4.74205599E-08
   36.6300011       4.93356005E-08
   36.6899986       5.10694527E-08
   36.7500000       5.26157180E-08
   36.8100014       5.39616494E-08
   36.8699989       5.50890533E-08
   36.9300003       5.59766562E-08
   36.9900017       5.66027474E-08
   37.0499992       5.69470124E-08
   37.1100006       5.69914356E-08
   37.1699982       5.67205518E-08
   37.2299995       5.61219586E-08
   37.2900009       5.51877761E-08
   37.3499985       5.39172866E-08
   37.4099998       5.23200328E-08
   37.4700012       5.04183397E-08
   37.5299988       4.82477844E-08
   37.5900002       4.58548293E-08
   37.6500015       4.32915996E-08
   37.7099991       4.06088994E-08
   37.7700005       3.78492544E-08
   37.8300018       3.50420173E-08
   37.8899994       3.22020242E-08
   37.9500008       2.93321882E-08
   38.0099983       2.64293547E-08
   38.0699997       2.34915696E-08
   38.1300011       2.05246344E-08
   38.1899986       1.75460464E-08
   38.2500000       1.45852068E-08
   38.3100014       1.16799521E-08
   38.3699989       8.87041907E-09
   38.4300003       6.19190565E-09
   38.4900017       3.66849395E-09
   38.5499992       1.30883093E-09
   38.6100006      -8.95178265E-10
   38.6699982      -2.96674285E-09
   38.7299995      -4.94017582E-09
   38.7900009      -6.85545443E-09
   38.8499985      -8.75244943E-09
   38.9099998      -1.06658904E-08
   38.9700012      -1.26219373E-08
   39.0299988      -1.46368828E-08
   39.0900002      -1.67180154E-08
   39.1500015      -1.88661513E-08
   39.2099991      -2.10788524E-08
   39.2700005      -2.33531843E-08
   39.3300018      -2.56869814E-08
   39.3899994      -2.80782686E-08
   39.4500008      -3.05231964E-08
   39.5099983      -3.30136274E-08
   39.5699997      -3.55357272E-08
   39.6300011      -3.80706453E-08
   39.6899986      -4.05974987E-08
   39.7500000      -4.30978737E-08
   39.8100014      -4.55602880E-08
   39.8699989      -4.79829296E-08
   39.9300003      -5.03735293E-08
   39.9900017      -5.27462625E-08
   40.0499992      -5.51167041E-08
   40.1100006      -5.74964680E-08
   40.1699982      -5.98891461E-08
   40.2299995      -6.22885921E-08
   40.2900009      -6.46796323E-08
   40.3499985      -6.70402116E-08
   40.4099998      -6.93441962E-08
   40.4700012      -7.15635480E-08
   40.5299988      -7.36697316E-08
   40.5900002      -7.56344676E-08
   40.6500015      -7.74305278E-08
   40.7099991      -7.90331711E-08
   40.7700005      -8.04223035E-08
   40.8300018      -8.15851209E-08
   40.8899994      -8.25183477E-08
   40.9500008      -8.32292315E-08
   41.0099983      -8.37347969E-08
   41.0699997      -8.40592804E-08
   41.1300011      -8.42303365E-08
   41.1899986      -8.42748946E-08
   41.2500000      -8.42157206E-08
   41.3100014      -8.40694199E-08
   41.3699989      -8.38461460E-08
   41.4300003      -8.35508729E-08
   41.4900017      -8.31857108E-08
   41.5499992      -8.27523294E-08
   41.6100006      -8.22538411E-08
   41.6699982      -8.16954184E-08
   41.7299995      -8.10835203E-08
   41.7900009      -8.04237033E-08
   41.8499985      -7.97177862E-08
   41.9099998      -7.89612358E-08
   41.9700012      -7.81416816E-08
   42.0299988      -7.72395339E-08
   42.0900002      -7.62307195E-08
   42.1500015      -7.50912008E-08
   42.2099991      -7.38019921E-08
   42.2700005      -7.23533162E-08
   42.3300018      -7.07465588E-08
   42.3899994      -6.89933017E-08
   42.4500008      -6.71119764E-08
   42.5099983      -6.51229826E-08
   42.5699997      -6.30442685E-08
   42.6300011      -6.08886594E-08
   42.6899986      -5.86638293E-08
   42.7500000      -5.63748941E-08
   42.8100014      -5.40282556E-08
   42.8699989      -5.16353573E-08
   42.9300003      -4.92146768E-08
   42.9900017      -4.67910901E-08
   43.0499992      -4.43927028E-08
   43.1100006      -4.20461497E-08
   43.1699982      -3.97720115E-08
   43.2299995      -3.75819340E-08
   43.2900009      -3.54785321E-08
   43.3499985      -3.34580612E-08
   43.4099998      -3.15147659E-08
   43.4700012      -2.96451201E-08
   43.5299988      -2.78501613E-08
   43.5900002      -2.61346571E-08
   43.6500015      -2.45033576E-08
   43.7099991      -2.29556587E-08
   43.7700005      -2.14810001E-08
   43.8300018      -2.00572092E-08
   43.8899994      -1.86530347E-08
   43.9500008      -1.72345480E-08
   44.0099983      -1.57734714E-08
   44.0699997      -1.42546188E-08
   44.1300011      -1.26797737E-08
   44.1899986      -1.10665574E-08
   44.2500000      -9.44262535E-09
   44.3100014      -7.83728904E-09
   44.3699989      -6.27351415E-09
   44.4300003      -4.76315964E-09
   44.4900017      -3.30702243E-09
   44.5499992      -1.89952964E-09
   44.6100006      -5.36176437E-10
   44.6699982       7.79211640E-10
   44.7299995       2.03031214E-09
   44.7900009       3.18914051E-09
   44.8499985       4.22209290E-09
   44.9099998       5.09956433E-09
   44.9700012       5.80616488E-09
   45.0299988       6.34817043E-09
   45.0900002       6.75558942E-09
   45.1500015       7.07794889E-09
   45.2099991       7.37498507E-09
   45.2700005       7.70517161E-09
   45.3300018       8.11574097E-09
   45.3899994       8.63724292E-09
   45.4500008       9.28395671E-09
   45.5099983       1.00592388E-08
   45.5699997       1.09631166E-08
   45.6300011       1.19987833E-08
   45.6899986       1.31753861E-08
   45.7500000       1.45063801E-08
   45.8100014       1.60048934E-08
   45.8699989       1.76790422E-08
   45.9300003       1.95304555E-08
   45.9900017       2.15581206E-08
   46.0499992       2.37674662E-08
   46.1100006       2.61824979E-08
   46.1699982       2.88573627E-08
   46.2299995       3.18837650E-08
   46.2900009       3.53922900E-08
   46.3499985       3.95479951E-08
   46.4099998       4.45431141E-08
   46.4700012       5.05909519E-08
   46.5299988       5.79248933E-08
   46.5900002       6.68047164E-08
   46.6500015       7.75299540E-08
   46.7099991       9.04578741E-08
   46.7700005       1.06022384E-07
   46.8300018       1.24750656E-07
   46.8899994       1.47275657E-07
   46.9500008       1.74345118E-07
   47.0099983       2.06828886E-07
   47.0699997       2.45728103E-07
   47.1300011       2.92189242E-07
   47.1899986       3.47525059E-07
   47.2500000       4.13243640E-07
   47.3100014       4.91084165E-07
   47.3699989       5.83057783E-07
   47.4300003       6.91491607E-07
   47.4900017       8.19072454E-07
   47.5499992       9.68890618E-07
   47.6100006       1.14448278E-06
   47.6699982       1.34987670E-06
   47.7299995       1.58964099E-06
   47.7900009       1.86894181E-06
   47.8499985       2.19361027E-06
   47.9099998       2.57022180E-06
   47.9700012       3.00618058E-06
   48.0299988       3.50981600E-06
   48.0900002       4.09047652E-06
   48.1500015       4.75863089E-06
   48.2099991       5.52596066E-06
   48.2700005       6.40545977E-06
   48.3300018       7.41154145E-06
   48.3899994       8.56014503E-06
   48.4500008       9.86885516E-06
   48.5099983       1.13570295E-05
   48.5699997       1.30459302E-05
   48.6300011       1.49588459E-05
   48.6899986       1.71212068E-05
   48.7500000       1.95606899E-05
   48.8100014       2.23073093E-05
   48.8699989       2.53934977E-05
   48.9300003       2.88541851E-05
   48.9900017       3.27268754E-05
   49.0499992       3.70517082E-05
   49.1100006       4.18715390E-05
   49.1699982       4.72319734E-05
   49.2299995       5.31814221E-05
   49.2900009       5.97710568E-05
   49.3499985       6.70547815E-05
   49.4099998       7.50891340E-05
   49.4700012       8.39331624E-05
   49.5299988       9.36482102E-05
   49.5900002       1.04297811E-04
   49.6500015       1.15947354E-04
   49.7099991       1.28663916E-04
   49.7700005       1.42515884E-04
   49.8300018       1.57572722E-04
   49.8899994       1.73904438E-04
   49.9500008       1.91581232E-04
   50.0099983       2.10672937E-04
   50.0699997       2.31248428E-04
   50.1300011       2.53375067E-04
   50.1899986       2.77118001E-04
   50.2500000       3.02539614E-04
   50.3100014       3.29698756E-04
   50.3699989       3.58649995E-04
   50.4300003       3.89442954E-04
   50.4900017       4.22121608E-04
   50.5499992       4.56723501E-04
   50.6100006       4.93278960E-04