 -0.750000000       0.00000000    
 -0.689999998       0.00000000    
 -0.629999995       0.00000000    
 -0.569999993       0.00000000    
 -0.509999990       0.00000000    
 -0.449999988       0.00000000    
 -0.389999986       0.00000000    
 -0.330000013       0.00000000    
 -0.270000011       4.42834417E-28
 -0.209999993       1.33248837E-26
 -0.150000006       1.50551096E-25
  -9.00000036E-02   1.00957038E-24
  -2.99999993E-02   4.72680445E-24
   2.99999993E-02   1.66464955E-23
   9.00000036E-02   4.54822078E-23
  0.150000006       9.56929425E-23
  0.209999993       1.42383209E-22
  0.270000011       8.45468365E-23
  0.330000013      -3.02723113E-22
  0.389999986      -1.35183688E-21
  0.449999988      -3.31811265E-21
  0.509999990      -5.94519788E-21
  0.569999993      -7.83735455E-21
  0.629999995      -5.94423136E-21
  0.689999998       4.29771744E-21
  0.750000000       2.76011817E-20
  0.810000002       6.60168259E-20
  0.870000005       1.15054619E-19
  0.930000007       1.59606192E-19
  0.990000010       1.70574155E-19
   1.04999995       1.02986474E-19
   1.11000001      -1.02692289E-19
   1.16999996      -5.10905831E-19
   1.23000002      -1.16237488E-18
   1.28999996      -2.01313675E-18
   1.35000002      -2.83742906E-18
   1.40999997      -3.12158318E-18
   1.47000003      -2.02705986E-18
   1.52999997       1.45217305E-18
   1.59000003       8.01770038E-18
   1.64999998       1.72711639E-17
   1.71000004       2.68222346E-17
   1.76999998       3.18216415E-17
   1.83000004       2.56218682E-17
   1.88999999       2.10289764E-18
   1.95000005      -4.04728423E-17
   2.00999999      -9.53109464E-17
   2.06999993      -1.44951372E-16
   2.13000011      -1.63767123E-16
   2.19000006      -1.26527876E-16
   2.25000000      -2.16172370E-17
   2.30999994       1.36174297E-16
   2.36999989       3.00954168E-16
   2.43000007       4.06045731E-16
   2.49000001       3.90746675E-16
   2.54999995       2.35679188E-16
   2.60999990      -1.02888679E-17
   2.67000008      -2.31816189E-16
   2.73000002      -2.90122972E-16
   2.78999996      -1.00663851E-16
   2.84999990       2.85524272E-16
   2.91000009       6.44718757E-16
   2.97000003       6.31435057E-16
   3.02999997      -7.10418907E-17
   3.08999991      -1.54228553E-15
   3.15000010      -3.45229093E-15
   3.21000004      -5.03846537E-15
   3.26999998      -5.30848084E-15
   3.32999992      -3.45046325E-15
   3.39000010       6.89112919E-16
   3.45000005       6.28837302E-15
   3.50999999       1.16176049E-14
   3.56999993       1.45861818E-14
   3.63000011       1.36380707E-14
   3.69000006       8.63396777E-15
   3.75000000       1.24569250E-15
   3.80999994      -5.50408065E-15
   3.86999989      -8.58118660E-15
   3.93000007      -6.71184969E-15
   3.99000001      -1.75075283E-15
   4.05000019       1.26529041E-15
   4.11000013      -4.09615562E-15
   4.17000008      -2.23042799E-14
   4.23000002      -5.21279458E-14
   4.28999996      -8.43436174E-14
   4.34999990      -1.02632638E-13
   4.40999985      -8.84421524E-14
   4.46999979      -2.89245556E-14
   4.53000021       7.46873808E-14
   4.59000015       2.01964083E-13
   4.65000010       3.14776146E-13
   4.71000004       3.66807686E-13
   4.76999998       3.19391350E-13
   4.82999992       1.58815140E-13
   4.88999987      -9.15957780E-14
   4.94999981      -3.70770824E-13
   5.01000023      -5.93492161E-13
   5.07000017      -6.76145826E-13
   5.13000011      -5.67259293E-13
   5.19000006      -2.72198388E-13
   5.25000000       1.38276462E-13
   5.30999994       5.41539957E-13
   5.36999989       7.97387005E-13
   5.42999983       7.93930189E-13
   5.48999977       4.90530305E-13
   5.55000019      -5.75546826E-14
   5.61000013      -7.03364450E-13
   5.67000008      -1.24284220E-12
   5.73000002      -1.47115664E-12
   5.78999996      -1.24422445E-12
   5.84999990      -5.26608217E-13
   5.90999985       5.88774038E-13
   5.96999979       1.89427857E-12
   6.03000021       3.10874785E-12
   6.09000015       3.93251274E-12
   6.15000010       4.10054542E-12
   6.21000004       3.42311379E-12
   6.26999998       1.81251888E-12
   6.32999992      -6.96882114E-13
   6.38999987      -3.92533575E-12
   6.44999981      -7.51673550E-12
   6.51000023      -1.09089196E-11
   6.57000017      -1.33292093E-11
   6.63000011      -1.38483027E-11
   6.69000006      -1.15215216E-11
   6.75000000      -5.62573729E-12
   6.80999994       4.03410291E-12
   6.86999989       1.68138177E-11
   6.92999983       3.10094693E-11
   6.98999977       4.38314905E-11
   7.05000019       5.16561828E-11
   7.11000013       5.05857925E-11
   7.17000008       3.72752385E-11
   7.23000002       9.90555814E-12
   7.28999996      -3.08796669E-11
   7.34999990      -8.12899123E-11
   7.40999985      -1.34159447E-10
   7.46999979      -1.79324638E-10
   7.53000021      -2.04668643E-10
   7.59000015      -1.97788938E-10
   7.65000010      -1.48138321E-10
   7.71000004      -4.94010631E-11
   7.76999998       9.81966453E-11
   7.82999992       2.85971080E-10
   7.88999987       4.95584018E-10
   7.94999981       6.98843650E-10
   8.01000023       8.58699223E-10
   8.06999969       9.31501987E-10
   8.13000011       8.70447492E-10
   8.18999958       6.29943542E-10
   8.25000000       1.70477507E-10
   8.31000042      -5.36557965E-10
   8.36999989      -1.50467760E-09
   8.43000031      -2.72930767E-09
   8.48999977      -4.18640012E-09
   8.55000019      -5.83287374E-09
   8.60999966      -7.60887797E-09
   8.67000008      -9.44162881E-09
   8.72999954      -1.12504424E-08
   8.78999996      -1.29524489E-08
   8.85000038      -1.44684789E-08
   8.90999985      -1.57286344E-08
   8.97000027      -1.66771699E-08
   9.02999973      -1.72763333E-08
   9.09000015      -1.75089703E-08
   9.14999962      -1.73797137E-08
   9.21000004      -1.69146670E-08
   9.27000046      -1.61595146E-08
   9.32999992      -1.51760311E-08
   9.39000034      -1.40371350E-08
   9.44999981      -1.28206361E-08
   9.51000023      -1.16021015E-08
   9.56999969      -1.04474376E-08
   9.63000011      -9.40599065E-09
   9.68999958      -8.50510595E-09
   9.75000000      -7.74709719E-09
   9.81000042      -7.10938330E-09
   9.86999989      -6.54817889E-09
   9.93000031      -6.00555872E-09
   9.98999977      -5.41906653E-09
   10.0500002      -4.73248729E-09
   10.1099997      -3.90600619E-09
   10.1700001      -2.92394731E-09
   10.2299995      -1.79863169E-09
   10.2900000      -5.69555902E-10
   10.3500004       7.02009173E-10
   10.4099998       1.94202854E-09
   10.4700003       3.07465964E-09
   10.5299997       4.03317735E-09
   10.5900002       4.76901274E-09
   10.6499996       5.25754684E-09
   10.7100000       5.50006041E-09
   10.7700005       5.52203927E-09
   10.8299999       5.36866507E-09
   10.8900003       5.09867526E-09
   10.9499998       4.77777373E-09
   11.0100002       4.47249260E-09
   11.0699997       4.24494306E-09
   11.1300001       4.14850465E-09
   11.1899996       4.22421254E-09
   11.2500000       4.49762938E-09
   11.3100004       4.97623009E-09
   11.3699999       5.64770630E-09
   11.4300003       6.47994192E-09
   11.4899998       7.42350226E-09
   11.5500002       8.41721182E-09
   11.6099997       9.39673228E-09
   11.6700001       1.03051558E-08
   11.7299995       1.11037144E-08
   11.7900000       1.17801804E-08
   11.8500004       1.23525430E-08
   11.9099998       1.28663578E-08
   11.9700003       1.33855469E-08
   12.0299997       1.39781271E-08
   12.0900002       1.46998609E-08
   12.1499996       1.55796904E-08
   12.2100000       1.66107217E-08
   12.2700005       1.77492900E-08
   12.3299999       1.89227727E-08
   12.3900003       2.00444088E-08
   12.4499998       2.10315445E-08
   12.5100002       2.18226468E-08
   12.5699997       2.23886296E-08
   12.6300001       2.27356018E-08
   12.6899996       2.28984049E-08
   12.7500000       2.29269492E-08
   12.8100004       2.28694486E-08
   12.8699999       2.27574724E-08
   12.9300003       2.25972823E-08
   12.9899998       2.23699512E-08
   13.0500002       2.20401581E-08
   13.1099997       2.15707470E-08
   13.1700001       2.09383941E-08
   13.2299995       2.01451424E-08
   13.2900000       1.92219041E-08
   13.3500004       1.82223623E-08
   13.4099998       1.72088281E-08
   13.4700003       1.62342761E-08
   13.5299997       1.53261830E-08
   13.5900002       1.44775107E-08
   13.6499996       1.36482070E-08
   13.7100000       1.27773401E-08
   13.7700005       1.18027019E-08
   13.8299999       1.06821396E-08
   13.8900003       9.41003897E-09
   13.9499998       8.02357558E-09
   14.0100002       6.59625110E-09
   14.0699997       5.22000088E-09
   14.1300001       3.98075173E-09
   14.1899996       2.93448577E-09
   14.2500000       2.09099116E-09
   14.3100004       1.41045253E-09
   14.3699999       8.14375123E-10
   14.4300003       2.08145903E-10
   14.4899998      -4.90972596E-10
   14.5500002      -1.32837730E-09
   14.6099997      -2.29662267E-09
   14.6700001      -3.33460459E-09
   14.7299995      -4.34203340E-09
   14.7900000      -5.20541521E-09
   14.8500004      -5.82839910E-09
   14.9099998      -6.15797235E-09
   14.9700003      -6.19905416E-09
   15.0299997      -6.01326766E-09
   15.0900002      -5.70217651E-09
   15.1499996      -5.37977130E-09
   15.2100000      -5.14213339E-09
   15.2700005      -5.04307085E-09
   15.3299999      -5.08278175E-09
   15.3900003      -5.21271959E-09
   15.4499998      -5.35500710E-09
   15.5100002      -5.43034151E-09
   15.5699997      -5.38578737E-09
   15.6300001      -5.21390575E-09
   15.6899996      -4.95734076E-09
   15.7500000      -4.69749573E-09
   15.8100004      -4.53082505E-09
   15.8699999      -4.54009275E-09
   15.9300003      -4.76948525E-09
   15.9899998      -5.21122701E-09
   16.0499992      -5.80778581E-09
   16.1100006      -6.46890452E-09
   16.1700001      -7.09817805E-09
   16.2299995      -7.62098651E-09
   16.2900009      -8.00528799E-09
   16.3500004      -8.26908320E-09
   16.4099998      -8.47248049E-09
   16.4699993      -8.69707417E-09
   16.5300007      -9.01908770E-09
   16.5900002      -9.48454826E-09
   16.6499996      -1.00938884E-08
   16.7099991      -1.08003926E-08
   16.7700005      -1.15225358E-08
   16.8299999      -1.21660788E-08
   16.8899994      -1.26489494E-08
   16.9500008      -1.29212472E-08
   17.0100002      -1.29744793E-08
   17.0699997      -1.28375639E-08
   17.1299992      -1.25613084E-08
   17.1900005      -1.21966099E-08
   17.2500000      -1.17734995E-08
   17.3099995      -1.12877760E-08
   17.3700008      -1.06995719E-08
   17.4300003      -9.94446658E-09
   17.4899998      -8.95389451E-09
   17.5499992      -7.67878738E-09
   17.6100006      -6.10945250E-09
   17.6700001      -4.28582059E-09
   17.7299995      -2.29503705E-09
   17.7900009      -2.56977800E-10
   17.8500004       1.69846814E-09
   17.9099998       3.45648665E-09
   17.9699993       4.93869168E-09
   18.0300007       6.11605122E-09
   18.0900002       7.01125380E-09
   18.1499996       7.69121389E-09
   18.2099991       8.25270252E-09
   18.2700005       8.80524365E-09
   18.3299999       9.45527034E-09
   18.3899994       1.02943343E-08
   18.4500008       1.13923697E-08
   18.5100002       1.27953568E-08
   18.5699997       1.45255932E-08
   18.6299992       1.65825842E-08
   18.6900005       1.89430782E-08
   18.7500000       2.15599414E-08
   18.8099995       2.43606930E-08
   18.8700008       2.72473653E-08
   18.9300003       3.00995460E-08
   18.9899998       3.27818661E-08
   19.0499992       3.51561553E-08
   19.1100006       3.70970099E-08
   19.1700001       3.85083894E-08
   19.2299995       3.93379729E-08
   19.2900009       3.95860624E-08
   19.3500004       3.93065953E-08
   19.4099998       3.85992323E-08
   19.4699993       3.75934093E-08
   19.5300007       3.64270996E-08
   19.5900002       3.52243212E-08
   19.6499996       3.40758746E-08
   19.7099991       3.30273622E-08
   19.7700005       3.20766027E-08
   19.8299999       3.11807362E-08
   19.8899994       3.02707512E-08
   19.9500008       2.92696765E-08
   20.0100002       2.81100405E-08
   20.0699997       2.67466955E-08
   20.1299992       2.51627714E-08
   20.1900005       2.33684663E-08
   20.2500000       2.13944045E-08
   20.3099995       1.92825258E-08
   20.3700008       1.70777845E-08
   20.4300003       1.48231596E-08
   20.4899998       1.25590516E-08
   20.5499992       1.03263149E-08
   20.6100006       8.17071744E-09
   20.6700001       6.14585627E-09
   20.7299995       4.31183755E-09
   20.7900009       2.72831979E-09
   20.8500004       1.44251600E-09
   20.9099998       4.74836837E-10
   20.9699993      -1.93641533E-10
   21.0300007      -6.27352170E-10
   21.0900002      -9.32643296E-10
   21.1499996      -1.24339938E-09
   21.2099991      -1.69793135E-09
   21.2700005      -2.41202835E-09
   21.3299999      -3.45473605E-09
   21.3899994      -4.83331375E-09
   21.4500008      -6.49178977E-09
   21.5100002      -8.32408897E-09
   21.5699997      -1.01988054E-08
   21.6299992      -1.19894406E-08
   21.6900005      -1.36024143E-08
   21.7500000      -1.49956971E-08
   21.8099995      -1.61835700E-08
   21.8700008      -1.72268635E-08
   21.9300003      -1.82119884E-08
   21.9899998      -1.92250660E-08
   22.0499992      -2.03284696E-08
   22.1100006      -2.15460663E-08
   22.1700001      -2.28605952E-08
   22.2299995      -2.42229721E-08
   22.2900009      -2.55698165E-08
   22.3500004      -2.68434732E-08
   22.4099998      -2.80083334E-08
   22.4699993      -2.90588780E-08
   22.5300007      -3.00176453E-08
   22.5900002      -3.09244435E-08
   22.6499996      -3.18208073E-08
   22.7099991      -3.27348317E-08
   22.7700005      -3.36713057E-08
   22.8299999      -3.46100961E-08
   22.8899994      -3.55132244E-08
   22.9500008      -3.63384132E-08
   23.0100002      -3.70548250E-08
   23.0699997      -3.76563065E-08
   23.1299992      -3.81679648E-08
   23.1900005      -3.86440213E-08
   23.2500000      -3.91573778E-08
   23.3099995      -3.97836430E-08
   23.3700008      -4.05841014E-08
   23.4300003      -4.15921946E-08
   23.4899998      -4.28072227E-08
   23.5499992      -4.41967352E-08
   23.6100006      -4.57066278E-08
   23.6700001      -4.72757868E-08
   23.7299995      -4.88511027E-08
   23.7900009      -5.03985973E-08
   23.8500004      -5.19080565E-08
   23.9099998      -5.33903481E-08
   23.9699993      -5.48688952E-08
   24.0300007      -5.63682363E-08
   24.0900002      -5.79031223E-08
   24.1499996      -5.94712901E-08
   24.2099991      -6.10515798E-08
   24.2700005      -6.26076471E-08
   24.3299999      -6.40957012E-08
   24.3899994      -6.54739480E-08
   24.4500008      -6.67105979E-08
   24.5100002      -6.77881644E-08
   24.5699997      -6.87027111E-08
   24.6299992      -6.94581601E-08
   24.6900005      -7.00577090E-08
   24.7500000      -7.04952186E-08
   24.8099995      -7.07496497E-08
   24.8700008      -7.07852550E-08
   24.9300003      -7.05580092E-08
   24.9899998      -7.00270704E-08
   25.0499992      -6.91680810E-08
   25.1100006      -6.79840539E-08
   25.1700001      -6.65101254E-08
   25.2299995      -6.48098180E-08
   25.2900009      -6.29632737E-08
   25.3500004      -6.10500237E-08
   25.4099998      -5.91312705E-08
   25.4699993      -5.72365018E-08
   25.5300007      -5.53586936E-08
   25.5900002      -5.34595515E-08
   25.6499996      -5.14834682E-08
   25.7099991      -4.93761796E-08
   25.7700005      -4.71027199E-08
   25.8299999      -4.46593766E-08
   25.8899994      -4.20763513E-08
   25.9500008      -3.94105903E-08
   26.0100002      -3.67313788E-08
   26.0699997      -3.41033974E-08
   26.1299992      -3.15725579E-08
   26.1900005      -2.91589597E-08
   26.2500000      -2.68587232E-08
   26.3099995      -2.46536551E-08
   26.3700008      -2.25250663E-08
   26.4300003      -2.04668158E-08
   26.4899998      -1.84930009E-08
   26.5499992      -1.66375127E-08
   26.6100006      -1.49454440E-08
   26.6700001      -1.34590374E-08
   26.7299995      -1.22027908E-08
   26.7900009      -1.11727507E-08
   26.8500004      -1.03338778E-08
   26.9099998      -9.62691260E-09
   26.9699993      -8.98324704E-09
   27.0300007      -8.34372482E-09
   27.0900002      -7.67589814E-09
   27.1499996      -6.98456537E-09
   27.2099991      -6.31223562E-09
   27.2700005      -5.72908254E-09
   27.3299999      -5.31501332E-09
   27.3899994      -5.13880360E-09
   27.4500008      -5.24008081E-09
   27.5100002      -5.61910829E-09
   27.5699997      -6.23697982E-09
   27.6299992      -7.02581682E-09
   27.6900005      -7.90567345E-09
   27.7500000      -8.80305162E-09
   27.8099995      -9.66571712E-09
   27.8700008      -1.04698730E-08
   27.9300003      -1.12183391E-08
   27.9899998      -1.19312293E-08
   28.0499992      -1.26329001E-08
   28.1100006      -1.33398581E-08
   28.1700001      -1.40536169E-08
   28.2299995      -1.47605066E-08
   28.2900009      -1.54377879E-08
   28.3500004      -1.60631597E-08
   28.4099998      -1.66235790E-08
   28.4699993      -1.71197367E-08
   28.5300007      -1.75641617E-08
   28.5900002      -1.79734574E-08
   28.6499996      -1.83574205E-08
   28.7099991      -1.87090858E-08
   28.7700005      -1.89996392E-08
   28.8299999      -1.91806446E-08
   28.8899994      -1.91936529E-08
   28.9500008      -1.89847764E-08
   29.0100002      -1.85200602E-08
   29.0699997      -1.77970616E-08
   29.1299992      -1.68490129E-08
   29.1900005      -1.57401434E-08
   29.2500000      -1.45534091E-08
   29.3099995      -1.33741871E-08
   29.3700008      -1.22747075E-08
   29.4300003      -1.13036780E-08
   29.4899998      -1.04838271E-08
   29.5499992      -9.81737447E-09
   29.6100006      -9.29684862E-09
   29.6700001      -8.91683882E-09
   29.7299995      -8.68205596E-09
   29.7900009      -8.60845706E-09
   29.8500004      -8.71677663E-09
   29.9099998      -9.02070152E-09
   29.9699993      -9.51414769E-09
   30.0300007      -1.01627435E-08
   30.0900002      -1.09035367E-08
   30.1499996      -1.16542536E-08
   30.2099991      -1.23301227E-08
   30.2700005      -1.28634232E-08
   30.3299999      -1.32194700E-08
   30.3899994      -1.34035076E-08
   30.4500008      -1.34555727E-08
   30.5100002      -1.34342759E-08
   30.5699997      -1.33942111E-08
   30.6299992      -1.33640778E-08
   30.6900005      -1.33327225E-08
   30.7500000      -1.32479538E-08
   30.8099995      -1.30289601E-08
   30.8700008      -1.25887221E-08
   30.9300003      -1.18595729E-08
   30.9899998      -1.08140394E-08
   31.0499992      -9.47469836E-09
   31.1100006      -7.91043142E-09
   31.1700001      -6.22074658E-09
   31.2299995      -4.51344695E-09
   31.2900009      -2.88256818E-09
   31.3500004      -1.39278611E-09
   31.4099998      -7.39018985E-11
   31.4699993       1.07452736E-09
   31.5300007       2.07150053E-09
   31.5900002       2.94072278E-09
   31.6499996       3.69945385E-09
   31.7099991       4.35329817E-09
   31.7700005       4.89761964E-09
   31.8299999       5.32379429E-09
   31.8899994       5.62689673E-09
   31.9500008       5.81121418E-09
   32.0099983       5.89112492E-09
   32.0699997       5.88690963E-09
   32.1300011       5.81722182E-09
   32.1899986       5.69139758E-09
   32.2500000       5.50500667E-09
   32.3100014       5.24091259E-09
   32.3699989       4.87599428E-09
   32.4300003       4.39142678E-09
   32.4900017       3.78279585E-09
   32.5499992       3.06612491E-09
   32.6100006       2.27719243E-09
   32.6699982       1.46394297E-09
   32.7299995       6.74477418E-10
   32.7900009      -5.50103019E-11
   32.8499985      -7.07656989E-10
   32.9099998      -1.28549527E-09
   32.9700012      -1.80076243E-09
   33.0299988      -2.26173480E-09
   33.0900002      -2.65826028E-09
   33.1500015      -2.95277403E-09
   33.2099991      -3.08112780E-09
   33.2700005      -2.96438918E-09
   33.3300018      -2.52895571E-09
   33.3899994      -1.72917691E-09
   33.4500008      -5.65344438E-10
   33.5099983       9.09062992E-10
   33.5699997       2.59385913E-09
   33.6300011       4.36112835E-09
   33.6899986       6.08156503E-09
   33.7500000       7.65076535E-09
   33.8100014       9.00816755E-09
   33.8699989       1.01437037E-08
   33.9300003       1.10910996E-08
   33.9900017       1.19107071E-08
   34.0499992       1.26676127E-08
   34.1100006       1.34116274E-08
   34.1699982       1.41645700E-08
   34.2299995       1.49175197E-08
   34.2900009       1.56374433E-08
   34.3499985       1.62798912E-08
   34.4099998       1.68029626E-08
   34.4700012       1.71779302E-08
   34.5299988       1.73934751E-08
   34.5900002       1.74528356E-08
   34.6500015       1.73656503E-08
   34.7099991       1.71379710E-08
   34.7700005       1.67644547E-08
   34.8300018       1.62258456E-08
   34.8899994       1.54929545E-08
   34.9500008       1.45358747E-08
   35.0099983       1.33351525E-08
   35.0699997       1.18907026E-08
   35.1300011       1.02248601E-08
   35.1899986       8.37789216E-09
   35.2500000       6.39702691E-09
   35.3100014       4.32247793E-09
   35.3699989       2.17529039E-09
   35.4300003      -4.85496608E-11
   35.4900017      -2.37526354E-09
   35.5499992      -4.84211693E-09
   35.6100006      -7.48126094E-09
   35.6699982      -1.03036752E-08
   35.7299995      -1.32884512E-08
   35.7900009      -1.63810334E-08
   35.8499985      -1.95012522E-08
   35.9099998      -2.25588934E-08
   35.9700012      -2.54722785E-08
   36.0299988      -2.81843917E-08
   36.0900002      -3.06720480E-08
   36.1500015      -3.29457528E-08
   36.2099991      -3.50408449E-08
   36.2700005      -3.70031330E-08
   36.3300018      -3.88735941E-08
   36.3899994      -4.06769090E-08
   36.4500008      -4.24168825E-08
   36.5099983      -4.40797336E-08
   36.5699997      -4.56435707E-08
   36.6300011      -4.70905803E-08
   36.6899986      -4.84177569E-08
   36.7500000      -4.96425301E-08
   36.8100014      -5.08013684E-08
   36.8699989      -5.19415124E-08
   36.9300003      -5.31082200E-08
   36.9900017      -5.43314869E-08
   37.0499992      -5.56164110E-08
   37.1100006      -5.69405607E-08
   37.1699982      -5.82596513E-08
   37.2299995      -5.95201648E-08
   37.2900009      -6.06752408E-08
   37.3499985      -6.16988984E-08
   37.4099998      -6.25938696E-08
   37.4700012      -6.33906367E-08
   37.5299988      -6.41379287E-08
   37.5900002      -6.48882335E-08
   37.6500015      -6.56836789E-08
   37.7099991      -6.65471021E-08
   37.7700005      -6.74816079E-08
   37.8300018      -6.84783004E-08
   37.8899994      -6.95287099E-08
   37.9500008      -7.06368581E-08
   38.0099983      -7.18258377E-08
   38.0699997      -7.31359791E-08
   38.1300011      -7.46150448E-08
   38.1899986      -7.63035928E-08
   38.2500000      -7.82208787E-08
   38.3100014      -8.03560312E-08
   38.3699989      -8.26680164E-08
   38.4300003      -8.50943991E-08
   38.4900017      -8.75662636E-08
   38.5499992      -9.00244217E-08
   38.6100006      -9.24315700E-08
   38.6699982      -9.47761905E-08
   38.7299995      -9.70666676E-08
   38.7900009      -9.93170914E-08
   38.8499985      -1.01529338E-07
   38.9099998      -1.03677252E-07
   38.9700012      -1.05698724E-07
   39.0299988      -1.07499055E-07
   39.0900002      -1.08965743E-07
   39.1500015      -1.09990971E-07
   39.2099991      -1.10495534E-07
   39.2700005      -1.10447147E-07
   39.3300018      -1.09867798E-07
   39.3899994      -1.08827997E-07
   39.4500008      -1.07430132E-07
   39.5099983      -1.05786107E-07
   39.5699997      -1.03996442E-07
   39.6300011      -1.02136958E-07
   39.6899986      -1.00256464E-07
   39.7500000      -9.83850015E-08
   39.8100014      -9.65485683E-08
   39.8699989      -9.47839425E-08
   39.9300003      -9.31472499E-08
   39.9900017      -9.17118754E-08
   40.0499992      -9.05551758E-08
   40.1100006      -8.97373766E-08
   40.1699982      -8.92792542E-08
   40.2299995      -8.91461127E-08
   40.2900009      -8.92444234E-08
   40.3499985      -8.94337191E-08
   40.4099998      -8.95515697E-08
   40.4700012      -8.94454715E-08
   40.5299988      -8.90028460E-08
   40.5900002      -8.81707862E-08
   40.6500015      -8.69602985E-08
   40.7099991      -8.54344009E-08
   40.7700005      -8.36844052E-08
   40.8300018      -8.18019075E-08
   40.8899994      -7.98551412E-08
   40.9500008      -7.78763223E-08
   41.0099983      -7.58628715E-08
   41.0699997      -7.37909218E-08
   41.1300011      -7.16361157E-08
   41.1899986      -6.93942539E-08
   41.2500000      -6.70953781E-08
   41.3100014      -6.48066347E-08
   41.3699989      -6.26230587E-08
   41.4300003      -6.06490786E-08
   41.4900017      -5.89760774E-08
   41.5499992      -5.76626320E-08
   41.6100006      -5.67232306E-08
   41.6699982      -5.61284423E-08
   41.7299995      -5.58162334E-08
   41.7900009      -5.57104549E-08
   41.8499985      -5.57403830E-08
   41.9099998      -5.58548514E-08
   41.9700012      -5.60264191E-08
   42.0299988      -5.62445663E-08
   42.0900002      -5.65007134E-08
   42.1500015      -5.67709755E-08
   42.2099991      -5.70036214E-08
   42.2700005      -5.71167291E-08
   42.3300018      -5.70083110E-08
   42.3899994      -5.65767770E-08
   42.4500008      -5.57460176E-08
   42.5099983      -5.44872201E-08
   42.5699997      -5.28302344E-08
   42.6300011      -5.08600735E-08
   42.6899986      -4.86985954E-08
   42.7500000      -4.64760959E-08
   42.8100014      -4.43007018E-08
   42.8699989      -4.22345252E-08
   42.9300003      -4.02836164E-08
   42.9900017      -3.84046466E-08
   43.0499992      -3.65262380E-08
   43.1100006      -3.45782389E-08
   43.1699982      -3.25198428E-08
   43.2299995      -3.03579455E-08
   43.2900009      -2.81501915E-08
   43.3499985      -2.59920423E-08
   43.4099998      -2.39921594E-08
   43.4700012      -2.22438654E-08
   43.5299988      -2.08013695E-08
   43.5900002      -1.96677696E-08
   43.6500015      -1.87979357E-08
   43.7099991      -1.81148909E-08
   43.7700005      -1.75342230E-08
   43.8300018      -1.69889081E-08
   43.8899994      -1.64470872E-08
   43.9500008      -1.59176441E-08
   44.0099983      -1.54423851E-08
   44.0699997      -1.50777044E-08
   44.1300011      -1.48718273E-08
   44.1899986      -1.48449910E-08
   44.2500000      -1.49788058E-08
   44.3100014      -1.52179425E-08
   44.3699989      -1.54832875E-08
   44.4300003      -1.56920468E-08
   44.4900017      -1.57782694E-08
   44.5499992      -1.57075490E-08
   44.6100006      -1.54820388E-08
   44.6699982      -1.51353881E-08
   44.7299995      -1.47205688E-08
   44.7900009      -1.42955310E-08
   44.8499985      -1.39116194E-08
   44.9099998      -1.36079086E-08
   44.9700012      -1.34119515E-08
   45.0299988      -1.33448284E-08
   45.0900002      -1.34269662E-08
   45.1500015      -1.36812579E-08
   45.2099991      -1.41315279E-08
   45.2700005      -1.47965702E-08
   45.3300018      -1.56820725E-08
   45.3899994      -1.67738907E-08
   45.4500008      -1.80359176E-08
   45.5099983      -1.94143013E-08
   45.5699997      -2.08475388E-08
   45.6300011      -2.22797425E-08
   45.6899986      -2.36731896E-08
   45.7500000      -2.50161953E-08
   45.8100014      -2.63239244E-08
   45.8699989      -2.76320371E-08
   45.9300003      -2.89854327E-08
   45.9900017      -3.04258911E-08
   46.0499992      -3.19826263E-08
   46.1100006      -3.36686590E-08
   46.1699982      -3.54838399E-08
   46.2299995      -3.74233018E-08
   46.2900009      -3.94884516E-08
   46.3499985      -4.16971488E-08
   46.4099998      -4.40902888E-08
   46.4700012      -4.67331880E-08
   46.5299988      -4.97122343E-08
   46.5900002      -5.31284172E-08
   46.6500015      -5.70906558E-08
   46.7099991      -6.17117166E-08
   46.7700005      -6.71088856E-08
   46.8300018      -7.34098506E-08
   46.8899994      -8.07627032E-08
   46.9500008      -8.93474805E-08
   47.0099983      -9.93860994E-08
   47.0699997      -1.11148189E-07
   47.1300011      -1.24951910E-07
   47.1899986      -1.41161067E-07
   47.2500000      -1.60181685E-07
   47.3100014      -1.82461790E-07
   47.3699989      -2.08497710E-07
   47.4300003      -2.38848429E-07
   47.4900017      -2.74156406E-07
   47.5499992      -3.15172002E-07
   47.6100006      -3.62777200E-07
   47.6699982      -4.18005015E-07
   47.7299995      -4.82053053E-07
   47.7900009      -5.56291525E-07
   47.8499985      -6.42269356E-07
   47.9099998      -7.41721863E-07
   47.9700012      -8.56583767E-07
   48.0299988      -9.89010232E-07
   48.0900002      -1.14140482E-06
   48.1500015      -1.31645470E-06
   48.2099991      -1.51716586E-06
   48.2700005      -1.74689967E-06
   48.3300018      -2.00940326E-06
   48.3899994      -2.30883643E-06
   48.4500008      -2.64979371E-06
   48.5099983      -3.03732645E-06
   48.5699997      -3.47696300E-06
   48.6300011      -3.97473741E-06
   48.6899986      -4.53721850E-06
   48.7500000      -5.17154967E-06
   48.8100014      -5.88548346E-06
   48.8699989      -6.68741905E-06
   48.9300003      -7.58643182E-06
   48.9900017      -8.59229203E-06
   49.0499992      -9.71547252E-06
   49.1100006      -1.09671510E-05
   49.1699982      -1.23592008E-05
   49.2299995      -1.39041922E-05
   49.2900009      -1.56153801E-05
   49.3499985      -1.75066980E-05
   49.4099998      -1.95927551E-05
   49.4700012      -2.18888345E-05
   49.5299988      -2.44108578E-05
   49.5900002      -2.71753652E-05
   49.6500015      -3.01994532E-05
   49.7099991      -3.35007026E-05
   49.7700005      -3.70970774E-05
   49.8300018      -4.10068133E-05
   49.8899994      -4.52483182E-05
   49.9500008      -4.98400186E-05
   50.0099983      -5.48002463E-05
   50.0699997      -6.01471111E-05
   50.1300011      -6.58983554E-05
   50.1899986      -7.20712487E-05
   50.2500000      -7.86823803E-05
   50.3100014      -8.57475025E-05
   50.3699989      -9.32813782E-05
   50.4300003      -1.01297534E-04
   50.4900017      -1.09808068E-04
   50.5499992      -1.18823438E-04
   50.6100006      -1.28352243E-04