  -2.400000      0.0000000E+00
  -2.340000      0.0000000E+00
  -2.280000      0.0000000E+00
  -2.220000      0.0000000E+00
  -2.160000      0.0000000E+00
  -2.100000      0.0000000E+00
  -2.040000      0.0000000E+00
  -1.980000      0.0000000E+00
  -1.920000     -4.7518481E-27
  -1.860000     -3.3270877E-26
  -1.800000     -9.3493730E-27
  -1.740000      9.8999302E-25
  -1.680000      7.0066436E-24
  -1.620000      2.8548614E-23
  -1.560000      8.0991447E-23
  -1.500000      1.6257337E-22
  -1.440000      1.9357786E-22
  -1.380000     -7.5124865E-23
  -1.320000     -1.0991615E-21
  -1.260000     -3.3319920E-21
  -1.200000     -6.5482182E-21
  -1.140000     -8.6995579E-21
  -1.080000     -4.9058939E-21
  -1.020000      1.2000961E-20
 -0.9600000      4.7582909E-20
 -0.9000000      9.7806805E-20
 -0.8400000      1.3937387E-19
 -0.7800000      1.2529250E-19
 -0.7200000     -4.4184987E-21
 -0.6600000     -2.8996907E-19
 -0.6000000     -7.0195612E-19
 -0.5400000     -1.0978525E-18
 -0.4800000     -1.2228221E-18
 -0.4200000     -7.8797204E-19
 -0.3600000      3.7623090E-19
 -0.3000000      2.1525740E-18
 -0.2400000      4.0667276E-18
 -0.1800000      5.4167054E-18
 -0.1200000      5.6048067E-18
 -5.9999999E-02  4.5043802E-18
  0.0000000E+00  2.5529019E-18
  5.9999999E-02  2.9927586E-19
  0.1200000     -2.5506340E-18
  0.1800000     -8.0151444E-18
  0.2400000     -1.9623274E-17
  0.3000000     -4.0178717E-17
  0.3600000     -6.7551414E-17
  0.4200000     -9.0287254E-17
  0.4800000     -8.6509652E-17
  0.5400000     -2.9857541E-17
  0.6000000      9.6150872E-17
  0.6600000      2.7899725E-16
  0.7200000      4.6287725E-16
  0.7800000      5.5203080E-16
  0.8400000      4.4103973E-16
  0.9000000      6.9749398E-17
  0.9600000     -5.1654436E-16
   1.020000     -1.1352734E-15
   1.080000     -1.4977272E-15
   1.140000     -1.3178070E-15
   1.200000     -4.7403119E-16
   1.260000      8.4339018E-16
   1.320000      2.0931152E-15
   1.380000      2.5253273E-15
   1.440000      1.5112174E-15
   1.500000     -1.0397627E-15
   1.560000     -4.3674366E-15
   1.620000     -6.8723887E-15
   1.680000     -6.5882100E-15
   1.740000     -2.0615755E-15
   1.800000      6.6496881E-15
   1.860000      1.7326730E-14
   1.920000      2.5755499E-14
   1.980000      2.6938680E-14
   2.040000      1.7146319E-14
   2.100000     -3.8880100E-15
   2.160000     -3.1625628E-14
   2.220000     -5.7153833E-14
   2.280000     -6.9753631E-14
   2.340000     -6.1065634E-14
   2.400000     -2.9397085E-14
   2.460000      1.7783867E-14
   2.520000      6.4832844E-14
   2.580000      9.2899064E-14
   2.640000      8.7661202E-14
   2.700000      4.6981685E-14
   2.760000     -1.5100991E-14
   2.820000     -7.0874391E-14
   2.880000     -8.8512971E-14
   2.940000     -4.6143485E-14
   3.000000      5.4871706E-14
   3.060000      1.8370445E-13
   3.120000      2.8551749E-13
   3.180000      2.9911558E-13
   3.240000      1.8198905E-13
   3.300000     -6.6411801E-14
   3.360000     -3.9358816E-13
   3.420000     -7.0244917E-13
   3.480000     -8.7978642E-13
   3.540000     -8.3679212E-13
   3.600000     -5.4704022E-13
   3.660000     -6.5792905E-14
   3.720000      4.8040733E-13
   3.780000      9.3416561E-13
   3.840000      1.1652552E-12
   3.900000      1.1242229E-12
   3.960000      8.6784394E-13
   4.020000      5.4094787E-13
   4.080000      3.1558398E-13
   4.140000      3.0748708E-13
   4.200000      5.0358708E-13
   4.260000      7.3599406E-13
   4.320000      7.2456348E-13
   4.380000      1.8476884E-13
   4.440000     -1.0312323E-12
   4.500000     -2.8132726E-12
   4.560000     -4.7473336E-12
   4.620000     -6.1816025E-12
   4.680000     -6.4036714E-12
   4.740000     -4.8851778E-12
   4.800000     -1.5173147E-12
   4.860000      3.2482977E-12
   4.920000      8.4178593E-12
   4.980000      1.2650911E-11
   5.040000      1.4594145E-11
   5.100000      1.3266014E-11
   5.160000      8.3821552E-12
   5.220000      5.2402104E-13
   5.280000     -8.9031126E-12
   5.340000     -1.7915898E-11
   5.400000     -2.4338961E-11
   5.460000     -2.6234442E-11
   5.520000     -2.2279152E-11
   5.580000     -1.2025776E-11
   5.640000      3.9664838E-12
   5.700000      2.4103004E-11
   5.760000      4.5780688E-11
   5.820000      6.5443560E-11
   5.880000      7.8688396E-11
   5.940000      8.0498372E-11
   6.000000      6.5717355E-11
   6.060000      2.9863358E-11
   6.120000     -2.9693692E-11
   6.180000     -1.1228513E-10
   6.240000     -2.1245666E-10
   6.300000     -3.1877076E-10
   6.360000     -4.1325146E-10
   6.420000     -4.7175225E-10
   6.480000     -4.6536605E-10
   6.540000     -3.6278536E-10
   6.600000     -1.3331866E-10
   6.660000      2.4986749E-10
   6.720000      8.0674395E-10
   6.780000      1.5480409E-09
   6.840000      2.4737332E-09
   6.900000      3.5724421E-09
   6.960000      4.8216684E-09
   7.020000      6.1886802E-09
   7.080000      7.6318987E-09
   7.140000      9.1026804E-09
   7.200000      1.0547494E-08
   7.260000      1.1910506E-08
   7.320000      1.3136619E-08
   7.380000      1.4174837E-08
   7.440000      1.4981770E-08
   7.500000      1.5524844E-08
   7.560000      1.5784790E-08
   7.620000      1.5756948E-08
   7.680000      1.5451082E-08
   7.740000      1.4889705E-08
   7.800000      1.4105092E-08
   7.860000      1.3135547E-08
   7.920000      1.2021522E-08
   7.980000      1.0802249E-08
   8.040000      9.5133643E-09
   8.100000      8.1857383E-09
   8.160000      6.8454553E-09
   8.220000      5.5145937E-09
   8.280000      4.2123456E-09
   8.340000      2.9560125E-09
   8.400000      1.7615323E-09
   8.460000      6.4344297E-10
   8.520000     -3.8560433E-10
   8.580000     -1.3154942E-09
   8.640000     -2.1391298E-09
   8.700000     -2.8525140E-09
   8.760000     -3.4543830E-09
   8.820000     -3.9455545E-09
   8.880000     -4.3283128E-09
   8.940000     -4.6061612E-09
   9.000000     -4.7841486E-09
   9.060000     -4.8697251E-09
   9.120000     -4.8738262E-09
   9.180000     -4.8116844E-09
   9.240000     -4.7028594E-09
   9.300000     -4.5701412E-09
   9.360000     -4.4373492E-09
   9.420000     -4.3263921E-09
   9.480000     -4.2543058E-09
   9.540000     -4.2310679E-09
   9.600000     -4.2588550E-09
   9.660000     -4.3330548E-09
   9.720000     -4.4448440E-09
   9.780000     -4.5847011E-09
   9.840000     -4.7459423E-09
   9.900000     -4.9273416E-09
   9.960000     -5.1341971E-09
   10.02000     -5.3776232E-09
   10.08000     -5.6723697E-09
   10.14000     -6.0338312E-09
   10.20000     -6.4750432E-09
   10.26000     -7.0043238E-09
   10.32000     -7.6239015E-09
   10.38000     -8.3294847E-09
   10.44000     -9.1104386E-09
   10.50000     -9.9501962E-09
   10.56000     -1.0826647E-08
   10.62000     -1.1712563E-08
   10.68000     -1.2576375E-08
   10.74000     -1.3383683E-08
   10.80000     -1.4099783E-08
   10.86000     -1.4693051E-08
   10.92000     -1.5138648E-08
   10.98000     -1.5421625E-08
   11.04000     -1.5538509E-08
   11.10000     -1.5496703E-08
   11.16000     -1.5311629E-08
   11.22000     -1.5002241E-08
   11.28000     -1.4586051E-08
   11.34000     -1.4075024E-08
   11.40000     -1.3473477E-08
   11.46000     -1.2778526E-08
   11.52000     -1.1982884E-08
   11.58000     -1.1079126E-08
   11.64000     -1.0064150E-08
   11.70000     -8.9425933E-09
   11.76000     -7.7283833E-09
   11.82000     -6.4442203E-09
   11.88000     -5.1194218E-09
   11.94000     -3.7869565E-09
   12.00000     -2.4805791E-09
   12.06000     -1.2326744E-09
   12.12000     -7.2969603E-11
   12.18000      9.7223940E-10
   12.24000      1.8809643E-09
   12.30000      2.6370852E-09
   12.36000      3.2328020E-09
   12.42000      3.6716159E-09
   12.48000      3.9709214E-09
   12.54000      4.1630179E-09
   12.60000      4.2934616E-09
   12.66000      4.4162753E-09
   12.72000      4.5864201E-09
   12.78000      4.8508557E-09
   12.84000      5.2401883E-09
   12.90000      5.7629959E-09
   12.96000      6.4044068E-09
   13.02000      7.1294477E-09
   13.08000      7.8903994E-09
   13.14000      8.6362562E-09
   13.20000      9.3218278E-09
   13.26000      9.9141504E-09
   13.32000      1.0394747E-08
   13.38000      1.0757511E-08
   13.44000      1.1003341E-08
   13.50000      1.1133503E-08
   13.56000      1.1143974E-08
   13.62000      1.1022525E-08
   13.68000      1.0749344E-08
   13.74000      1.0300788E-08
   13.80000      9.6549240E-09
   13.86000      8.7969960E-09
   13.92000      7.7231341E-09
   13.98000      6.4412697E-09
   14.04000      4.9692250E-09
   14.10000      3.3309109E-09
   14.16000      1.5521886E-09
   14.22000     -3.4193759E-10
   14.28000     -2.3276441E-09
   14.34000     -4.3799084E-09
   14.40000     -6.4683081E-09
   14.46000     -8.5527203E-09
   14.52000     -1.0580987E-08
   14.58000     -1.2490173E-08
   14.64000     -1.4212024E-08
   14.70000     -1.5681801E-08
   14.76000     -1.6848432E-08
   14.82000     -1.7683179E-08
   14.88000     -1.8184169E-08
   14.94000     -1.8375168E-08
   15.00000     -1.8298595E-08
   15.06000     -1.8004393E-08
   15.12000     -1.7537749E-08
   15.18000     -1.6928857E-08
   15.24000     -1.6187398E-08
   15.30000     -1.5302927E-08
   15.36000     -1.4250534E-08
   15.42000     -1.2999707E-08
   15.48000     -1.1523444E-08
   15.54000     -9.8049675E-09
   15.60000     -7.8404723E-09
   15.66000     -5.6379541E-09
   15.72000     -3.2136869E-09
   15.78000     -5.8872501E-10
   15.84000      2.2123745E-09
   15.90000      5.1595119E-09
   15.96000      8.2122682E-09
   16.02000      1.1314476E-08
   16.08000      1.4391031E-08
   16.14000      1.7349494E-08
   16.20000      2.0087693E-08
   16.26000      2.2506509E-08
   16.32000      2.4525200E-08
   16.38000      2.6095485E-08
   16.44000      2.7210753E-08
   16.50000      2.7908015E-08
   16.56000      2.8262216E-08
   16.62000      2.8374672E-08
   16.68000      2.8358714E-08
   16.74000      2.8326172E-08
   16.80000      2.8377407E-08
   16.86000      2.8596263E-08
   16.92000      2.9049351E-08
   16.98000      2.9787852E-08
   17.04000      3.0849318E-08
   17.10000      3.2257432E-08
   17.16000      3.4018722E-08
   17.22000      3.6116898E-08
   17.28000      3.8506670E-08
   17.34000      4.1109789E-08
   17.40000      4.3815753E-08
   17.46000      4.6488658E-08
   17.52000      4.8979988E-08
   17.58000      5.1145378E-08
   17.64000      5.2862134E-08
   17.70000      5.4043667E-08
   17.76000      5.4647671E-08
   17.82000      5.4676295E-08
   17.88000      5.4168535E-08
   17.94000      5.3187001E-08
   18.00000      5.1802562E-08
   18.06000      5.0080775E-08
   18.12000      4.8073304E-08
   18.18000      4.5815899E-08
   18.24000      4.3332761E-08
   18.30000      4.0645180E-08
   18.36000      3.7781380E-08
   18.42000      3.4784321E-08
   18.48000      3.1714958E-08
   18.54000      2.8649914E-08
   18.60000      2.5674304E-08
   18.66000      2.2871554E-08
   18.72000      2.0313024E-08
   18.78000      1.8049858E-08
   18.84000      1.6108769E-08
   18.90000      1.4492075E-08
   18.96000      1.3181151E-08
   19.02000      1.2141633E-08
   19.08000      1.1328538E-08
   19.14000      1.0690061E-08
   19.20000      1.0169618E-08
   19.26000      9.7067288E-09
   19.32000      9.2379313E-09
   19.38000      8.6989500E-09
   19.44000      8.0288558E-09
   19.50000      7.1760748E-09
   19.56000      6.1051835E-09
   19.62000      4.8028759E-09
   19.68000      3.2814091E-09
   19.74000      1.5783901E-09
   19.80000     -2.4733840E-10
   19.86000     -2.1229327E-09
   19.92000     -3.9703938E-09
   19.98000     -5.7152265E-09
   20.04000     -7.2933903E-09
   20.10000     -8.6556771E-09
   20.16000     -9.7694794E-09
   20.22000     -1.0618534E-08
   20.28000     -1.1201546E-08
   20.34000     -1.1530438E-08
   20.40000     -1.1628558E-08
   20.46000     -1.1528700E-08
   20.52000     -1.1270510E-08
   20.58000     -1.0896930E-08
   20.64000     -1.0449770E-08
   20.70000     -9.9650510E-09
   20.76000     -9.4692174E-09
   20.82000     -8.9773931E-09
   20.88000     -8.4943919E-09
   20.94000     -8.0184437E-09
   21.00000     -7.5466273E-09
   21.06000     -7.0804242E-09
   21.12000     -6.6295853E-09
   21.18000     -6.2130527E-09
   21.24000     -5.8565282E-09
   21.30000     -5.5873870E-09
   21.36000     -5.4284808E-09
   21.42000     -5.3927227E-09
   21.48000     -5.4801386E-09
   21.54000     -5.6783138E-09
   21.60000     -5.9661698E-09
   21.66000     -6.3200112E-09
   21.72000     -6.7201418E-09
   21.78000     -7.1561570E-09
   21.84000     -7.6294295E-09
   21.90000     -8.1521190E-09
   21.96000     -8.7430863E-09
   22.02000     -9.4220169E-09
   22.08000     -1.0203594E-08
   22.14000     -1.1093460E-08
   22.20000     -1.2087076E-08
   22.26000     -1.3171512E-08
   22.32000     -1.4329260E-08
   22.38000     -1.5542481E-08
   22.44000     -1.6796180E-08
   22.50000     -1.8079364E-08
   22.56000     -1.9384141E-08
   22.62000     -2.0703563E-08
   22.68000     -2.2029310E-08
   22.74000     -2.3350196E-08
   22.80000     -2.4651913E-08
   22.86000     -2.5917760E-08
   22.92000     -2.7129836E-08
   22.98000     -2.8270176E-08
   23.04000     -2.9321642E-08
   23.10000     -3.0268843E-08
   23.16000     -3.1099390E-08
   23.22000     -3.1805520E-08
   23.28000     -3.2385856E-08
   23.34000     -3.2846337E-08
   23.40000     -3.3199701E-08
   23.46000     -3.3463060E-08
   23.52000     -3.3654104E-08
   23.58000     -3.3787011E-08
   23.64000     -3.3869483E-08
   23.70000     -3.3901973E-08
   23.76000     -3.3879207E-08
   23.82000     -3.3793221E-08
   23.88000     -3.3636510E-08
   23.94000     -3.3403886E-08
   24.00000     -3.3092345E-08
   24.06000     -3.2699287E-08
   24.12000     -3.2220239E-08
   24.18000     -3.1647506E-08
   24.24000     -3.0970888E-08
   24.30000     -3.0180569E-08
   24.36000     -2.9271392E-08
   24.42000     -2.8247051E-08
   24.48000     -2.7122592E-08
   24.54000     -2.5924304E-08
   24.60000     -2.4686871E-08
   24.66000     -2.3448669E-08
   24.72000     -2.2246613E-08
   24.78000     -2.1112003E-08
   24.84000     -2.0068413E-08
   24.90000     -1.9131809E-08
   24.96000     -1.8312415E-08
   25.02000     -1.7617225E-08
   25.08000     -1.7052100E-08
   25.14000     -1.6622572E-08
   25.20000     -1.6333205E-08
   25.26000     -1.6185869E-08
   25.32000     -1.6177816E-08
   25.38000     -1.6300458E-08
   25.44000     -1.6539538E-08
   25.50000     -1.6876829E-08
   25.56000     -1.7292910E-08
   25.62000     -1.7770185E-08
   25.68000     -1.8295092E-08
   25.74000     -1.8858721E-08
   25.80000     -1.9455619E-08
   25.86000     -2.0081123E-08
   25.92000     -2.0728342E-08
   25.98000     -2.1386134E-08
   26.04000     -2.2039243E-08
   26.10000     -2.2671193E-08
   26.16000     -2.3269372E-08
   26.22000     -2.3830843E-08
   26.28000     -2.4366667E-08
   26.34000     -2.4902754E-08
   26.40000     -2.5476083E-08
   26.46000     -2.6126822E-08
   26.52000     -2.6888292E-08
   26.58000     -2.7777851E-08
   26.64000     -2.8791485E-08
   26.70000     -2.9903951E-08
   26.76000     -3.1074222E-08
   26.82000     -3.2254377E-08
   26.88000     -3.3398859E-08
   26.94000     -3.4471366E-08
   27.00000     -3.5447723E-08
   27.06000     -3.6314926E-08
   27.12000     -3.7068062E-08
   27.18000     -3.7707224E-08
   27.24000     -3.8236312E-08
   27.30000     -3.8664005E-08
   27.36000     -3.9005997E-08
   27.42000     -3.9286487E-08
   27.48000     -3.9537269E-08
   27.54000     -3.9793651E-08
   27.60000     -4.0088072E-08
   27.66000     -4.0443570E-08
   27.72000     -4.0869612E-08
   27.78000     -4.1362043E-08
   27.84000     -4.1907359E-08
   27.90000     -4.2489560E-08
   27.96000     -4.3096851E-08
   28.02000     -4.3725226E-08
   28.08000     -4.4377376E-08
   28.14000     -4.5057277E-08
   28.20000     -4.5762839E-08
   28.26000     -4.6479929E-08
   28.32000     -4.7180777E-08
   28.38000     -4.7827900E-08
   28.44000     -4.8382542E-08
   28.50000     -4.8814563E-08
   28.56000     -4.9110007E-08
   28.62000     -4.9273350E-08
   28.68000     -4.9323482E-08
   28.74000     -4.9284782E-08
   28.80000     -4.9176730E-08
   28.86000     -4.9005749E-08
   28.92000     -4.8762555E-08
   28.98000     -4.8425921E-08
   29.04000     -4.7971763E-08
   29.10000     -4.7384482E-08
   29.16000     -4.6666742E-08
   29.22000     -4.5844370E-08
   29.28000     -4.4964533E-08
   29.34000     -4.4087500E-08
   29.40000     -4.3274216E-08
   29.46000     -4.2573298E-08
   29.52000     -4.2011152E-08
   29.58000     -4.1588098E-08
   29.64000     -4.1281517E-08
   29.70000     -4.1054864E-08
   29.76000     -4.0869597E-08
   29.82000     -4.0696133E-08
   29.88000     -4.0520369E-08
   29.94000     -4.0343874E-08
   30.00000     -4.0178048E-08
   30.06000     -4.0034649E-08
   30.12000     -3.9916269E-08
   30.18000     -3.9810260E-08
   30.24000     -3.9688093E-08
   30.30000     -3.9510152E-08
   30.36000     -3.9233853E-08
   30.42000     -3.8821923E-08
   30.48000     -3.8247787E-08
   30.54000     -3.7496402E-08
   30.60000     -3.6560760E-08
   30.66000     -3.5435910E-08
   30.72000     -3.4113427E-08
   30.78000     -3.2578544E-08
   30.84000     -3.0811318E-08
   30.90000     -2.8791259E-08
   30.96000     -2.6503697E-08
   31.02000     -2.3945708E-08
   31.08000     -2.1129662E-08
   31.14000     -1.8083668E-08
   31.20000     -1.4849258E-08
   31.26000     -1.1477505E-08
   31.32000     -8.0249993E-09
   31.38000     -4.5506838E-09
   31.44000     -1.1139593E-09
   31.50000      2.2262518E-09
   31.56000      5.4120681E-09
   31.62000      8.3874436E-09
   31.68000      1.1099479E-08
   31.74000      1.3500183E-08
   31.80000      1.5548371E-08
   31.86000      1.7211347E-08
   31.92000      1.8466164E-08
   31.98000      1.9300492E-08
   32.04000      1.9713241E-08
   32.10000      1.9715172E-08
   32.16000      1.9329477E-08
   32.22000      1.8592166E-08
   32.28000      1.7551770E-08
   32.34000      1.6267782E-08
   32.40000      1.4807521E-08
   32.46000      1.3241384E-08
   32.52000      1.1637093E-08
   32.58000      1.0054051E-08
   32.64000      8.5391489E-09
   32.70000      7.1251773E-09
   32.76000      5.8323515E-09
   32.82000      4.6724860E-09
   32.88000      3.6544714E-09
   32.94000      2.7891365E-09
   33.00000      2.0917104E-09
   33.06000      1.5808779E-09
   33.12000      1.2746519E-09
   33.18000      1.1845507E-09
   33.24000      1.3103010E-09
   33.30000      1.6372658E-09
   33.36000      2.1378737E-09
   33.42000      2.7768832E-09
   33.48000      3.5188648E-09
   33.54000      4.3354214E-09
   33.60000      5.2097642E-09
   33.66000      6.1373187E-09
   33.72000      7.1226234E-09
   33.78000      8.1742586E-09
   33.84000      9.3002663E-09
   33.90000      1.0506146E-08
   33.96000      1.1796253E-08
   34.02000      1.3177674E-08
   34.08000      1.4664391E-08
   34.14000      1.6279106E-08
   34.20000      1.8050939E-08
   34.26000      2.0008860E-08
   34.32000      2.2172509E-08
   34.38000      2.4543398E-08
   34.44000      2.7099537E-08
   34.50000      2.9795572E-08
   34.56000      3.2568632E-08
   34.62000      3.5348290E-08
   34.68000      3.8067625E-08
   34.74000      4.0672337E-08
   34.80000      4.3125507E-08
   34.86000      4.5407315E-08
   34.92000      4.7510554E-08
   34.98000      4.9433975E-08
   35.04000      5.1175849E-08
   35.10000      5.2729664E-08
   35.16000      5.4082680E-08
   35.22000      5.5217029E-08
   35.28000      5.6112157E-08
   35.34000      5.6747258E-08
   35.40000      5.7102728E-08
   35.46000      5.7160602E-08
   35.52000      5.6904558E-08
   35.58000      5.6320506E-08
   35.64000      5.5398502E-08
   35.70000      5.4136066E-08
   35.76000      5.2541974E-08
   35.82000      5.0639088E-08
   35.88000      4.8464706E-08
   35.94000      4.6067584E-08
   36.00000      4.3501888E-08
   36.06000      4.0819476E-08
   36.12000      3.8062666E-08
   36.18000      3.5259561E-08
   36.24000      3.2423323E-08
   36.30000      2.9555576E-08
   36.36000      2.6652817E-08
   36.42000      2.3713813E-08
   36.48000      2.0745825E-08
   36.54000      1.7767858E-08
   36.60000      1.4810198E-08
   36.66000      1.1910446E-08
   36.72000      9.1073584E-09
   36.78000      6.4340711E-09
   36.84000      3.9123780E-09
   36.90000      1.5492250E-09
   36.96000     -6.6407069E-10
   37.02000     -2.7500184E-09
   37.08000     -4.7411888E-09
   37.14000     -6.6753572E-09
   37.20000     -8.5904706E-09
   37.26000     -1.0520259E-08
   37.32000     -1.2491125E-08
   37.38000     -1.4520705E-08
   37.44000     -1.6618172E-08
   37.50000     -1.8785990E-08
   37.56000     -2.1022416E-08
   37.62000     -2.3323885E-08
   37.68000     -2.5686433E-08
   37.74000     -2.8105708E-08
   37.80000     -3.0575734E-08
   37.86000     -3.3087179E-08
   37.92000     -3.5626304E-08
   37.98000     -3.8175450E-08
   38.04000     -4.0715481E-08
   38.10000     -4.3229505E-08
   38.16000     -4.5706805E-08
   38.22000     -4.8145363E-08
   38.28000     -5.0551957E-08
   38.34000     -5.2939662E-08
   38.40000     -5.5323390E-08
   38.46000     -5.7714953E-08
   38.52000     -6.0119035E-08
   38.58000     -6.2531129E-08
   38.64000     -6.4937510E-08
   38.70000     -6.7316925E-08
   38.76000     -6.9642894E-08
   38.82000     -7.1886006E-08
   38.88000     -7.4015666E-08
   38.94000     -7.6001506E-08
   39.00000     -7.7814811E-08
   39.06000     -7.9430258E-08
   39.12000     -8.0828102E-08
   39.18000     -8.1996468E-08
   39.24000     -8.2933113E-08
   39.30000     -8.3645944E-08
   39.36000     -8.4152063E-08
   39.42000     -8.4475204E-08
   39.48000     -8.4642146E-08
   39.54000     -8.4679016E-08
   39.60000     -8.4608139E-08
   39.66000     -8.4446299E-08
   39.72000     -8.4204437E-08
   39.78000     -8.3888814E-08
   39.84000     -8.3502869E-08
   39.90000     -8.3049329E-08
   39.96000     -8.2531692E-08
   40.02000     -8.1954781E-08
   40.08000     -8.1324018E-08
   40.14000     -8.0643680E-08
   40.20000     -7.9914578E-08
   40.26000     -7.9131901E-08
   40.32000     -7.8283925E-08
   40.38000     -7.7352453E-08
   40.44000     -7.6315068E-08
   40.50000     -7.5148918E-08
   40.56000     -7.3835281E-08
   40.62000     -7.2363491E-08
   40.68000     -7.0733179E-08
   40.74000     -6.8954044E-08
   40.80000     -6.7043203E-08
   40.86000     -6.5021020E-08
   40.92000     -6.2906771E-08
   40.98000     -6.0715720E-08
   41.04000     -5.8458379E-08
   41.10000     -5.6142213E-08
   41.16000     -5.3774929E-08
   41.22000     -5.1368012E-08
   41.28000     -4.8938993E-08
   41.34000     -4.6511410E-08
   41.40000     -4.4112294E-08
   41.46000     -4.1767951E-08
   41.52000     -3.9499444E-08
   41.58000     -3.7319420E-08
   41.64000     -3.5231476E-08
   41.70000     -3.3232268E-08
   41.76000     -3.1315530E-08
   41.82000     -2.9476327E-08
   41.88000     -2.7713662E-08
   41.94000     -2.6030246E-08
   42.00000     -2.4429264E-08
   42.06000     -2.2909441E-08
   42.12000     -2.1460487E-08
   42.18000     -2.0061218E-08
   42.24000     -1.8681611E-08
   42.30000     -1.7288706E-08
   42.36000     -1.5854559E-08
   42.42000     -1.4363595E-08
   42.48000     -1.2816659E-08
   42.54000     -1.1230258E-08
   42.60000     -9.6311457E-09
   42.66000     -8.0481684E-09
   42.72000     -6.5042998E-09
   42.78000     -5.0116884E-09
   42.84000     -3.5714585E-09
   42.90000     -2.1781834E-09
   42.96000     -8.2723062E-10
   43.02000      4.7794435E-10
   43.08000      1.7215321E-09
   43.14000      2.8760931E-09
   43.20000      3.9085144E-09
   43.26000      4.7895683E-09
   43.32000      5.5040812E-09
   43.38000      6.0583321E-09
   43.44000      6.4821100E-09
   43.50000      6.8245383E-09
   43.56000      7.1448829E-09
   43.62000      7.5012245E-09
   43.68000      7.9405806E-09
   43.74000      8.4934424E-09
   43.80000      9.1740091E-09
   43.86000      9.9852793E-09
   43.92000      1.0926434E-08
   43.98000      1.1999317E-08
   44.04000      1.3211497E-08
   44.10000      1.4575114E-08
   44.16000      1.6102772E-08
   44.22000      1.7803151E-08
   44.28000      1.9679431E-08
   44.34000      2.1732582E-08
   44.40000      2.3969648E-08
   44.46000      2.6415178E-08
   44.52000      2.9122480E-08
   44.58000      3.2181337E-08
   44.64000      3.5720074E-08
   44.70000      3.9902076E-08
   44.76000      4.4919123E-08
   44.82000      5.0985374E-08
   44.88000      5.8335907E-08
   44.94000      6.7232151E-08
   45.00000      7.7974470E-08
   45.06000      9.0919698E-08
   45.12000      1.0650019E-07
   45.18000      1.2524104E-07
   45.24000      1.4777362E-07
   45.30000      1.7484498E-07
   45.36000      2.0732574E-07
   45.42000      2.4621889E-07
   45.48000      2.9267329E-07
   45.54000      3.4800388E-07
   45.60000      4.1371985E-07
   45.66000      4.9156029E-07
   45.72000      5.8353510E-07
   45.78000      6.9196926E-07
   45.84000      8.1954721E-07
   45.90000      9.6935753E-07
   45.96000      1.1449362E-06
   46.02000      1.3503112E-06
   46.08000      1.5900522E-06
   46.14000      1.8693266E-06
   46.20000      2.1939675E-06
   46.26000      2.5705499E-06
   46.32000      3.0064796E-06
   46.38000      3.5100852E-06
   46.44000      4.0907157E-06
   46.50000      4.7588373E-06
   46.56000      5.5261316E-06
   46.62000      6.4055926E-06
   46.68000      7.4116329E-06
   46.74000      8.5601914E-06
   46.80000      9.8688570E-06
   46.86000      1.1356986E-05
   46.92000      1.3045842E-05
   46.98000      1.4958710E-05
   47.04000      1.7121025E-05
   47.10000      1.9560463E-05
   47.16000      2.2307038E-05
   47.22000      2.5393185E-05
   47.28000      2.8853838E-05
   47.34000      3.2726493E-05
   47.40000      3.7051293E-05
   47.46000      4.1871095E-05
   47.52000      4.7231511E-05
   47.58000      5.3180935E-05
   47.64000      5.9770551E-05
   47.70000      6.7054272E-05
   47.76000      7.5088625E-05
   47.82000      8.3932639E-05
   47.88000      9.3647701E-05
   47.94000      1.0429730E-04
   48.00000      1.1594686E-04
   48.06000      1.2866345E-04
   48.12000      1.4251548E-04
   48.18000      1.5757237E-04
   48.24000      1.7390416E-04
   48.30000      1.9158103E-04
   48.36000      2.1067282E-04
   48.42000      2.3124840E-04
   48.48000      2.5337510E-04
   48.54000      2.7711815E-04
   48.60000      3.0253985E-04
   48.66000      3.2969902E-04
   48.72000      3.5865032E-04
   48.78000      3.8944342E-04
   48.84000      4.2212225E-04
   48.90000      4.5672434E-04
   48.96000      4.9327995E-04
   49.02000      5.3181133E-04
   49.08000      5.7233206E-04
   49.14000      6.1484636E-04
   49.20000      6.5934821E-04
   49.26000      7.0582109E-04
   49.32000      7.5423717E-04
   49.38000      8.0455729E-04
   49.44000      8.5672998E-04
   49.50000      9.1069192E-04
   49.56000      9.6636714E-04
   49.62000      1.0236673E-03
   49.68000      1.0824919E-03
   49.74000      1.1427284E-03
   49.80000      1.2042519E-03
   49.86000      1.2669268E-03
   49.92000      1.3306065E-03
   49.98000      1.3951353E-03
   50.04000      1.4603476E-03
   50.10000      1.5260709E-03
   50.16000      1.5921252E-03
   50.22000      1.6583257E-03
   50.28000      1.7244833E-03
   50.34000      1.7904064E-03
   50.40000      1.8559027E-03
   50.46000      1.9207807E-03
   50.52000      1.9848512E-03
   50.58000      2.0479292E-03
   50.64000      2.1098361E-03
   50.70000      2.1704000E-03
   50.76000      2.2294594E-03
   50.82000      2.2868633E-03
   50.88000      2.3424732E-03
   50.94000      2.3961647E-03
   51.00000      2.4478282E-03
   51.06000      2.4973708E-03
   51.12000      2.5447172E-03
   51.18000      2.5898104E-03
   51.24000      2.6326114E-03
   51.30000      2.6731009E-03
   51.36000      2.7112793E-03
   51.42000      2.7471662E-03
   51.48000      2.7807998E-03
   51.54000      2.8122375E-03
   51.60000      2.8415541E-03
   51.66000      2.8688412E-03
   51.72000      2.8942057E-03
   51.78000      2.9177694E-03
   51.84000      2.9396662E-03
   51.90000      2.9600414E-03
   51.96000      2.9790490E-03
   52.02000      2.9968498E-03
   52.08000      3.0136104E-03
   52.14000      3.0294990E-03
   52.20000      3.0446847E-03
   52.26000      3.0593358E-03
   52.32000      3.0736162E-03
   52.38000      3.0876847E-03
   52.44000      3.1016914E-03
   52.50000      3.1157767E-03
   52.56000      3.1300690E-03
   52.62000      3.1446842E-03
   52.68000      3.1597237E-03
   52.74000      3.1752726E-03
   52.80000      3.1913999E-03
   52.86000      3.2081567E-03
   52.92000      3.2255771E-03
   52.98000      3.2436764E-03
   53.04000      3.2624528E-03
   53.10000      3.2818862E-03
   53.16000      3.3019388E-03
   53.22000      3.3225573E-03
   53.28000      3.3436727E-03
   53.34000      3.3652026E-03
   53.40000      3.3870519E-03
   53.46000      3.4091142E-03
   53.52000      3.4312755E-03
   53.58000      3.4534133E-03
   53.64000      3.4754006E-03
   53.70000      3.4971070E-03
   53.76000      3.5184002E-03
   53.82000      3.5391496E-03
   53.88000      3.5592273E-03
   53.94000      3.5785099E-03
   54.00000      3.5968812E-03
   54.06000      3.6142326E-03
   54.12000      3.6304665E-03
   54.18000      3.6454948E-03
   54.24000      3.6592428E-03
   54.30000      3.6716482E-03
   54.36000      3.6826634E-03
   54.42000      3.6922547E-03
   54.48000      3.7004035E-03
   54.54000      3.7071058E-03
   54.60000      3.7123717E-03
   54.66000      3.7162255E-03
   54.72000      3.7187051E-03
   54.78000      3.7198602E-03
   54.84000      3.7197527E-03
   54.90000      3.7184532E-03
   54.96000      3.7160423E-03
   55.02000      3.7126059E-03
   55.08000      3.7082371E-03
   55.14000      3.7030308E-03
   55.20000      3.6970852E-03
   55.26000      3.6904986E-03
   55.32000      3.6833668E-03
   55.38000      3.6757831E-03
   55.44000      3.6678361E-03
   55.50000      3.6596069E-03
   55.56000      3.6511698E-03