  -2.400000      0.0000000E+00
  -2.340000      0.0000000E+00
  -2.280000      0.0000000E+00
  -2.220000      0.0000000E+00
  -2.160000      0.0000000E+00
  -2.100000      0.0000000E+00
  -2.040000      0.0000000E+00
  -1.980000      0.0000000E+00
  -1.920000     -3.9766786E-27
  -1.860000     -4.2601536E-26
  -1.800000     -2.0825879E-25
  -1.740000     -5.2773503E-25
  -1.680000     -1.3908600E-25
  -1.620000      4.8238990E-24
  -1.560000      2.3624065E-23
  -1.500000      6.7943599E-23
  -1.440000      1.3214844E-22
  -1.380000      1.4758756E-22
  -1.320000     -7.3414330E-23
  -1.260000     -8.3407872E-22
  -1.200000     -2.3638841E-21
  -1.140000     -4.3354947E-21
  -1.080000     -5.1739125E-21
  -1.020000     -1.6425507E-21
 -0.9600000      1.0380220E-20
 -0.9000000      3.2998228E-20
 -0.8400000      6.1253267E-20
 -0.7800000      7.7981567E-20
 -0.7200000      5.3107516E-20
 -0.6600000     -4.6971629E-20
 -0.6000000     -2.3683797E-19
 -0.5400000     -4.8080747E-19
 -0.4800000     -6.6820193E-19
 -0.4200000     -6.1865050E-19
 -0.3600000     -1.3874496E-19
 -0.3000000      8.6725943E-19
 -0.2400000      2.2632580E-18
 -0.1800000      3.5890742E-18
 -0.1200000      4.0906869E-18
 -5.9999999E-02  2.9286129E-18
  0.0000000E+00 -4.4910955E-19
  5.9999999E-02 -5.8763912E-18
  0.1200000     -1.2163320E-17
  0.1800000     -1.7107964E-17
  0.2400000     -1.7940330E-17
  0.3000000     -1.2164308E-17
  0.3600000      1.3976164E-18
  0.4200000      2.1656263E-17
  0.4800000      4.4711551E-17
  0.5400000      6.3947401E-17
  0.6000000      7.0907484E-17
  0.6600000      5.7025329E-17
  0.7200000      1.6216959E-17
  0.7800000     -5.1827352E-17
  0.8400000     -1.3821591E-16
  0.9000000     -2.2249120E-16
  0.9600000     -2.7315672E-16
   1.020000     -2.5306314E-16
   1.080000     -1.3072102E-16
   1.140000      1.0360605E-16
   1.200000      4.2133452E-16
   1.260000      7.4579223E-16
   1.320000      9.5759108E-16
   1.380000      9.2105547E-16
   1.440000      5.3105371E-16
   1.500000     -2.3002098E-16
   1.560000     -1.2448999E-15
   1.620000     -2.2484259E-15
   1.680000     -2.8694861E-15
   1.740000     -2.7332216E-15
   1.800000     -1.6046291E-15
   1.860000      4.7093634E-16
   1.920000      3.0902703E-15
   1.980000      5.5315508E-15
   2.040000      6.9307891E-15
   2.100000      6.5619964E-15
   2.160000      4.1320461E-15
   2.220000     -2.8803266E-17
   2.280000     -4.9814304E-15
   2.340000     -9.4269278E-15
   2.400000     -1.2118262E-14
   2.460000     -1.2276115E-14
   2.520000     -9.8282038E-15
   2.580000     -5.3586138E-15
   2.640000      2.0877591E-16
   2.700000      6.0247374E-15
   2.760000      1.1589767E-14
   2.820000      1.6712114E-14
   2.880000      2.1147900E-14
   2.940000      2.4133107E-14
   3.000000      2.4142194E-14
   3.060000      1.9157077E-14
   3.120000      7.4999906E-15
   3.180000     -1.1027126E-14
   3.240000     -3.4189302E-14
   3.300000     -5.7072219E-14
   3.360000     -7.2852992E-14
   3.420000     -7.4532862E-14
   3.480000     -5.7210862E-14
   3.540000     -2.0248231E-14
   3.600000      3.1364326E-14
   3.660000      8.6996836E-14
   3.720000      1.3204853E-13
   3.780000      1.5127960E-13
   3.840000      1.3333592E-13
   3.900000      7.5433712E-14
   3.960000     -1.3351169E-14
   4.020000     -1.1191745E-13
   4.080000     -1.9130013E-13
   4.140000     -2.2300379E-13
   4.200000     -1.8945751E-13
   4.260000     -9.2882909E-14
   4.320000      4.1587502E-14
   4.380000      1.7130062E-13
   4.440000      2.4962112E-13
   4.500000      2.4352064E-13
   4.560000      1.4846871E-13
   4.620000     -6.1673379E-15
   4.680000     -1.6492499E-13
   4.740000     -2.6570391E-13
   4.800000     -2.6404933E-13
   4.860000     -1.5258128E-13
   4.920000      3.2952695E-14
   4.980000      2.2450539E-13
   5.040000      3.4603567E-13
   5.100000      3.4207324E-13
   5.160000      1.9926342E-13
   5.220000     -4.7627084E-14
   5.280000     -3.2728787E-13
   5.340000     -5.5576577E-13
   5.400000     -6.6262658E-13
   5.460000     -6.0927912E-13
   5.520000     -3.9406149E-13
   5.580000     -4.5742073E-14
   5.640000      3.8727086E-13
   5.700000      8.4368423E-13
   5.760000      1.2482478E-12
   5.820000      1.5069814E-12
   5.880000      1.5095540E-12
   5.940000      1.1504441E-12
   6.000000      3.7298926E-13
   6.060000     -7.7341790E-13
   6.120000     -2.0867520E-12
   6.180000     -3.2064850E-12
   6.240000     -3.6713718E-12
   6.300000     -3.0430400E-12
   6.360000     -1.0696877E-12
   6.420000      2.1592663E-12
   6.480000      6.1245475E-12
   6.540000      9.8977172E-12
   6.600000      1.2282399E-11
   6.660000      1.2048410E-11
   6.720000      8.2007491E-12
   6.780000      2.1563458E-13
   6.840000     -1.1809696E-11
   6.900000     -2.7114724E-11
   6.960000     -4.4327899E-11
   7.020000     -6.1577660E-11
   7.080000     -7.6625400E-11
   7.140000     -8.7001337E-11
   7.200000     -9.0149492E-11
   7.260000     -8.3605602E-11
   7.320000     -6.5231286E-11
   7.380000     -3.3505986E-11
   7.440000      1.2156136E-11
   7.500000      7.1129103E-11
   7.560000      1.4141657E-10
   7.620000      2.1967914E-10
   7.680000      3.0148120E-10
   7.740000      3.8174305E-10
   7.800000      4.5533766E-10
   7.860000      5.1773746E-10
   7.920000      5.6560640E-10
   7.980000      5.9723870E-10
   8.040000      6.1277472E-10
   8.100000      6.1415772E-10
   8.160000      6.0483973E-10
   8.220000      5.8928112E-10
   8.280000      5.7232102E-10
   8.340000      5.5851701E-10
   8.400000      5.5155686E-10
   8.460000      5.5383426E-10
   8.520000      5.6625227E-10
   8.580000      5.8827831E-10
   8.640000      6.1822919E-10
   8.700000      6.5372402E-10
   8.760000      6.9221184E-10
   8.820000      7.3147149E-10
   8.880000      7.6999301E-10
   8.940000      8.0717999E-10
   9.000000      8.4336033E-10
   9.060000      8.7963714E-10
   9.120000      9.1764557E-10
   9.180000      9.5929198E-10
   9.240000      1.0065377E-09
   9.300000      1.0612522E-09
   9.360000      1.1251272E-09
   9.420000      1.1996157E-09
   9.480000      1.2858647E-09
   9.540000      1.3846265E-09
   9.600000      1.4961765E-09
   9.660000      1.6202834E-09
   9.720000      1.7562799E-09
   9.780000      1.9032549E-09
   9.840000      2.0603381E-09
   9.900000      2.2270044E-09
   9.960000      2.4033024E-09
   10.02000      2.5899185E-09
   10.08000      2.7880296E-09
   10.14000      2.9989564E-09
   10.20000      3.2236791E-09
   10.26000      3.4623209E-09
   10.32000      3.7137193E-09
   10.38000      3.9751935E-09
   10.44000      4.2425956E-09
   10.50000      4.5106758E-09
   10.56000      4.7737352E-09
   10.62000      5.0264544E-09
   10.68000      5.2647389E-09
   10.74000      5.4863647E-09
   10.80000      5.6912404E-09
   10.86000      5.8811818E-09
   10.92000      6.0592220E-09
   10.98000      6.2286230E-09
   11.04000      6.3918453E-09
   11.10000      6.5497692E-09
   11.16000      6.7013679E-09
   11.22000      6.8439179E-09
   11.28000      6.9736528E-09
   11.34000      7.0866748E-09
   11.40000      7.1798789E-09
   11.46000      7.2516855E-09
   11.52000      7.3024538E-09
   11.58000      7.3345419E-09
   11.64000      7.3520421E-09
   11.70000      7.3602502E-09
   11.76000      7.3649540E-09
   11.82000      7.3716175E-09
   11.88000      7.3845747E-09
   11.94000      7.4063564E-09
   12.00000      7.4372850E-09
   12.06000      7.4754398E-09
   12.12000      7.5170341E-09
   12.18000      7.5571425E-09
   12.24000      7.5906774E-09
   12.30000      7.6134024E-09
   12.36000      7.6228348E-09
   12.42000      7.6188620E-09
   12.48000      7.6039797E-09
   12.54000      7.5830897E-09
   12.60000      7.5628677E-09
   12.66000      7.5507645E-09
   12.72000      7.5537931E-09
   12.78000      7.5773281E-09
   12.84000      7.6241706E-09
   12.90000      7.6941093E-09
   12.96000      7.7840880E-09
   13.02000      7.8888940E-09
   13.08000      8.0021145E-09
   13.14000      8.1170040E-09
   13.20000      8.2269658E-09
   13.26000      8.3254950E-09
   13.32000      8.4057259E-09
   13.38000      8.4598764E-09
   13.44000      8.4789988E-09
   13.50000      8.4533083E-09
   13.56000      8.3731146E-09
   13.62000      8.2300868E-09
   13.68000      8.0183735E-09
   13.74000      7.7350881E-09
   13.80000      7.3798803E-09
   13.86000      6.9535915E-09
   13.92000      6.4563945E-09
   13.98000      5.8860015E-09
   14.04000      5.2365587E-09
   14.10000      4.4986423E-09
   14.16000      3.6603929E-09
   14.22000      2.7094684E-09
   14.28000      1.6351999E-09
   14.34000      4.3028597E-10
   14.40000     -9.0844776E-10
   14.46000     -2.3803388E-09
   14.52000     -3.9818997E-09
   14.58000     -5.7079053E-09
   14.64000     -7.5518027E-09
   14.70000     -9.5048822E-09
   14.76000     -1.1554065E-08
   14.82000     -1.3678701E-08
   14.88000     -1.5847231E-08
   14.94000     -1.8014804E-08
   15.00000     -2.0122881E-08
   15.06000     -2.2101471E-08
   15.12000     -2.3874090E-08
   15.18000     -2.5364928E-08
   15.24000     -2.6507147E-08
   15.30000     -2.7250987E-08
   15.36000     -2.7570300E-08
   15.42000     -2.7466372E-08
   15.48000     -2.6968484E-08
   15.54000     -2.6131081E-08
   15.60000     -2.5028168E-08
   15.66000     -2.3745914E-08
   15.72000     -2.2374614E-08
   15.78000     -2.1001153E-08
   15.84000     -1.9702705E-08
   15.90000     -1.8542140E-08
   15.96000     -1.7565055E-08
   16.02000     -1.6798268E-08
   16.08000     -1.6249480E-08
   16.14000     -1.5907903E-08
   16.20000     -1.5745821E-08
   16.26000     -1.5721067E-08
   16.32000     -1.5780477E-08
   16.38000     -1.5864126E-08
   16.44000     -1.5910143E-08
   16.50000     -1.5859618E-08
   16.56000     -1.5661090E-08
   16.62000     -1.5274090E-08
   16.68000     -1.4671222E-08
   16.74000     -1.3838546E-08
   16.80000     -1.2774108E-08
   16.86000     -1.1484986E-08
   16.92000     -9.9834443E-09
   16.98000     -8.2831422E-09
   17.04000     -6.3964385E-09
   17.10000     -4.3336263E-09
   17.16000     -2.1044808E-09
   17.22000      2.7815866E-10
   17.28000      2.7937086E-09
   17.34000      5.4094444E-09
   17.40000      8.0778548E-09
   17.46000      1.0736901E-08
   17.52000      1.3313690E-08
   17.58000      1.5731271E-08
   17.64000      1.7917499E-08
   17.70000      1.9814353E-08
   17.76000      2.1385926E-08
   17.82000      2.2623388E-08
   17.88000      2.3545866E-08
   17.94000      2.4196869E-08
   18.00000      2.4636853E-08
   18.06000      2.4933295E-08
   18.12000      2.5150173E-08
   18.18000      2.5338812E-08
   18.24000      2.5531708E-08
   18.30000      2.5740176E-08
   18.36000      2.5955748E-08
   18.42000      2.6154538E-08
   18.48000      2.6303217E-08
   18.54000      2.6365219E-08
   18.60000      2.6306092E-08
   18.66000      2.6097302E-08
   18.72000      2.5718379E-08
   18.78000      2.5157611E-08
   18.84000      2.4411689E-08
   18.90000      2.3484697E-08
   18.96000      2.2386759E-08
   19.02000      2.1132553E-08
   19.08000      1.9739769E-08
   19.14000      1.8227603E-08
   19.20000      1.6615330E-08
   19.26000      1.4921053E-08
   19.32000      1.3160783E-08
   19.38000      1.1348003E-08
   19.44000      9.4938946E-09
   19.50000      7.6083424E-09
   19.56000      5.7016583E-09
   19.62000      3.7867847E-09
   19.68000      1.8814952E-09
   19.74000      9.9725271E-12
   19.80000     -1.7968806E-09
   19.86000     -3.5028549E-09
   19.92000     -5.0696864E-09
   19.98000     -6.4618031E-09
   20.04000     -7.6517788E-09
   20.10000     -8.6254044E-09
   20.16000     -9.3852215E-09
   20.22000     -9.9515738E-09
   20.28000     -1.0360737E-08
   20.34000     -1.0660297E-08
   20.40000     -1.0902597E-08
   20.46000     -1.1137529E-08
   20.52000     -1.1406077E-08
   20.58000     -1.1735800E-08
   20.64000     -1.2138940E-08
   20.70000     -1.2613150E-08
   20.76000     -1.3144300E-08
   20.82000     -1.3710415E-08
   20.88000     -1.4285801E-08
   20.94000     -1.4844629E-08
   21.00000     -1.5363613E-08
   21.06000     -1.5823790E-08
   21.12000     -1.6211638E-08
   21.18000     -1.6519747E-08
   21.24000     -1.6747288E-08
   21.30000     -1.6900227E-08
   21.36000     -1.6991272E-08
   21.42000     -1.7039357E-08
   21.48000     -1.7068597E-08
   21.54000     -1.7106654E-08
   21.60000     -1.7182586E-08
   21.66000     -1.7324362E-08
   21.72000     -1.7556252E-08
   21.78000     -1.7896483E-08
   21.84000     -1.8355475E-08
   21.90000     -1.8935019E-08
   21.96000     -1.9628640E-08
   22.02000     -2.0423217E-08
   22.08000     -2.1301705E-08
   22.14000     -2.2246544E-08
   22.20000     -2.3243203E-08
   22.26000     -2.4283125E-08
   22.32000     -2.5365470E-08
   22.38000     -2.6497142E-08
   22.44000     -2.7691000E-08
   22.50000     -2.8962489E-08
   22.56000     -3.0325399E-08
   22.62000     -3.1787593E-08
   22.68000     -3.3347728E-08
   22.74000     -3.4993704E-08
   22.80000     -3.6703227E-08
   22.86000     -3.8446316E-08
   22.92000     -4.0189189E-08
   22.98000     -4.1898616E-08
   23.04000     -4.3545729E-08
   23.10000     -4.5108472E-08
   23.16000     -4.6572143E-08
   23.22000     -4.7927955E-08
   23.28000     -4.9170009E-08
   23.34000     -5.0291490E-08
   23.40000     -5.1281258E-08
   23.46000     -5.2121838E-08
   23.52000     -5.2789741E-08
   23.58000     -5.3258322E-08
   23.64000     -5.3502728E-08
   23.70000     -5.3505723E-08
   23.76000     -5.3262838E-08
   23.82000     -5.2785246E-08
   23.88000     -5.2099388E-08
   23.94000     -5.1243102E-08
   24.00000     -5.0259114E-08
   24.06000     -4.9187470E-08
   24.12000     -4.8058777E-08
   24.18000     -4.6889998E-08
   24.24000     -4.5683823E-08
   24.30000     -4.4431637E-08
   24.36000     -4.3119115E-08
   24.42000     -4.1732832E-08
   24.48000     -4.0265867E-08
   24.54000     -3.8720824E-08
   24.60000     -3.7109320E-08
   24.66000     -3.5448249E-08
   24.72000     -3.3754066E-08
   24.78000     -3.2037075E-08
   24.84000     -3.0297816E-08
   24.90000     -2.8527072E-08
   24.96000     -2.6709774E-08
   25.02000     -2.4831813E-08
   25.08000     -2.2887653E-08
   25.14000     -2.0886192E-08
   25.20000     -1.8852649E-08
   25.26000     -1.6825471E-08
   25.32000     -1.4848711E-08
   25.38000     -1.2961875E-08
   25.44000     -1.1190177E-08
   25.50000     -9.5382147E-09
   25.56000     -7.9893372E-09
   25.62000     -6.5113328E-09
   25.68000     -5.0672551E-09
   25.74000     -3.6285568E-09
   25.80000     -2.1868014E-09
   25.86000     -7.6039847E-10
   25.92000      6.0591787E-10
   25.98000      1.8490891E-09
   26.04000      2.9011944E-09
   26.10000      3.7046297E-09
   26.16000      4.2246233E-09
   26.22000      4.4554507E-09
   26.28000      4.4185899E-09
   26.34000      4.1535544E-09
   26.40000      3.7043826E-09
   26.46000      3.1061096E-09
   26.52000      2.3754525E-09
   26.58000      1.5085638E-09
   26.64000      4.8639959E-10
   26.70000     -7.1418454E-10
   26.76000     -2.1073081E-09
   26.82000     -3.6872481E-09
   26.88000     -5.4235278E-09
   26.94000     -7.2636777E-09
   27.00000     -9.1430206E-09
   27.06000     -1.0998654E-08
   27.12000     -1.2783489E-08
   27.18000     -1.4476151E-08
   27.24000     -1.6083831E-08
   27.30000     -1.7637339E-08
   27.36000     -1.9179968E-08
   27.42000     -2.0753706E-08
   27.48000     -2.2386919E-08
   27.54000     -2.4087139E-08
   27.60000     -2.5840706E-08
   27.66000     -2.7618809E-08
   27.72000     -2.9387374E-08
   27.78000     -3.1117189E-08
   27.84000     -3.2790751E-08
   27.90000     -3.4403786E-08
   27.96000     -3.5961278E-08
   28.02000     -3.7469924E-08
   28.08000     -3.8930189E-08
   28.14000     -4.0331027E-08
   28.20000     -4.1649582E-08
   28.26000     -4.2855966E-08
   28.32000     -4.3921663E-08
   28.38000     -4.4828468E-08
   28.44000     -4.5574815E-08
   28.50000     -4.6177025E-08
   28.56000     -4.6664859E-08
   28.62000     -4.7072529E-08
   28.68000     -4.7428028E-08
   28.74000     -4.7744194E-08
   28.80000     -4.8014471E-08
   28.86000     -4.8214865E-08
   28.92000     -4.8311730E-08
   28.98000     -4.8273105E-08
   29.04000     -4.8080345E-08
   29.10000     -4.7736542E-08
   29.16000     -4.7269282E-08
   29.22000     -4.6726878E-08
   29.28000     -4.6169099E-08
   29.34000     -4.5654854E-08
   29.40000     -4.5230095E-08
   29.46000     -4.4919069E-08
   29.52000     -4.4720956E-08
   29.58000     -4.4612630E-08
   29.64000     -4.4556657E-08
   29.70000     -4.4512486E-08
   29.76000     -4.4448040E-08
   29.82000     -4.4348994E-08
   29.88000     -4.4223480E-08
   29.94000     -4.4101061E-08
   30.00000     -4.4026116E-08
   30.06000     -4.4047059E-08
   30.12000     -4.4203812E-08
   30.18000     -4.4516653E-08
   30.24000     -4.4979174E-08
   30.30000     -4.5557474E-08
   30.36000     -4.6195957E-08
   30.42000     -4.6828632E-08
   30.48000     -4.7393101E-08
   30.54000     -4.7843685E-08
   30.60000     -4.8160228E-08
   30.66000     -4.8350248E-08
   30.72000     -4.8443901E-08
   30.78000     -4.8483304E-08
   30.84000     -4.8509392E-08
   30.90000     -4.8550120E-08
   30.96000     -4.8613433E-08
   31.02000     -4.8686896E-08
   31.08000     -4.8743892E-08
   31.14000     -4.8754192E-08
   31.20000     -4.8695359E-08
   31.26000     -4.8561279E-08
   31.32000     -4.8364939E-08
   31.38000     -4.8134396E-08
   31.44000     -4.7903200E-08
   31.50000     -4.7698123E-08
   31.56000     -4.7528175E-08
   31.62000     -4.7378460E-08
   31.68000     -4.7210850E-08
   31.74000     -4.6971611E-08
   31.80000     -4.6603606E-08
   31.86000     -4.6059515E-08
   31.92000     -4.5311999E-08
   31.98000     -4.4357886E-08
   32.04000     -4.3215135E-08
   32.10000     -4.1913815E-08
   32.16000     -4.0484124E-08
   32.22000     -3.8945437E-08
   32.28000     -3.7300055E-08
   32.34000     -3.5533944E-08
   32.40000     -3.3624428E-08
   32.46000     -3.1552606E-08
   32.52000     -2.9316727E-08
   32.58000     -2.6942130E-08
   32.64000     -2.4484361E-08
   32.70000     -2.2023828E-08
   32.76000     -1.9653037E-08
   32.82000     -1.7459504E-08
   32.88000     -1.5508986E-08
   32.94000     -1.3833635E-08
   33.00000     -1.2428394E-08
   33.06000     -1.1256628E-08
   33.12000     -1.0263330E-08
   33.18000     -9.3921075E-09
   33.24000     -8.6010248E-09
   33.30000     -7.8727993E-09
   33.36000     -7.2164794E-09
   33.42000     -6.6603025E-09
   33.48000     -6.2379955E-09
   33.54000     -5.9727534E-09
   33.60000     -5.8638001E-09
   33.66000     -5.8796585E-09
   33.72000     -5.9602119E-09
   33.78000     -6.0269856E-09
   33.84000     -5.9985754E-09
   33.90000     -5.8066578E-09
   33.96000     -5.4079767E-09
   34.02000     -4.7891415E-09
   34.08000     -3.9635029E-09
   34.14000     -2.9619616E-09
   34.20000     -1.8213867E-09
   34.26000     -5.7479799E-10
   34.32000      7.5359124E-10
   34.38000      2.1474600E-09
   34.44000      3.5929557E-09
   34.50000      5.0718163E-09
   34.56000      6.5565651E-09
   34.62000      8.0103275E-09
   34.68000      9.3918988E-09
   34.74000      1.0664456E-08
   34.80000      1.1804754E-08
   34.86000      1.2809149E-08
   34.92000      1.3693728E-08
   34.98000      1.4487737E-08
   35.04000      1.5221785E-08
   35.10000      1.5914186E-08
   35.16000      1.6559781E-08
   35.22000      1.7124982E-08
   35.28000      1.7551228E-08
   35.34000      1.7766448E-08
   35.40000      1.7701765E-08
   35.46000      1.7308773E-08
   35.52000      1.6572427E-08
   35.58000      1.5515617E-08
   35.64000      1.4193841E-08
   35.70000      1.2681332E-08
   35.76000      1.1052486E-08
   35.82000      9.3639150E-09
   35.88000      7.6421367E-09
   35.94000      5.8802523E-09
   36.00000      4.0442170E-09
   36.06000      2.0865250E-09
   36.12000     -3.6873813E-11
   36.18000     -2.3512978E-09
   36.24000     -4.8537960E-09
   36.30000     -7.5115683E-09
   36.36000     -1.0268203E-08
   36.42000     -1.3055483E-08
   36.48000     -1.5807183E-08
   36.54000     -1.8471075E-08
   36.60000     -2.1016211E-08
   36.66000     -2.3434092E-08
   36.72000     -2.5734254E-08
   36.78000     -2.7936224E-08
   36.84000     -3.0060779E-08
   36.90000     -3.2123211E-08
   36.96000     -3.4130466E-08
   37.02000     -3.6082479E-08
   37.08000     -3.7976644E-08
   37.14000     -3.9813244E-08
   37.20000     -4.1599687E-08
   37.26000     -4.3351854E-08
   37.32000     -4.5092090E-08
   37.38000     -4.6844740E-08
   37.44000     -4.8630778E-08
   37.50000     -5.0463413E-08
   37.56000     -5.2345943E-08
   37.62000     -5.4272135E-08
   37.68000     -5.6228487E-08
   37.74000     -5.8196967E-08
   37.80000     -6.0157014E-08
   37.86000     -6.2085917E-08
   37.92000     -6.3957977E-08
   37.98000     -6.5743357E-08
   38.04000     -6.7408330E-08
   38.10000     -6.8917885E-08
   38.16000     -7.0241285E-08
   38.22000     -7.1359167E-08
   38.28000     -7.2270360E-08
   38.34000     -7.2995491E-08
   38.40000     -7.3575364E-08
   38.46000     -7.4063372E-08
   38.52000     -7.4513132E-08
   38.58000     -7.4964433E-08
   38.64000     -7.5431501E-08
   38.70000     -7.5897375E-08
   38.76000     -7.6316532E-08
   38.82000     -7.6625632E-08
   38.88000     -7.6759754E-08
   38.94000     -7.6669508E-08
   39.00000     -7.6334253E-08
   39.06000     -7.5767424E-08
   39.12000     -7.5012380E-08
   39.18000     -7.4129844E-08
   39.24000     -7.3180587E-08
   39.30000     -7.2208465E-08
   39.36000     -7.1228655E-08
   39.42000     -7.0224715E-08
   39.48000     -6.9155149E-08
   39.54000     -6.7967434E-08
   39.60000     -6.6615435E-08
   39.66000     -6.5074659E-08
   39.72000     -6.3351152E-08
   39.78000     -6.1481423E-08
   39.84000     -5.9523771E-08
   39.90000     -5.7544167E-08
   39.96000     -5.5601127E-08
   40.02000     -5.3734311E-08
   40.08000     -5.1960114E-08
   40.14000     -5.0275023E-08
   40.20000     -4.8665111E-08
   40.26000     -4.7118100E-08
   40.32000     -4.5633840E-08
   40.38000     -4.4229818E-08
   40.44000     -4.2939941E-08
   40.50000     -4.1807134E-08
   40.56000     -4.0871992E-08
   40.62000     -4.0160966E-08
   40.68000     -3.9677481E-08
   40.74000     -3.9398575E-08
   40.80000     -3.9278088E-08
   40.86000     -3.9255514E-08
   40.92000     -3.9268240E-08
   40.98000     -3.9263966E-08
   41.04000     -3.9209905E-08
   41.10000     -3.9096541E-08
   41.16000     -3.8934946E-08
   41.22000     -3.8748688E-08
   41.28000     -3.8562757E-08
   41.34000     -3.8392891E-08
   41.40000     -3.8238355E-08
   41.46000     -3.8080341E-08
   41.52000     -3.7886267E-08
   41.58000     -3.7618676E-08
   41.64000     -3.7245997E-08
   41.70000     -3.6751910E-08
   41.76000     -3.6140623E-08
   41.82000     -3.5436500E-08
   41.88000     -3.4678113E-08
   41.94000     -3.3908474E-08
   42.00000     -3.3164330E-08
   42.06000     -3.2467597E-08
   42.12000     -3.1821468E-08
   42.18000     -3.1212210E-08
   42.24000     -3.0615894E-08
   42.30000     -3.0007630E-08
   42.36000     -2.9370048E-08
   42.42000     -2.8698041E-08
   42.48000     -2.7998198E-08
   42.54000     -2.7283255E-08
   42.60000     -2.6563914E-08
   42.66000     -2.5841379E-08
   42.72000     -2.5103780E-08
   42.78000     -2.4328234E-08
   42.84000     -2.3488150E-08
   42.90000     -2.2563365E-08
   42.96000     -2.1549537E-08
   43.02000     -2.0463430E-08
   43.08000     -1.9341984E-08
   43.14000     -1.8235276E-08
   43.20000     -1.7195378E-08
   43.26000     -1.6264543E-08
   43.32000     -1.5466220E-08
   43.38000     -1.4801429E-08
   43.44000     -1.4251307E-08
   43.50000     -1.3784669E-08
   43.56000     -1.3367935E-08
   43.62000     -1.2974284E-08
   43.68000     -1.2589362E-08
   43.74000     -1.2212217E-08
   43.80000     -1.1851914E-08
   43.86000     -1.1521680E-08
   43.92000     -1.1233150E-08
   43.98000     -1.0992989E-08
   44.04000     -1.0803012E-08
   44.10000     -1.0663475E-08
   44.16000     -1.0577956E-08
   44.22000     -1.0557706E-08
   44.28000     -1.0623700E-08
   44.34000     -1.0805588E-08
   44.40000     -1.1137932E-08
   44.46000     -1.1655101E-08
   44.52000     -1.2386559E-08
   44.58000     -1.3354100E-08
   44.64000     -1.4571831E-08
   44.70000     -1.6048940E-08
   44.76000     -1.7794468E-08
   44.82000     -1.9822867E-08
   44.88000     -2.2159128E-08
   44.94000     -2.4842498E-08
   45.00000     -2.7928403E-08
   45.06000     -3.1488788E-08
   45.12000     -3.5611603E-08
   45.18000     -4.0400309E-08
   45.24000     -4.5974350E-08
   45.30000     -5.2470966E-08
   45.36000     -6.0048485E-08
   45.42000     -6.8890749E-08
   45.48000     -7.9212221E-08
   45.54000     -9.1263210E-08
   45.60000     -1.0533500E-07
   45.66000     -1.2176470E-07
   45.72000     -1.4094020E-07
   45.78000     -1.6330544E-07
   45.84000     -1.8936699E-07
   45.90000     -2.1970185E-07
   45.96000     -2.5496738E-07
   46.02000     -2.9591271E-07
   46.08000     -3.4339129E-07
   46.14000     -3.9837431E-07
   46.20000     -4.6196408E-07
   46.26000     -5.3540793E-07
   46.32000     -6.2011338E-07
   46.38000     -7.1766465E-07
   46.44000     -8.2984150E-07
   46.50000     -9.5863970E-07
   46.56000     -1.1062924E-06
   46.62000     -1.2752911E-06
   46.68000     -1.4684058E-06
   46.74000     -1.6887043E-06
   46.80000     -1.9395700E-06
   46.86000     -2.2247229E-06
   46.92000     -2.5482409E-06
   46.98000     -2.9145840E-06
   47.04000     -3.3286224E-06
   47.10000     -3.7956645E-06
   47.16000     -4.3214823E-06
   47.22000     -4.9123369E-06
   47.28000     -5.5749947E-06
   47.34000     -6.3167413E-06
   47.40000     -7.1453887E-06
   47.46000     -8.0692735E-06
   47.52000     -9.0972626E-06
   47.58000     -1.0238752E-05
   47.64000     -1.1503666E-05
   47.70000     -1.2902455E-05
   47.76000     -1.4446096E-05
   47.82000     -1.6146076E-05
   47.88000     -1.8014367E-05
   47.94000     -2.0063386E-05
   48.00000     -2.2305949E-05
   48.06000     -2.4755207E-05
   48.12000     -2.7424587E-05
   48.18000     -3.0327712E-05
   48.24000     -3.3478336E-05
   48.30000     -3.6890247E-05
   48.36000     -4.0577201E-05
   48.42000     -4.4552798E-05
   48.48000     -4.8830403E-05
   48.54000     -5.3423009E-05
   48.60000     -5.8343092E-05
   48.66000     -6.3602478E-05
   48.72000     -6.9212205E-05
   48.78000     -7.5182339E-05
   48.84000     -8.1521859E-05
   48.90000     -8.8238492E-05
   48.96000     -9.5338568E-05
   49.02000     -1.0282690E-04
   49.08000     -1.1070661E-04
   49.14000     -1.1897901E-04
   49.20000     -1.2764354E-04
   49.26000     -1.3669750E-04
   49.32000     -1.4613610E-04
   49.38000     -1.5595219E-04
   49.44000     -1.6613628E-04
   49.50000     -1.7667637E-04
   49.56000     -1.8755809E-04
   49.62000     -1.9876455E-04
   49.68000     -2.1027640E-04
   49.74000     -2.2207189E-04
   49.80000     -2.3412694E-04
   49.86000     -2.4641521E-04
   49.92000     -2.5890823E-04
   49.98000     -2.7157538E-04
   50.04000     -2.8438430E-04
   50.10000     -2.9730090E-04
   50.16000     -3.1028950E-04
   50.22000     -3.2331335E-04
   50.28000     -3.3633469E-04
   50.34000     -3.4931517E-04
   50.40000     -3.6221606E-04
   50.46000     -3.7499878E-04
   50.52000     -3.8762495E-04
   50.58000     -4.0005700E-04
   50.64000     -4.1225835E-04
   50.70000     -4.2419383E-04
   50.76000     -4.3582989E-04
   50.82000     -4.4713504E-04
   50.88000     -4.5808012E-04
   50.94000     -4.6863873E-04
   51.00000     -4.7878732E-04
   51.06000     -4.8850570E-04
   51.12000     -4.9777696E-04
   51.18000     -5.0658779E-04
   51.24000     -5.1492878E-04
   51.30000     -5.2279409E-04
   51.36000     -5.3018215E-04
   51.42000     -5.3709536E-04
   51.48000     -5.4353982E-04
   51.54000     -5.4952560E-04
   51.60000     -5.5506657E-04
   51.66000     -5.6018023E-04
   51.72000     -5.6488725E-04
   51.78000     -5.6921161E-04
   51.84000     -5.7317986E-04
   51.90000     -5.7682139E-04
   51.96000     -5.8016751E-04
   52.02000     -5.8325136E-04
   52.08000     -5.8610749E-04
   52.14000     -5.8877113E-04
   52.20000     -5.9127813E-04
   52.26000     -5.9366389E-04
   52.32000     -5.9596368E-04
   52.38000     -5.9821142E-04
   52.44000     -6.0043985E-04
   52.50000     -6.0267985E-04
   52.56000     -6.0496037E-04
   52.62000     -6.0730748E-04
   52.68000     -6.0974451E-04
   52.74000     -6.1229145E-04
   52.80000     -6.1496475E-04
   52.86000     -6.1777711E-04
   52.92000     -6.2073738E-04
   52.98000     -6.2385038E-04
   53.04000     -6.2711717E-04
   53.10000     -6.3053466E-04
   53.16000     -6.3409592E-04
   53.22000     -6.3779019E-04
   53.28000     -6.4160296E-04
   53.34000     -6.4551627E-04
   53.40000     -6.4950919E-04
   53.46000     -6.5355795E-04
   53.52000     -6.5763615E-04
   53.58000     -6.6171569E-04
   53.64000     -6.6576665E-04
   53.70000     -6.6975795E-04
   53.76000     -6.7365781E-04
   53.82000     -6.7743391E-04
   53.88000     -6.8105425E-04
   53.94000     -6.8448734E-04
   54.00000     -6.8770285E-04
   54.06000     -6.9067191E-04
   54.12000     -6.9336756E-04
   54.18000     -6.9576519E-04
   54.24000     -6.9784262E-04
   54.30000     -6.9958059E-04
   54.36000     -7.0096279E-04
   54.42000     -7.0197618E-04
   54.48000     -7.0261117E-04
   54.54000     -7.0286193E-04
   54.60000     -7.0272613E-04
   54.66000     -7.0220500E-04
   54.72000     -7.0130365E-04
   54.78000     -7.0003042E-04
   54.84000     -6.9839670E-04
   54.90000     -6.9641706E-04
   54.96000     -6.9410872E-04
   55.02000     -6.9149153E-04
   55.08000     -6.8858737E-04
   55.14000     -6.8541989E-04
   55.20000     -6.8201416E-04
   55.26000     -6.7839614E-04
   55.32000     -6.7459239E-04
   55.38000     -6.7062955E-04
   55.44000     -6.6653406E-04
   55.50000     -6.6233199E-04
   55.56000     -6.5804820E-04