 -0.750000000       0.00000000    
 -0.689999998       0.00000000    
 -0.629999995       0.00000000    
 -0.569999993       0.00000000    
 -0.509999990       0.00000000    
 -0.449999988       0.00000000    
 -0.389999986       0.00000000    
 -0.330000013       0.00000000    
 -0.270000011       0.00000000    
 -0.209999993       1.33863596E-29
 -0.150000006       1.05478910E-28
  -9.00000036E-02   2.66912416E-28
  -2.99999993E-02  -2.41913990E-28
   2.99999993E-02  -2.26150533E-27
   9.00000036E-02   4.35811754E-27
  0.150000006       7.30574685E-26
  0.209999993       3.13135871E-25
  0.270000011       6.73170706E-25
  0.330000013       7.21018313E-26
  0.389999986      -5.32684322E-24
  0.449999988      -2.33121461E-23
  0.509999990      -6.13638616E-23
  0.569999993      -1.08463275E-22
  0.629999995      -9.77061976E-23
  0.689999998       1.35128692E-22
  0.750000000       8.39474019E-22
  0.810000002       2.18115552E-21
  0.870000005       3.82306279E-21
  0.930000007       4.31161594E-21
  0.990000010       6.64703034E-22
   1.04999995      -1.10177033E-20
   1.11000001      -3.29389588E-20
   1.16999996      -6.06594549E-20
   1.23000002      -7.73738670E-20
   1.28999996      -5.17778842E-20
   1.35000002       5.39318464E-20
   1.40999997       2.60574016E-19
   1.47000003       5.34872096E-19
   1.52999997       7.53886879E-19
   1.59000003       7.00540915E-19
   1.64999998       1.24524868E-19
   1.71000004      -1.11465110E-18
   1.76999998      -2.85151326E-18
   1.83000004      -4.45773009E-18
   1.88999999      -4.86474183E-18
   1.95000005      -2.89182632E-18
   2.00999999       2.10786424E-18
   2.06999993       9.47539776E-18
   2.13000011       1.67585287E-17
   2.19000006       2.00102071E-17
   2.25000000       1.51935162E-17
   2.30999994       5.04573711E-19
   2.36999989      -2.12808012E-17
   2.43000007      -4.18918706E-17
   2.49000001      -4.94977335E-17
   2.54999995      -3.39453351E-17
   2.60999990       6.06479892E-18
   2.67000008       5.72405212E-17
   2.73000002       9.18160818E-17
   2.78999996       7.68281316E-17
   2.84999990      -7.93219885E-18
   2.91000009      -1.49364519E-16
   2.97000003      -2.88955814E-16
   3.02999997      -3.31227417E-16
   3.08999991      -1.79240563E-16
   3.15000010       2.08708998E-16
   3.21000004       7.62477089E-16
   3.26999998       1.27583554E-15
   3.32999992       1.44505705E-15
   3.39000010       9.80826460E-16
   3.45000005      -2.31420916E-16
   3.50999999      -1.98588547E-15
   3.56999993      -3.70980144E-15
   3.63000011      -4.58481824E-15
   3.69000006      -3.84605855E-15
   3.75000000      -1.17886234E-15
   3.80999994       2.95077734E-15
   3.86999989       7.22684699E-15
   3.93000007       9.80967491E-15
   3.99000001       9.03888340E-15
   4.05000019       4.29300692E-15
   4.11000013      -3.37278630E-15
   4.17000008      -1.12072759E-14
   4.23000002      -1.55775525E-14
   4.28999996      -1.34803261E-14
   4.34999990      -4.21643091E-15
   4.40999985       9.55638749E-15
   4.46999979       2.21086424E-14
   4.53000021       2.65286755E-14
   4.59000015       1.77674122E-14
   4.65000010      -4.30921447E-15
   4.71000004      -3.33373262E-14
   4.76999998      -5.75179078E-14
   4.82999992      -6.35530921E-14
   4.88999987      -4.23814019E-14
   4.94999981       5.48152417E-15
   5.01000023       6.75520905E-14
   5.07000017       1.21751879E-13
   5.13000011       1.43610628E-13
   5.19000006       1.16194977E-13
   5.25000000       3.89723417E-14
   5.30999994      -6.85147468E-14
   5.36999989      -1.70837194E-13
   5.42999983      -2.28459504E-13
   5.48999977      -2.13427746E-13
   5.55000019      -1.22841882E-13
   5.61000013       1.61855596E-14
   5.67000008       1.53769182E-13
   5.73000002       2.35602526E-13
   5.78999996       2.26143811E-13
   5.84999990       1.27020654E-13
   5.90999985      -1.85625085E-14
   5.96999979      -1.39952638E-13
   6.03000021      -1.68604971E-13
   6.09000015      -7.22816718E-14
   6.15000010       1.21099853E-13
   6.21000004       3.23125668E-13
   6.26999998       4.13060726E-13
   6.32999992       2.87664342E-13
   6.38999987      -8.51613701E-14
   6.44999981      -6.31646482E-13
   6.51000023      -1.17497407E-12
   6.57000017      -1.48153787E-12
   6.63000011      -1.33952647E-12
   6.69000006      -6.44146141E-13
   6.75000000       5.41988275E-13
   6.80999994       1.97854732E-12
   6.86999989       3.29587594E-12
   6.92999983       4.08966958E-12
   6.98999977       4.03233957E-12
   7.05000019       2.96509475E-12
   7.11000013       9.42020659E-13
   7.17000008      -1.78438991E-12
   7.23000002      -4.82487227E-12
   7.28999996      -7.73400354E-12
   7.34999990      -1.00768074E-11
   7.40999985      -1.14578087E-11
   7.46999979      -1.15092848E-11
   7.53000021      -9.85882036E-12
   7.59000015      -6.11349513E-12
   7.65000010       9.83106486E-14
   7.71000004       8.99972978E-12
   7.76999998       2.04529674E-11
   7.82999992       3.36979437E-11
   7.88999987       4.71132057E-11
   7.94999981       5.80939394E-11
   8.01000023       6.31452668E-11
   8.06999969       5.82663778E-11
   8.13000011       3.96513378E-11
   8.18999958       4.66009132E-12
   8.25000000      -4.70700458E-11
   8.31000042      -1.12579078E-10
   8.36999989      -1.84861917E-10
   8.43000031      -2.52729754E-10
   8.48999977      -3.01463632E-10
   8.55000019      -3.14359649E-10
   8.60999966      -2.75117179E-10
   8.67000008      -1.70859521E-10
   8.72999954       4.56526570E-12
   8.78999996       2.47449755E-10
   8.85000038       5.41732603E-10
   8.90999985       8.57575677E-10
   8.97000027       1.15134380E-09
   9.02999973       1.36717360E-09
   9.09000015       1.44015755E-09
   9.14999962       1.30100530E-09
   9.21000004       8.81896389E-10
   9.27000046       1.23110300E-10
   9.32999992      -1.02007958E-09
   9.39000034      -2.57083710E-09
   9.44999981      -4.52515136E-09
   9.51000023      -6.84783297E-09
   9.56999969      -9.47073353E-09
   9.63000011      -1.22937651E-08
   9.68999958      -1.51890820E-08
   9.75000000      -1.80086293E-08
   9.81000042      -2.05948361E-08
   9.86999989      -2.27938735E-08
   9.93000031      -2.44703102E-08
   9.98999977      -2.55216470E-08
   10.0500002      -2.58908273E-08
   10.1099997      -2.55748063E-08
   10.1700001      -2.46275125E-08
   10.2299995      -2.31561916E-08
   10.2900000      -2.13109974E-08
   10.3500004      -1.92688301E-08
   10.4099998      -1.72133632E-08
   10.4700003      -1.53139990E-08
   10.5299997      -1.37067708E-08
   10.5900002      -1.24800250E-08
   10.6499996      -1.16669030E-08
   10.7100000      -1.12456009E-08
   10.7700005      -1.11469944E-08
   10.8299999      -1.12681011E-08
   10.8900003      -1.14889458E-08
   10.9499998      -1.16900738E-08
   11.0100002      -1.17681562E-08
   11.0699997      -1.16477796E-08
   11.1300001      -1.12884280E-08
   11.1899996      -1.06866000E-08
   11.2500000      -9.87368765E-09
   11.3100004      -8.91063490E-09
   11.3699999      -7.88038168E-09
   11.4300003      -6.87887747E-09
   11.4899998      -6.00517547E-09
   11.5500002      -5.35095479E-09
   11.6099997      -4.98994845E-09
   11.6700001      -4.96808372E-09
   11.7299995      -5.29560751E-09
   11.7900000      -5.94278049E-09
   11.8500004      -6.84068135E-09
   11.9099998      -7.88812216E-09
   11.9700003      -8.96459618E-09
   12.0299997      -9.94781590E-09
   12.0900002      -1.07330562E-08
   12.1499996      -1.12506289E-08
   12.2100000      -1.14777130E-08
   12.2700005      -1.14416379E-08
   12.3299999      -1.12134364E-08
   12.3900003      -1.08926885E-08
   12.4499998      -1.05868052E-08
   12.5100002      -1.03893489E-08
   12.5699997      -1.03622941E-08
   12.6300001      -1.05262181E-08
   12.6899996      -1.08603508E-08
   12.7500000      -1.13119318E-08
   12.8100004      -1.18119026E-08
   12.8699999      -1.22924915E-08
   12.9300003      -1.27019417E-08
   12.9899998      -1.30127278E-08
   13.0500002      -1.32216975E-08
   13.1099997      -1.33429836E-08
   13.1700001      -1.33966873E-08
   13.2299995      -1.33974192E-08
   13.2900000      -1.33466784E-08
   13.3500004      -1.32315874E-08
   13.4099998      -1.30303830E-08
   13.4700003      -1.27227135E-08
   13.5299997      -1.23011636E-08
   13.5900002      -1.17798873E-08
   13.6499996      -1.11970611E-08
   13.7100000      -1.06097495E-08
   13.7700005      -1.00822044E-08
   13.8299999      -9.67070601E-09
   13.8900003      -9.40928668E-09
   13.9499998      -9.30048927E-09
   14.0100002      -9.31396826E-09
   14.0699997      -9.39341671E-09
   14.1300001      -9.46996259E-09
   14.1899996      -9.47834611E-09
   14.2500000      -9.37151068E-09
   14.3100004      -9.12983733E-09
   14.3699999      -8.76286776E-09
   14.4300003      -8.30359337E-09
   14.4899998      -7.79741161E-09
   14.5500002      -7.28922123E-09
   14.6099997      -6.81242973E-09
   14.6700001      -6.38284670E-09
   14.7299995      -5.99882233E-09
   14.7900000      -5.64703928E-09
   14.8500004      -5.31166844E-09
   14.9099998      -4.98363084E-09
   14.9700003      -4.66677097E-09
   15.0299997      -4.37880132E-09
   15.0900002      -4.14665768E-09
   15.1499996      -3.99778655E-09
   15.2100000      -3.95036759E-09
   15.2700005      -4.00592448E-09
   15.3299999      -4.14713952E-09
   15.3900003      -4.34197123E-09
   15.4499998      -4.55307481E-09
   15.5100002      -4.74959672E-09
   15.5699997      -4.91745578E-09
   15.6300001      -5.06454034E-09
   15.6899996      -5.21880761E-09
   15.7500000      -5.41956524E-09
   15.8100004      -5.70448355E-09
   15.8699999      -6.09635187E-09
   15.9300003      -6.59379484E-09
   15.9899998      -7.16897075E-09
   16.0499992      -7.77317588E-09
   16.1100006      -8.34889757E-09
   16.1700001      -8.84495766E-09
   16.2299995      -9.23052212E-09
   16.2900009      -9.50414680E-09
   16.3500004      -9.69544356E-09
   16.4099998      -9.85902737E-09
   16.4699993      -1.00624709E-08
   16.5300007      -1.03715401E-08
   16.5900002      -1.08366507E-08
   16.6499996      -1.14840590E-08
   16.7099991      -1.23138992E-08
   16.7700005      -1.33052076E-08
   16.8299999      -1.44259165E-08
   16.8899994      -1.56442326E-08
   16.9500008      -1.69372516E-08
   17.0100002      -1.82934148E-08
   17.0699997      -1.97074588E-08
   17.1299992      -2.11691997E-08
   17.1900005      -2.26500081E-08
   17.2500000      -2.40923530E-08
   17.3099995      -2.54073793E-08
   17.3700008      -2.64833968E-08
   17.4300003      -2.72046154E-08
   17.4899998      -2.74758669E-08
   17.5499992      -2.72463776E-08
   17.6100006      -2.65252513E-08
   17.6700001      -2.53831889E-08
   17.7299995      -2.39388331E-08
   17.7900009      -2.23326619E-08
   17.8500004      -2.06951292E-08
   17.9099998      -1.91176017E-08
   17.9699993      -1.76337291E-08
   18.0300007      -1.62158109E-08
   18.0900002      -1.47862877E-08
   18.1499996      -1.32402542E-08
   18.2099991      -1.14720136E-08
   18.2700005      -9.39819955E-09
   18.3299999      -6.97169344E-09
   18.3899994      -4.18390389E-09
   18.4500008      -1.05681541E-09
   18.5100002       2.37073539E-09
   18.5699997       6.05666273E-09
   18.6299992       9.96382177E-09
   18.6900005       1.40597951E-08
   18.7500000       1.83085493E-08
   18.8099995       2.26573409E-08
   18.8700008       2.70242779E-08
   18.9300003       3.12921564E-08
   18.9899998       3.53125600E-08
   19.0499992       3.89211827E-08
   19.1100006       4.19617088E-08
   19.1700001       4.43127455E-08
   19.2299995       4.59106850E-08
   19.2900009       4.67621035E-08
   19.3500004       4.69417216E-08
   19.4099998       4.65757424E-08
   19.4699993       4.58142999E-08
   19.5300007       4.47996520E-08
   19.5900002       4.36379572E-08
   19.6499996       4.23813589E-08
   19.7099991       4.10242436E-08
   19.7700005       3.95137505E-08
   19.8299999       3.77708851E-08
   19.8899994       3.57161660E-08
   19.9500008       3.32930199E-08
   20.0100002       3.04833705E-08
   20.0699997       2.73124616E-08
   20.1299992       2.38431870E-08
   20.1900005       2.01627373E-08
   20.2500000       1.63661991E-08
   20.3099995       1.25417090E-08
   20.3700008       8.76073614E-09
   20.4300003       5.07490716E-09
   20.4899998       1.51872714E-09
   20.5499992      -1.88424587E-09
   20.6100006      -5.11494669E-09
   20.6700001      -8.15493983E-09
   20.7299995      -1.09867697E-08
   20.7900009      -1.35984326E-08
   20.8500004      -1.59901976E-08
   20.9099998      -1.81809447E-08
   20.9699993      -2.02111377E-08
   21.0300007      -2.21404477E-08
   21.0900002      -2.40397373E-08
   21.1499996      -2.59790021E-08
   21.2099991      -2.80142380E-08
   21.2700005      -3.01767322E-08
   21.3299999      -3.24675824E-08
   21.3899994      -3.48587648E-08
   21.4500008      -3.73000582E-08
   21.5100002      -3.97295530E-08
   21.5699997      -4.20846504E-08
   21.6299992      -4.43106956E-08
   21.6900005      -4.63654750E-08
   21.7500000      -4.82195439E-08
   21.8099995      -4.98534689E-08
   21.8700008      -5.12541973E-08
   21.9300003      -5.24125063E-08
   21.9899998      -5.33226689E-08
   22.0499992      -5.39845253E-08
   22.1100006      -5.44068151E-08
   22.1700001      -5.46100871E-08
   22.2299995      -5.46274883E-08
   22.2900009      -5.45022196E-08
   22.3500004      -5.42816956E-08
   22.4099998      -5.40092948E-08
   22.4699993      -5.37157092E-08
   22.5300007      -5.34122684E-08
   22.5900002      -5.30883426E-08
   22.6499996      -5.27141601E-08
   22.7099991      -5.22489003E-08
   22.7700005      -5.16525596E-08
   22.8299999      -5.08985174E-08
   22.8899994      -4.99834734E-08
   22.9500008      -4.89315752E-08
   23.0100002      -4.77910724E-08
   23.0699997      -4.66239563E-08
   23.1299992      -4.54910030E-08
   23.1900005      -4.44363693E-08
   23.2500000      -4.34759606E-08
   23.3099995      -4.25928910E-08
   23.3700008      -4.17412238E-08
   23.4300003      -4.08568077E-08
   23.4899998      -3.98721021E-08
   23.5499992      -3.87309314E-08
   23.6100006      -3.73994489E-08
   23.6700001      -3.58710999E-08
   23.7299995      -3.41652004E-08
   23.7900009      -3.23205320E-08
   23.8500004      -3.03865875E-08
   23.9099998      -2.84151227E-08
   23.9699993      -2.64542699E-08
   24.0300007      -2.45461287E-08
   24.0900002      -2.27275123E-08
   24.1499996      -2.10324700E-08
   24.2099991      -1.94947667E-08
   24.2700005      -1.81486577E-08
   24.3299999      -1.70271193E-08
   24.3899994      -1.61577063E-08
   24.4500008      -1.55572142E-08
   24.5100002      -1.52269521E-08
   24.5699997      -1.51503183E-08
   24.6299992      -1.52938906E-08
   24.6900005      -1.56121551E-08
   24.7500000      -1.60550346E-08
   24.8099995      -1.65765428E-08
   24.8700008      -1.71425292E-08
   24.9300003      -1.77357755E-08
   24.9899998      -1.83572411E-08
   25.0499992      -1.90232186E-08
   25.1100006      -1.97590566E-08
   25.1700001      -2.05909139E-08
   25.2299995      -2.15373923E-08
   25.2900009      -2.26029488E-08
   25.3500004      -2.37745148E-08
   25.4099998      -2.50220289E-08
   25.4699993      -2.63027147E-08
   25.5300007      -2.75680847E-08
   25.5900002      -2.87721331E-08
   25.6499996      -2.98789899E-08
   25.7099991      -3.08685202E-08
   25.7700005      -3.17388427E-08
   25.8299999      -3.25053549E-08
   25.8899994      -3.31964181E-08
   25.9500008      -3.38465433E-08
   26.0100002      -3.44882274E-08
   26.0699997      -3.51440050E-08
   26.1299992      -3.58202534E-08
   26.1900005      -3.65042361E-08
   26.2500000      -3.71651332E-08
   26.3099995      -3.77591860E-08
   26.3700008      -3.82379532E-08
   26.4300003      -3.85579675E-08
   26.4899998      -3.86895174E-08
   26.5499992      -3.86223711E-08
   26.6100006      -3.83669985E-08
   26.6700001      -3.79508975E-08
   26.7299995      -3.74108851E-08
   26.7900009      -3.67833337E-08
   26.8500004      -3.60947894E-08
   26.9099998      -3.53553773E-08
   26.9699993      -3.45567095E-08
   27.0300007      -3.36746631E-08
   27.0900002      -3.26763256E-08
   27.1499996      -3.15290585E-08
   27.2099991      -3.02093071E-08
   27.2700005      -2.87086994E-08
   27.3299999      -2.70358793E-08
   27.3899994      -2.52137706E-08
   27.4500008      -2.32732766E-08
   27.5100002      -2.12454303E-08
   27.5699997      -1.91545428E-08
   27.6299992      -1.70144148E-08
   27.6900005      -1.48287898E-08
   27.7500000      -1.25958310E-08
   27.8099995      -1.03151248E-08
   27.8700008      -7.99492295E-09
   27.9300003      -5.65725200E-09
   27.9899998      -3.33913630E-09
   28.0499992      -1.08940423E-09
   28.1100006       1.03811371E-09
   28.1700001       2.99307534E-09
   28.2299995       4.73635353E-09
   28.2900009       6.24477581E-09
   28.3500004       7.51159224E-09
   28.4099998       8.54270965E-09
   28.4699993       9.35010114E-09
   28.5300007       9.94464688E-09
   28.5900002       1.03308349E-08
   28.6499996       1.05050173E-08
   28.7099991       1.04576205E-08
   28.7700005       1.01782449E-08
   28.8299999       9.66153113E-09
   28.8899994       8.91134722E-09
   28.9500008       7.94152122E-09
   29.0100002       6.77263268E-09
   29.0699997       5.42594192E-09
   29.1299992       3.91668520E-09
   29.1900005       2.24933805E-09
   29.2500000       4.16837703E-10
   29.3099995      -1.59560476E-09
   29.3700008      -3.80310938E-09
   29.4300003      -6.21249407E-09
   29.4899998      -8.81530671E-09
   29.5499992      -1.15849712E-08
   29.6100006      -1.44791859E-08
   29.6700001      -1.74469861E-08
   29.7299995      -2.04382857E-08
   29.7900009      -2.34128894E-08
   29.8500004      -2.63461093E-08
   29.9099998      -2.92293443E-08
   29.9699993      -3.20656959E-08
   30.0300007      -3.48623566E-08
   30.0900002      -3.76225486E-08
   30.1499996      -4.03397742E-08
   30.2099991      -4.29960920E-08
   30.2700005      -4.55645974E-08
   30.3299999      -4.80147122E-08
   30.3899994      -5.03180324E-08
   30.4500008      -5.24525596E-08
   30.5100002      -5.44038130E-08
   30.5699997      -5.61628717E-08
   30.6299992      -5.77224029E-08
   30.6900005      -5.90724554E-08
   30.7500000      -6.01978201E-08
   30.8099995      -6.10780333E-08
   30.8700008      -6.16900806E-08
   30.9300003      -6.20128233E-08
   30.9899998      -6.20316456E-08
   31.0499992      -6.17416447E-08
   31.1100006      -6.11482491E-08
   31.1700001      -6.02651014E-08
   31.2299995      -5.91099045E-08
   31.2900009      -5.76999390E-08
   31.3500004      -5.60488367E-08
   31.4099998      -5.41659055E-08
   31.4699993      -5.20582759E-08
   31.5300007      -4.97349326E-08
   31.5900002      -4.72110173E-08
   31.6499996      -4.45104611E-08
   31.7099991      -4.16657215E-08
   31.7700005      -3.87145178E-08
   31.8299999      -3.56945868E-08
   31.8899994      -3.26383933E-08
   31.9500008      -2.95696676E-08
   32.0099983      -2.65030327E-08
   32.0699997      -2.34467024E-08
   32.1300011      -2.04071160E-08
   32.1899986      -1.73936101E-08
   32.2500000      -1.44213503E-08
   32.3100014      -1.15114211E-08
   32.3699989      -8.68819594E-09
   32.4300003      -5.97513816E-09
   32.4900017      -3.39086825E-09
   32.5499992      -9.47180334E-10
   32.6100006       1.35008305E-09
   32.6699982       3.49752427E-09
   32.7299995       5.48937074E-09
   32.7900009       7.31323357E-09
   32.8499985       8.94820129E-09
   32.9099998       1.03661870E-08
   32.9700012       1.15362564E-08
   33.0299988       1.24305251E-08
   33.0900002       1.30295676E-08
   33.1500015       1.33253772E-08
   33.2099991       1.33207481E-08
   33.2700005       1.30251863E-08
   33.3300018       1.24487167E-08
   33.3899994       1.15958265E-08
   33.4500008       1.04618847E-08
   33.5099983       9.03370623E-09
   33.5699997       7.29465910E-09
   33.6300011       5.23315968E-09
   33.6899986       2.85210677E-09
   33.7500000       1.76168496E-10
   33.8100014      -2.74586420E-09
   33.8699989      -5.84519144E-09
   33.9300003      -9.04325503E-09
   33.9900017      -1.22658346E-08
   34.0499992      -1.54572817E-08
   34.1100006      -1.85908640E-08
   34.1699982      -2.16720242E-08
   34.2299995      -2.47333176E-08
   34.2900009      -2.78221020E-08
   34.3499985      -3.09841539E-08
   34.4099998      -3.42475310E-08
   34.4700012      -3.76109668E-08
   34.5299988      -4.10397547E-08
   34.5900002      -4.44701023E-08
   34.6500015      -4.78208229E-08
   34.7099991      -5.10092626E-08
   34.7700005      -5.39675717E-08
   34.8300018      -5.66554412E-08
   34.8899994      -5.90662985E-08
   34.9500008      -6.12257125E-08
   35.0099983      -6.31824477E-08
   35.0699997      -6.49946159E-08
   35.1300011      -6.67140867E-08
   35.1899986      -6.83732537E-08
   35.2500000      -6.99769771E-08
   35.3100014      -7.15018160E-08
   35.3699989      -7.29024237E-08
   35.4300003      -7.41232995E-08
   35.4900017      -7.51127800E-08
   35.5499992      -7.58356435E-08
   35.6100006      -7.62810686E-08
   35.6699982      -7.64641612E-08
   35.7299995      -7.64207897E-08
   35.7900009      -7.61975159E-08
   35.8499985      -7.58395373E-08
   35.9099998      -7.53799938E-08
   35.9700012      -7.48336078E-08
   36.0299988      -7.41962225E-08
   36.0900002      -7.34500887E-08
   36.1500015      -7.25733429E-08
   36.2099991      -7.15506090E-08
   36.2700005      -7.03818799E-08
   36.3300018      -6.90869228E-08
   36.3899994      -6.77040148E-08
   36.4500008      -6.62830573E-08
   36.5099983      -6.48749747E-08
   36.5699997      -6.35200408E-08
   36.6300011      -6.22382998E-08
   36.6899986      -6.10250908E-08
   36.7500000      -5.98531003E-08
   36.8100014      -5.86810209E-08
   36.8699989      -5.74667354E-08
   36.9300003      -5.61814382E-08
   36.9900017      -5.48205072E-08
   37.0499992      -5.34074971E-08
   37.1100006      -5.19894563E-08
   37.1699982      -5.06244575E-08
   37.2299995      -4.93647967E-08
   37.2900009      -4.82409455E-08
   37.3499985      -4.72515431E-08
   37.4099998      -4.63628353E-08
   37.4700012      -4.55182025E-08
   37.5299988      -4.46551169E-08
   37.5900002      -4.37244410E-08
   37.6500015      -4.27061373E-08
   37.7099991      -4.16165484E-08
   37.7700005      -4.05048617E-08
   37.8300018      -3.94397368E-08
   37.8899994      -3.84899366E-08
   37.9500008      -3.77045950E-08
   38.0099983      -3.70987969E-08
   38.0699997      -3.66487001E-08
   38.1300011      -3.62975605E-08
   38.1899986      -3.59710626E-08
   38.2500000      -3.55975551E-08
   38.3100014      -3.51274778E-08
   38.3699989      -3.45463889E-08
   38.4300003      -3.38778747E-08
   38.4900017      -3.31756063E-08
   38.5499992      -3.25070459E-08
   38.6100006      -3.19338262E-08
   38.6699982      -3.14947641E-08
   38.7299995      -3.11966666E-08
   38.7900009      -3.10154782E-08
   38.8499985      -3.09069783E-08
   38.9099998      -3.08232693E-08
   38.9700012      -3.07294847E-08
   39.0299988      -3.06153041E-08
   39.0900002      -3.04977625E-08
   39.1500015      -3.04148813E-08
   39.2099991      -3.04125614E-08
   39.2700005      -3.05293817E-08
   39.3300018      -3.07842924E-08
   39.3899994      -3.11710089E-08
   39.4500008      -3.16604591E-08
   39.5099983      -3.22101279E-08
   39.5699997      -3.27768532E-08
   39.6300011      -3.33289876E-08
   39.6899986      -3.38542598E-08
   39.7500000      -3.43612570E-08
   39.8100014      -3.48745850E-08
   39.8699989      -3.54255150E-08
   39.9300003      -3.60411470E-08
   39.9900017      -3.67352264E-08
   40.0499992      -3.75030922E-08
   40.1100006      -3.83219145E-08
   40.1699982      -3.91559887E-08
   40.2299995      -3.99654105E-08
   40.2900009      -4.07157792E-08
   40.3499985      -4.13863148E-08
   40.4099998      -4.19741966E-08
   40.4700012      -4.24940581E-08
   40.5299988      -4.29727294E-08
   40.5900002      -4.34406928E-08
   40.6500015      -4.39225438E-08
   40.7099991      -4.44289583E-08
   40.7700005      -4.49522908E-08
   40.8300018      -4.54668800E-08
   40.8899994      -4.59338025E-08
   40.9500008      -4.63088377E-08
   41.0099983      -4.65514987E-08
   41.0699997      -4.66331542E-08
   41.1300011      -4.65424712E-08
   41.1899986      -4.62874539E-08
   41.2500000      -4.58939233E-08
   41.3100014      -4.54012401E-08
   41.3699989      -4.48562822E-08
   41.4300003      -4.43068195E-08
   41.4900017      -4.37954384E-08
   41.5499992      -4.33548273E-08
   41.6100006      -4.30048743E-08
   41.6699982      -4.27519353E-08
   41.7299995      -4.25900808E-08
   41.7900009      -4.25040625E-08
   41.8499985      -4.24734274E-08
   41.9099998      -4.24772395E-08
   41.9700012      -4.24987121E-08
   42.0299988      -4.25291731E-08
   42.0900002      -4.25707576E-08
   42.1500015      -4.26373248E-08
   42.2099991      -4.27532463E-08
   42.2700005      -4.29499138E-08
   42.3300018      -4.32604246E-08
   42.3899994      -4.37132286E-08
   42.4500008      -4.43260149E-08
   42.5099983      -4.51012276E-08
   42.5699997      -4.60243577E-08
   42.6300011      -4.70655621E-08
   42.6899986      -4.81843614E-08
   42.7500000      -4.93365810E-08
   42.8100014      -5.04820470E-08
   42.8699989      -5.15915346E-08
   42.9300003      -5.26515720E-08
   42.9900017      -5.36659819E-08
   43.0499992      -5.46537287E-08
   43.1100006      -5.56432695E-08
   43.1699982      -5.66643443E-08
   43.2299995      -5.77390793E-08
   43.2900009      -5.88745657E-08
   43.3499985      -6.00591221E-08
   43.4099998      -6.12635844E-08
   43.4700012      -6.24476115E-08
   43.5299988      -6.35693311E-08
   43.5900002      -6.45953193E-08
   43.6500015      -6.55076420E-08
   43.7099991      -6.63053896E-08
   43.7700005      -6.69997888E-08
   43.8300018      -6.76043754E-08
   43.8899994      -6.81233558E-08
   43.9500008      -6.85422634E-08
   44.0099983      -6.88244839E-08
   44.0699997      -6.89155399E-08
   44.1300011      -6.87547015E-08
   44.1899986      -6.82905394E-08
   44.2500000      -6.74961242E-08
   44.3100014      -6.63786679E-08
   44.3699989      -6.49800427E-08
   44.4300003      -6.33673523E-08
   44.4900017      -6.16156441E-08
   44.5499992      -5.97876380E-08
   44.6100006      -5.79166048E-08
   44.6699982      -5.59978730E-08
   44.7299995      -5.39918510E-08
   44.7900009      -5.18381036E-08
   44.8499985      -4.94764620E-08
   44.9099998      -4.68690686E-08
   44.9700012      -4.40168044E-08
   45.0299988      -4.09653467E-08
   45.0900002      -3.77990439E-08
   45.1500015      -3.46244100E-08
   45.2099991      -3.15478275E-08
   45.2700005      -2.86536785E-08
   45.3300018      -2.59888573E-08
   45.3899994      -2.35578455E-08
   45.4500008      -2.13294964E-08
   45.5099983      -1.92534610E-08
   45.5699997      -1.72814225E-08
   45.6300011      -1.53870143E-08
   45.6899986      -1.35786529E-08
   45.7500000      -1.19015917E-08
   45.8100014      -1.04288072E-08
   45.8699989      -9.24356858E-09
   45.9300003      -8.41900594E-09
   45.9900017      -8.00075473E-09
   46.0499992      -7.99755018E-09
   46.1100006      -8.38210479E-09
   46.1699982      -9.10132769E-09
   46.2299995      -1.00922266E-08
   46.2900009      -1.12983294E-08
   46.3499985      -1.26816078E-08
   46.4099998      -1.42265799E-08
   46.4700012      -1.59358056E-08
   46.5299988      -1.78187580E-08
   46.5900002      -1.98780281E-08
   46.6500015      -2.20976499E-08
   46.7099991      -2.44375826E-08
   46.7700005      -2.68364815E-08
   46.8300018      -2.92221944E-08
   46.8899994      -3.15269304E-08
   46.9500008      -3.37023849E-08
   47.0099983      -3.57299648E-08
   47.0699997      -3.76227334E-08
   47.1300011      -3.94180582E-08
   47.1899986      -4.11631511E-08
   47.2500000      -4.28977138E-08
   47.3100014      -4.46392079E-08
   47.3699989      -4.63754262E-08
   47.4300003      -4.80669442E-08
   47.4900017      -4.96591746E-08
   47.5499992      -5.11005744E-08
   47.6100006      -5.23618340E-08
   47.6699982      -5.34502895E-08
   47.7299995      -5.44151781E-08
   47.7900009      -5.53421167E-08
   47.8499985      -5.63383225E-08
   47.9099998      -5.75130770E-08
   47.9700012      -5.89592482E-08
   48.0299988      -6.07413710E-08
   48.0900002      -6.28935410E-08
   48.1500015      -6.54273009E-08
   48.2099991      -6.83466865E-08
   48.2700005      -7.16654966E-08
   48.3300018      -7.54218874E-08
   48.3899994      -7.96866644E-08
   48.4500008      -8.45641637E-08
   48.5099983      -9.01873136E-08
   48.5699997      -9.67100604E-08
   48.6300011      -1.04301030E-07
   48.6899986      -1.13141589E-07
   48.7500000      -1.23429643E-07
   48.8100014      -1.35388888E-07
   48.8699989      -1.49281320E-07
   48.9300003      -1.65420744E-07
   48.9900017      -1.84184373E-07
   49.0499992      -2.06021667E-07
   49.1100006      -2.31460419E-07
   49.1699982      -2.61111609E-07
   49.2299995      -2.95675363E-07
   49.2900009      -3.35949863E-07
   49.3499985      -3.82843609E-07
   49.4099998      -4.37392060E-07
   49.4700012      -5.00776139E-07
   49.5299988      -5.74342494E-07
   49.5900002      -6.59623652E-07
   49.6500015      -7.58357089E-07
   49.7099991      -8.72505098E-07
   49.7700005      -1.00427371E-06
   49.8300018      -1.15613398E-06
   49.8899994      -1.33084473E-06
   49.9500008      -1.53147926E-06
   50.0099983      -1.76145306E-06
   50.0699997      -2.02455340E-06
   50.1300011      -2.32497132E-06
   50.1899986      -2.66732877E-06
   50.2500000      -3.05670892E-06
   50.3100014      -3.49868196E-06
   50.3699989      -3.99933060E-06
   50.4300003      -4.56527960E-06
   50.4900017      -5.20372305E-06
   50.5499992      -5.92245624E-06
   50.6100006      -6.72990836E-06