  -2.400000      0.0000000E+00
  -2.340000      0.0000000E+00
  -2.280000      0.0000000E+00
  -2.220000      0.0000000E+00
  -2.160000      0.0000000E+00
  -2.100000      0.0000000E+00
  -2.040000      0.0000000E+00
  -1.980000      0.0000000E+00
  -1.920000      0.0000000E+00
  -1.860000      1.7382407E-28
  -1.800000      1.9405314E-27
  -1.740000      9.6558532E-27
  -1.680000      2.3298971E-26
  -1.620000     -8.9607496E-27
  -1.560000     -3.1318476E-25
  -1.500000     -1.4147019E-24
  -1.440000     -3.8804194E-24
  -1.380000     -6.9238558E-24
  -1.320000     -5.4011993E-24
  -1.260000      1.3201949E-23
  -1.200000      6.6032176E-23
  -1.140000      1.5721281E-22
  -1.080000      2.4077034E-22
  -1.020000      1.8057511E-22
 -0.9600000     -2.4100892E-22
 -0.9000000     -1.1904439E-21
 -0.8400000     -2.4902789E-21
 -0.7800000     -3.2779475E-21
 -0.7200000     -1.9556761E-21
 -0.6600000      3.0880500E-21
 -0.6000000      1.1739664E-20
 -0.5400000      1.9992222E-20
 -0.4800000      1.9189068E-20
 -0.4200000     -6.7268878E-22
 -0.3600000     -4.1987740E-20
 -0.3000000     -8.7354964E-20
 -0.2400000     -9.2813309E-20
 -0.1800000      1.2364904E-22
 -0.1200000      2.2332912E-19
 -5.9999999E-02  5.1773710E-19
  0.0000000E+00  6.7970863E-19
  5.9999999E-02  3.7828513E-19
  0.1200000     -6.9650655E-19
  0.1800000     -2.5454355E-18
  0.2400000     -4.5300592E-18
  0.3000000     -5.2244504E-18
  0.3600000     -2.7324026E-18
  0.4200000      4.3524685E-18
  0.4800000      1.5494221E-17
  0.5400000      2.6901050E-17
  0.6000000      3.1382948E-17
  0.6600000      2.0387142E-17
  0.7200000     -1.1524914E-17
  0.7800000     -6.0946443E-17
  0.8400000     -1.1148337E-16
  0.9000000     -1.3492933E-16
  0.9600000     -1.0051097E-16
   1.020000      8.4162203E-18
   1.080000      1.7591089E-16
   1.140000      3.4345897E-16
   1.200000      4.1950919E-16
   1.260000      3.1401745E-16
   1.320000     -8.6063858E-18
   1.380000     -4.7952166E-16
   1.440000     -9.0966542E-16
   1.500000     -1.0356868E-15
   1.560000     -6.3311917E-16
   1.620000      3.3430379E-16
   1.680000      1.5970946E-15
   1.740000      2.5776212E-15
   1.800000      2.5611739E-15
   1.860000      1.0283929E-15
   1.920000     -1.9594223E-15
   1.980000     -5.5101768E-15
   2.040000     -7.9848170E-15
   2.100000     -7.5201177E-15
   2.160000     -2.9044190E-15
   2.220000      5.5040760E-15
   2.280000      1.5277188E-14
   2.340000      2.2262855E-14
   2.400000      2.1936702E-14
   2.460000      1.1465956E-14
   2.520000     -8.2763022E-15
   2.580000     -3.1759365E-14
   2.640000     -4.9748298E-14
   2.700000     -5.2357055E-14
   2.760000     -3.3435538E-14
   2.820000      5.3728113E-15
   2.880000      5.2939664E-14
   2.940000      9.0866659E-14
   3.000000      9.9755633E-14
   3.060000      6.7802345E-14
   3.120000     -1.6296887E-15
   3.180000     -8.7288893E-14
   3.240000     -1.5481732E-13
   3.300000     -1.6890944E-13
   3.360000     -1.0923543E-13
   3.420000      1.6232460E-14
   3.480000      1.6735871E-13
   3.540000      2.8174121E-13
   3.600000      2.9739243E-13
   3.660000      1.8105451E-13
   3.720000     -4.9425152E-14
   3.780000     -3.2037670E-13
   3.840000     -5.2170974E-13
   3.900000     -5.4737882E-13
   3.960000     -3.4351260E-13
   4.020000      5.5744499E-14
   4.080000      5.2349938E-13
   4.140000      8.7534049E-13
   4.200000      9.3729581E-13
   4.260000      6.2318857E-13
   4.320000     -1.0717345E-14
   4.380000     -7.6198433E-13
   4.440000     -1.3402402E-12
   4.500000     -1.4734072E-12
   4.560000     -1.0247926E-12
   4.620000     -7.3144453E-14
   4.680000      1.0839873E-12
   4.740000      2.0167975E-12
   4.800000      2.3170257E-12
   4.860000      1.7651141E-12
   4.920000      4.4402023E-13
   4.980000     -1.2536928E-12
   5.040000     -2.7417951E-12
   5.100000     -3.4473886E-12
   5.160000     -3.0360727E-12
   5.220000     -1.5664311E-12
   5.280000      4.9665941E-13
   5.340000      2.4312522E-12
   5.400000      3.5277989E-12
   5.460000      3.3824436E-12
   5.520000      2.0960080E-12
   5.580000      2.8390818E-13
   5.640000     -1.1330517E-12
   5.700000     -1.3017658E-12
   5.760000      1.5596199E-13
   5.820000      2.8645137E-12
   5.880000      5.6788671E-12
   5.940000      6.9831237E-12
   6.000000      5.2390544E-12
   6.060000     -3.8377651E-13
   6.120000     -9.5168196E-12
   6.180000     -2.0435136E-11
   6.240000     -3.0327591E-11
   6.300000     -3.5944674E-11
   6.360000     -3.4439389E-11
   6.420000     -2.4144379E-11
   6.480000     -5.0502445E-12
   6.540000      2.1138197E-11
   6.600000      5.1330339E-11
   6.660000      8.1581880E-11
   6.720000      1.0758597E-10
   6.780000      1.2493055E-10
   6.840000      1.2908305E-10
   6.900000      1.1526118E-10
   6.960000      7.8501296E-11
   7.020000      1.4264689E-11
   7.080000     -8.0212642E-11
   7.140000     -2.0389372E-10
   7.200000     -3.4962735E-10
   7.260000     -5.0219062E-10
   7.320000     -6.3740052E-10
   7.380000     -7.2284634E-10
   7.440000     -7.2042439E-10
   7.500000     -5.9039174E-10
   7.560000     -2.9624081E-10
   7.620000      1.9052067E-10
   7.680000      8.8654889E-10
   7.740000      1.7943710E-09
   7.800000      2.9017504E-09
   7.860000      4.1824353E-09
   7.920000      5.5977729E-09
   7.980000      7.0986967E-09
   8.040000      8.6278167E-09
   8.100000      1.0121717E-08
   8.160000      1.1513797E-08
   8.220000      1.2738092E-08
   8.280000      1.3734263E-08
   8.340000      1.4453472E-08
   8.400000      1.4864380E-08
   8.460000      1.4958021E-08
   8.520000      1.4750296E-08
   8.580000      1.4281104E-08
   8.640000      1.3609848E-08
   8.700000      1.2807872E-08
   8.760000      1.1949195E-08
   8.820000      1.1101339E-08
   8.880000      1.0317995E-08
   8.940000      9.6347694E-09
   9.000000      9.0683780E-09
   9.060000      8.6187706E-09
   9.120000      8.2730178E-09
   9.180000      8.0095868E-09
   9.240000      7.8019351E-09
   9.300000      7.6209785E-09
   9.360000      7.4367232E-09
   9.420000      7.2198203E-09
   9.480000      6.9438362E-09
   9.540000      6.5885835E-09
   9.600000      6.1441110E-09
   9.660000      5.6142238E-09
   9.720000      5.0180664E-09
   9.780000      4.3885291E-09
   9.840000      3.7670729E-09
   9.900000      3.1957241E-09
   9.960000      2.7080997E-09
   10.02000      2.3218976E-09
   10.08000      2.0351414E-09
   10.14000      1.8275034E-09
   10.20000      1.6665543E-09
   10.26000      1.5172819E-09
   10.32000      1.3521505E-09
   10.38000      1.1587550E-09
   10.44000      9.4282360E-10
   10.50000      7.2576833E-10
   10.56000      5.3767751E-10
   10.62000      4.0806045E-10
   10.68000      3.5729988E-10
   10.74000      3.9143028E-10
   10.80000      5.0165522E-10
   10.86000      6.6836064E-10
   10.92000      8.6785640E-10
   10.98000      1.0792340E-09
   11.04000      1.2888592E-09
   11.10000      1.4910785E-09
   11.16000      1.6852922E-09
   11.22000      1.8710393E-09
   11.28000      2.0435478E-09
   11.34000      2.1920243E-09
   11.40000      2.3018161E-09
   11.46000      2.3599438E-09
   11.52000      2.3619795E-09
   11.58000      2.3174871E-09
   11.64000      2.2515203E-09
   11.70000      2.2009619E-09
   11.76000      2.2062745E-09
   11.82000      2.3009212E-09
   11.88000      2.5016269E-09
   11.94000      2.8025220E-09
   12.00000      3.1750511E-09
   12.06000      3.5737573E-09
   12.12000      3.9462797E-09
   12.18000      4.2447090E-09
   12.24000      4.4351691E-09
   12.30000      4.5031983E-09
   12.36000      4.4539124E-09
   12.42000      4.3075357E-09
   12.48000      4.0921844E-09
   12.54000      3.8363819E-09
   12.60000      3.5635115E-09
   12.66000      3.2894487E-09
   12.72000      3.0232898E-09
   12.78000      2.7699536E-09
   12.84000      2.5328437E-09
   12.90000      2.3149680E-09
   12.96000      2.1177988E-09
   13.02000      1.9383817E-09
   13.08000      1.7662358E-09
   13.14000      1.5819991E-09
   13.20000      1.3593136E-09
   13.26000      1.0702680E-09
   13.32000      6.9321421E-10
   13.38000      2.2056300E-10
   13.44000     -3.3624853E-10
   13.50000     -9.4680275E-10
   13.56000     -1.5674233E-09
   13.62000     -2.1513198E-09
   13.68000     -2.6602611E-09
   13.74000     -3.0741432E-09
   13.80000     -3.3952769E-09
   13.86000     -3.6457946E-09
   13.92000     -3.8587529E-09
   13.98000     -4.0655697E-09
   14.04000     -4.2836739E-09
   14.10000     -4.5082227E-09
   14.16000     -4.7104654E-09
   14.22000     -4.8432374E-09
   14.28000     -4.8518154E-09
   14.34000     -4.6867750E-09
   14.40000     -4.3150346E-09
   14.46000     -3.7260968E-09
   14.52000     -2.9322498E-09
   14.58000     -1.9635913E-09
   14.64000     -8.6037227E-10
   14.70000      3.3416753E-10
   14.76000      1.5778312E-09
   14.82000      2.8292086E-09
   14.88000      4.0438928E-09
   14.94000      5.1695466E-09
   15.00000      6.1429328E-09
   15.06000      6.8915904E-09
   15.12000      7.3413133E-09
   15.18000      7.4284698E-09
   15.24000      7.1142323E-09
   15.30000      6.3965784E-09
   15.36000      5.3160853E-09
   15.42000      3.9530224E-09
   15.48000      2.4157130E-09
   15.54000      8.2279067E-10
   15.60000     -7.1605100E-10
   15.66000     -2.1156792E-09
   15.72000     -3.3234908E-09
   15.78000     -4.3181849E-09
   15.84000     -5.1007985E-09
   15.90000     -5.6819283E-09
   15.96000     -6.0701240E-09
   16.02000     -6.2656587E-09
   16.08000     -6.2616117E-09
   16.14000     -6.0511978E-09
   16.20000     -5.6377960E-09
   16.26000     -5.0430087E-09
   16.32000     -4.3088146E-09
   16.38000     -3.4921885E-09
   16.44000     -2.6535145E-09
   16.50000     -1.8426954E-09
   16.56000     -1.0879858E-09
   16.62000     -3.9186307E-10
   16.68000      2.6409180E-10
   16.74000      9.0649854E-10
   16.80000      1.5537214E-09
   16.86000      2.2012470E-09
   16.92000      2.8141409E-09
   16.98000      3.3296637E-09
   17.04000      3.6698282E-09
   17.10000      3.7603920E-09
   17.16000      3.5505392E-09
   17.22000      3.0271694E-09
   17.28000      2.2193469E-09
   17.34000      1.1915904E-09
   17.40000      2.8231461E-11
   17.46000     -1.1861212E-09
   17.52000     -2.3838622E-09
   17.58000     -3.5241805E-09
   17.64000     -4.5927564E-09
   17.70000     -5.5921858E-09
   17.76000     -6.5270087E-09
   17.82000     -7.3889472E-09
   17.88000     -8.1477305E-09
   17.94000     -8.7509182E-09
   18.00000     -9.1330303E-09
   18.06000     -9.2311021E-09
   18.12000     -9.0016226E-09
   18.18000     -8.4332505E-09
   18.24000     -7.5510460E-09
   18.30000     -6.4107226E-09
   18.36000     -5.0846594E-09
   18.42000     -3.6441481E-09
   18.48000     -2.1435522E-09
   18.54000     -6.1138550E-10
   18.60000      9.4909980E-10
   18.66000      2.5505036E-09
   18.72000      4.2067372E-09
   18.78000      5.9187535E-09
   18.84000      7.6656379E-09
   18.90000      9.4041042E-09
   18.96000      1.1076330E-08
   19.02000      1.2623082E-08
   19.08000      1.3997423E-08
   19.14000      1.5174319E-08
   19.20000      1.6153214E-08
   19.26000      1.6953303E-08
   19.32000      1.7603668E-08
   19.38000      1.8131981E-08
   19.44000      1.8555539E-08
   19.50000      1.8877097E-08
   19.56000      1.9086274E-08
   19.62000      1.9165343E-08
   19.68000      1.9097131E-08
   19.74000      1.8872491E-08
   19.80000      1.8495237E-08
   19.86000      1.7983551E-08
   19.92000      1.7367940E-08
   19.98000      1.6686810E-08
   20.04000      1.5981220E-08
   20.10000      1.5290411E-08
   20.16000      1.4649245E-08
   20.22000      1.4087813E-08
   20.28000      1.3632550E-08
   20.34000      1.3307587E-08
   20.40000      1.3134808E-08
   20.46000      1.3131757E-08
   20.52000      1.3307519E-08
   20.58000      1.3657956E-08
   20.64000      1.4162405E-08
   20.70000      1.4783805E-08
   20.76000      1.5473155E-08
   20.82000      1.6177500E-08
   20.88000      1.6849082E-08
   20.94000      1.7452559E-08
   21.00000      1.7967750E-08
   21.06000      1.8386965E-08
   21.12000      1.8708304E-08
   21.18000      1.8927878E-08
   21.24000      1.9034523E-08
   21.30000      1.9009548E-08
   21.36000      1.8832038E-08
   21.42000      1.8487855E-08
   21.48000      1.7978859E-08
   21.54000      1.7328716E-08
   21.60000      1.6582732E-08
   21.66000      1.5801433E-08
   21.72000      1.5049743E-08
   21.78000      1.4385098E-08
   21.84000      1.3848047E-08
   21.90000      1.3457823E-08
   21.96000      1.3213562E-08
   22.02000      1.3099924E-08
   22.08000      1.3094551E-08
   22.14000      1.3174465E-08
   22.20000      1.3319202E-08
   22.26000      1.3509967E-08
   22.32000      1.3725703E-08
   22.38000      1.3938250E-08
   22.44000      1.4109248E-08
   22.50000      1.4190745E-08
   22.56000      1.4130142E-08
   22.62000      1.3878314E-08
   22.68000      1.3398411E-08
   22.74000      1.2672360E-08
   22.80000      1.1702828E-08
   22.86000      1.0509951E-08
   22.92000      9.1240233E-09
   22.98000      7.5767099E-09
   23.04000      5.8937002E-09
   23.10000      4.0908832E-09
   23.16000      2.1746043E-09
   23.22000      1.4496158E-10
   23.28000     -1.9998350E-09
   23.34000     -4.2599755E-09
   23.40000     -6.6324550E-09
   23.46000     -9.1111501E-09
   23.52000     -1.1687421E-08
   23.58000     -1.4349891E-08
   23.64000     -1.7082684E-08
   23.70000     -1.9862414E-08
   23.76000     -2.2655170E-08
   23.82000     -2.5415140E-08
   23.88000     -2.8086118E-08
   23.94000     -3.0606184E-08
   24.00000     -3.2914748E-08
   24.06000     -3.4960305E-08
   24.12000     -3.6707039E-08
   24.18000     -3.8138751E-08
   24.24000     -3.9259515E-08
   24.30000     -4.0091329E-08
   24.36000     -4.0669658E-08
   24.42000     -4.1038163E-08
   24.48000     -4.1243570E-08
   24.54000     -4.1331326E-08
   24.60000     -4.1342183E-08
   24.66000     -4.1309718E-08
   24.72000     -4.1258648E-08
   24.78000     -4.1204057E-08
   24.84000     -4.1151765E-08
   24.90000     -4.1099906E-08
   24.96000     -4.1041563E-08
   25.02000     -4.0967837E-08
   25.08000     -4.0870393E-08
   25.14000     -4.0742616E-08
   25.20000     -4.0578968E-08
   25.26000     -4.0372854E-08
   25.32000     -4.0114156E-08
   25.38000     -3.9787874E-08
   25.44000     -3.9375053E-08
   25.50000     -3.8856371E-08
   25.56000     -3.8217607E-08
   25.62000     -3.7455280E-08
   25.68000     -3.6580374E-08
   25.74000     -3.5618644E-08
   25.80000     -3.4607080E-08
   25.86000     -3.3587572E-08
   25.92000     -3.2599743E-08
   25.98000     -3.1675395E-08
   26.04000     -3.0836119E-08
   26.10000     -3.0094522E-08
   26.16000     -2.9457839E-08
   26.22000     -2.8931815E-08
   26.28000     -2.8522594E-08
   26.34000     -2.8235347E-08
   26.40000     -2.8069911E-08
   26.46000     -2.8015378E-08
   26.52000     -2.8046392E-08
   26.58000     -2.8123615E-08
   26.64000     -2.8199334E-08
   26.70000     -2.8227158E-08
   26.76000     -2.8172858E-08
   26.82000     -2.8022631E-08
   26.88000     -2.7785669E-08
   26.94000     -2.7489850E-08
   27.00000     -2.7171833E-08
   27.06000     -2.6865012E-08
   27.12000     -2.6589650E-08
   27.18000     -2.6348840E-08
   27.24000     -2.6131806E-08
   27.30000     -2.5923287E-08
   27.36000     -2.5715329E-08
   27.42000     -2.5516711E-08
   27.48000     -2.5355909E-08
   27.54000     -2.5275877E-08
   27.60000     -2.5321922E-08
   27.66000     -2.5526806E-08
   27.72000     -2.5898437E-08
   27.78000     -2.6414769E-08
   27.84000     -2.7027923E-08
   27.90000     -2.7676116E-08
   27.96000     -2.8298974E-08
   28.02000     -2.8850627E-08
   28.08000     -2.9305843E-08
   28.14000     -2.9657345E-08
   28.20000     -2.9905920E-08
   28.26000     -3.0047623E-08
   28.32000     -3.0063443E-08
   28.38000     -2.9915547E-08
   28.44000     -2.9551584E-08
   28.50000     -2.8915537E-08
   28.56000     -2.7961292E-08
   28.62000     -2.6664431E-08
   28.68000     -2.5028706E-08
   28.74000     -2.3085656E-08
   28.80000     -2.0888086E-08
   28.86000     -1.8499945E-08
   28.92000     -1.5985833E-08
   28.98000     -1.3403093E-08
   29.04000     -1.0798278E-08
   29.10000     -8.2082909E-09
   29.16000     -5.6650449E-09
   29.22000     -3.2014673E-09
   29.28000     -8.5642105E-10
   29.34000      1.3235019E-09
   29.40000      3.2862428E-09
   29.46000      4.9802127E-09
   29.52000      6.3622858E-09
   29.58000      7.4055331E-09
   29.64000      8.1044691E-09
   29.70000      8.4763876E-09
   29.76000      8.5586640E-09
   29.82000      8.4031075E-09
   29.88000      8.0692804E-09
   29.94000      7.6186781E-09
   30.00000      7.1109452E-09
   30.06000      6.6022481E-09
   30.12000      6.1448868E-09
   30.18000      5.7868221E-09
   30.24000      5.5700444E-09
   30.30000      5.5275935E-09
   30.36000      5.6800058E-09
   30.42000      6.0326464E-09
   30.48000      6.5753549E-09
   30.54000      7.2851143E-09
   30.60000      8.1313827E-09
   30.66000      9.0827132E-09
   30.72000      1.0112791E-08
   30.78000      1.1204215E-08
   30.84000      1.2349160E-08
   30.90000      1.3547075E-08
   30.96000      1.4800532E-08
   31.02000      1.6110791E-08
   31.08000      1.7474662E-08
   31.14000      1.8883663E-08
   31.20000      2.0325748E-08
   31.26000      2.1788980E-08
   31.32000      2.3265882E-08
   31.38000      2.4756879E-08
   31.44000      2.6271346E-08
   31.50000      2.7825411E-08
   31.56000      2.9436638E-08
   31.62000      3.1116763E-08
   31.68000      3.2864666E-08
   31.74000      3.4661976E-08
   31.80000      3.6473207E-08
   31.86000      3.8251084E-08
   31.92000      3.9945935E-08
   31.98000      4.1516316E-08
   32.04000      4.2937355E-08
   32.10000      4.4203670E-08
   32.16000      4.5325496E-08
   32.22000      4.6319155E-08
   32.28000      4.7195204E-08
   32.34000      4.7948991E-08
   32.40000      4.8557382E-08
   32.46000      4.8983541E-08
   32.52000      4.9188163E-08
   32.58000      4.9143189E-08
   32.64000      4.8842665E-08
   32.70000      4.8306543E-08
   32.76000      4.7575906E-08
   32.82000      4.6701352E-08
   32.88000      4.5728971E-08
   32.94000      4.4689006E-08
   33.00000      4.3591115E-08
   33.06000      4.2427335E-08
   33.12000      4.1181078E-08
   33.18000      3.9838266E-08
   33.24000      3.8396497E-08
   33.30000      3.6869146E-08
   33.36000      3.5283524E-08
   33.42000      3.3674251E-08
   33.48000      3.2074514E-08
   33.54000      3.0508065E-08
   33.60000      2.8984269E-08
   33.66000      2.7497160E-08
   33.72000      2.6028355E-08
   33.78000      2.4552481E-08
   33.84000      2.3043503E-08
   33.90000      2.1480293E-08
   33.96000      1.9850308E-08
   34.02000      1.8150892E-08
   34.08000      1.6388450E-08
   34.14000      1.4576221E-08
   34.20000      1.2731674E-08
   34.26000      1.0874349E-08
   34.32000      9.0246131E-09
   34.38000      7.2032535E-09
   34.44000      5.4313851E-09
   34.50000      3.7300478E-09
   34.56000      2.1190634E-09
   34.62000      6.1518263E-10
   34.68000     -7.6998036E-10
   34.74000     -2.0314970E-09
   34.80000     -3.1715646E-09
   34.86000     -4.1987112E-09
   34.92000     -5.1261768E-09
   34.98000     -5.9701870E-09
   35.04000     -6.7487522E-09
   35.10000     -7.4811206E-09
   35.16000     -8.1874578E-09
   35.22000     -8.8879712E-09
   35.28000     -9.6009396E-09
   35.34000     -1.0339787E-08
   35.40000     -1.1110137E-08
   35.46000     -1.1908238E-08
   35.52000     -1.2721820E-08
   35.58000     -1.3533451E-08
   35.64000     -1.4325253E-08
   35.70000     -1.5083094E-08
   35.76000     -1.5798514E-08
   35.82000     -1.6467812E-08
   35.88000     -1.7089201E-08
   35.94000     -1.7659943E-08
   36.00000     -1.8175415E-08
   36.06000     -1.8630868E-08
   36.12000     -1.9025009E-08
   36.18000     -1.9363402E-08
   36.24000     -1.9659543E-08
   36.30000     -1.9932786E-08
   36.36000     -2.0203945E-08
   36.42000     -2.0490795E-08
   36.48000     -2.0805674E-08
   36.54000     -2.1156181E-08
   36.60000     -2.1548107E-08
   36.66000     -2.1988301E-08
   36.72000     -2.2485201E-08
   36.78000     -2.3046114E-08
   36.84000     -2.3672429E-08
   36.90000     -2.4355515E-08
   36.96000     -2.5076144E-08
   37.02000     -2.5808697E-08
   37.08000     -2.6529012E-08
   37.14000     -2.7222505E-08
   37.20000     -2.7888778E-08
   37.26000     -2.8540155E-08
   37.32000     -2.9194378E-08
   37.38000     -2.9864530E-08
   37.44000     -3.0550687E-08
   37.50000     -3.1237384E-08
   37.56000     -3.1898480E-08
   37.62000     -3.2507856E-08
   37.68000     -3.3051638E-08
   37.74000     -3.3536885E-08
   37.80000     -3.3992940E-08
   37.86000     -3.4464435E-08
   37.92000     -3.4998340E-08
   37.98000     -3.5629601E-08
   38.04000     -3.6370512E-08
   38.10000     -3.7207425E-08
   38.16000     -3.8105714E-08
   38.22000     -3.9020946E-08
   38.28000     -3.9912262E-08
   38.34000     -4.0753587E-08
   38.40000     -4.1539227E-08
   38.46000     -4.2282643E-08
   38.52000     -4.3009315E-08
   38.58000     -4.3746336E-08
   38.64000     -4.4511964E-08
   38.70000     -4.5308063E-08
   38.76000     -4.6117304E-08
   38.82000     -4.6905686E-08
   38.88000     -4.7629563E-08
   38.94000     -4.8245365E-08
   39.00000     -4.8719610E-08
   39.06000     -4.9036572E-08
   39.12000     -4.9201500E-08
   39.18000     -4.9238285E-08
   39.24000     -4.9181949E-08
   39.30000     -4.9067989E-08
   39.36000     -4.8921724E-08
   39.42000     -4.8751271E-08
   39.48000     -4.8546656E-08
   39.54000     -4.8285703E-08
   39.60000     -4.7944912E-08
   39.66000     -4.7511591E-08
   39.72000     -4.6992877E-08
   39.78000     -4.6418272E-08
   39.84000     -4.5834557E-08
   39.90000     -4.5294634E-08
   39.96000     -4.4843993E-08
   40.02000     -4.4509108E-08
   40.08000     -4.4291347E-08
   40.14000     -4.4168022E-08
   40.20000     -4.4099934E-08
   40.26000     -4.4042910E-08
   40.32000     -4.3960011E-08
   40.38000     -4.3831076E-08
   40.44000     -4.3657089E-08
   40.50000     -4.3458336E-08
   40.56000     -4.3266905E-08
   40.62000     -4.3115630E-08
   40.68000     -4.3026951E-08
   40.74000     -4.3005389E-08
   40.80000     -4.3036557E-08
   40.86000     -4.3093582E-08
   40.92000     -4.3149047E-08
   40.98000     -4.3188255E-08
   41.04000     -4.3218400E-08
   41.10000     -4.3269523E-08
   41.16000     -4.3385928E-08
   41.22000     -4.3610587E-08
   41.28000     -4.3968232E-08
   41.34000     -4.4453564E-08
   41.40000     -4.5029530E-08
   41.46000     -4.5636600E-08
   41.52000     -4.6209784E-08
   41.58000     -4.6696897E-08
   41.64000     -4.7071143E-08
   41.70000     -4.7333280E-08
   41.76000     -4.7502851E-08
   41.82000     -4.7602313E-08
   41.88000     -4.7640651E-08
   41.94000     -4.7603130E-08
   42.00000     -4.7451167E-08
   42.06000     -4.7132126E-08
   42.12000     -4.6594906E-08
   42.18000     -4.5805034E-08
   42.24000     -4.4753669E-08
   42.30000     -4.3457629E-08
   42.36000     -4.1951477E-08
   42.42000     -4.0275619E-08
   42.48000     -3.8465320E-08
   42.54000     -3.6544407E-08
   42.60000     -3.4524671E-08
   42.66000     -3.2409446E-08
   42.72000     -3.0198525E-08
   42.78000     -2.7891772E-08
   42.84000     -2.5490658E-08
   42.90000     -2.2998298E-08
   42.96000     -2.0419646E-08
   43.02000     -1.7762872E-08
   43.08000     -1.5041696E-08
   43.14000     -1.2277196E-08
   43.20000     -9.4973398E-09
   43.26000     -6.7333072E-09
   43.32000     -4.0134176E-09
   43.38000     -1.3569268E-09
   43.44000      1.2295385E-09
   43.50000      3.7509724E-09
   43.56000      6.2183600E-09
   43.62000      8.6404004E-09
   43.68000      1.1015846E-08
   43.74000      1.3329635E-08
   43.80000      1.5554587E-08
   43.86000      1.7658222E-08
   43.92000      1.9612225E-08
   43.98000      2.1400949E-08
   44.04000      2.3025647E-08
   44.10000      2.4502755E-08
   44.16000      2.5856762E-08
   44.22000      2.7110326E-08
   44.28000      2.8275284E-08
   44.34000      2.9347840E-08
   44.40000      3.0309472E-08
   44.46000      3.1133023E-08
   44.52000      3.1791352E-08
   44.58000      3.2265309E-08
   44.64000      3.2548190E-08
   44.70000      3.2645548E-08
   44.76000      3.2571180E-08
   44.82000      3.2341482E-08
   44.88000      3.1970892E-08
   44.94000      3.1470154E-08
   45.00000      3.0847804E-08
   45.06000      3.0113441E-08
   45.12000      2.9280704E-08
   45.18000      2.8367987E-08
   45.24000      2.7396187E-08
   45.30000      2.6384509E-08
   45.36000      2.5346534E-08
   45.42000      2.4288914E-08
   45.48000      2.3213941E-08
   45.54000      2.2125240E-08
   45.60000      2.1034113E-08
   45.66000      1.9963419E-08
   45.72000      1.8946912E-08
   45.78000      1.8024148E-08
   45.84000      1.7233551E-08
   45.90000      1.6607460E-08
   45.96000      1.6172379E-08
   46.02000      1.5955287E-08
   46.08000      1.5993935E-08
   46.14000      1.6346828E-08
   46.20000      1.7098632E-08
   46.26000      1.8358609E-08
   46.32000      2.0253083E-08
   46.38000      2.2915890E-08
   46.44000      2.6482088E-08
   46.50000      3.1089325E-08
   46.56000      3.6888377E-08
   46.62000      4.4061036E-08
   46.68000      5.2840786E-08
   46.74000      6.3531054E-08
   46.80000      7.6517168E-08
   46.86000      9.2271158E-08
   46.92000      1.1135197E-07
   46.98000      1.3440588E-07
   47.04000      1.6217250E-07
   47.10000      1.9550012E-07
   47.16000      2.3537096E-07
   47.22000      2.8293360E-07
   47.28000      3.3953810E-07
   47.34000      4.0676889E-07
   47.40000      4.8647325E-07
   47.46000      5.8078598E-07
   47.52000      6.9215423E-07
   47.58000      8.2336811E-07
   47.64000      9.7760130E-07
   47.70000      1.1584648E-06
   47.76000      1.3700716E-06
   47.82000      1.6171097E-06
   47.88000      1.9049188E-06
   47.94000      2.2395650E-06
   48.00000      2.6279140E-06
   48.06000      3.0777046E-06
   48.12000      3.5976248E-06
   48.18000      4.1973967E-06
   48.24000      4.8878746E-06
   48.30000      5.6811514E-06
   48.36000      6.5906784E-06
   48.42000      7.6313863E-06
   48.48000      8.8198058E-06
   48.54000      1.0174185E-05
   48.60000      1.1714602E-05
   48.66000      1.3463076E-05
   48.72000      1.5443688E-05
   48.78000      1.7682696E-05
   48.84000      2.0208669E-05
   48.90000      2.3052606E-05
   48.96000      2.6248055E-05
   49.02000      2.9831212E-05
   49.08000      3.3841006E-05
   49.14000      3.8319147E-05
   49.20000      4.3310178E-05
   49.26000      4.8861471E-05
   49.32000      5.5023243E-05
   49.38000      6.1848528E-05
   49.44000      6.9393151E-05
   49.50000      7.7715660E-05
   49.56000      8.6877240E-05
   49.62000      9.6941563E-05
   49.68000      1.0797462E-04
   49.74000      1.2004444E-04
   49.80000      1.3322086E-04
   49.86000      1.4757511E-04
   49.92000      1.6317956E-04
   49.98000      1.8010719E-04
   50.04000      1.9843127E-04
   50.10000      2.1822471E-04
   50.16000      2.3955965E-04
   50.22000      2.6250680E-04
   50.28000      2.8713478E-04
   50.34000      3.1350958E-04
   50.40000      3.4169361E-04
   50.46000      3.7174532E-04
   50.52000      4.0371818E-04
   50.58000      4.3766003E-04
   50.64000      4.7361231E-04
   50.70000      5.1160943E-04
   50.76000      5.5167789E-04
   50.82000      5.9383543E-04
   50.88000      6.3809071E-04
   50.94000      6.8444241E-04
   51.00000      7.3287875E-04
   51.06000      7.8337704E-04
   51.12000      8.3590299E-04
   51.18000      8.9041068E-04
   51.24000      9.4684219E-04
   51.30000      1.0051272E-03
   51.36000      1.0651837E-03
   51.42000      1.1269168E-03
   51.48000      1.1902206E-03
   51.54000      1.2549771E-03
   51.60000      1.3210576E-03
   51.66000      1.3883228E-03
   51.72000      1.4566244E-03
   51.78000      1.5258049E-03
   51.84000      1.5956991E-03
   51.90000      1.6661359E-03
   51.96000      1.7369380E-03
   52.02000      1.8079253E-03
   52.08000      1.8789147E-03
   52.14000      1.9497223E-03
   52.20000      2.0201651E-03
   52.26000      2.0900625E-03
   52.32000      2.1592379E-03
   52.38000      2.2275199E-03
   52.44000      2.2947444E-03
   52.50000      2.3607570E-03
   52.56000      2.4254124E-03
   52.62000      2.4885775E-03
   52.68000      2.5501326E-03
   52.74000      2.6099705E-03
   52.80000      2.6680010E-03
   52.86000      2.7241497E-03
   52.92000      2.7783581E-03
   52.98000      2.8305855E-03
   53.04000      2.8808087E-03
   53.10000      2.9290211E-03
   53.16000      2.9752329E-03
   53.22000      3.0194717E-03
   53.28000      3.0617805E-03
   53.34000      3.1022183E-03
   53.40000      3.1408581E-03
   53.46000      3.1777858E-03
   53.52000      3.2130990E-03
   53.58000      3.2469044E-03
   53.64000      3.2793172E-03
   53.70000      3.3104590E-03
   53.76000      3.3404550E-03
   53.82000      3.3694329E-03
   53.88000      3.3975211E-03
   53.94000      3.4248454E-03
   54.00000      3.4515283E-03
   54.06000      3.4776861E-03
   54.12000      3.5034269E-03
   54.18000      3.5288502E-03
   54.24000      3.5540436E-03
   54.30000      3.5790822E-03
   54.36000      3.6040272E-03
   54.42000      3.6289254E-03
   54.48000      3.6538071E-03
   54.54000      3.6786869E-03
   54.60000      3.7035621E-03
   54.66000      3.7284142E-03
   54.72000      3.7532079E-03
   54.78000      3.7778916E-03
   54.84000      3.8023992E-03
   54.90000      3.8266496E-03
   54.96000      3.8505490E-03
   55.02000      3.8739911E-03
   55.08000      3.8968609E-03
   55.14000      3.9190347E-03
   55.20000      3.9403820E-03
   55.26000      3.9607692E-03
   55.32000      3.9800601E-03
   55.38000      3.9981175E-03
   55.44000      4.0148078E-03
   55.50000      4.0299995E-03
   55.56000      4.0435698E-03