  -2.400000      0.0000000E+00
  -2.340000      0.0000000E+00
  -2.280000      0.0000000E+00
  -2.220000      0.0000000E+00
  -2.160000      0.0000000E+00
  -2.100000      0.0000000E+00
  -2.040000      0.0000000E+00
  -1.980000      0.0000000E+00
  -1.920000      0.0000000E+00
  -1.860000      1.5565670E-29
  -1.800000      1.2154414E-28
  -1.740000      2.7220100E-28
  -1.680000     -7.3907003E-28
  -1.620000     -5.7670019E-27
  -1.560000     -9.3239985E-27
  -1.500000      3.8560861E-26
  -1.440000      2.6454103E-25
  -1.380000      6.9869943E-25
  -1.320000      4.4825497E-25
  -1.260000     -4.0835499E-24
  -1.200000     -2.0714099E-23
  -1.140000     -5.7916565E-23
  -1.080000     -1.0745105E-22
  -1.020000     -1.0699604E-22
 -0.9600000      1.0363079E-22
 -0.9000000      7.7636303E-22
 -0.8400000      2.0948307E-21
 -0.7800000      3.7614806E-21
 -0.7200000      4.3785691E-21
 -0.6600000      1.0080595E-21
 -0.6000000     -1.0272044E-20
 -0.5400000     -3.1820113E-20
 -0.4800000     -5.9526534E-20
 -0.4200000     -7.7049561E-20
 -0.3600000     -5.3498798E-20
 -0.3000000      4.8910039E-20
 -0.2400000      2.5180828E-19
 -0.1800000      5.2388890E-19
 -0.1200000      7.4521710E-19
 -5.9999999E-02  7.0181767E-19
  0.0000000E+00  1.4466373E-19
  5.9999999E-02 -1.0698003E-18
  0.1200000     -2.7854815E-18
  0.1800000     -4.3892792E-18
  0.2400000     -4.8290295E-18
  0.3000000     -2.9323834E-18
  0.3600000      1.9581144E-18
  0.4200000      9.2197435E-18
  0.4800000      1.6456866E-17
  0.5400000      1.9778125E-17
  0.6000000      1.5168368E-17
  0.6600000      7.8241768E-19
  0.7200000     -2.0711400E-17
  0.7800000     -4.1176971E-17
  0.8400000     -4.8869960E-17
  0.9000000     -3.3601549E-17
  0.9600000      6.1012954E-18
   1.020000      5.7168007E-17
   1.080000      9.1917163E-17
   1.140000      7.7144684E-17
   1.200000     -7.9573567E-18
   1.260000     -1.5098548E-16
   1.320000     -2.9366267E-16
   1.380000     -3.3964867E-16
   1.440000     -1.8975433E-16
   1.500000      2.0085809E-16
   1.560000      7.6457826E-16
   1.620000      1.2950148E-15
   1.680000      1.4838414E-15
   1.740000      1.0326127E-15
   1.800000     -1.8439052E-16
   1.860000     -1.9695303E-15
   1.920000     -3.7492677E-15
   1.980000     -4.6914876E-15
   2.040000     -4.0053672E-15
   2.100000     -1.3454221E-15
   2.160000      2.8453931E-15
   2.220000      7.2525087E-15
   2.280000      1.0007356E-14
   2.340000      9.3924112E-15
   2.400000      4.7162032E-15
   2.460000     -3.0231544E-15
   2.520000     -1.1090592E-14
   2.580000     -1.5809660E-14
   2.640000     -1.4074486E-14
   2.700000     -5.0490469E-15
   2.760000      8.7349731E-15
   2.820000      2.1610792E-14
   2.880000      2.6624649E-14
   2.940000      1.8569188E-14
   3.000000     -2.9333206E-15
   3.060000     -3.1775662E-14
   3.120000     -5.6331333E-14
   3.180000     -6.3299755E-14
   3.240000     -4.3394304E-14
   3.300000      3.2890980E-15
   3.360000      6.4767121E-14
   3.420000      1.1936299E-13
   3.480000      1.4271880E-13
   3.540000      1.1759689E-13
   3.600000      4.2749746E-14
   3.660000     -6.3230630E-14
   3.720000     -1.6578239E-13
   3.780000     -2.2578199E-13
   3.840000     -2.1494361E-13
   3.900000     -1.2922402E-13
   3.960000      5.9830113E-15
   4.020000      1.4256646E-13
   4.080000      2.2738070E-13
   4.140000      2.2483744E-13
   4.200000      1.3503552E-13
   4.260000     -1.6125991E-15
   4.320000     -1.1777147E-13
   4.380000     -1.4764723E-13
   4.440000     -6.0069124E-14
   4.500000      1.1840039E-13
   4.560000      3.0313751E-13
   4.620000      3.7877495E-13
   4.680000      2.4743342E-13
   4.740000     -1.1950075E-13
   4.800000     -6.4818214E-13
   4.860000     -1.1657045E-12
   4.920000     -1.4456136E-12
   4.980000     -1.2844855E-12
   5.040000     -5.8442921E-13
   5.100000      5.8906184E-13
   5.160000      1.9981985E-12
   5.220000      3.2808825E-12
   5.280000      4.0431382E-12
   5.340000      3.9670585E-12
   5.400000      2.8994836E-12
   5.460000      8.9399874E-13
   5.520000     -1.8034192E-12
   5.580000     -4.8136499E-12
   5.640000     -7.7012311E-12
   5.700000     -1.0037178E-11
   5.760000     -1.1425800E-11
   5.820000     -1.1493129E-11
   5.880000     -9.8570631E-12
   5.940000     -6.1154970E-12
   6.000000      1.0806325E-13
   6.060000      9.0350401E-12
   6.120000      2.0519343E-11
   6.180000      3.3788146E-11
   6.240000      4.7206353E-11
   6.300000      5.8158613E-11
   6.360000      6.3146183E-11
   6.420000      5.8173629E-11
   6.480000      3.9450637E-11
   6.540000      4.3618230E-12
   6.600000     -4.7425775E-11
   6.660000     -1.1292430E-10
   6.720000     -1.8511141E-10
   6.780000     -2.5280000E-10
   6.840000     -3.0129590E-10
   6.900000     -3.1394068E-10
   6.960000     -2.7448932E-10
   7.020000     -1.7011552E-10
   7.080000      5.3030653E-12
   7.140000      2.4805916E-10
   7.200000      5.4211940E-10
   7.260000      8.5768942E-10
   7.320000      1.1511748E-09
   7.380000      1.3667355E-09
   7.440000      1.4394638E-09
   7.500000      1.3000535E-09
   7.560000      8.8066787E-10
   7.620000      1.2158431E-10
   7.680000     -1.0219080E-09
   7.740000     -2.5729505E-09
   7.800000     -4.5275264E-09
   7.860000     -6.8504797E-09
   7.920000     -9.4737480E-09
   7.980000     -1.2297360E-08
   8.040000     -1.5193582E-08
   8.100000     -1.8014422E-08
   8.160000     -2.0602267E-08
   8.220000     -2.2803121E-08
   8.280000     -2.4481272E-08
   8.340000     -2.5533870E-08
   8.400000     -2.5903498E-08
   8.460000     -2.5586795E-08
   8.520000     -2.4637492E-08
   8.580000     -2.3162757E-08
   8.640000     -2.1312838E-08
   8.700000     -1.9264876E-08
   8.760000     -1.7202940E-08
   8.820000     -1.5296948E-08
   8.880000     -1.3683548E-08
   8.940000     -1.2451707E-08
   9.000000     -1.1635117E-08
   9.060000     -1.1212339E-08
   9.120000     -1.1114348E-08
   9.180000     -1.1237944E-08
   9.240000     -1.1462641E-08
   9.300000     -1.1668258E-08
   9.360000     -1.1750671E-08
   9.420000     -1.1633742E-08
   9.480000     -1.1276452E-08
   9.540000     -1.0675087E-08
   9.600000     -9.8611475E-09
   9.660000     -8.8959560E-09
   9.720000     -7.8630178E-09
   9.780000     -6.8589290E-09
   9.840000     -5.9833667E-09
   9.900000     -5.3285305E-09
   9.960000     -4.9685074E-09
   10.02000     -4.9493716E-09
   10.08000     -5.2812830E-09
   10.14000     -5.9341683E-09
   10.20000     -6.8385373E-09
   10.26000     -7.8924396E-09
   10.32000     -8.9744994E-09
   10.38000     -9.9615773E-09
   10.44000     -1.0748272E-08
   10.50000     -1.1264544E-08
   10.56000     -1.1487643E-08
   10.62000     -1.1445422E-08
   10.68000     -1.1209819E-08
   10.74000     -1.0881544E-08
   10.80000     -1.0569164E-08
   10.86000     -1.0367217E-08
   10.92000     -1.0338331E-08
   10.98000     -1.0503342E-08
   11.04000     -1.0841360E-08
   11.10000     -1.1299194E-08
   11.16000     -1.1807160E-08
   11.22000     -1.2296749E-08
   11.28000     -1.2715459E-08
   11.34000     -1.3035083E-08
   11.40000     -1.3251904E-08
   11.46000     -1.3379657E-08
   11.52000     -1.3438241E-08
   11.58000     -1.3442263E-08
   11.64000     -1.3393376E-08
   11.70000     -1.3278954E-08
   11.76000     -1.3077499E-08
   11.82000     -1.2768894E-08
   11.88000     -1.2345918E-08
   11.94000     -1.1822918E-08
   12.00000     -1.1238326E-08
   12.06000     -1.0649575E-08
   12.12000     -1.0121382E-08
   12.18000     -9.7105017E-09
   12.24000     -9.4512931E-09
   12.30000     -9.3463282E-09
   12.36000     -9.3648902E-09
   12.42000     -9.4499217E-09
   12.48000     -9.5315738E-09
   12.54000     -9.5436370E-09
   12.60000     -9.4384065E-09
   12.66000     -9.1961070E-09
   12.72000     -8.8266754E-09
   12.78000     -8.3639176E-09
   12.84000     -7.8542080E-09
   12.90000     -7.3432802E-09
   12.96000     -6.8649952E-09
   13.02000     -6.4351378E-09
   13.08000     -6.0516263E-09
   13.14000     -5.7005143E-09
   13.20000     -5.3654046E-09
   13.26000     -5.0369247E-09
   13.32000     -4.7189945E-09
   13.38000     -4.4297357E-09
   13.44000     -4.1966666E-09
   13.50000     -4.0477852E-09
   13.56000     -4.0015915E-09
   13.62000     -4.0595718E-09
   13.68000     -4.2039736E-09
   13.74000     -4.4019890E-09
   13.80000     -4.6153144E-09
   13.86000     -4.8121640E-09
   13.92000     -4.9777809E-09
   13.98000     -5.1198521E-09
   14.04000     -5.2667306E-09
   14.10000     -5.4586953E-09
   14.16000     -5.7347660E-09
   14.22000     -6.1191217E-09
   14.28000     -6.6114065E-09
   14.34000     -7.1841058E-09
   14.40000     -7.7880316E-09
   14.46000     -8.3645437E-09
   14.52000     -8.8611056E-09
   14.58000     -9.2458414E-09
   14.64000     -9.5170254E-09
   14.70000     -9.7049275E-09
   14.76000     -9.8655608E-09
   14.82000     -1.0068111E-08
   14.88000     -1.0379520E-08
   14.94000     -1.0850431E-08
   15.00000     -1.1506202E-08
   15.06000     -1.2345245E-08
   15.12000     -1.3344675E-08
   15.18000     -1.4471051E-08
   15.24000     -1.5692297E-08
   15.30000     -1.6986434E-08
   15.36000     -1.8343663E-08
   15.42000     -1.9760620E-08
   15.48000     -2.1228381E-08
   15.54000     -2.2718430E-08
   15.60000     -2.4172124E-08
   15.66000     -2.5498638E-08
   15.72000     -2.6584100E-08
   15.78000     -2.7311019E-08
   15.84000     -2.7583436E-08
   15.90000     -2.7350818E-08
   15.96000     -2.6623335E-08
   16.02000     -2.5473163E-08
   16.08000     -2.4020434E-08
   16.14000     -2.2406795E-08
   16.20000     -2.0763441E-08
   16.26000     -1.9181996E-08
   16.32000     -1.7695935E-08
   16.38000     -1.6277005E-08
   16.44000     -1.4846791E-08
   16.50000     -1.3299323E-08
   16.56000     -1.1527762E-08
   16.62000     -9.4477119E-09
   16.68000     -7.0113111E-09
   16.74000     -4.2096580E-09
   16.80000     -1.0649287E-09
   16.86000      2.3833606E-09
   16.92000      6.0920349E-09
   16.98000      1.0022575E-08
   17.04000      1.4141054E-08
   17.10000      1.8409969E-08
   17.16000      2.2775330E-08
   17.22000      2.7154394E-08
   17.28000      3.1429618E-08
   17.34000      3.5452800E-08
   17.40000      3.9060271E-08
   17.46000      4.2096687E-08
   17.52000      4.4441681E-08
   17.58000      4.6032653E-08
   17.64000      4.6877101E-08
   17.70000      4.7050619E-08
   17.76000      4.6680274E-08
   17.82000      4.5917037E-08
   17.88000      4.4903864E-08
   17.94000      4.3747235E-08
   18.00000      4.2499050E-08
   18.06000      4.1152774E-08
   18.12000      3.9654005E-08
   18.18000      3.7921875E-08
   18.24000      3.5875054E-08
   18.30000      3.3455489E-08
   18.36000      3.0644227E-08
   18.42000      2.7466299E-08
   18.48000      2.3984880E-08
   18.54000      2.0287750E-08
   18.60000      1.6470684E-08
   18.66000      1.2622521E-08
   18.72000      8.8154346E-09
   18.78000      5.1018381E-09
   18.84000      1.5171450E-09
   18.90000     -1.9140922E-09
   18.96000     -5.1718518E-09
   19.02000     -8.2369480E-09
   19.08000     -1.1091517E-08
   19.14000     -1.3723510E-08
   19.20000     -1.6133390E-08
   19.26000     -1.8340263E-08
   19.32000     -2.0384627E-08
   19.38000     -2.2325853E-08
   19.44000     -2.4234188E-08
   19.50000     -2.6178860E-08
   19.56000     -2.8215178E-08
   19.62000     -3.0374053E-08
   19.68000     -3.2656615E-08
   19.74000     -3.5035253E-08
   19.80000     -3.7460381E-08
   19.86000     -3.9870823E-08
   19.92000     -4.2204654E-08
   19.98000     -4.4407805E-08
   20.04000     -4.6438629E-08
   20.10000     -4.8268181E-08
   20.16000     -4.9877507E-08
   20.22000     -5.1253902E-08
   20.28000     -5.2388234E-08
   20.34000     -5.3274618E-08
   20.40000     -5.3912533E-08
   20.46000     -5.4310380E-08
   20.52000     -5.4488645E-08
   20.58000     -5.4480886E-08
   20.64000     -5.4331284E-08
   20.70000     -5.4088645E-08
   20.76000     -5.3797869E-08
   20.82000     -5.3491021E-08
   20.88000     -5.3180383E-08
   20.94000     -5.2855754E-08
   21.00000     -5.2487302E-08
   21.06000     -5.2033752E-08
   21.12000     -5.1454315E-08
   21.18000     -5.0721347E-08
   21.24000     -4.9830295E-08
   21.30000     -4.8803898E-08
   21.36000     -4.7688989E-08
   21.42000     -4.6546305E-08
   21.48000     -4.5435776E-08
   21.54000     -4.4401219E-08
   21.60000     -4.3458705E-08
   21.66000     -4.2591832E-08
   21.72000     -4.1755250E-08
   21.78000     -4.0885293E-08
   21.84000     -3.9914774E-08
   21.90000     -3.8787761E-08
   21.96000     -3.7470780E-08
   22.02000     -3.5957868E-08
   22.08000     -3.4269149E-08
   22.14000     -3.2444234E-08
   22.20000     -3.0533048E-08
   22.26000     -2.8587055E-08
   22.32000     -2.6653137E-08
   22.38000     -2.4771307E-08
   22.44000     -2.2975890E-08
   22.50000     -2.1298717E-08
   22.56000     -1.9772280E-08
   22.62000     -1.8430944E-08
   22.68000     -1.7309212E-08
   22.74000     -1.6437157E-08
   22.80000     -1.5834386E-08
   22.86000     -1.5504513E-08
   22.92000     -1.5432180E-08
   22.98000     -1.5583952E-08
   23.04000     -1.5913280E-08
   23.10000     -1.6368499E-08
   23.16000     -1.6901964E-08
   23.22000     -1.7478163E-08
   23.28000     -1.8078881E-08
   23.34000     -1.8704339E-08
   23.40000     -1.9370185E-08
   23.46000     -2.0101140E-08
   23.52000     -2.0922840E-08
   23.58000     -2.1853669E-08
   23.64000     -2.2898362E-08
   23.70000     -2.4044704E-08
   23.76000     -2.5263981E-08
   23.82000     -2.6515037E-08
   23.88000     -2.7751009E-08
   23.94000     -2.8927285E-08
   24.00000     -3.0009051E-08
   24.06000     -3.0976828E-08
   24.12000     -3.1828971E-08
   24.18000     -3.2580676E-08
   24.24000     -3.3259639E-08
   24.30000     -3.3899301E-08
   24.36000     -3.4530792E-08
   24.42000     -3.5175280E-08
   24.48000     -3.5838074E-08
   24.54000     -3.6505973E-08
   24.60000     -3.7148425E-08
   24.66000     -3.7722582E-08
   24.72000     -3.8181298E-08
   24.78000     -3.8482405E-08
   24.84000     -3.8597147E-08
   24.90000     -3.8515733E-08
   24.96000     -3.8248569E-08
   25.02000     -3.7822737E-08
   25.08000     -3.7274543E-08
   25.14000     -3.6639889E-08
   25.20000     -3.5944950E-08
   25.26000     -3.5199488E-08
   25.32000     -3.4394603E-08
   25.38000     -3.3505472E-08
   25.44000     -3.2498360E-08
   25.50000     -3.1339933E-08
   25.56000     -3.0006330E-08
   25.62000     -2.8489513E-08
   25.68000     -2.6799128E-08
   25.74000     -2.4959531E-08
   25.80000     -2.3003071E-08
   25.86000     -2.0961789E-08
   25.92000     -1.8860250E-08
   25.98000     -1.6711720E-08
   26.04000     -1.4518846E-08
   26.10000     -1.2278574E-08
   26.16000     -9.9896056E-09
   26.22000     -7.6599722E-09
   26.28000     -5.3122253E-09
   26.34000     -2.9845109E-09
   26.40000     -7.2703288E-10
   26.46000      1.4051509E-09
   26.52000      3.3609644E-09
   26.58000      5.1012332E-09
   26.64000      6.6034138E-09
   26.70000      7.8618578E-09
   26.76000      8.8837160E-09
   26.82000      9.6819743E-09
   26.88000      1.0268018E-08
   26.94000      1.0646222E-08
   27.00000      1.0812301E-08
   27.06000      1.0755768E-08
   27.12000      1.0465345E-08
   27.18000      9.9350803E-09
   27.24000      9.1686436E-09
   27.30000      8.1800131E-09
   27.36000      6.9901436E-09
   27.42000      5.6207647E-09
   27.48000      4.0876200E-09
   27.54000      2.3957527E-09
   27.60000      5.3877702E-10
   27.66000     -1.4973044E-09
   27.72000     -3.7267860E-09
   27.78000     -6.1557763E-09
   27.84000     -8.7753760E-09
   27.90000     -1.1558893E-08
   27.96000     -1.4464193E-08
   28.02000     -1.7440641E-08
   28.08000     -2.0438527E-08
   28.14000     -2.3418014E-08
   28.20000     -2.6354837E-08
   28.26000     -2.9240974E-08
   28.32000     -3.2080312E-08
   28.38000     -3.4880948E-08
   28.44000     -3.7646910E-08
   28.50000     -4.0372136E-08
   28.56000     -4.3038547E-08
   28.62000     -4.5618538E-08
   28.68000     -4.8080466E-08
   28.74000     -5.0394902E-08
   28.80000     -5.2539111E-08
   28.86000     -5.4498415E-08
   28.92000     -5.6264177E-08
   28.98000     -5.7829599E-08
   29.04000     -5.9185304E-08
   29.10000     -6.0316502E-08
   29.16000     -6.1202932E-08
   29.22000     -6.1821574E-08
   29.28000     -6.2151130E-08
   29.34000     -6.2176781E-08
   29.40000     -6.1893317E-08
   29.46000     -6.1305848E-08
   29.52000     -6.0427688E-08
   29.58000     -5.9276374E-08
   29.64000     -5.7869183E-08
   29.70000     -5.6219903E-08
   29.76000     -5.4338042E-08
   29.82000     -5.2230753E-08
   29.88000     -4.9906784E-08
   29.94000     -4.7380762E-08
   30.00000     -4.4676078E-08
   30.06000     -4.1824965E-08
   30.12000     -3.8865544E-08
   30.18000     -3.5836656E-08
   30.24000     -3.2772366E-08
   30.30000     -2.9698008E-08
   30.36000     -2.6629225E-08
   30.42000     -2.3574280E-08
   30.48000     -2.0538582E-08
   30.54000     -1.7529716E-08
   30.60000     -1.4560931E-08
   30.66000     -1.1651863E-08
   30.72000     -8.8262970E-09
   30.78000     -6.1080208E-09
   30.84000     -3.5165704E-09
   30.90000     -1.0647485E-09
   30.96000      1.2409498E-09
   31.02000      3.3970335E-09
   31.08000      5.3980744E-09
   31.14000      7.2321051E-09
   31.20000      8.8782999E-09
   31.26000      1.0308060E-08
   31.32000      1.1489352E-08
   31.38000      1.2392858E-08
   31.44000      1.2997772E-08
   31.50000      1.3295090E-08
   31.56000      1.3287190E-08
   31.62000      1.2983759E-08
   31.68000      1.2395541E-08
   31.74000      1.1528210E-08
   31.80000      1.0378747E-08
   31.86000      8.9359444E-09
   31.92000      7.1853492E-09
   31.98000      5.1173989E-09
   32.04000      2.7363689E-09
   32.10000      6.7177583E-11
   32.16000     -2.8425233E-09
   32.22000     -5.9263447E-09
   32.28000     -9.1088763E-09
   32.34000     -1.2318967E-08
   32.40000     -1.5503140E-08
   32.46000     -1.8635356E-08
   32.52000     -2.1720121E-08
   32.58000     -2.4787740E-08
   32.64000     -2.7882660E-08
   32.70000     -3.1047833E-08
   32.76000     -3.4309267E-08
   32.82000     -3.7664776E-08
   32.88000     -4.1080003E-08
   32.94000     -4.4492563E-08
   33.00000     -4.7823264E-08
   33.06000     -5.0991549E-08
   33.12000     -5.3931263E-08
   33.18000     -5.6603007E-08
   33.24000     -5.9000243E-08
   33.30000     -6.1147780E-08
   33.36000     -6.3093253E-08
   33.42000     -6.4893591E-08
   33.48000     -6.6599924E-08
   33.54000     -6.8244454E-08
   33.60000     -6.9832417E-08
   33.66000     -7.1341113E-08
   33.72000     -7.2725911E-08
   33.78000     -7.3931794E-08
   33.84000     -7.4907163E-08
   33.90000     -7.5616526E-08
   33.96000     -7.6048629E-08
   34.02000     -7.6218186E-08
   34.08000     -7.6160916E-08
   34.14000     -7.5923516E-08
   34.20000     -7.5551512E-08
   34.26000     -7.5078432E-08
   34.32000     -7.4519242E-08
   34.38000     -7.3869842E-08
   34.44000     -7.3112403E-08
   34.50000     -7.2224985E-08
   34.56000     -7.1192368E-08
   34.62000     -7.0014998E-08
   34.68000     -6.8713383E-08
   34.74000     -6.7326560E-08
   34.80000     -6.5905013E-08
   34.86000     -6.4499716E-08
   34.92000     -6.3150381E-08
   34.98000     -6.1876086E-08
   35.04000     -6.0671127E-08
   35.10000     -5.9507531E-08
   35.16000     -5.8344035E-08
   35.22000     -5.7139307E-08
   35.28000     -5.5865755E-08
   35.34000     -5.4519891E-08
   35.40000     -5.3125735E-08
   35.46000     -5.1729852E-08
   35.52000     -5.0388941E-08
   35.58000     -4.9153488E-08
   35.64000     -4.8052346E-08
   35.70000     -4.7083248E-08
   35.76000     -4.6212438E-08
   35.82000     -4.5384024E-08
   35.88000     -4.4536428E-08
   35.94000     -4.3621196E-08
   36.00000     -4.2618399E-08
   36.06000     -4.1543927E-08
   36.12000     -4.0446270E-08
   36.18000     -3.9393523E-08
   36.24000     -3.8454296E-08
   36.30000     -3.7678031E-08
   36.36000     -3.7080387E-08
   36.42000     -3.6638134E-08
   36.48000     -3.6295027E-08
   36.54000     -3.5977124E-08
   36.60000     -3.5613159E-08
   36.66000     -3.5154034E-08
   36.72000     -3.4585803E-08
   36.78000     -3.3932359E-08
   36.84000     -3.3247243E-08
   36.90000     -3.2597214E-08
   36.96000     -3.2042696E-08
   37.02000     -3.1621198E-08
   37.08000     -3.1338541E-08
   37.14000     -3.1170412E-08
   37.20000     -3.1073206E-08
   37.26000     -3.1000333E-08
   37.32000     -3.0918578E-08
   37.38000     -3.0819134E-08
   37.44000     -3.0720070E-08
   37.50000     -3.0659660E-08
   37.56000     -3.0683196E-08
   37.62000     -3.0827806E-08
   37.68000     -3.1110282E-08
   37.74000     -3.1521768E-08
   37.80000     -3.2030687E-08
   37.86000     -3.2592620E-08
   37.92000     -3.3163666E-08
   37.98000     -3.3712890E-08
   38.04000     -3.4230066E-08
   38.10000     -3.4726590E-08
   38.16000     -3.5229824E-08
   38.22000     -3.5772903E-08
   38.28000     -3.6383398E-08
   38.34000     -3.7074184E-08
   38.40000     -3.7838955E-08
   38.46000     -3.8653340E-08
   38.52000     -3.9480980E-08
   38.58000     -4.0282593E-08
   38.64000     -4.1025544E-08
   38.70000     -4.1691255E-08
   38.76000     -4.2278685E-08
   38.82000     -4.2803030E-08
   38.88000     -4.3290147E-08
   38.94000     -4.3768249E-08
   39.00000     -4.4259018E-08
   39.06000     -4.4770481E-08
   39.12000     -4.5293369E-08
   39.18000     -4.5801784E-08
   39.24000     -4.6257892E-08
   39.30000     -4.6619387E-08
   39.36000     -4.6847905E-08
   39.42000     -4.6916565E-08
   39.48000     -4.6815106E-08
   39.54000     -4.6551815E-08
   39.60000     -4.6152195E-08
   39.66000     -4.5654936E-08
   39.72000     -4.5106166E-08
   39.78000     -4.4553083E-08
   39.84000     -4.4038064E-08
   39.90000     -4.3593960E-08
   39.96000     -4.3241187E-08
   40.02000     -4.2986759E-08
   40.08000     -4.2825274E-08
   40.14000     -4.2741608E-08
   40.20000     -4.2714948E-08
   40.26000     -4.2723567E-08
   40.32000     -4.2749793E-08
   40.38000     -4.2784240E-08
   40.44000     -4.2828734E-08
   40.50000     -4.2897092E-08
   40.56000     -4.3013625E-08
   40.62000     -4.3209290E-08
   40.68000     -4.3516252E-08
   40.74000     -4.3961695E-08
   40.80000     -4.4562242E-08
   40.86000     -4.5320050E-08
   40.92000     -4.6221430E-08
   40.98000     -4.7238370E-08
   41.04000     -4.8332694E-08
   41.10000     -4.9462248E-08
   41.16000     -5.0587950E-08
   41.22000     -5.1680516E-08
   41.28000     -5.2725465E-08
   41.34000     -5.3725209E-08
   41.40000     -5.4697548E-08
   41.46000     -5.5670448E-08
   41.52000     -5.6673993E-08
   41.58000     -5.7731313E-08
   41.64000     -5.8850798E-08
   41.70000     -6.0021975E-08
   41.76000     -6.1216440E-08
   41.82000     -6.2393923E-08
   41.88000     -6.3511848E-08
   41.94000     -6.4535357E-08
   42.00000     -6.5444681E-08
   42.06000     -6.6236971E-08
   42.12000     -6.6921970E-08
   42.18000     -6.7512516E-08
   42.24000     -6.8013158E-08
   42.30000     -6.8410714E-08
   42.36000     -6.8670460E-08
   42.42000     -6.8739972E-08
   42.48000     -6.8560048E-08
   42.54000     -6.8079991E-08
   42.60000     -6.7272580E-08
   42.66000     -6.6143862E-08
   42.72000     -6.4734195E-08
   42.78000     -6.3109297E-08
   42.84000     -6.1343528E-08
   42.90000     -5.9499833E-08
   42.96000     -5.7612560E-08
   43.02000     -5.5678459E-08
   43.08000     -5.3659086E-08
   43.14000     -5.1494329E-08
   43.20000     -4.9123386E-08
   43.26000     -4.6507051E-08
   43.32000     -4.3644850E-08
   43.38000     -4.0581821E-08
   43.44000     -3.7402870E-08
   43.50000     -3.4216185E-08
   43.56000     -3.1130394E-08
   43.62000     -2.8231899E-08
   43.68000     -2.5568719E-08
   43.74000     -2.3145322E-08
   43.80000     -2.0929653E-08
   43.86000     -1.8870081E-08
   43.92000     -1.6917170E-08
   43.98000     -1.5043815E-08
   44.04000     -1.3257993E-08
   44.10000     -1.1604585E-08
   44.16000     -1.0156083E-08
   44.22000     -8.9952046E-09
   44.28000     -8.1946805E-09
   44.34000     -7.8001055E-09
   44.40000     -7.8205478E-09
   44.46000     -8.2292040E-09
   44.52000     -8.9733279E-09
   44.58000     -9.9899555E-09
   44.64000     -1.1222415E-08
   44.70000     -1.2632542E-08
   44.76000     -1.4205042E-08
   44.82000     -1.5943035E-08
   44.88000     -1.7856660E-08
   44.94000     -1.9948871E-08
   45.00000     -2.2203436E-08
   45.06000     -2.4579416E-08
   45.12000     -2.7014211E-08
   45.18000     -2.9434508E-08
   45.24000     -3.1771769E-08
   45.30000     -3.3977457E-08
   45.36000     -3.6033150E-08
   45.42000     -3.7952187E-08
   45.48000     -3.9772200E-08
   45.54000     -4.1540549E-08
   45.60000     -4.3297050E-08
   45.66000     -4.5059362E-08
   45.72000     -4.6815632E-08
   45.78000     -4.8526999E-08
   45.84000     -5.0139604E-08
   45.90000     -5.1602672E-08
   45.96000     -5.2887444E-08
   46.02000     -5.4001287E-08
   46.08000     -5.4992739E-08
   46.14000     -5.5945993E-08
   46.20000     -5.6966449E-08
   46.26000     -5.8161703E-08
   46.32000     -5.9623574E-08
   46.38000     -6.1416316E-08
   46.44000     -6.3574369E-08
   46.50000     -6.6109813E-08
   46.56000     -6.9027074E-08
   46.62000     -7.2340171E-08
   46.68000     -7.6087424E-08
   46.74000     -8.0340044E-08
   46.80000     -8.5203034E-08
   46.86000     -9.0810019E-08
   46.92000     -9.7315265E-08
   46.98000     -1.0488717E-07
   47.04000     -1.1370624E-07
   47.10000     -1.2396917E-07
   47.16000     -1.3589840E-07
   47.22000     -1.4975488E-07
   47.28000     -1.6585162E-07
   47.34000     -1.8456559E-07
   47.40000     -2.0634678E-07
   47.46000     -2.3172463E-07
   47.52000     -2.6131278E-07
   47.58000     -2.9581452E-07
   47.64000     -3.3603047E-07
   47.70000     -3.8287033E-07
   47.76000     -4.3736878E-07
   47.82000     -5.0070491E-07
   47.88000     -5.7422318E-07
   47.94000     -6.5945477E-07
   48.00000     -7.5813728E-07
   48.06000     -8.7223361E-07
   48.12000     -1.0039511E-06
   48.18000     -1.1557618E-06
   48.24000     -1.3304252E-06
   48.30000     -1.5310150E-06
   48.36000     -1.7609467E-06
   48.42000     -2.0240082E-06
   48.48000     -2.3243904E-06
   48.54000     -2.6667144E-06
   48.60000     -3.0560625E-06
   48.66000     -3.4980039E-06
   48.72000     -3.9986235E-06
   48.78000     -4.5645465E-06
   48.84000     -5.2029709E-06
   48.90000     -5.9216941E-06
   48.96000     -6.7291439E-06
   49.02000     -7.6344104E-06
   49.08000     -8.6472710E-06
   49.14000     -9.7782113E-06
   49.20000     -1.1038442E-05
   49.26000     -1.2439906E-05
   49.32000     -1.3995272E-05
   49.38000     -1.5717937E-05
   49.44000     -1.7622006E-05
   49.50000     -1.9722273E-05
   49.56000     -2.2034192E-05
   49.62000     -2.4573847E-05
   49.68000     -2.7357895E-05
   49.74000     -3.0403520E-05
   49.80000     -3.3728349E-05
   49.86000     -3.7350379E-05
   49.92000     -4.1287891E-05
   49.98000     -4.5559318E-05
   50.04000     -5.0183167E-05
   50.10000     -5.5177872E-05
   50.16000     -6.0561651E-05
   50.22000     -6.6352375E-05
   50.28000     -7.2567418E-05
   50.34000     -7.9223464E-05
   50.40000     -8.6336360E-05
   50.46000     -9.3920884E-05
   50.52000     -1.0199062E-04
   50.58000     -1.1055771E-04
   50.64000     -1.1963268E-04
   50.70000     -1.2922430E-04
   50.76000     -1.3933929E-04
   50.82000     -1.4998225E-04
   50.88000     -1.6115545E-04
   50.94000     -1.7285858E-04
   51.00000     -1.8508873E-04
   51.06000     -1.9784017E-04
   51.12000     -2.1110424E-04
   51.18000     -2.2486928E-04
   51.24000     -2.3912049E-04
   51.30000     -2.5383991E-04
   51.36000     -2.6900653E-04
   51.42000     -2.8459606E-04
   51.48000     -3.0058128E-04
   51.54000     -3.1693195E-04
   51.60000     -3.3361503E-04
   51.66000     -3.5059461E-04
   51.72000     -3.6783249E-04
   51.78000     -3.8528803E-04
   51.84000     -4.0291852E-04
   51.90000     -4.2067948E-04
   51.96000     -4.3852499E-04
   52.02000     -4.5640793E-04
   52.08000     -4.7428036E-04
   52.14000     -4.9209414E-04
   52.20000     -5.0980103E-04
   52.26000     -5.2735332E-04
   52.32000     -5.4470415E-04
   52.38000     -5.6180806E-04
   52.44000     -5.7862123E-04
   52.50000     -5.9510203E-04
   52.56000     -6.1121129E-04
   52.62000     -6.2691275E-04
   52.68000     -6.4217346E-04
   52.74000     -6.5696402E-04
   52.80000     -6.7125895E-04
   52.86000     -6.8503682E-04
   52.92000     -6.9828064E-04
   52.98000     -7.1097777E-04
   53.04000     -7.2312041E-04
   53.10000     -7.3470519E-04
   53.16000     -7.4573338E-04
   53.22000     -7.5621094E-04
   53.28000     -7.6614815E-04
   53.34000     -7.7555946E-04
   53.40000     -7.8446348E-04
   53.46000     -7.9288241E-04
   53.52000     -8.0084184E-04
   53.58000     -8.0837030E-04
   53.64000     -8.1549899E-04
   53.70000     -8.2226103E-04
   53.76000     -8.2869112E-04
   53.82000     -8.3482527E-04
   53.88000     -8.4069977E-04
   53.94000     -8.4635115E-04
   54.00000     -8.5181522E-04
   54.06000     -8.5712684E-04
   54.12000     -8.6231931E-04
   54.18000     -8.6742378E-04
   54.24000     -8.7246869E-04
   54.30000     -8.7747967E-04
   54.36000     -8.8247884E-04
   54.42000     -8.8748458E-04
   54.48000     -8.9251122E-04
   54.54000     -8.9756888E-04
   54.60000     -9.0266339E-04
   54.66000     -9.0779597E-04
   54.72000     -9.1296330E-04
   54.78000     -9.1815763E-04
   54.84000     -9.2336687E-04
   54.90000     -9.2857471E-04
   54.96000     -9.3376124E-04
   55.02000     -9.3890296E-04
   55.08000     -9.4397296E-04
   55.14000     -9.4894163E-04
   55.20000     -9.5377682E-04
   55.26000     -9.5844443E-04
   55.32000     -9.6290914E-04
   55.38000     -9.6713472E-04
   55.44000     -9.7108504E-04
   55.50000     -9.7472419E-04
   55.56000     -9.7801711E-04