  -2.400000      0.0000000E+00
  -2.340000      0.0000000E+00
  -2.280000      0.0000000E+00
  -2.220000      0.0000000E+00
  -2.160000      0.0000000E+00
  -2.100000      0.0000000E+00
  -2.040000      0.0000000E+00
  -1.980000      0.0000000E+00
  -1.920000      0.0000000E+00
  -1.860000      1.9768826E-30
  -1.800000      6.6760652E-29
  -1.740000      7.2352022E-28
  -1.680000      4.3533482E-27
  -1.620000      1.7008071E-26
  -1.560000      4.4120651E-26
  -1.500000      6.3049011E-26
  -1.440000     -4.2268462E-26
  -1.380000     -5.4414200E-25
  -1.320000     -1.7591525E-24
  -1.260000     -3.4715540E-24
  -1.200000     -3.7832747E-24
  -1.140000      1.9056276E-24
  -1.080000      1.9768099E-23
  -1.020000      5.1646544E-23
 -0.9600000      8.3988184E-23
 -0.9000000      7.7592378E-23
 -0.8400000     -2.8038530E-23
 -0.7800000     -2.8077771E-22
 -0.7200000     -6.5231926E-22
 -0.6600000     -9.7600173E-22
 -0.6000000     -9.4475254E-22
 -0.5400000     -2.1759063E-22
 -0.4800000      1.3861754E-21
 -0.4200000      3.7205186E-21
 -0.3600000      6.3102382E-21
 -0.3000000      8.4965941E-21
 -0.2400000      9.4305117E-21
 -0.1800000      7.4816241E-21
 -0.1200000     -9.1410758E-22
 -5.9999999E-02 -2.1737403E-20
  0.0000000E+00 -6.0654072E-20
  5.9999999E-02 -1.1473871E-19
  0.1200000     -1.5987700E-19
  0.1800000     -1.4204548E-19
  0.2400000      1.2583640E-20
  0.3000000      3.5467106E-19
  0.3600000      8.3782219E-19
  0.4200000      1.2468943E-18
  0.4800000      1.1937893E-18
  0.5400000      2.5123194E-19
  0.6000000     -1.7552611E-18
  0.6600000     -4.3875570E-18
  0.7200000     -6.3867451E-18
  0.7800000     -5.8955503E-18
  0.8400000     -1.2818459E-18
  0.9000000      7.5797314E-18
  0.9600000      1.8138142E-17
   1.020000      2.4984769E-17
   1.080000      2.1430164E-17
   1.140000      2.9111536E-18
   1.200000     -2.8857648E-17
   1.260000     -6.3182457E-17
   1.320000     -8.1640867E-17
   1.380000     -6.4675644E-17
   1.440000     -2.3768859E-18
   1.500000      9.4807491E-17
   1.560000      1.9172416E-16
   1.620000      2.3605980E-16
   1.680000      1.7896055E-16
   1.740000      2.9710549E-18
   1.800000     -2.5504316E-16
   1.860000     -5.0060568E-16
   1.920000     -6.0754518E-16
   1.980000     -4.7033961E-16
   2.040000     -6.4677550E-17
   2.100000      5.1290471E-16
   2.160000      1.0540943E-15
   2.220000      1.3071841E-15
   2.280000      1.0866940E-15
   2.340000      3.7845916E-16
   2.400000     -6.1619498E-16
   2.460000     -1.5355917E-15
   2.520000     -2.0056446E-15
   2.580000     -1.8203562E-15
   2.640000     -1.0612924E-15
   2.700000     -7.5446429E-17
   2.760000      7.0407284E-16
   2.820000      1.0177734E-15
   2.880000      9.7289844E-16
   2.940000      1.0253319E-15
   3.000000      1.7011508E-15
   3.060000      3.1646161E-15
   3.120000      4.8748258E-15
   3.180000      5.5957042E-15
   3.240000      3.8853046E-15
   3.300000     -1.0699119E-15
   3.360000     -8.6644703E-15
   3.420000     -1.6605854E-14
   3.480000     -2.1476590E-14
   3.540000     -2.0041608E-14
   3.600000     -1.0787770E-14
   3.660000      5.0360886E-15
   3.720000      2.3454959E-14
   3.780000      3.8963248E-14
   3.840000      4.6383294E-14
   3.900000      4.2556494E-14
   3.960000      2.7167418E-14
   4.020000      2.5329110E-15
   4.080000     -2.7216544E-14
   4.140000     -5.6890175E-14
   4.200000     -8.0556147E-14
   4.260000     -9.1713041E-14
   4.320000     -8.4086255E-14
   4.380000     -5.3635400E-14
   4.440000     -1.4242831E-15
   4.500000      6.4145005E-14
   4.560000      1.2769848E-13
   4.620000      1.7093462E-13
   4.680000      1.7934222E-13
   4.740000      1.4844202E-13
   4.800000      8.5756462E-14
   4.860000      6.5296105E-15
   4.920000     -7.5019391E-14
   4.980000     -1.5351187E-13
   5.040000     -2.3306273E-13
   5.100000     -3.1796882E-13
   5.160000     -3.9727599E-13
   5.220000     -4.3333756E-13
   5.280000     -3.6592206E-13
   5.340000     -1.3745751E-13
   5.400000      2.6691914E-13
   5.460000      7.8303098E-13
   5.520000      1.2585927E-12
   5.580000      1.4876893E-12
   5.640000      1.2863203E-12
   5.700000      5.8380140E-13
   5.760000     -5.1046629E-13
   5.820000     -1.7034140E-12
   5.880000     -2.5947660E-12
   5.940000     -2.8161221E-12
   6.000000     -2.1830363E-12
   6.060000     -7.9614717E-13
   6.120000      9.5972178E-13
   6.180000      2.5319334E-12
   6.240000      3.3970461E-12
   6.300000      3.2651590E-12
   6.360000      2.2074881E-12
   6.420000      6.4719053E-13
   6.480000     -7.9496988E-13
   6.540000     -1.5491661E-12
   6.600000     -1.3455080E-12
   6.660000     -3.6226263E-13
   6.720000      7.9503450E-13
   6.780000      1.2900280E-12
   6.840000      3.6702114E-13
   6.900000     -2.3284159E-12
   6.960000     -6.5310509E-12
   7.020000     -1.1314905E-11
   7.080000     -1.5242410E-11
   7.140000     -1.6655457E-11
   7.200000     -1.4025236E-11
   7.260000     -6.2818756E-12
   7.320000      6.9188765E-12
   7.380000      2.4989949E-11
   7.440000      4.6240900E-11
   7.500000      6.7724618E-11
   7.560000      8.5135766E-11
   7.620000      9.2852927E-11
   7.680000      8.4251550E-11
   7.740000      5.2396594E-11
   7.800000     -8.8574426E-12
   7.860000     -1.0345431E-10
   7.920000     -2.3163148E-10
   7.980000     -3.8862386E-10
   8.040000     -5.6388255E-10
   8.100000     -7.4104134E-10
   8.160000     -8.9873214E-10
   8.220000     -1.0122004E-09
   8.280000     -1.0555375E-09
   8.340000     -1.0042547E-09
   8.400000     -8.3788310E-10
   8.460000     -5.4228466E-10
   8.520000     -1.1140348E-10
   8.580000      4.5173701E-10
   8.640000      1.1348776E-09
   8.700000      1.9171691E-09
   8.760000      2.7704610E-09
   8.820000      3.6610046E-09
   8.880000      4.5513260E-09
   8.940000      5.4021134E-09
   9.000000      6.1740790E-09
   9.060000      6.8298780E-09
   9.120000      7.3362143E-09
   9.180000      7.6661868E-09
   9.240000      7.8017495E-09
   9.300000      7.7359479E-09
   9.360000      7.4744273E-09
   9.420000      7.0357076E-09
   9.480000      6.4498997E-09
   9.540000      5.7558838E-09
   9.600000      4.9973199E-09
   9.660000      4.2181703E-09
   9.720000      3.4584819E-09
   9.780000      2.7510596E-09
   9.840000      2.1193649E-09
   9.900000      1.5766700E-09
   9.960000      1.1262413E-09
   10.02000      7.6226042E-10
   10.08000      4.7125953E-10
   10.14000      2.3398133E-10
   10.20000      2.7677813E-11
   10.26000     -1.7115531E-10
   10.32000     -3.8375692E-10
   10.38000     -6.2613698E-10
   10.44000     -9.0667318E-10
   10.50000     -1.2247702E-09
   10.56000     -1.5709073E-09
   10.62000     -1.9280828E-09
   10.68000     -2.2743143E-09
   10.74000     -2.5856073E-09
   10.80000     -2.8387399E-09
   10.86000     -3.0133587E-09
   10.92000     -3.0931748E-09
   10.98000     -3.0663709E-09
   11.04000     -2.9255718E-09
   11.10000     -2.6677893E-09
   11.16000     -2.2946265E-09
   11.22000     -1.8127481E-09
   11.28000     -1.2343230E-09
   11.34000     -5.7693261E-10
   11.40000      1.3757451E-10
   11.46000      8.8555951E-10
   11.52000      1.6452398E-09
   11.58000      2.4008282E-09
   11.64000      3.1460790E-09
   11.70000      3.8860475E-09
   11.76000      4.6361559E-09
   11.82000      5.4183262E-09
   11.88000      6.2548264E-09
   11.94000      7.1612902E-09
   12.00000      8.1408356E-09
   12.06000      9.1811216E-09
   12.12000      1.0255475E-08
   12.18000      1.1328115E-08
   12.24000      1.2362270E-08
   12.30000      1.3329014E-08
   12.36000      1.4214358E-08
   12.42000      1.5022474E-08
   12.48000      1.5774075E-08
   12.54000      1.6500287E-08
   12.60000      1.7233736E-08
   12.66000      1.7999366E-08
   12.72000      1.8807551E-08
   12.78000      1.9651328E-08
   12.84000      2.0508347E-08
   12.90000      2.1346734E-08
   12.96000      2.2133060E-08
   13.02000      2.2840094E-08
   13.08000      2.3452376E-08
   13.14000      2.3968486E-08
   13.20000      2.4399860E-08
   13.26000      2.4767040E-08
   13.32000      2.5094613E-08
   13.38000      2.5406235E-08
   13.44000      2.5720672E-08
   13.50000      2.6049316E-08
   13.56000      2.6395183E-08
   13.62000      2.6753181E-08
   13.68000      2.7111392E-08
   13.74000      2.7453288E-08
   13.80000      2.7760830E-08
   13.86000      2.8018267E-08
   13.92000      2.8216188E-08
   13.98000      2.8354965E-08
   14.04000      2.8446506E-08
   14.10000      2.8513428E-08
   14.16000      2.8585189E-08
   14.22000      2.8691719E-08
   14.28000      2.8855956E-08
   14.34000      2.9087360E-08
   14.40000      2.9378455E-08
   14.46000      2.9705852E-08
   14.52000      3.0035803E-08
   14.58000      3.0333041E-08
   14.64000      3.0570384E-08
   14.70000      3.0736253E-08
   14.76000      3.0837654E-08
   14.82000      3.0897457E-08
   14.88000      3.0946516E-08
   14.94000      3.1012714E-08
   15.00000      3.1110091E-08
   15.06000      3.1231252E-08
   15.12000      3.1345472E-08
   15.18000      3.1403303E-08
   15.24000      3.1346666E-08
   15.30000      3.1121811E-08
   15.36000      3.0691705E-08
   15.42000      3.0044443E-08
   15.48000      2.9195466E-08
   15.54000      2.8182969E-08
   15.60000      2.7057927E-08
   15.66000      2.5871387E-08
   15.72000      2.4662469E-08
   15.78000      2.3450138E-08
   15.84000      2.2230598E-08
   15.90000      2.0980623E-08
   15.96000      1.9665560E-08
   16.02000      1.8249617E-08
   16.08000      1.6705764E-08
   16.14000      1.5022858E-08
   16.20000      1.3208650E-08
   16.26000      1.1288540E-08
   16.32000      9.3010337E-09
   16.38000      7.2915949E-09
   16.44000      5.3066973E-09
   16.50000      3.3894973E-09
   16.56000      1.5777870E-09
   16.62000     -9.5914110E-11
   16.68000     -1.6029120E-09
   16.74000     -2.9165994E-09
   16.80000     -4.0114214E-09
   16.86000     -4.8632107E-09
   16.92000     -5.4510756E-09
   16.98000     -5.7605765E-09
   17.04000     -5.7874683E-09
   17.10000     -5.5410410E-09
   17.16000     -5.0460014E-09
   17.22000     -4.3420378E-09
   17.28000     -3.4807659E-09
   17.34000     -2.5204971E-09
   17.40000     -1.5200580E-09
   17.46000     -5.3331511E-10
   17.52000      3.9403672E-10
   17.58000      1.2246452E-09
   17.64000      1.9269815E-09
   17.70000      2.4715723E-09
   17.76000      2.8279623E-09
   17.82000      2.9640963E-09
   17.88000      2.8488214E-09
   17.94000      2.4568758E-09
   18.00000      1.7746754E-09
   18.06000      8.0482992E-10
   18.12000     -4.3224577E-10
   18.18000     -1.9002266E-09
   18.24000     -3.5517214E-09
   18.30000     -5.3346700E-09
   18.36000     -7.1986337E-09
   18.42000     -9.0995993E-09
   18.48000     -1.1002582E-08
   18.54000     -1.2881946E-08
   18.60000     -1.4719935E-08
   18.66000     -1.6504149E-08
   18.72000     -1.8224837E-08
   18.78000     -1.9872843E-08
   18.84000     -2.1438877E-08
   18.90000     -2.2914509E-08
   18.96000     -2.4294755E-08
   19.02000     -2.5581548E-08
   19.08000     -2.6786823E-08
   19.14000     -2.7933664E-08
   19.20000     -2.9054402E-08
   19.26000     -3.0185337E-08
   19.32000     -3.1359107E-08
   19.38000     -3.2596713E-08
   19.44000     -3.3901767E-08
   19.50000     -3.5259024E-08
   19.56000     -3.6638010E-08
   19.62000     -3.8000795E-08
   19.68000     -3.9311605E-08
   19.74000     -4.0545345E-08
   19.80000     -4.1692473E-08
   19.86000     -4.2759027E-08
   19.92000     -4.3762117E-08
   19.98000     -4.4722643E-08
   20.04000     -4.5657526E-08
   20.10000     -4.6573732E-08
   20.16000     -4.7465580E-08
   20.22000     -4.8316057E-08
   20.28000     -4.9101690E-08
   20.34000     -4.9799901E-08
   20.40000     -5.0397091E-08
   20.46000     -5.0895302E-08
   20.52000     -5.1315485E-08
   20.58000     -5.1695757E-08
   20.64000     -5.2084427E-08
   20.70000     -5.2528886E-08
   20.76000     -5.3063044E-08
   20.82000     -5.3696713E-08
   20.88000     -5.4410076E-08
   20.94000     -5.5155173E-08
   21.00000     -5.5864117E-08
   21.06000     -5.6461978E-08
   21.12000     -5.6880875E-08
   21.18000     -5.7071805E-08
   21.24000     -5.7011636E-08
   21.30000     -5.6704373E-08
   21.36000     -5.6177509E-08
   21.42000     -5.5475251E-08
   21.48000     -5.4650787E-08
   21.54000     -5.3759333E-08
   21.60000     -5.2852709E-08
   21.66000     -5.1975647E-08
   21.72000     -5.1163308E-08
   21.78000     -5.0439589E-08
   21.84000     -4.9816105E-08
   21.90000     -4.9291998E-08
   21.96000     -4.8855050E-08
   22.02000     -4.8484345E-08
   22.08000     -4.8154444E-08
   22.14000     -4.7840409E-08
   22.20000     -4.7522629E-08
   22.26000     -4.7190195E-08
   22.32000     -4.6841972E-08
   22.38000     -4.6484949E-08
   22.44000     -4.6130310E-08
   22.50000     -4.5788322E-08
   22.56000     -4.5463334E-08
   22.62000     -4.5150362E-08
   22.68000     -4.4833993E-08
   22.74000     -4.4489948E-08
   22.80000     -4.4088672E-08
   22.86000     -4.3599947E-08
   22.92000     -4.2997168E-08
   22.98000     -4.2260261E-08
   23.04000     -4.1376591E-08
   23.10000     -4.0340154E-08
   23.16000     -3.9149796E-08
   23.22000     -3.7807563E-08
   23.28000     -3.6317992E-08
   23.34000     -3.4688536E-08
   23.40000     -3.2930615E-08
   23.46000     -3.1060402E-08
   23.52000     -2.9098528E-08
   23.58000     -2.7068463E-08
   23.64000     -2.4994215E-08
   23.70000     -2.2898318E-08
   23.76000     -2.0801128E-08
   23.82000     -1.8721762E-08
   23.88000     -1.6680177E-08
   23.94000     -1.4699292E-08
   24.00000     -1.2806006E-08
   24.06000     -1.1030469E-08
   24.12000     -9.4037800E-09
   24.18000     -7.9548270E-09
   24.24000     -6.7072268E-09
   24.30000     -5.6770064E-09
   24.36000     -4.8712496E-09
   24.42000     -4.2876191E-09
   24.48000     -3.9146428E-09
   24.54000     -3.7327705E-09
   24.60000     -3.7163355E-09
   24.66000     -3.8363761E-09
   24.72000     -4.0639208E-09
   24.78000     -4.3729407E-09
   24.84000     -4.7420810E-09
   24.90000     -5.1545710E-09
   24.96000     -5.5963483E-09
   25.02000     -6.0530785E-09
   25.08000     -6.5071615E-09
   25.14000     -6.9358048E-09
   25.20000     -7.3108835E-09
   25.26000     -7.6007893E-09
   25.32000     -7.7739699E-09
   25.38000     -7.8034539E-09
   25.44000     -7.6714182E-09
   25.50000     -7.3726483E-09
   25.56000     -6.9158377E-09
   25.62000     -6.3219767E-09
   25.68000     -5.6198175E-09
   25.74000     -4.8393014E-09
   25.80000     -4.0046690E-09
   25.86000     -3.1292868E-09
   25.92000     -2.2138305E-09
   25.98000     -1.2483894E-09
   26.04000     -2.1773060E-10
   26.10000      8.9212004E-10
   26.16000      2.0881810E-09
   26.22000      3.3674641E-09
   26.28000      4.7172772E-09
   26.34000      6.1183871E-09
   26.40000      7.5496169E-09
   26.46000      8.9920968E-09
   26.52000      1.0431624E-08
   26.58000      1.1858330E-08
   26.64000      1.3263807E-08
   26.70000      1.4636786E-08
   26.76000      1.5959108E-08
   26.82000      1.7203815E-08
   26.88000      1.8336657E-08
   26.94000      1.9321181E-08
   27.00000      2.0126224E-08
   27.06000      2.0733500E-08
   27.12000      2.1142599E-08
   27.18000      2.1371328E-08
   27.24000      2.1450797E-08
   27.30000      2.1416417E-08
   27.36000      2.1297454E-08
   27.42000      2.1108233E-08
   27.48000      2.0843530E-08
   27.54000      2.0479217E-08
   27.60000      1.9977641E-08
   27.66000      1.9295817E-08
   27.72000      1.8394070E-08
   27.78000      1.7243021E-08
   27.84000      1.5827652E-08
   27.90000      1.4148121E-08
   27.96000      1.2217853E-08
   28.02000      1.0059805E-08
   28.08000      7.7019111E-09
   28.14000      5.1726556E-09
   28.20000      2.4974847E-09
   28.26000     -3.0339761E-10
   28.32000     -3.2155640E-09
   28.38000     -6.2292340E-09
   28.44000     -9.3368842E-09
   28.50000     -1.2530371E-08
   28.56000     -1.5798564E-08
   28.62000     -1.9126389E-08
   28.68000     -2.2495787E-08
   28.74000     -2.5888307E-08
   28.80000     -2.9288421E-08
   28.86000     -3.2686060E-08
   28.92000     -3.6077150E-08
   28.98000     -3.9461455E-08
   29.04000     -4.2838341E-08
   29.10000     -4.6201865E-08
   29.16000     -4.9537245E-08
   29.22000     -5.2820265E-08
   29.28000     -5.6020195E-08
   29.34000     -5.9105272E-08
   29.40000     -6.2048805E-08
   29.46000     -6.4833579E-08
   29.52000     -6.7452852E-08
   29.58000     -6.9907735E-08
   29.64000     -7.2201935E-08
   29.70000     -7.4335752E-08
   29.76000     -7.6301554E-08
   29.82000     -7.8081790E-08
   29.88000     -7.9650171E-08
   29.94000     -8.0975020E-08
   30.00000     -8.2023924E-08
   30.06000     -8.2768459E-08
   30.12000     -8.3188056E-08
   30.18000     -8.3272646E-08
   30.24000     -8.3023671E-08
   30.30000     -8.2453347E-08
   30.36000     -8.1582215E-08
   30.42000     -8.0435413E-08
   30.48000     -7.9038536E-08
   30.54000     -7.7414313E-08
   30.60000     -7.5581347E-08
   30.66000     -7.3555370E-08
   30.72000     -7.1352886E-08
   30.78000     -6.8995696E-08
   30.84000     -6.6514644E-08
   30.90000     -6.3950978E-08
   30.96000     -6.1354562E-08
   31.02000     -5.8779417E-08
   31.08000     -5.6277926E-08
   31.14000     -5.3895420E-08
   31.20000     -5.1666436E-08
   31.26000     -4.9613327E-08
   31.32000     -4.7746919E-08
   31.38000     -4.6068493E-08
   31.44000     -4.4572335E-08
   31.50000     -4.3248182E-08
   31.56000     -4.2083400E-08
   31.62000     -4.1064574E-08
   31.68000     -4.0178524E-08
   31.74000     -3.9412480E-08
   31.80000     -3.8753388E-08
   31.86000     -3.8186652E-08
   31.92000     -3.7695010E-08
   31.98000     -3.7258431E-08
   32.04000     -3.6855702E-08
   32.10000     -3.6467679E-08
   32.16000     -3.6081321E-08
   32.22000     -3.5693013E-08
   32.28000     -3.5309579E-08
   32.34000     -3.4946236E-08
   32.40000     -3.4621905E-08
   32.46000     -3.4353405E-08
   32.52000     -3.4150652E-08
   32.58000     -3.4014750E-08
   32.64000     -3.3939525E-08
   32.70000     -3.3915764E-08
   32.76000     -3.3936242E-08
   32.82000     -3.3999349E-08
   32.88000     -3.4109782E-08
   32.94000     -3.4276191E-08
   33.00000     -3.4506986E-08
   33.06000     -3.4806234E-08
   33.12000     -3.5171595E-08
   33.18000     -3.5594983E-08
   33.24000     -3.6065522E-08
   33.30000     -3.6573130E-08
   33.36000     -3.7110929E-08
   33.42000     -3.7675228E-08
   33.48000     -3.8263110E-08
   33.54000     -3.8868819E-08
   33.60000     -3.9480579E-08
   33.66000     -4.0079311E-08
   33.72000     -4.0639708E-08
   33.78000     -4.1133127E-08
   33.84000     -4.1531148E-08
   33.90000     -4.1808800E-08
   33.96000     -4.1946869E-08
   34.02000     -4.1933461E-08
   34.08000     -4.1765141E-08
   34.14000     -4.1447652E-08
   34.20000     -4.0995776E-08
   34.26000     -4.0431640E-08
   34.32000     -3.9781103E-08
   34.38000     -3.9068770E-08
   34.44000     -3.8313125E-08
   34.50000     -3.7523680E-08
   34.56000     -3.6701394E-08
   34.62000     -3.5842326E-08
   34.68000     -3.4943024E-08
   34.74000     -3.4005293E-08
   34.80000     -3.3038290E-08
   34.86000     -3.2057255E-08
   34.92000     -3.1079651E-08
   34.98000     -3.0120784E-08
   35.04000     -2.9190877E-08
   35.10000     -2.8294791E-08
   35.16000     -2.7434156E-08
   35.22000     -2.6610699E-08
   35.28000     -2.5829150E-08
   35.34000     -2.5098586E-08
   35.40000     -2.4431953E-08
   35.46000     -2.3844089E-08
   35.52000     -2.3349024E-08
   35.58000     -2.2957153E-08
   35.64000     -2.2672692E-08
   35.70000     -2.2491671E-08
   35.76000     -2.2400672E-08
   35.82000     -2.2376746E-08
   35.88000     -2.2388766E-08
   35.94000     -2.2400364E-08
   36.00000     -2.2374062E-08
   36.06000     -2.2275941E-08
   36.12000     -2.2079931E-08
   36.18000     -2.1770898E-08
   36.24000     -2.1346027E-08
   36.30000     -2.0814355E-08
   36.36000     -2.0194660E-08
   36.42000     -1.9512131E-08
   36.48000     -1.8794450E-08
   36.54000     -1.8067993E-08
   36.60000     -1.7354864E-08
   36.66000     -1.6671326E-08
   36.72000     -1.6027919E-08
   36.78000     -1.5431052E-08
   36.84000     -1.4885522E-08
   36.90000     -1.4397059E-08
   36.96000     -1.3974041E-08
   37.02000     -1.3627729E-08
   37.08000     -1.3370828E-08
   37.14000     -1.3214675E-08
   37.20000     -1.3165835E-08
   37.26000     -1.3223197E-08
   37.32000     -1.3376679E-08
   37.38000     -1.3608417E-08
   37.44000     -1.3896591E-08
   37.50000     -1.4221251E-08
   37.56000     -1.4570520E-08
   37.62000     -1.4945163E-08
   37.68000     -1.5359580E-08
   37.74000     -1.5838296E-08
   37.80000     -1.6408420E-08
   37.86000     -1.7090171E-08
   37.92000     -1.7888413E-08
   37.98000     -1.8788171E-08
   38.04000     -1.9755904E-08
   38.10000     -2.0746503E-08
   38.16000     -2.1714001E-08
   38.22000     -2.2622773E-08
   38.28000     -2.3455751E-08
   38.34000     -2.4217242E-08
   38.40000     -2.4929655E-08
   38.46000     -2.5625436E-08
   38.52000     -2.6336934E-08
   38.58000     -2.7087490E-08
   38.64000     -2.7886381E-08
   38.70000     -2.8729049E-08
   38.76000     -2.9602061E-08
   38.82000     -3.0490941E-08
   38.88000     -3.1388026E-08
   38.94000     -3.2297631E-08
   39.00000     -3.3236649E-08
   39.06000     -3.4230258E-08
   39.12000     -3.5303799E-08
   39.18000     -3.6473097E-08
   39.24000     -3.7736054E-08
   39.30000     -3.9068048E-08
   39.36000     -4.0422751E-08
   39.42000     -4.1738751E-08
   39.48000     -4.2950695E-08
   39.54000     -4.4002412E-08
   39.60000     -4.4858666E-08
   39.66000     -4.5512071E-08
   39.72000     -4.5982940E-08
   39.78000     -4.6311591E-08
   39.84000     -4.6545050E-08
   39.90000     -4.6722164E-08
   39.96000     -4.6861956E-08
   40.02000     -4.6959347E-08
   40.08000     -4.6990017E-08
   40.14000     -4.6922885E-08
   40.20000     -4.6735867E-08
   40.26000     -4.6428962E-08
   40.32000     -4.6029506E-08
   40.38000     -4.5587157E-08
   40.44000     -4.5159883E-08
   40.50000     -4.4795769E-08
   40.56000     -4.4517183E-08
   40.62000     -4.4313079E-08
   40.68000     -4.4142499E-08
   40.74000     -4.3948194E-08
   40.80000     -4.3675705E-08
   40.86000     -4.3291355E-08
   40.92000     -4.2792916E-08
   40.98000     -4.2209564E-08
   41.04000     -4.1591388E-08
   41.10000     -4.0992347E-08
   41.16000     -4.0452644E-08
   41.22000     -3.9986368E-08
   41.28000     -3.9578236E-08
   41.34000     -3.9190112E-08
   41.40000     -3.8774797E-08
   41.46000     -3.8292420E-08
   41.52000     -3.7724206E-08
   41.58000     -3.7079282E-08
   41.64000     -3.6392386E-08
   41.70000     -3.5713075E-08
   41.76000     -3.5089567E-08
   41.82000     -3.4552119E-08
   41.88000     -3.4101298E-08
   41.94000     -3.3705184E-08
   42.00000     -3.3307039E-08
   42.06000     -3.2841434E-08
   42.12000     -3.2253904E-08
   42.18000     -3.1517573E-08
   42.24000     -3.0641186E-08
   42.30000     -2.9665744E-08
   42.36000     -2.8651042E-08
   42.42000     -2.7656876E-08
   42.48000     -2.6725372E-08
   42.54000     -2.5869886E-08
   42.60000     -2.5073307E-08
   42.66000     -2.4295003E-08
   42.72000     -2.3483118E-08
   42.78000     -2.2587866E-08
   42.84000     -2.1572200E-08
   42.90000     -2.0417827E-08
   42.96000     -1.9126276E-08
   43.02000     -1.7715843E-08
   43.08000     -1.6215793E-08
   43.14000     -1.4659272E-08
   43.20000     -1.3076533E-08
   43.26000     -1.1489980E-08
   43.32000     -9.9123909E-09
   43.38000     -8.3488692E-09
   43.44000     -6.8019594E-09
   43.50000     -5.2781859E-09
   43.56000     -3.7936037E-09
   43.62000     -2.3762192E-09
   43.68000     -1.0642659E-09
   43.74000      9.9166335E-11
   43.80000      1.0734240E-09
   43.86000      1.8272920E-09
   43.92000      2.3438680E-09
   43.98000      2.6223821E-09
   44.04000      2.6770162E-09
   44.10000      2.5334617E-09
   44.16000      2.2242075E-09
   44.22000      1.7834895E-09
   44.28000      1.2426309E-09
   44.34000      6.2630723E-10
   44.40000     -4.9870170E-11
   44.46000     -7.8019835E-10
   44.52000     -1.5680486E-09
   44.58000     -2.4234434E-09
   44.64000     -3.3593677E-09
   44.70000     -4.3873980E-09
   44.76000     -5.5135185E-09
   44.82000     -6.7351595E-09
   44.88000     -8.0404341E-09
   44.94000     -9.4100852E-09
   45.00000     -1.0821808E-08
   45.06000     -1.2255698E-08
   45.12000     -1.3698869E-08
   45.18000     -1.5147494E-08
   45.24000     -1.6605357E-08
   45.30000     -1.8079547E-08
   45.36000     -1.9575197E-08
   45.42000     -2.1091665E-08
   45.48000     -2.2621901E-08
   45.54000     -2.4155222E-08
   45.60000     -2.5682104E-08
   45.66000     -2.7198562E-08
   45.72000     -2.8707914E-08
   45.78000     -3.0218889E-08
   45.84000     -3.1740672E-08
   45.90000     -3.3276915E-08
   45.96000     -3.4821223E-08
   46.02000     -3.6356205E-08
   46.08000     -3.7857070E-08
   46.14000     -3.9299174E-08
   46.20000     -4.0667725E-08
   46.26000     -4.1966864E-08
   46.32000     -4.3225356E-08
   46.38000     -4.4496868E-08
   46.44000     -4.5854144E-08
   46.50000     -4.7378535E-08
   46.56000     -4.9147808E-08
   46.62000     -5.1226188E-08
   46.68000     -5.3660148E-08
   46.74000     -5.6481781E-08
   46.80000     -5.9719348E-08
   46.86000     -6.3412372E-08
   46.92000     -6.7627269E-08
   46.98000     -7.2469689E-08
   47.04000     -7.8090878E-08
   47.10000     -8.4687230E-08
   47.16000     -9.2494318E-08
   47.22000     -1.0177826E-07
   47.28000     -1.1282781E-07
   47.34000     -1.2595076E-07
   47.40000     -1.4147693E-07
   47.46000     -1.5976836E-07
   47.52000     -1.8123579E-07
   47.58000     -2.0635812E-07
   47.64000     -2.3570158E-07
   47.70000     -2.6993567E-07
   47.76000     -3.0984404E-07
   47.82000     -3.5633116E-07
   47.88000     -4.1042654E-07
   47.94000     -4.7329002E-07
   48.00000     -5.4622018E-07
   48.06000     -6.3066824E-07
   48.12000     -7.2825708E-07
   48.18000     -8.4080312E-07
   48.24000     -9.7034149E-07
   48.30000     -1.1191497E-06
   48.36000     -1.2897714E-06
   48.42000     -1.4850367E-06
   48.48000     -1.7080819E-06
   48.54000     -1.9623674E-06
   48.60000     -2.2516988E-06
   48.66000     -2.5802472E-06
   48.72000     -2.9525770E-06
   48.78000     -3.3736733E-06
   48.84000     -3.8489693E-06
   48.90000     -4.3843734E-06
   48.96000     -4.9862902E-06
   49.02000     -5.6616368E-06
   49.08000     -6.4178525E-06
   49.14000     -7.2629082E-06
   49.20000     -8.2053084E-06
   49.26000     -9.2541031E-06
   49.32000     -1.0418889E-05
   49.38000     -1.1709822E-05
   49.44000     -1.3137605E-05
   49.50000     -1.4713495E-05
   49.56000     -1.6449281E-05
   49.62000     -1.8357256E-05
   49.68000     -2.0450181E-05
   49.74000     -2.2741238E-05
   49.80000     -2.5243968E-05
   49.86000     -2.7972204E-05
   49.92000     -3.0940017E-05
   49.98000     -3.4161625E-05
   50.04000     -3.7651342E-05
   50.10000     -4.1423453E-05
   50.16000     -4.5492154E-05
   50.22000     -4.9871422E-05
   50.28000     -5.4574892E-05
   50.34000     -5.9615733E-05
   50.40000     -6.5006527E-05
   50.46000     -7.0759073E-05
   50.52000     -7.6884324E-05
   50.58000     -8.3392159E-05
   50.64000     -9.0291287E-05
   50.70000     -9.7589116E-05
   50.76000     -1.0529160E-04
   50.82000     -1.1340308E-04
   50.88000     -1.2192620E-04
   50.94000     -1.3086174E-04
   51.00000     -1.4020845E-04
   51.06000     -1.4996303E-04
   51.12000     -1.6011996E-04
   51.18000     -1.7067153E-04
   51.24000     -1.8160763E-04
   51.30000     -1.9291579E-04
   51.36000     -2.0458124E-04
   51.42000     -2.1658673E-04
   51.48000     -2.2891270E-04
   51.54000     -2.4153733E-04
   51.60000     -2.5443651E-04
   51.66000     -2.6758408E-04
   51.72000     -2.8095196E-04
   51.78000     -2.9451016E-04
   51.84000     -3.0822709E-04
   51.90000     -3.2206971E-04
   51.96000     -3.3600378E-04
   52.02000     -3.4999408E-04
   52.08000     -3.6400472E-04
   52.14000     -3.7799936E-04
   52.20000     -3.9194149E-04
   52.26000     -4.0579497E-04
   52.32000     -4.1952403E-04
   52.38000     -4.3309381E-04
   52.44000     -4.4647051E-04
   52.50000     -4.5962181E-04
   52.56000     -4.7251713E-04
   52.62000     -4.8512800E-04
   52.68000     -4.9742823E-04
   52.74000     -5.0939427E-04
   52.80000     -5.2100525E-04
   52.86000     -5.3224340E-04
   52.92000     -5.4309395E-04
   52.98000     -5.5354531E-04
   53.04000     -5.6358945E-04
   53.10000     -5.7322154E-04
   53.16000     -5.8244023E-04
   53.22000     -5.9124763E-04
   53.28000     -5.9964921E-04
   53.34000     -6.0765375E-04
   53.40000     -6.1527285E-04
   53.46000     -6.2252104E-04
   53.52000     -6.2941533E-04
   53.58000     -6.3597516E-04
   53.64000     -6.4222183E-04
   53.70000     -6.4817868E-04
   53.76000     -6.5387035E-04
   53.82000     -6.5932260E-04
   53.88000     -6.6456181E-04
   53.94000     -6.6961447E-04
   54.00000     -6.7450712E-04
   54.06000     -6.7926553E-04
   54.12000     -6.8391470E-04
   54.18000     -6.8847858E-04
   54.24000     -6.9297943E-04
   54.30000     -6.9743796E-04
   54.36000     -7.0187263E-04
   54.42000     -7.0629973E-04
   54.48000     -7.1073289E-04
   54.54000     -7.1518280E-04
   54.60000     -7.1965752E-04
   54.66000     -7.2416209E-04
   54.72000     -7.2869868E-04
   54.78000     -7.3326664E-04
   54.84000     -7.3786260E-04
   54.90000     -7.4248033E-04
   54.96000     -7.4711133E-04
   55.02000     -7.5174461E-04
   55.08000     -7.5636699E-04
   55.14000     -7.6096371E-04
   55.20000     -7.6551846E-04
   55.26000     -7.7001390E-04
   55.32000     -7.7443186E-04
   55.38000     -7.7875389E-04
   55.44000     -7.8296126E-04
   55.50000     -7.8703556E-04
   55.56000     -7.9095911E-04