 -0.750000000       0.00000000    
 -0.689999998       0.00000000    
 -0.629999995       0.00000000    
 -0.569999993       0.00000000    
 -0.509999990       0.00000000    
 -0.449999988       0.00000000    
 -0.389999986       0.00000000    
 -0.330000013       0.00000000    
 -0.270000011       0.00000000    
 -0.209999993       1.62091284E-28
 -0.150000006       1.79689533E-27
  -9.00000036E-02   8.84703037E-27
  -2.99999993E-02   2.07985350E-26
   2.99999993E-02  -1.17010182E-26
   9.00000036E-02  -2.99653301E-25
  0.150000006      -1.32780348E-24
  0.209999993      -3.60973521E-24
  0.270000011      -6.39656306E-24
  0.330000013      -4.91733329E-24
  0.389999986       1.23747798E-23
  0.449999988       6.12835997E-23
  0.509999990       1.45695024E-22
  0.569999993       2.23544576E-22
  0.629999995       1.69718198E-22
  0.689999998      -2.17017150E-22
  0.750000000      -1.09360264E-21
  0.810000002      -2.30379615E-21
  0.870000005      -3.06003149E-21
  0.930000007      -1.88678262E-21
  0.990000010       2.72620756E-21
   1.04999995       1.07173381E-20
   1.11000001       1.84166610E-20
   1.16999996       1.77864786E-20
   1.23000002      -5.49653389E-22
   1.28999996      -3.89013607E-20
   1.35000002      -8.08914203E-20
   1.40999997      -8.47856897E-20
   1.47000003       5.31265230E-21
   1.52999997       2.20079855E-19
   1.59000003       5.02481927E-19
   1.64999998       6.54590980E-19
   1.71000004       3.52685618E-19
   1.76999998      -7.08918600E-19
   1.83000004      -2.53398881E-18
   1.88999999      -4.49482045E-18
   1.95000005      -5.17811010E-18
   2.00999999      -2.69196004E-18
   2.06999993       4.38133003E-18
   2.13000011       1.55281107E-17
   2.19000006       2.69696812E-17
   2.25000000       3.14932706E-17
   2.30999994       2.04759941E-17
   2.36999989      -1.16111905E-17
   2.43000007      -6.14018088E-17
   2.49000001      -1.12407201E-16
   2.54999995      -1.36153704E-16
   2.60999990      -1.01499415E-16
   2.67000008       8.47444718E-18
   2.73000002       1.77757831E-16
   2.78999996       3.47270856E-16
   2.84999990       4.24492706E-16
   2.91000009       3.18396403E-16
   2.97000003      -7.05354527E-18
   3.02999997      -4.82510942E-16
   3.08999991      -9.17492324E-16
   3.15000010      -1.04689641E-15
   3.21000004      -6.45050371E-16
   3.26999998       3.24366158E-16
   3.32999992       1.59095731E-15
   3.39000010       2.57627231E-15
   3.45000005       2.56613608E-15
   3.50999999       1.04337900E-15
   3.56999993      -1.92847718E-15
   3.63000011      -5.45847640E-15
   3.69000006      -7.91544581E-15
   3.75000000      -7.45122094E-15
   3.80999994      -2.87138685E-15
   3.86999989       5.45680478E-15
   3.93000007       1.51162686E-14
   3.99000001       2.19926684E-14
   4.05000019       2.16199349E-14
   4.11000013       1.12228664E-14
   4.17000008      -8.30004197E-15
   4.23000002      -3.14531252E-14
   4.28999996      -4.91052647E-14
   4.34999990      -5.15192713E-14
   4.40999985      -3.26837963E-14
   4.46999979       5.69828837E-15
   4.53000021       5.25719130E-14
   4.59000015       8.97517466E-14
   4.65000010       9.81370001E-14
   4.71000004       6.61967226E-14
   4.76999998      -2.58085476E-15
   4.82999992      -8.70571112E-14
   4.88999987      -1.53231675E-13
   4.94999981      -1.66306815E-13
   5.01000023      -1.06435016E-13
   5.07000017       1.81543979E-14
   5.13000011       1.67443262E-13
   5.19000006       2.79552586E-13
   5.25000000       2.93305229E-13
   5.30999994       1.76289105E-13
   5.36999989      -5.30858757E-14
   5.42999983      -3.21154073E-13
   5.48999977      -5.18532699E-13
   5.55000019      -5.40490287E-13
   5.61000013      -3.34718012E-13
   5.67000008       6.33848239E-14
   5.73000002       5.26570161E-13
   5.78999996       8.71367269E-13
   5.84999990       9.26010896E-13
   5.90999985       6.07218973E-13
   5.96999979      -2.62017902E-14
   6.03000021      -7.70796784E-13
   6.09000015      -1.33751528E-12
   6.15000010      -1.45791896E-12
   6.21000004      -1.00021109E-12
   6.26999998      -4.74279870E-14
   6.32999992       1.10118110E-12
   6.38999987       2.01789562E-12
   6.44999981       2.30001933E-12
   6.51000023       1.73510175E-12
   6.57000017       4.11822703E-13
   6.63000011      -1.27561102E-12
   6.69000006      -2.74455719E-12
   6.75000000      -3.42980744E-12
   6.80999994      -3.00561550E-12
   6.86999989      -1.53632380E-12
   6.92999983       5.13142263E-13
   6.98999977       2.42682263E-12
   7.05000019       3.50468829E-12
   7.11000013       3.35161564E-12
   7.17000008       2.07221740E-12
   7.23000002       2.78796029E-13
   7.28999996      -1.11656084E-12
   7.34999990      -1.27098516E-12
   7.40999985       1.86930387E-13
   7.46999979       2.88165455E-12
   7.53000021       5.67523632E-12
   7.59000015       6.96242630E-12
   7.65000010       5.21386666E-12
   7.71000004      -3.98440829E-13
   7.76999998      -9.51150443E-12
   7.82999992      -2.04114035E-11
   7.88999987      -3.02980037E-11
   7.94999981      -3.59269420E-11
   8.01000023      -3.44475143E-11
   8.06999969      -2.41812802E-11
   8.13000011      -5.10592653E-12
   8.18999958       2.10815566E-11
   8.25000000       5.12888655E-11
   8.31000042       8.15611884E-11
   8.36999989       1.07578502E-10
   8.43000031       1.24921531E-10
   8.48999977       1.29063094E-10
   8.55000019       1.15238707E-10
   8.60999966       7.85072285E-11
   8.67000008       1.43440919E-11
   8.72999954      -8.00206776E-11
   8.78999996      -2.03580000E-10
   8.85000038      -3.49228896E-10
   8.90999985      -5.01789665E-10
   8.97000027      -6.37103981E-10
   9.02999973      -7.22752580E-10
   9.09000015      -7.20592419E-10
   9.14999962      -5.90826943E-10
   9.21000004      -2.96905417E-10
   9.27000046       1.89676497E-10
   9.32999992       8.85550744E-10
   9.39000034       1.79319792E-09
   9.44999981       2.90033952E-09
   9.51000023       4.18071266E-09
   9.56999969       5.59569679E-09
   9.63000011       7.09628623E-09
   9.68999958       8.62515925E-09
   9.75000000       1.01189315E-08
   9.81000042       1.15109824E-08
   9.86999989       1.27352884E-08
   9.93000031       1.37314426E-08
   9.98999977       1.44505865E-08
   10.0500002       1.48614312E-08
   10.1099997       1.49551340E-08
   10.1700001       1.47477426E-08
   10.2299995       1.42792462E-08
   10.2900000       1.36090126E-08
   10.3500004       1.28081794E-08
   10.4099998       1.19504104E-08
   10.4700003       1.11027960E-08
   10.5299997       1.03186313E-08
   10.5900002       9.63326929E-09
   10.6499996       9.06338826E-09
   10.7100000       8.60913918E-09
   10.7700005       8.25800228E-09
   10.8299999       7.98900501E-09
   10.8900003       7.77624454E-09
   10.9499998       7.59129470E-09
   11.0100002       7.40477990E-09
   11.0699997       7.18787119E-09
   11.1300001       6.91448987E-09
   11.1899996       6.56456622E-09
   11.2500000       6.12797058E-09
   11.3100004       5.60802338E-09
   11.3699999       5.02312236E-09
   11.4300003       4.40525572E-09
   11.4899998       3.79497456E-09
   11.5500002       3.23353122E-09
   11.6099997       2.75399947E-09
   11.6700001       2.37380604E-09
   11.7299995       2.09095052E-09
   11.7900000       1.88526972E-09
   11.8500004       1.72462777E-09
   11.9099998       1.57439140E-09
   11.9700003       1.40746659E-09
   12.0299997       1.21192933E-09
   12.0900002       9.93986338E-10
   12.1499996       7.75453368E-10
   12.2100000       5.86658666E-10
   12.2700005       4.57114041E-10
   12.3299999       4.06942313E-10
   12.3900003       4.41700898E-10
   12.4499998       5.52007495E-10
   12.5100002       7.17691351E-10
   12.5699997       9.14657405E-10
   12.6300001       1.12181442E-09
   12.6899996       1.32557232E-09
   12.7500000       1.52050317E-09
   12.8100004       1.70634762E-09
   12.8699999       1.88304750E-09
   12.9300003       2.04626982E-09
   12.9899998       2.18569207E-09
   13.0500002       2.28715424E-09
   13.1099997       2.33815389E-09
   13.1700001       2.33465314E-09
   13.2299995       2.28642949E-09
   13.2900000       2.21850605E-09
   13.3500004       2.16747043E-09
   13.4099998       2.17328511E-09
   13.4700003       2.26882202E-09
   13.5299997       2.47027088E-09
   13.5900002       2.77140866E-09
   13.6499996       3.14358028E-09
   13.7100000       3.54148044E-09
   13.7700005       3.91308852E-09
   13.8299999       4.21092006E-09
   13.8900003       4.40149028E-09
   13.9499998       4.47059723E-09
   14.0100002       4.42341230E-09
   14.0699997       4.27998526E-09
   14.1300001       4.06804723E-09
   14.1899996       3.81561005E-09
   14.2500000       3.54553231E-09
   14.3100004       3.27328720E-09
   14.3699999       3.00780045E-09
   14.4300003       2.75409562E-09
   14.4899998       2.51592391E-09
   14.5500002       2.29677566E-09
   14.6099997       2.09861151E-09
   14.6700001       1.91886196E-09
   14.7299995       1.74728465E-09
   14.7900000       1.56463476E-09
   14.8500004       1.34461275E-09
   14.9099998       1.05935494E-09
   14.9700003       6.87244206E-10
   15.0299997       2.20645835E-10
   15.0900002      -3.29208216E-10
   15.1499996      -9.32311450E-10
   15.2100000      -1.54557023E-09
   15.2700005      -2.12282614E-09
   15.3299999      -2.62636424E-09
   15.3900003      -3.03634096E-09
   15.4499998      -3.35502492E-09
   15.5100002      -3.60427221E-09
   15.5699997      -3.81678689E-09
   15.6300001      -4.02372935E-09
   15.6899996      -4.24246638E-09
   15.7500000      -4.46827864E-09
   15.8100004      -4.67260763E-09
   15.8699999      -4.80837592E-09
   15.9300003      -4.82071538E-09
   15.9899998      -4.65980410E-09
   16.0499992      -4.29203295E-09
   16.1100006      -3.70645825E-09
   16.1700001      -2.91522939E-09
   16.2299995      -1.94873828E-09
   16.2900009      -8.47920345E-10
   16.3500004       3.43129941E-10
   16.4099998       1.58151758E-09
   16.4699993       2.82560753E-09
   16.5300007       4.03141431E-09
   16.5900002       5.14762011E-09
   16.6499996       6.11233775E-09
   16.7099991       6.85439838E-09
   16.7700005       7.30045402E-09
   16.8299999       7.38709938E-09
   16.8899994       7.07511827E-09
   16.9500008       6.36172359E-09
   17.0100002       5.28668176E-09
   17.0699997       3.92968413E-09
   17.1299992       2.39884246E-09
   17.1900005       8.12890144E-10
   17.2500000      -7.18240856E-10
   17.3099995      -2.10923234E-09
   17.3700008      -3.30746408E-09
   17.4300003      -4.29179359E-09
   17.4899998      -5.06351761E-09
   17.5499992      -5.63352387E-09
   17.6100006      -6.01066530E-09
   17.6700001      -6.19557516E-09
   17.7299995      -6.18180129E-09
   17.7900009      -5.96313221E-09
   17.8500004      -5.54352342E-09
   17.9099998      -4.94498620E-09
   17.9699993      -4.20959045E-09
   18.0300007      -3.39403727E-09
   18.0900002      -2.55819677E-09
   18.1499996      -1.75145731E-09
   18.2099991      -1.00180986E-09
   18.2700005      -3.11854431E-10
   18.3299999       3.36384337E-10
   18.3899994       9.69001879E-10
   18.4500008       1.60405789E-09
   18.5100002       2.23717267E-09
   18.5699997       2.83400925E-09
   18.6299992       3.33271299E-09
   18.6900005       3.65619202E-09
   18.7500000       3.73085784E-09
   18.8099995       3.50620954E-09
   18.8700008       2.96920000E-09
   18.9300003       2.14888174E-09
   18.9899998       1.10988529E-09
   19.0499992      -6.31367875E-11
   19.1100006      -1.28511668E-09
   19.1700001      -2.48803533E-09
   19.2299995      -3.63092001E-09
   19.2900009      -4.69967798E-09
   19.3500004      -5.69752423E-09
   19.4099998      -6.62989796E-09
   19.4699993      -7.48950058E-09
   19.5300007      -8.24690094E-09
   19.5900002      -8.85017570E-09
   19.6499996      -9.23389543E-09
   19.7099991      -9.33463351E-09
   19.7700005      -9.10793396E-09
   19.8299999      -8.54115001E-09
   19.8899994      -7.65790631E-09
   19.9500008      -6.51263576E-09
   20.0100002      -5.17687448E-09
   20.0699997      -3.72169984E-09
   20.1299992      -2.20194707E-09
   20.1900005      -6.47171428E-10
   20.2500000       9.38000233E-10
   20.3099995       2.56473021E-09
   20.3700008       4.24565849E-09
   20.4300003       5.98072525E-09
   20.4899998       7.74825981E-09
   20.5499992       9.50438928E-09
   20.6100006       1.11907852E-08
   20.6700001       1.27477833E-08
   20.7299995       1.41281626E-08
   20.7900009       1.53068722E-08
   20.8500004       1.62837388E-08
   20.9099998       1.70787668E-08
   20.9699993       1.77221722E-08
   21.0300007       1.82428508E-08
   21.0900002       1.86590743E-08
   21.1499996       1.89740597E-08
   21.2099991       1.91771878E-08
   21.2700005       1.92498515E-08
   21.3299999       1.91736174E-08
   21.3899994       1.89380618E-08
   21.4500008       1.85461193E-08
   21.5100002       1.80157418E-08
   21.5699997       1.73779231E-08
   21.6299992       1.66721144E-08
   21.6900005       1.59406923E-08
   21.7500000       1.52242077E-08
   21.8099995       1.45586325E-08
   21.8700008       1.39749217E-08
   21.9300003       1.35002187E-08
   21.9899998       1.31592675E-08
   22.0499992       1.29744784E-08
   22.1100006       1.29637172E-08
   22.1700001       1.31360149E-08
   22.2299995       1.34866971E-08
   22.2900009       1.39941365E-08
   22.3500004       1.46201575E-08
   22.4099998       1.53148960E-08
   22.4699993       1.60251581E-08
   22.5300007       1.67037246E-08
   22.5900002       1.73163972E-08
   22.6499996       1.78442523E-08
   22.7099991       1.82804314E-08
   22.7700005       1.86230036E-08
   22.8299999       1.88670661E-08
   22.8899994       1.89997262E-08
   22.9500008       1.90003711E-08
   23.0100002       1.88464870E-08
   23.0699997       1.85229805E-08
   23.1299992       1.80314714E-08
   23.1900005       1.73958536E-08
   23.2500000       1.66618896E-08
   23.3099995       1.58905760E-08
   23.3700008       1.51472808E-08
   23.4300003       1.44899230E-08
   23.4899998       1.39596263E-08
   23.5499992       1.35762512E-08
   23.6100006       1.33394584E-08
   23.6700001       1.32341338E-08
   23.7299995       1.32377584E-08
   23.7900009       1.33268765E-08
   23.8500004       1.34804514E-08
   23.9099998       1.36792639E-08
   23.9699993       1.39021292E-08
   24.0300007       1.41210483E-08
   24.0900002       1.42979326E-08
   24.1499996       1.43850487E-08
   24.2099991       1.43298671E-08
   24.2700005       1.40832341E-08
   24.3299999       1.36083296E-08
   24.3899994       1.28873010E-08
   24.4500008       1.19232384E-08
   24.5100002       1.07367493E-08
   24.5699997       9.35840205E-09
   24.6299992       7.81971554E-09
   24.6900005       6.14571549E-09
   24.7500000       4.35120473E-09
   24.8099995       2.44127385E-09
   24.8700008       4.14904167E-10
   24.9300003      -1.73041437E-09
   24.9899998      -3.99507050E-09
   25.0499992      -6.37575370E-09
   25.1100006      -8.86567797E-09
   25.1700001      -1.14553718E-08
   25.2299995      -1.41326568E-08
   25.2900009      -1.68810015E-08
   25.3500004      -1.96765466E-08
   25.4099998      -2.24850378E-08
   25.4699993      -2.52603325E-08
   25.5300007      -2.79458057E-08
   25.5900002      -3.04789900E-08
   25.6499996      -3.27987095E-08
   25.7099991      -3.48530413E-08
   25.7700005      -3.66061208E-08
   25.8299999      -3.80422840E-08
   25.8899994      -3.91666859E-08
   25.9500008      -4.00027211E-08
   26.0100002      -4.05871603E-08
   26.0699997      -4.09644656E-08
   26.1299992      -4.11813517E-08
   26.1900005      -4.12824619E-08
   26.2500000      -4.13072989E-08
   26.3099995      -4.12882457E-08
   26.3700008      -4.12493613E-08
   26.4300003      -4.12058547E-08
   26.4899998      -4.11642880E-08
   26.5499992      -4.11237302E-08
   26.6100006      -4.10778647E-08
   26.6700001      -4.10176568E-08
   26.7299995      -4.09338980E-08
   26.7900009      -4.08187013E-08
   26.8500004      -4.06653626E-08
   26.9099998      -4.04667766E-08
   26.9699993      -4.02131874E-08
   27.0300007      -3.98907076E-08
   27.0900002      -3.94818613E-08
   27.1499996      -3.89686790E-08
   27.2099991      -3.83377703E-08
   27.2700005      -3.75857461E-08
   27.3299999      -3.67230513E-08
   27.3899994      -3.57744661E-08
   27.4500008      -3.47758977E-08
   27.5100002      -3.37682948E-08
   27.5699997      -3.27907124E-08
   27.6299992      -3.18748334E-08
   27.6900005      -3.10425321E-08
   27.7500000      -3.03069676E-08
   27.8099995      -2.96759612E-08
   27.8700008      -2.91556663E-08
   27.9300003      -2.87523463E-08
   27.9899998      -2.84709980E-08
   28.0499992      -2.83111845E-08
   28.1100006      -2.82617929E-08
   28.1700001      -2.82974622E-08
   28.2299995      -2.83789845E-08
   28.2900009      -2.84587625E-08
   28.3500004      -2.84902768E-08
   28.4099998      -2.84388548E-08
   28.4699993      -2.82900228E-08
   28.5300007      -2.80523640E-08
   28.5900002      -2.77534582E-08
   28.6499996      -2.74301257E-08
   28.7099991      -2.71162275E-08
   28.7700005      -2.68325291E-08
   28.8299999      -2.65823346E-08
   28.8899994      -2.63546625E-08
   28.9500008      -2.61337458E-08
   29.0100002      -2.59111470E-08
   29.0699997      -2.56955204E-08
   29.1299992      -2.55157779E-08
   29.1900005      -2.54157833E-08
   29.2500000      -2.54419970E-08
   29.3099995      -2.56282338E-08
   29.3700008      -2.59831481E-08
   29.4300003      -2.64850595E-08
   29.4899998      -2.70861786E-08
   29.5499992      -2.77246581E-08
   29.6100006      -2.83400219E-08
   29.6700001      -2.88862569E-08
   29.7299995      -2.93379312E-08
   29.7900009      -2.96874489E-08
   29.8500004      -2.99351512E-08
   29.9099998      -3.00765421E-08
   29.9699993      -3.00919645E-08
   30.0300007      -2.99428251E-08
   30.0900002      -2.95759328E-08
   30.1499996      -2.89344140E-08
   30.2099991      -2.79714296E-08
   30.2700005      -2.66621516E-08
   30.3299999      -2.50103831E-08
   30.3899994      -2.30481625E-08
   30.4500008      -2.08290825E-08
   30.5100002      -1.84178734E-08
   30.5699997      -1.58796389E-08
   30.6299992      -1.32718592E-08
   30.6900005      -1.06410063E-08
   30.7500000      -8.02400457E-09
   30.8099995      -5.45322631E-09
   30.8700008      -2.96266434E-09
   30.9300003      -5.92713267E-10
   30.9899998       1.60842351E-09
   31.0499992       3.58750141E-09
   31.1100006       5.29255662E-09
   31.1700001       6.68098954E-09
   31.2299995       7.72705011E-09
   31.2900009       8.42658920E-09
   31.3500004       8.79786910E-09
   31.4099998       8.87850682E-09
   31.4699993       8.71981065E-09
   31.5300007       8.38039238E-09
   31.5900002       7.92081067E-09
   31.6499996       7.40023154E-09
   31.7099991       6.87502100E-09
   31.7700005       6.39827480E-09
   31.8299999       6.01902705E-09
   31.8899994       5.78023007E-09
   31.9500008       5.71548853E-09
   32.0099983       5.84545390E-09
   32.0699997       6.17532159E-09
   32.1300011       6.69474520E-09
   32.1899986       7.38073647E-09
   32.2500000       8.20306933E-09
   32.3100014       9.13079656E-09
   32.3699989       1.01380859E-08
   32.4300003       1.12078196E-08
   32.4900017       1.23321655E-08
   32.5499992       1.35102942E-08
   32.6100006       1.47443249E-08
   32.6699982       1.60350062E-08
   32.7299995       1.73786638E-08
   32.7900009       1.87664266E-08
   32.8499985       2.01860288E-08
   32.9099998       2.16255689E-08
   32.9700012       2.30779449E-08
   33.0299988       2.45443008E-08
   33.0900002       2.60350070E-08
   33.1500015       2.75672569E-08
   33.2099991       2.91595317E-08
   33.2700005       3.08241930E-08
   33.3300018       3.25604113E-08
   33.3899994       3.43498918E-08
   33.4500008       3.61571750E-08
   33.5099983       3.79351484E-08
   33.5699997       3.96344291E-08
   33.6300011       4.12138945E-08
   33.6899986       4.26488675E-08
   33.7500000       4.39338770E-08
   33.8100014       4.50787248E-08
   33.8699989       4.60990854E-08
   33.9300003       4.70048747E-08
   33.9900017       4.77909516E-08
   34.0499992       4.84339466E-08
   34.1100006       4.88969079E-08
   34.1699982       4.91403505E-08
   34.2299995       4.91356822E-08
   34.2900009       4.88759540E-08
   34.3499985       4.83797002E-08
   34.4099998       4.76863846E-08
   34.4700012       4.68451162E-08
   34.5299988       4.59009115E-08
   34.5900002       4.48834854E-08
   34.6500015       4.38024585E-08
   34.7099991       4.26501465E-08
   34.7700005       4.14103525E-08
   34.8300018       4.00693771E-08
   34.8899994       3.86251919E-08
   34.9500008       3.70915849E-08
   35.0099983       3.54963774E-08
   35.0699997       3.38747839E-08
   35.1300011       3.22605338E-08
   35.1899986       3.06778034E-08
   35.2500000       2.91362365E-08
   35.3100014       2.76301524E-08
   35.3699989       2.61416453E-08
   35.4300003       2.46462015E-08
   35.4900017       2.31190462E-08
   35.5499992       2.15405382E-08
   35.6100006       1.98995291E-08
   35.6699982       1.81943385E-08
   35.7299995       1.64317271E-08
   35.7900009       1.46247006E-08
   35.8499985       1.27900721E-08
   35.9099998       1.09465113E-08
   35.9700012       9.11343268E-09
   36.0299988       7.31058680E-09
   36.0900002       5.55791102E-09
   36.1500015       3.87512600E-09
   36.2099991       2.28072494E-09
   36.2700005       7.90383869E-10
   36.3300018      -5.84826576E-10
   36.3899994      -1.83984972E-09
   36.4500008      -2.97618241E-09
   36.5099983      -4.00139344E-09
   36.5699997      -4.92788610E-09
   36.6300011      -5.77143844E-09
   36.6899986      -6.55001742E-09
   36.7500000      -7.28301863E-09
   36.8100014      -7.99062594E-09
   36.8699989      -8.69273808E-09
   36.9300003      -9.40704936E-09
   36.9900017      -1.01464046E-08
   37.0499992      -1.09162412E-08
   37.1100006      -1.17132402E-08
   37.1699982      -1.25260895E-08
   37.2299995      -1.33384352E-08
   37.2900009      -1.41330680E-08
   37.3499985      -1.48957158E-08
   37.4099998      -1.56169921E-08
   37.4700012      -1.62919243E-08
   37.5299988      -1.69177916E-08
   37.5900002      -1.74918711E-08
   37.6500015      -1.80106881E-08
   37.7099991      -1.84714430E-08
   37.7700005      -1.88748768E-08
   37.8300018      -1.92278797E-08
   37.8899994      -1.95441228E-08
   37.9500008      -1.98419983E-08
   38.0099983      -2.01407442E-08
   38.0699997      -2.04566337E-08
   38.1300011      -2.08011173E-08
   38.1899986      -2.11816928E-08
   38.2500000      -2.16045581E-08
   38.3100014      -2.20769785E-08
   38.3699989      -2.26072956E-08
   38.4300003      -2.32019488E-08
   38.4900017      -2.38607463E-08
   38.5499992      -2.45731187E-08
   38.6100006      -2.53180321E-08
   38.6699982      -2.60686388E-08
   38.7299995      -2.68003735E-08
   38.7900009      -2.74990803E-08
   38.8499985      -2.81653243E-08
   38.9099998      -2.88124919E-08
   38.9700012      -2.94590006E-08
   39.0299988      -3.01179099E-08
   39.0900002      -3.07886161E-08
   39.1500015      -3.14547179E-08
   39.2099991      -3.20895559E-08
   39.2700005      -3.26675256E-08
   39.3300018      -3.31765833E-08
   39.3899994      -3.36267050E-08
   39.4500008      -3.40504336E-08
   39.5099983      -3.44949243E-08
   39.5699997      -3.50081883E-08
   39.6300011      -3.56245593E-08
   39.6899986      -3.63545567E-08
   39.7500000      -3.71825841E-08
   39.8100014      -3.80729048E-08
   39.8699989      -3.89813763E-08
   39.9300003      -3.98687270E-08
   39.9900017      -4.07109724E-08
   40.0499992      -4.15040375E-08
   40.1100006      -4.22616537E-08
   40.1699982      -4.30080505E-08
   40.2299995      -4.37679333E-08
   40.2900009      -4.45569164E-08
   40.3499985      -4.53749109E-08
   40.4099998      -4.62039189E-08
   40.4700012      -4.70105732E-08
   40.5299988      -4.77526427E-08
   40.5900002      -4.83879390E-08
   40.6500015      -4.88835212E-08
   40.7099991      -4.92229617E-08
   40.7700005      -4.94096639E-08
   40.8300018      -4.94650969E-08
   40.8899994      -4.94221162E-08
   40.9500008      -4.93150125E-08
   41.0099983      -4.91692553E-08
   41.0699997      -4.89943197E-08
   41.1300011      -4.87822192E-08
   41.1899986      -4.85126428E-08
   41.2500000      -4.81631872E-08
   41.3100014      -4.77212723E-08
   41.3699989      -4.71934314E-08
   41.4300003      -4.66084700E-08
   41.4900017      -4.60130174E-08
   41.5499992      -4.54607090E-08
   41.6100006      -4.49984690E-08
   41.6699982      -4.46543140E-08
   41.7299995      -4.44305002E-08
   41.7900009      -4.43040307E-08
   41.8499985      -4.42341630E-08
   41.9099998      -4.41745200E-08
   41.9700012      -4.40861712E-08
   42.0299988      -4.39479564E-08
   42.0900002      -4.37613323E-08
   42.1500015      -4.35483294E-08
   42.2099991      -4.33433733E-08
   42.2700005      -4.31813660E-08
   42.3300018      -4.30858158E-08
   42.3899994      -4.30609894E-08
   42.4500008      -4.30911093E-08
   42.5099983      -4.31472849E-08
   42.5699997      -4.32001883E-08
   42.6300011      -4.32338361E-08
   42.6899986      -4.32551239E-08
   42.7500000      -4.32947083E-08
   42.8100014      -4.33981135E-08
   42.8699989      -4.36096670E-08
   42.9300003      -4.39550689E-08
   42.9900017      -4.44292674E-08
   43.0499992      -4.49946889E-08
   43.1100006      -4.55907561E-08
   43.1699982      -4.61513814E-08
   43.2299995      -4.66237360E-08
   43.2900009      -4.69810999E-08
   43.3499985      -4.72250221E-08
   43.4099998      -4.73761474E-08
   43.4700012      -4.74578243E-08
   43.5299988      -4.74792685E-08
   43.5900002      -4.74251785E-08
   43.6500015      -4.72558490E-08
   43.7099991      -4.69175028E-08
   43.7700005      -4.63583874E-08
   43.8300018      -4.55442049E-08
   43.8899994      -4.44670469E-08
   43.9500008      -4.31450715E-08
   44.0099983      -4.16140828E-08
   44.0699997      -3.99152285E-08
   44.1300011      -3.80839076E-08
   44.1899986      -3.61435717E-08
   44.2500000      -3.41055078E-08
   44.3100014      -3.19727924E-08
   44.3699989      -2.97454328E-08
   44.4300003      -2.74240897E-08
   44.4900017      -2.50113885E-08
   44.5499992      -2.25116654E-08
   44.6100006      -1.99307824E-08
   44.6699982      -1.72772072E-08
   44.7299995      -1.45642636E-08
   44.7900009      -1.18120953E-08
   44.8499985      -9.04752984E-09
   44.9099998      -6.30084029E-09
   44.9700012      -3.59997654E-09
   45.0299988      -9.64435420E-10
   45.0900002       1.59852120E-09
   45.1500015       4.09328127E-09
   45.2099991       6.53068977E-09
   45.2700005       8.92003005E-09
   45.3300018       1.12613341E-08
   45.3899994       1.35412037E-08
   45.4500008       1.57340505E-08
   45.5099983       1.78084889E-08
   45.5699997       1.97365413E-08
   45.6300011       2.15021334E-08
   45.6899986       2.31055690E-08
   45.7500000       2.45621550E-08
   45.8100014       2.58954760E-08
   45.8699989       2.71278147E-08
   45.9300003       2.82712733E-08
   45.9900017       2.93228517E-08
   46.0499992       3.02650669E-08
   46.1100006       3.10716466E-08
   46.1699982       3.17158637E-08
   46.2299995       3.21783062E-08
   46.2900009       3.24514033E-08
   46.3499985       3.25395142E-08
   46.4099998       3.24552296E-08
   46.4700012       3.22140998E-08
   46.5299988       3.18302220E-08
   46.5900002       3.13145563E-08
   46.6500015       3.06762118E-08
   46.7099991       2.99254879E-08
   46.7700005       2.90766042E-08
   46.8300018       2.81482464E-08
   46.8899994       2.71612972E-08
   46.9500008       2.61347903E-08
   47.0099983       2.50822207E-08
   47.0699997       2.40104718E-08
   47.1300011       2.29224533E-08
   47.1899986       2.18226557E-08
   47.2500000       2.07231654E-08
   47.3100014       1.96471888E-08
   47.3699989       1.86281568E-08
   47.4300003       1.77047124E-08
   47.4900017       1.69140861E-08
   47.5499992       1.62876077E-08
   47.6100006       1.58513060E-08
   47.6699982       1.56323541E-08
   47.7299995       1.56691708E-08
   47.7900009       1.60210494E-08
   47.8499985       1.67731358E-08
   47.9099998       1.80346298E-08
   47.9700012       1.99312566E-08
   48.0299988       2.25959766E-08
   48.0900002       2.61631197E-08
   48.1500015       3.07701384E-08
   48.2099991       3.65683768E-08
   48.2700005       4.37408225E-08
   48.3300018       5.25224131E-08
   48.3899994       6.32177191E-08
   48.4500008       7.62124870E-08
   48.5099983       9.19783361E-08
   48.5699997       1.11073099E-07
   48.6300011       1.34141729E-07
   48.6899986       1.61922827E-07
   48.7500000       1.95264036E-07
   48.8100014       2.35147354E-07
   48.8699989       2.82721260E-07
   48.9300003       3.39335912E-07
   48.9900017       4.06575651E-07
   49.0499992       4.86288002E-07
   49.1100006       5.80608003E-07
   49.1699982       6.91983587E-07
   49.2299995       8.23205255E-07
   49.2900009       9.77447030E-07
   49.3499985       1.15831961E-06
   49.4099998       1.36993572E-06
   49.4700012       1.61698313E-06
   49.5299988       1.90480125E-06
   49.5900002       2.23945585E-06
   49.6500015       2.62781168E-06
   49.7099991       3.07760752E-06
   49.7700005       3.59753039E-06
   49.8300018       4.19730259E-06
   49.8899994       4.88777869E-06
   49.9500008       5.68105406E-06
   50.0099983       6.59058060E-06
   50.0699997       7.63129083E-06
   50.1300011       8.81971482E-06
   50.1899986       1.01740989E-05
   50.2500000       1.17145191E-05
   50.3100014       1.34629972E-05
   50.3699989       1.54436129E-05
   50.4300003       1.76826306E-05
   50.4900017       2.02086158E-05
   50.5499992       2.30525657E-05
   50.6100006       2.62480280E-05