 -0.750000000       0.00000000    
 -0.689999998       0.00000000    
 -0.629999995       0.00000000    
 -0.569999993       0.00000000    
 -0.509999990       0.00000000    
 -0.449999988       0.00000000    
 -0.389999986       0.00000000    
 -0.330000013       0.00000000    
 -0.270000011       0.00000000    
 -0.209999993       1.94800535E-30
 -0.150000006       6.55824646E-29
  -9.00000036E-02   7.13097710E-28
  -2.99999993E-02   4.32202908E-27
   2.99999993E-02   1.71179812E-26
   9.00000036E-02   4.56960961E-26
  0.150000006       7.15537640E-26
  0.209999993      -1.25332703E-26
  0.270000011      -4.71965422E-25
  0.330000013      -1.65077171E-24
  0.389999986      -3.46639287E-24
  0.449999988      -4.33140843E-24
  0.509999990      -4.74260465E-26
  0.569999993       1.55891773E-23
  0.629999995       4.60114546E-23
  0.689999998       8.20652063E-23
  0.750000000       9.14248200E-23
  0.810000002       1.83919260E-23
  0.870000005      -1.92395842E-22
  0.930000007      -5.44567318E-22
  0.990000010      -9.30013037E-22
   1.04999995      -1.10208347E-21
   1.11000001      -7.22343800E-22
   1.16999996       5.18273436E-22
   1.23000002       2.75695077E-21
   1.28999996       5.85231414E-21
   1.35000002       9.27368745E-21
   1.40999997       1.18044126E-20
   1.47000003       1.09084734E-20
   1.52999997       2.07995030E-21
   1.59000003      -2.06067380E-20
   1.64999998      -6.08474446E-20
   1.71000004      -1.12271609E-19
   1.76999998      -1.48733756E-19
   1.83000004      -1.20496847E-19
   1.88999999       3.18998584E-20
   1.95000005       3.37522183E-19
   2.00999999       7.35260425E-19
   2.06999993       1.02590889E-18
   2.13000011       8.89000679E-19
   2.19000006       1.29513680E-20
   2.25000000      -1.66187368E-18
   2.30999994      -3.67778025E-18
   2.36999989      -4.95443633E-18
   2.43000007      -4.04849034E-18
   2.49000001       1.31605844E-19
   2.54999995       7.32731641E-18
   2.60999990       1.51377228E-17
   2.67000008       1.91061913E-17
   2.73000002       1.41983120E-17
   2.78999996      -2.41647788E-18
   2.84999990      -2.82584353E-17
   2.91000009      -5.38488822E-17
   2.97000003      -6.42650713E-17
   3.02999997      -4.47669784E-17
   3.08999991       1.06762895E-17
   3.15000010       9.14160374E-17
   3.21000004       1.67512518E-16
   3.26999998       1.96491805E-16
   3.32999992       1.40056223E-16
   3.39000010      -1.39083323E-17
   3.45000005      -2.33568329E-16
   3.50999999      -4.40815110E-16
   3.56999993      -5.31771996E-16
   3.63000011      -4.18229135E-16
   3.69000006      -7.62842902E-17
   3.75000000       4.20290046E-16
   3.80999994       9.04145838E-16
   3.86999989       1.16566800E-15
   3.93000007       1.03928804E-15
   3.99000001       4.90269552E-16
   4.05000019      -3.42701484E-16
   4.11000013      -1.18186984E-15
   4.17000008      -1.72039189E-15
   4.23000002      -1.76364287E-15
   4.28999996      -1.32873434E-15
   4.34999990      -6.36523925E-16
   4.40999985       1.94636276E-17
   4.46999979       4.68342357E-16
   4.53000021       8.04040731E-16
   4.59000015       1.35762102E-15
   4.65000010       2.46180301E-15
   4.71000004       4.10058391E-15
   4.76999998       5.65077829E-15
   4.82999992       5.93854926E-15
   4.88999987       3.70947661E-15
   4.94999981      -1.61983436E-15
   5.01000023      -9.28311688E-15
   5.07000017      -1.69850384E-14
   5.13000011      -2.14813417E-14
   5.19000006      -1.98150127E-14
   5.25000000      -1.07170911E-14
   5.30999994       4.50242100E-15
   5.36999989       2.20787015E-14
   5.42999983       3.69585310E-14
   5.48999977       4.44969582E-14
   5.55000019       4.18948527E-14
   5.61000013       2.87710224E-14
   5.67000008       6.82160737E-15
   5.73000002      -2.09027420E-14
   5.78999996      -5.03961937E-14
   5.84999990      -7.64850558E-14
   5.90999985      -9.24880290E-14
   5.96999979      -9.07843408E-14
   6.03000021      -6.50908025E-14
   6.09000015      -1.41332513E-14
   6.15000010       5.50214307E-14
   6.21000004       1.26411455E-13
   6.26999998       1.79018204E-13
   6.32999992       1.94313017E-13
   6.38999987       1.64219292E-13
   6.44999981       9.50189431E-14
   6.51000023       4.23912080E-15
   6.57000017      -8.85307791E-14
   6.63000011      -1.71662611E-13
   6.69000006      -2.45351726E-13
   6.75000000      -3.14995073E-13
   6.80999994      -3.76322779E-13
   6.86999989      -4.01580380E-13
   6.92999983      -3.38937103E-13
   6.98999977      -1.32741406E-13
   7.05000019       2.39061077E-13
   7.11000013       7.26924705E-13
   7.17000008       1.19462144E-12
   7.23000002       1.44562845E-12
   7.28999996       1.29231825E-12
   7.34999990       6.46378838E-13
   7.40999985      -4.08490082E-13
   7.46999979      -1.60188301E-12
   7.53000021      -2.54149241E-12
   7.59000015      -2.84564928E-12
   7.65000010      -2.29799469E-12
   7.71000004      -9.60487332E-13
   7.76999998       8.10651893E-13
   7.82999992       2.46675987E-12
   7.88999987       3.45857739E-12
   7.94999981       3.44833060E-12
   8.01000023       2.45585345E-12
   8.06999969       8.71437417E-13
   8.13000011      -6.82640034E-13
   8.18999958      -1.59867356E-12
   8.25000000      -1.54645632E-12
   8.31000042      -6.46262232E-13
   8.36999989       5.26885556E-13
   8.43000031       1.12553001E-12
   8.48999977       3.45365121E-13
   8.55000019      -2.23253317E-12
   8.60999966      -6.39312865E-12
   8.67000008      -1.12212592E-11
   8.72999954      -1.52431765E-11
   8.78999996      -1.67325893E-11
   8.85000038      -1.40928736E-11
   8.90999985      -6.22250558E-12
   8.97000027       7.19598296E-12
   9.02999973       2.54936142E-11
   9.09000015       4.68728945E-11
   9.14999962       6.82998033E-11
   9.21000004       8.54431803E-11
   9.27000046       9.27345284E-11
   9.32999992       8.36660602E-11
   9.39000034       5.14407232E-11
   9.44999981      -9.97918154E-12
   9.51000023      -1.04496585E-10
   9.56999969      -2.32380060E-10
   9.63000011      -3.88938382E-10
   9.68999958      -5.63690650E-10
   9.75000000      -7.40290773E-10
   9.81000042      -8.97331653E-10
   9.86999989      -1.00998998E-09
   9.93000031      -1.05231979E-09
   9.98999977      -9.99890393E-10
   10.0500002      -8.32424407E-10
   10.1099997      -5.36095501E-10
   10.1700001      -1.05218466E-10
   10.2299995       4.56845006E-10
   10.2900000       1.13761334E-09
   10.3500004       1.91617722E-09
   10.4099998       2.76448486E-09
   10.4700003       3.64900066E-09
   10.5299997       4.53252458E-09
   10.5900002       5.37604228E-09
   10.6499996       6.14058715E-09
   10.7100000       6.78918610E-09
   10.7700005       7.28899430E-09
   10.8299999       7.61363683E-09
   10.8900003       7.74561482E-09
   10.9499998       7.67844544E-09
   11.0100002       7.41805417E-09
   11.0699997       6.98297686E-09
   11.1300001       6.40306785E-09
   11.1899996       5.71673464E-09
   11.2500000       4.96706587E-09
   11.3100004       4.19746016E-09
   11.3699999       3.44748363E-09
   11.4300003       2.74954770E-09
   11.4899998       2.12677120E-09
   11.5500002       1.59208269E-09
   11.6099997       1.14838361E-09
   11.6700001       7.89503241E-10
   11.7299995       5.01707786E-10
   11.7900000       2.65641009E-10
   11.8500004       5.86682786E-11
   11.9099998      -1.42407225E-10
   11.9700003      -3.58394564E-10
   12.0299997      -6.04847727E-10
   12.0900002      -8.89736340E-10
   12.1499996      -1.21213217E-09
   12.2100000      -1.56223645E-09
   12.2700005      -1.92278504E-09
   12.3299999      -2.27152830E-09
   12.3900003      -2.58422572E-09
   12.4499998      -2.83749446E-09
   12.5100002      -3.01098235E-09
   12.5699997      -3.08860759E-09
   12.6300001      -3.05894754E-09
   12.6899996      -2.91511881E-09
   12.7500000      -2.65459454E-09
   12.8100004      -2.27928165E-09
   12.8699999      -1.79590964E-09
   12.9300003      -1.21646382E-09
   12.9899998      -5.58145696E-10
   13.0500002       1.57671473E-10
   13.1099997       9.07806108E-10
   13.1700001       1.67081027E-09
   13.2299995       2.43102916E-09
   13.2900000       3.18210081E-09
   13.3500004       3.92871069E-09
   13.4099998       4.68569894E-09
   13.4700003       5.47429391E-09
   13.5299997       6.31609254E-09
   13.5900002       7.22624183E-09
   13.6499996       8.20767898E-09
   13.7100000       9.24824395E-09
   13.7700005       1.03217532E-08
   13.8299999       1.13930794E-08
   13.8900003       1.24260602E-08
   13.9499998       1.33921594E-08
   14.0100002       1.42774477E-08
   14.0699997       1.50858686E-08
   14.1300001       1.58377222E-08
   14.1899996       1.65637406E-08
   14.2500000       1.72963226E-08
   14.3100004       1.80604225E-08
   14.3699999       1.88666167E-08
   14.4300003       1.97082191E-08
   14.4899998       2.05630801E-08
   14.5500002       2.13993747E-08
   14.6099997       2.21835510E-08
   14.6700001       2.28881589E-08
   14.7299995       2.34975648E-08
   14.7900000       2.40103013E-08
   14.8500004       2.44379272E-08
   14.9099998       2.48012206E-08
   14.9700003       2.51250274E-08
   15.0299997       2.54331827E-08
   15.0900002       2.57445247E-08
   15.1499996       2.60704507E-08
   15.2100000       2.64140034E-08
   15.2700005       2.67701914E-08
   15.3299999       2.71272693E-08
   15.3900003       2.74688681E-08
   15.4499998       2.77769434E-08
   15.5100002       2.80354726E-08
   15.5699997       2.82344796E-08
   15.6300001       2.83736146E-08
   15.6899996       2.84641697E-08
   15.7500000       2.85284774E-08
   15.8100004       2.85962169E-08
   15.8699999       2.86979773E-08
   15.9300003       2.88575865E-08
   15.9899998       2.90852853E-08
   16.0499992       2.93739983E-08
   16.1100006       2.97002352E-08
   16.1700001       3.00297707E-08
   16.2299995       3.03267527E-08
   16.2900009       3.05636298E-08
   16.3500004       3.07288808E-08
   16.4099998       3.08300194E-08
   16.4699993       3.08906927E-08
   16.5300007       3.09425090E-08
   16.5900002       3.10138049E-08
   16.6499996       3.11186277E-08
   16.7099991       3.12491437E-08
   16.7700005       3.13738830E-08
   16.8299999       3.14425606E-08
   16.8899994       3.13963859E-08
   16.9500008       3.11811412E-08
   17.0100002       3.07596117E-08
   17.0699997       3.01199563E-08
   17.1299992       2.92777802E-08
   17.1900005       2.82714296E-08
   17.2500000       2.71518363E-08
   17.3099995       2.59697224E-08
   17.3700008       2.47636383E-08
   17.4300003       2.35518343E-08
   17.4899998       2.23298997E-08
   17.5499992       2.10743529E-08
   17.6100006       1.97508285E-08
   17.6700001       1.83244211E-08
   17.7299995       1.67694445E-08
   17.7900009       1.50762922E-08
   17.8500004       1.32541205E-08
   17.9099998       1.13293126E-08
   17.9699993       9.34077171E-09
   18.0300007       7.33374028E-09
   18.0900002       5.35392797E-09
   18.1499996       3.44333806E-09
   18.2099991       1.63840719E-09
   18.2700005      -2.97154037E-11
   18.3299999      -1.53353519E-09
   18.3899994      -2.84731327E-09
   18.4500008      -3.94591870E-09
   18.5100002      -4.80512030E-09
   18.5699997      -5.40353184E-09
   18.6299992      -5.72590064E-09
   18.6900005      -5.76701176E-09
   18.7500000      -5.53517410E-09
   18.8099995      -5.05418596E-09
   18.8700008      -4.36294512E-09
   18.9300003      -3.51240881E-09
   18.9899998      -2.56038080E-09
   19.0499992      -1.56536129E-09
   19.1100006      -5.81104498E-10
   19.1700001       3.46603357E-10
   19.2299995       1.18018406E-09
   19.2900009       1.88786875E-09
   19.3500004       2.44004239E-09
   19.4099998       2.80623524E-09
   19.4699993       2.95441738E-09
   19.5300007       2.85331092E-09
   19.5900002       2.47718202E-09
   19.6499996       1.81154525E-09
   19.7099991       8.57797555E-10
   19.7700005      -3.64852426E-10
   19.8299999      -1.82086479E-09
   19.8899994      -3.46288576E-09
   19.9500008      -5.23806287E-09
   20.0100002      -7.09456716E-09
   20.0699997      -8.98688501E-09
   20.1299992      -1.08789671E-08
   20.1900005      -1.27449589E-08
   20.2500000      -1.45678314E-08
   20.3099995      -1.63366547E-08
   20.3700008      -1.80434707E-08
   20.4300003      -1.96807814E-08
   20.4899998      -2.12405151E-08
   20.5499992      -2.27148806E-08
   20.6100006      -2.40990126E-08
   20.6700001      -2.53945451E-08
   20.7299995      -2.66127707E-08
   20.7900009      -2.77758527E-08
   20.8500004      -2.89149718E-08
   20.9099998      -3.00651628E-08
   20.9699993      -3.12578763E-08
   21.0300007      -3.25132383E-08
   21.0900002      -3.38344890E-08
   21.1499996      -3.52064902E-08
   21.2099991      -3.65991681E-08
   21.2700005      -3.79749920E-08
   21.3299999      -3.92983068E-08
   21.3899994      -4.05437319E-08
   21.4500008      -4.17011137E-08
   21.5100002      -4.27758309E-08
   21.5699997      -4.37846026E-08
   21.6299992      -4.47484254E-08
   21.6900005      -4.56848461E-08
   21.7500000      -4.66018477E-08
   21.8099995      -4.74949537E-08
   21.8700008      -4.83482587E-08
   21.9300003      -4.91390892E-08
   21.9899998      -4.98452053E-08
   22.0499992      -5.04528046E-08
   22.1100006      -5.09631732E-08
   22.1700001      -5.13960146E-08
   22.2299995      -5.17879073E-08
   22.2900009      -5.21855803E-08
   22.3500004      -5.26351585E-08
   22.4099998      -5.31698916E-08
   22.4699993      -5.37997025E-08
   22.5300007      -5.45056231E-08
   22.5900002      -5.52410206E-08
   22.6499996      -5.59394806E-08
   22.7099991      -5.65272913E-08
   22.7700005      -5.69372780E-08
   22.8299999      -5.71205270E-08
   22.8899994      -5.70534553E-08
   22.9500008      -5.67393172E-08
   23.0100002      -5.62048186E-08
   23.0699997      -5.54935760E-08
   23.1299992      -5.46585319E-08
   23.1900005      -5.37549809E-08
   23.2500000      -5.28351300E-08
   23.3099995      -5.19442196E-08
   23.3700008      -5.11179401E-08
   23.4300003      -5.03806383E-08
   23.4899998      -4.97442230E-08
   23.5499992      -4.92079764E-08
   23.6100006      -4.87596488E-08
   23.6700001      -4.83782117E-08
   23.7299995      -4.80380784E-08
   23.7900009      -4.77142059E-08
   23.8500004      -4.73870045E-08
   23.9099998      -4.70457167E-08
   23.9699993      -4.66894328E-08
   24.0300007      -4.63253151E-08
   24.0900002      -4.59645371E-08
   24.1499996      -4.56170390E-08
   24.2099991      -4.52865940E-08
   24.2700005      -4.49674822E-08
   24.3299999      -4.46437021E-08
   24.3899994      -4.42907400E-08
   24.4500008      -4.38793819E-08
   24.5100002      -4.33803464E-08
   24.5699997      -4.27684235E-08
   24.6299992      -4.20250963E-08
   24.6900005      -4.11391490E-08
   24.7500000      -4.01055082E-08
   24.8099995      -3.89232291E-08
   24.8700008      -3.75937361E-08
   24.9300003      -3.61201415E-08
   24.9899998      -3.45079272E-08
   25.0499992      -3.27663088E-08
   25.1100006      -3.09094510E-08
   25.1700001      -2.89565865E-08
   25.2299995      -2.69306319E-08
   25.2900009      -2.48559520E-08
   25.3500004      -2.27561898E-08
   25.4099998      -2.06532516E-08
   25.4699993      -1.85678868E-08
   25.5300007      -1.65214793E-08
   25.5900002      -1.45380081E-08
   25.6499996      -1.26450503E-08
   25.7099991      -1.08731362E-08
   25.7700005      -9.25354016E-09
   25.8299999      -7.81516984E-09
   25.8899994      -6.58145805E-09
   25.9500008      -5.56793678E-09
   26.0100002      -4.78075846E-09
   26.0699997      -4.21618207E-09
   26.1299992      -3.86096710E-09
   26.1900005      -3.69371866E-09
   26.2500000      -3.68725073E-09
   26.3099995      -3.81182996E-09
   26.3700008      -4.03873246E-09
   26.4300003      -4.34322489E-09
   26.4899998      -4.70604089E-09
   26.5499992      -5.11283726E-09
   26.6100006      -5.55180746E-09
   26.6700001      -6.01029049E-09
   26.7299995      -6.47156417E-09
   26.7900009      -6.91289026E-09
   26.8500004      -7.30547223E-09
   26.9099998      -7.61644436E-09
   26.9699993      -7.81255949E-09
   27.0300007      -7.86489984E-09
   27.0900002      -7.75368747E-09
   27.1499996      -7.47206386E-09
   27.2099991      -7.02769576E-09
   27.2700005      -6.44134657E-09
   27.3299999      -5.74229819E-09
   27.3899994      -4.96150809E-09
   27.4500008      -4.12434709E-09
   27.5100002      -3.24511706E-09
   27.5699997      -2.32514386E-09
   27.6299992      -1.35502143E-09
   27.6900005      -3.20123428E-10
   27.7500000       7.92646393E-10
   27.8099995       1.98922323E-09
   27.8700008       3.26564131E-09
   27.9300003       4.60876359E-09
   27.9899998       5.99976513E-09
   28.0499992       7.41876560E-09
   28.1100006       8.84877327E-09
   28.1700001       1.02775068E-08
   28.2299995       1.16964953E-08
   28.2900009       1.30978313E-08
   28.3500004       1.44697987E-08
   28.4099998       1.57931233E-08
   28.4699993       1.70395253E-08
   28.5300007       1.81737168E-08
   28.5900002       1.91588221E-08
   28.6499996       1.99639345E-08
   28.7099991       2.05714983E-08
   28.7700005       2.09819486E-08
   28.8299999       2.12136726E-08
   28.8899994       2.12978453E-08
   28.9500008       2.12694289E-08
   29.0100002       2.11569517E-08
   29.0699997       2.09740048E-08
   29.1299992       2.07148947E-08
   29.1900005       2.03553778E-08
   29.2500000       1.98578896E-08
   29.3099995       1.91795078E-08
   29.3700008       1.82804172E-08
   29.4300003       1.71308905E-08
   29.4899998       1.57155213E-08
   29.5499992       1.40343293E-08
   29.6100006       1.21010348E-08
   29.6700001       9.93932758E-09
   29.7299995       7.57813012E-09
   29.7900009       5.04690423E-09
   29.8500004       2.37186026E-09
   29.9099998      -4.26296359E-10
   29.9699993      -3.33282002E-09
   30.0300007      -6.33772279E-09
   30.0900002      -9.43342915E-09
   30.1499996      -1.26120749E-08
   30.2099991      -1.58633355E-08
   30.2700005      -1.91735019E-08
   30.3299999      -2.25261800E-08
   30.3899994      -2.59043809E-08
   30.4500008      -2.92932505E-08
   30.5100002      -3.26823049E-08
   30.5699997      -3.60660550E-08
   30.6299992      -3.94424227E-08
   30.6900005      -4.28092157E-08
   30.7500000      -4.61598439E-08
   30.8099995      -4.94799792E-08
   30.8700008      -5.27467137E-08
   30.9300003      -5.59308724E-08
   30.9899998      -5.90019269E-08
   31.0499992      -6.19336831E-08
   31.1100006      -6.47086722E-08
   31.1700001      -6.73194620E-08
   31.2299995      -6.97663296E-08
   31.2900009      -7.20522664E-08
   31.3500004      -7.41770805E-08
   31.4099998      -7.61327428E-08
   31.4699993      -7.79013192E-08
   31.5300007      -7.94560293E-08
   31.5900002      -8.07647353E-08
   31.6499996      -8.17947239E-08
   31.7099991      -8.25176514E-08
   31.7700005      -8.29135374E-08
   31.8299999      -8.29734148E-08
   31.8899994      -8.27002324E-08
   31.9500008      -8.21078743E-08
   32.0099983      -8.12184098E-08
   32.0699997      -8.00581006E-08
   32.1300011      -7.86530094E-08
   32.1899986      -7.70256889E-08
   32.2500000      -7.51939808E-08
   32.3100014      -7.31726431E-08
   32.3699989      -7.09772721E-08
   32.4300003      -6.86291628E-08
   32.4900017      -6.61590889E-08
   32.5499992      -6.36085886E-08
   32.6100006      -6.10278263E-08
   32.6699982      -5.84708282E-08
   32.7299995      -5.59895277E-08
   32.7900009      -5.36283764E-08
   32.8499985      -5.14208978E-08
   32.9099998      -4.93886283E-08
   32.9700012      -4.75420414E-08
   33.0299988      -4.58826293E-08
   33.0900002      -4.44052475E-08
   33.1500015      -4.31003144E-08
   33.2099991      -4.19556301E-08
   33.2700005      -4.09578931E-08
   33.3300018      -4.00937523E-08
   33.3899994      -3.93501871E-08
   33.4500008      -3.87140737E-08
   33.5099983      -3.81710343E-08
   33.5699997      -3.77042717E-08
   33.6300011      -3.72942637E-08
   33.6899986      -3.69201345E-08
   33.7500000      -3.65627137E-08
   33.8100014      -3.62085935E-08
   33.8699989      -3.58535210E-08
   33.9300003      -3.55036214E-08
   33.9900017      -3.51735245E-08
   34.0499992      -3.48817757E-08
   34.1100006      -3.46450726E-08
   34.1699982      -3.44734516E-08
   34.2299995      -3.43682487E-08
   34.2900009      -3.43234987E-08
   34.3499985      -3.43299753E-08
   34.4099998      -3.43800153E-08
   34.4700012      -3.44710038E-08
   34.5299988      -3.46061739E-08
   34.5900002      -3.47924960E-08
   34.6500015      -3.50369156E-08
   34.7099991      -3.53427296E-08
   34.7700005      -3.57077354E-08
   34.8300018      -3.61249128E-08
   34.8899994      -3.65850745E-08
   34.9500008      -3.70800173E-08
   35.0099983      -3.76045435E-08
   35.0699997      -3.81562586E-08
   35.1300011      -3.87332122E-08
   35.1899986      -3.93303701E-08
   35.2500000      -3.99365518E-08
   35.3100014      -4.05330773E-08
   35.3699989      -4.10946441E-08
   35.4300003      -4.15920240E-08
   35.4900017      -4.19955875E-08
   35.5499992      -4.22786250E-08
   35.6100006      -4.24200302E-08
   35.6699982      -4.24062243E-08
   35.7299995      -4.22325819E-08
   35.7900009      -4.19042934E-08
   35.8499985      -4.14362376E-08
   35.9099998      -4.08512051E-08
   35.9700012      -4.01762215E-08
   36.0299988      -3.94374347E-08
   36.0900002      -3.86550418E-08
   36.1500015      -3.78400919E-08
   36.2099991      -3.69944821E-08
   36.2700005      -3.61142973E-08
   36.3300018      -3.51950895E-08
   36.3899994      -3.42369333E-08
   36.4500008      -3.32471259E-08
   36.5099983      -3.22395728E-08
   36.5699997      -3.12314548E-08
   36.6300011      -3.02389189E-08
   36.6899986      -2.92738314E-08
   36.7500000      -2.83429280E-08
   36.8100014      -2.74493672E-08
   36.8699989      -2.65957478E-08
   36.9300003      -2.57870418E-08
   36.9900017      -2.50322270E-08
   37.0499992      -2.43441232E-08
   37.1100006      -2.37376518E-08
   37.1699982      -2.32271482E-08
   37.2299995      -2.28234374E-08
   37.2900009      -2.25311396E-08
   37.3499985      -2.23465566E-08
   37.4099998      -2.22563994E-08
   37.4700012      -2.22376748E-08
   37.5299988      -2.22590000E-08
   37.5900002      -2.22834124E-08
   37.6500015      -2.22724150E-08
   37.7099991      -2.21906582E-08
   37.7700005      -2.20103953E-08
   37.8300018      -2.17149108E-08
   37.8899994      -2.13002611E-08
   37.9500008      -2.07750723E-08
   38.0099983      -2.01584385E-08
   38.0699997      -1.94764080E-08
   38.1300011      -1.87576799E-08
   38.1899986      -1.80294339E-08
   38.2500000      -1.73140986E-08
   38.3100014      -1.66277498E-08
   38.3699989      -1.59803459E-08
   38.4300003      -1.53775748E-08
   38.4900017      -1.48236312E-08
   38.5499992      -1.43239403E-08
   38.6100006      -1.38869209E-08
   38.6699982      -1.35241729E-08
   38.7299995      -1.32489060E-08
   38.7900009      -1.30730173E-08
   38.8499985      -1.30036160E-08
   38.9099998      -1.30401059E-08
   38.9700012      -1.31729472E-08
   39.0299988      -1.33848834E-08
   39.0900002      -1.36547911E-08
   39.1500015      -1.39634428E-08
   39.2099991      -1.42996193E-08
   39.2700005      -1.46645469E-08
   39.3300018      -1.50728265E-08
   39.3899994      -1.55489168E-08
   39.4500008      -1.61197011E-08
   39.5099983      -1.68051386E-08
   39.5699997      -1.76099206E-08
   39.6300011      -1.85189961E-08
   39.6899986      -1.94987653E-08
   39.7500000      -2.05039097E-08
   39.8100014      -2.14879403E-08
   39.8699989      -2.24143584E-08
   39.9300003      -2.32649882E-08
   39.9900017      -2.40430396E-08
   40.0499992      -2.47701450E-08
   40.1100006      -2.54785082E-08
   40.1699982      -2.62008086E-08
   40.2299995      -2.69610823E-08
   40.2900009      -2.77693903E-08
   40.3499985      -2.86217112E-08
   40.4099998      -2.95047808E-08
   40.4700012      -3.04039567E-08
   40.5299988      -3.13113091E-08
   40.5900002      -3.22309859E-08
   40.6500015      -3.31800116E-08
   40.7099991      -3.41839304E-08
   40.7700005      -3.52685205E-08
   40.8300018      -3.64499328E-08
   40.8899994      -3.77261351E-08
   40.9500008      -3.90723081E-08
   41.0099983      -4.04417513E-08
   41.0699997      -4.17725801E-08
   41.1300011      -4.29988951E-08
   41.1899986      -4.40638566E-08
   41.2500000      -4.49313440E-08
   41.3100014      -4.55929374E-08
   41.3699989      -4.60678713E-08
   41.4300003      -4.63955452E-08
   41.4900017      -4.66224535E-08
   41.5499992      -4.67873598E-08
   41.6100006      -4.69096229E-08
   41.6699982      -4.69847947E-08
   41.7299995      -4.69893422E-08
   41.7900009      -4.68931205E-08
   41.8499985      -4.66751757E-08
   41.9099998      -4.63369112E-08
   41.9700012      -4.59072851E-08
   42.0299988      -4.54376909E-08
   42.0900002      -4.49876509E-08
   42.1500015      -4.46064305E-08
   42.2099991      -4.43170869E-08
   42.2700005      -4.41088517E-08
   42.3300018      -4.39407977E-08
   42.3899994      -4.37555805E-08
   42.4500008      -4.34985594E-08
   42.5099983      -4.31356000E-08
   42.5699997      -4.26635474E-08
   42.6300011      -4.21100701E-08
   42.6899986      -4.15232613E-08
   42.7500000      -4.09549479E-08
   42.8100014      -4.04435454E-08
   42.8699989      -4.00021314E-08
   42.9300003      -3.96153723E-08
   42.9900017      -3.92459185E-08
   43.0499992      -3.88478121E-08
   43.1100006      -3.83823746E-08
   43.1699982      -3.78315335E-08
   43.2299995      -3.72044049E-08
   43.2900009      -3.65351056E-08
   43.3499985      -3.58722012E-08
   43.4099998      -3.52629499E-08
   43.4700012      -3.47369919E-08
   43.5299988      -3.42947857E-08
   43.5900002      -3.39047830E-08
   43.6500015      -3.35109434E-08
   43.7099991      -3.30486145E-08
   43.7700005      -3.24639835E-08
   43.8300018      -3.17306394E-08
   43.8899994      -3.08576062E-08
   43.9500008      -2.98860847E-08
   44.0099983      -2.88760340E-08
   44.0699997      -2.78873937E-08
   44.1300011      -2.69622848E-08
   44.1899986      -2.61137956E-08
   44.2500000      -2.53241534E-08
   44.3100014      -2.45516958E-08
   44.3699989      -2.37433273E-08
   44.4300003      -2.28481021E-08
   44.4900017      -2.18281873E-08
   44.5499992      -2.06651318E-08
   44.6100006      -1.93609964E-08
   44.6699982      -1.79351840E-08
   44.7299995      -1.64183636E-08
   44.7900009      -1.48450425E-08
   44.8499985      -1.32464795E-08
   44.9099998      -1.16455627E-08
   44.9700012      -1.00550022E-08
   45.0299988      -8.47941806E-09
   45.0900002      -6.92069380E-09
   45.1500015      -5.38476996E-09
   45.2099991      -3.88740018E-09
   45.2700005      -2.45666976E-09
   45.3300018      -1.13124421E-09
   45.3899994       4.51418278E-11
   45.4500008       1.03117748E-09
   45.5099983       1.79517357E-09
   45.5699997       2.32006614E-09
   45.6300011       2.60525845E-09
   45.6899986       2.66535327E-09
   45.7500000       2.52655452E-09
   45.8100014       2.22179053E-09
   45.8699989       1.78554516E-09
   45.9300003       1.24916721E-09
   45.9900017       6.37190745E-10
   46.0499992      -3.49639137E-11
   46.1100006      -7.61700647E-10
   46.1699982      -1.54630653E-09
   46.2299995      -2.39849296E-09
   46.2900009      -3.33075811E-09
   46.3499985      -4.35416148E-09
   46.4099998      -5.47433299E-09
   46.4700012      -6.68868561E-09
   46.5299988      -7.98572497E-09
   46.5900002      -9.34690014E-09
   46.6500015      -1.07506919E-08
   46.7099991      -1.21777388E-08
   46.7700005      -1.36152440E-08
   46.8300018      -1.50589567E-08
   46.8899994      -1.65118745E-08
   46.9500008      -1.79802200E-08
   47.0099983      -1.94684304E-08
   47.0699997      -2.09754596E-08
   47.1300011      -2.24941150E-08
   47.1899986      -2.40137386E-08
   47.2500000      -2.55249386E-08
   47.3100014      -2.70239866E-08
   47.3699989      -2.85146289E-08
   47.4300003      -3.00061842E-08
   47.4900017      -3.15084776E-08
   47.5499992      -3.30256178E-08
   47.6100006      -3.45513236E-08
   47.6699982      -3.60679628E-08
   47.7299995      -3.75503255E-08
   47.7900009      -3.89734254E-08
   47.8499985      -4.03223765E-08
   47.9099998      -4.16014849E-08
   47.9700012      -4.28398650E-08
   48.0299988      -4.40915784E-08
   48.0900002      -4.54298714E-08
   48.1500015      -4.69368153E-08
   48.2099991      -4.86912057E-08
   48.2700005      -5.07584978E-08
   48.3300018      -5.31861772E-08
   48.3899994      -5.60067051E-08
   48.4500008      -5.92477889E-08
   48.5099983      -6.29476133E-08
   48.5699997      -6.71710154E-08
   48.6300011      -7.20224662E-08
   48.6899986      -7.76528211E-08
   48.7500000      -8.42589287E-08
   48.8100014      -9.20772223E-08
   48.8699989      -1.01374582E-07
   48.9300003      -1.12440127E-07
   48.9900017      -1.25581565E-07
   49.0499992      -1.41128524E-07
   49.1100006      -1.59442820E-07
   49.1699982      -1.80935018E-07
   49.2299995      -2.06083769E-07
   49.2900009      -2.35454920E-07
   49.3499985      -2.69717191E-07
   49.4099998      -3.09653274E-07
   49.4700012      -3.56166566E-07
   49.5299988      -4.10285566E-07
   49.5900002      -4.73169251E-07
   49.6500015      -5.46116155E-07
   49.7099991      -6.30578086E-07
   49.7700005      -7.28179089E-07
   49.8300018      -8.40737869E-07
   49.8899994      -9.70291694E-07
   49.9500008      -1.11911993E-06
   50.0099983      -1.28976694E-06
   50.0699997      -1.48506206E-06
   50.1300011      -1.70813871E-06
   50.1899986      -1.96245514E-06
   50.2500000      -2.25181475E-06
   50.3100014      -2.58038858E-06
   50.3699989      -2.95274140E-06
   50.4300003      -3.37385973E-06
   50.4900017      -3.84917712E-06
   50.5499992      -4.38460302E-06
   50.6100006      -4.98654163E-06