 -0.750000000       0.00000000    
 -0.689999998       0.00000000    
 -0.629999995       0.00000000    
 -0.569999993       0.00000000    
 -0.509999990       0.00000000    
 -0.449999988       0.00000000    
 -0.389999986      -5.52115594E-22
 -0.330000013      -4.22755976E-21
 -0.270000011      -1.43520667E-20
 -0.209999993      -2.18859017E-20
 -0.150000006       2.18407525E-20
  -9.00000036E-02   2.15706111E-19
  -2.99999993E-02   6.28094369E-19
   2.99999993E-02   1.06049755E-18
   9.00000036E-02   7.34107594E-19
  0.150000006      -1.75199852E-18
  0.209999993      -7.63831233E-18
  0.270000011      -1.60640576E-17
  0.330000013      -2.15577280E-17
  0.389999986      -1.29842144E-17
  0.449999988       2.30258859E-17
  0.509999990       9.20483277E-17
  0.569999993       1.77012760E-16
  0.629999995       2.26499336E-16
  0.689999998       1.59376753E-16
  0.750000000      -1.02029552E-16
  0.810000002      -5.69735060E-16
  0.870000005      -1.12029668E-15
  0.930000007      -1.46247311E-15
  0.990000010      -1.19640926E-15
   1.04999995       4.90161795E-18
   1.11000001       2.12409182E-15
   1.16999996       4.55697500E-15
   1.23000002       6.08495510E-15
   1.28999996       5.23247615E-15
   1.35000002       1.03443221E-15
   1.40999997      -6.02502836E-15
   1.47000003      -1.34179599E-14
   1.52999997      -1.69421141E-14
   1.59000003      -1.24168254E-14
   1.64999998       1.60540198E-15
   1.71000004       2.13025974E-14
   1.76999998       3.70151907E-14
   1.83000004       3.61776039E-14
   1.88999999       9.83300474E-15
   1.95000005      -3.95068127E-14
   2.00999999      -9.30037094E-14
   2.06999993      -1.18365915E-13
   2.13000011      -8.26959351E-14
   2.19000006       2.75968518E-14
   2.25000000       1.88537513E-13
   2.30999994       3.33805845E-13
   2.36999989       3.72544308E-13
   2.43000007       2.29503238E-13
   2.49000001      -1.05838434E-13
   2.54999995      -5.45144388E-13
   2.60999990      -9.07053783E-13
   2.67000008      -9.75290270E-13
   2.73000002      -5.97387591E-13
   2.78999996       2.13484205E-13
   2.84999990       1.22541300E-12
   2.91000009       2.02671170E-12
   2.97000003       2.16674226E-12
   3.02999997       1.35992552E-12
   3.08999991      -3.28371905E-13
   3.15000010      -2.40905885E-12
   3.21000004      -4.07500552E-12
   3.26999998      -4.48142782E-12
   3.32999992      -3.11301093E-12
   3.39000010      -8.81878934E-14
   3.45000005       3.75287822E-12
   3.50999999       7.06143260E-12
   3.56999993       8.45575086E-12
   3.63000011       7.09087520E-12
   3.69000006       3.08008285E-12
   3.75000000      -2.44528790E-12
   3.80999994      -7.71360233E-12
   3.86999989      -1.10063824E-11
   3.93000007      -1.13755186E-11
   3.99000001      -9.04116886E-12
   4.05000019      -5.24205332E-12
   4.11000013      -1.56030733E-12
   4.17000008       9.77856359E-13
   4.23000002       2.55853541E-12
   4.28999996       4.58146195E-12
   4.34999990       8.88022468E-12
   4.40999985       1.64416987E-11
   4.46999979       2.62377117E-11
   4.53000021       3.48526139E-11
   4.59000015       3.73163826E-11
   4.65000010       2.90174985E-11
   4.71000004       8.00340176E-12
   4.76999998      -2.33410982E-11
   4.82999992      -5.81237905E-11
   4.88999987      -8.66083039E-11
   4.94999981      -9.92540911E-11
   5.01000023      -9.00220662E-11
   5.07000017      -5.86236823E-11
   5.13000011      -1.07556238E-11
   5.19000006       4.38275284E-11
   5.25000000       9.46345710E-11
   5.30999994       1.33769010E-10
   5.36999989       1.57852217E-10
   5.42999983       1.67695857E-10
   5.48999977       1.65827421E-10
   5.55000019       1.52887286E-10
   5.61000013       1.24412730E-10
   5.67000008       6.94008392E-11
   5.73000002      -2.86460178E-11
   5.78999996      -1.88442859E-10
   5.84999990      -4.26501584E-10
   5.90999985      -7.53038354E-10
   5.96999979      -1.16948262E-09
   6.03000021      -1.66817060E-09
   6.09000015      -2.23393659E-09
   6.15000010      -2.84660917E-09
   6.21000004      -3.48317886E-09
   6.26999998      -4.11873735E-09
   6.32999992      -4.72602801E-09
   6.38999987      -5.27433341E-09
   6.44999981      -5.72899728E-09
   6.51000023      -6.05289996E-09
   6.57000017      -6.21053031E-09
   6.63000011      -6.17420293E-09
   6.69000006      -5.93082250E-09
   6.75000000      -5.48696377E-09
   6.80999994      -4.87025309E-09
   6.86999989      -4.12614476E-09
   6.92999983      -3.31078653E-09
   6.98999977      -2.48215692E-09
   7.05000019      -1.69231185E-09
   7.11000013      -9.83061854E-10
   7.17000008      -3.85812743E-10
   7.23000002       7.56575705E-11
   7.28999996       3.82170989E-10
   7.34999990       5.18710297E-10
   7.40999985       4.78064199E-10
   7.46999979       2.67684958E-10
   7.53000021      -8.34089187E-11
   7.59000015      -5.21933829E-10
   7.65000010      -9.75212244E-10
   7.71000004      -1.36427913E-09
   7.76999998      -1.62237757E-09
   7.82999992      -1.71315773E-09
   7.88999987      -1.64209701E-09
   7.94999981      -1.45641155E-09
   8.01000023      -1.23254962E-09
   8.06999969      -1.05475784E-09
   8.13000011      -9.91475124E-10
   8.18999958      -1.07709497E-09
   8.25000000      -1.30461975E-09
   8.31000042      -1.63073843E-09
   8.36999989      -1.99048200E-09
   8.43000031      -2.31556396E-09
   8.48999977      -2.54989807E-09
   8.55000019      -2.65766764E-09
   8.60999966      -2.62277311E-09
   8.67000008      -2.44196441E-09
   8.72999954      -2.11608930E-09
   8.78999996      -1.64390612E-09
   8.85000038      -1.02103881E-09
   8.90999985      -2.43889131E-10
   8.97000027       6.84073853E-10
   9.02999973       1.74722259E-09
   9.09000015       2.91675839E-09
   9.14999962       4.15469525E-09
   9.21000004       5.42150591E-09
   9.27000046       6.68451650E-09
   9.32999992       7.92388644E-09
   9.39000034       9.13412279E-09
   9.44999981       1.03209947E-08
   9.51000023       1.14956480E-08
   9.56999969       1.26687629E-08
   9.63000011       1.38474210E-08
   9.68999958       1.50358268E-08
   9.75000000       1.62390243E-08
   9.81000042       1.74669044E-08
   9.86999989       1.87352143E-08
   9.93000031       2.00613961E-08
   9.98999977       2.14554774E-08
   10.0500002       2.29090720E-08
   10.1099997       2.43874307E-08
   10.1700001       2.58292641E-08
   10.2299995       2.71564815E-08
   10.2900000       2.82921473E-08
   10.3500004       2.91811375E-08
   10.4099998       2.98063298E-08
   10.4700003       3.01943324E-08
   10.5299997       3.04084402E-08
   10.5900002       3.05312113E-08
   10.6499996       3.06425996E-08
   10.7100000       3.08007628E-08
   10.7700005       3.10309538E-08
   10.8299999       3.13245394E-08
   10.8900003       3.16465822E-08
   10.9499998       3.19483320E-08
   11.0100002       3.21803526E-08
   11.0699997       3.23034399E-08
   11.1300001       3.22957376E-08
   11.1899996       3.21560236E-08
   11.2500000       3.19033653E-08
   11.3100004       3.15734638E-08
   11.3699999       3.12120143E-08
   11.4300003       3.08657704E-08
   11.4899998       3.05728562E-08
   11.5500002       3.03545669E-08
   11.6099997       3.02109768E-08
   11.6700001       3.01219032E-08
   11.7299995       3.00531795E-08
   11.7900000       2.99664862E-08
   11.8500004       2.98298382E-08
   11.9099998       2.96255056E-08
   11.9700003       2.93532576E-08
   12.0299997       2.90283353E-08
   12.0900002       2.86754478E-08
   12.1499996       2.83211499E-08
   12.2100000       2.79872605E-08
   12.2700005       2.76872942E-08
   12.3299999       2.74265641E-08
   12.3900003       2.72053420E-08
   12.4499998       2.70234750E-08
   12.5100002       2.68845426E-08
   12.5699997       2.67979310E-08
   12.6300001       2.67779132E-08
   12.6899996       2.68398388E-08
   12.7500000       2.69945097E-08
   12.8100004       2.72426330E-08
   12.8699999       2.75714598E-08
   12.9300003       2.79552896E-08
   12.9899998       2.83603026E-08
   13.0500002       2.87525328E-08
   13.1099997       2.91064168E-08
   13.1700001       2.94107476E-08
   13.2299995       2.96696108E-08
   13.2900000       2.98977341E-08
   13.3500004       3.01119023E-08
   13.4099998       3.03216261E-08
   13.4700003       3.05225427E-08
   13.5299997       3.06948067E-08
   13.5900002       3.08065573E-08
   13.6499996       3.08209671E-08
   13.7100000       3.07042498E-08
   13.7700005       3.04324672E-08
   13.8299999       2.99958920E-08
   13.8900003       2.94007396E-08
   13.9499998       2.86682909E-08
   14.0100002       2.78314705E-08
   14.0699997       2.69286407E-08
   14.1300001       2.59948720E-08
   14.1899996       2.50520635E-08
   14.2500000       2.41007498E-08
   14.3100004       2.31170443E-08
   14.3699999       2.20574474E-08
   14.4300003       2.08716138E-08
   14.4899998       1.95199554E-08
   14.5500002       1.79902475E-08
   14.6099997       1.63067782E-08
   14.6700001       1.45277896E-08
   14.7299995       1.27311504E-08
   14.7900000       1.09928013E-08
   14.8500004       9.36556788E-09
   14.9099998       7.86579957E-09
   14.9700003       6.47224363E-09
   15.0299997       5.13664666E-09
   15.0900002       3.80120424E-09
   15.1499996       2.41583686E-09
   15.2100000       9.49321288E-10
   15.2700005      -6.08305517E-10
   15.3299999      -2.25064722E-09
   15.3900003      -3.96302458E-09
   15.4499998      -5.72926506E-09
   15.5100002      -7.53456053E-09
   15.5699997      -9.36442568E-09
   15.6300001      -1.12018714E-08
   15.6899996      -1.30254003E-08
   15.7500000      -1.48094532E-08
   15.8100004      -1.65272844E-08
   15.8699999      -1.81549904E-08
   15.9300003      -1.96750101E-08
   15.9899998      -2.10778719E-08
   16.0499992      -2.23617480E-08
   16.1100006      -2.35300543E-08
   16.1700001      -2.45876777E-08
   16.2299995      -2.55367851E-08
   16.2900009      -2.63733639E-08
   16.3500004      -2.70857861E-08
   16.4099998      -2.76563092E-08
   16.4699993      -2.80654433E-08
   16.5300007      -2.82978245E-08
   16.5900002      -2.83473263E-08
   16.6499996      -2.82193291E-08
   16.7099991      -2.79293761E-08
   16.7700005      -2.74991585E-08
   16.8299999      -2.69519429E-08
   16.8899994      -2.63091735E-08
   16.9500008      -2.55886654E-08
   17.0100002      -2.48032848E-08
   17.0699997      -2.39588527E-08
   17.1299992      -2.30513404E-08
   17.1900005      -2.20653842E-08
   17.2500000      -2.09771649E-08
   17.3099995      -1.97633589E-08
   17.3700008      -1.84144486E-08
   17.4300003      -1.69472401E-08
   17.4899998      -1.54100697E-08
   17.5499992      -1.38765319E-08
   17.6100006      -1.24286821E-08
   17.6700001      -1.11359730E-08
   17.7299995      -1.00385806E-08
   17.7900009      -9.14177711E-09
   17.8500004      -8.42268655E-09
   17.9099998      -7.84499221E-09
   17.9699993      -7.37419503E-09
   18.0300007      -6.98720060E-09
   18.0900002      -6.67430156E-09
   18.1499996      -6.43614095E-09
   18.2099991      -6.28030916E-09
   18.2700005      -6.22083718E-09
   18.3299999      -6.28027008E-09
   18.3899994      -6.49082654E-09
   18.4500008      -6.89052015E-09
   18.5100002      -7.51257723E-09
   18.5699997      -8.37055225E-09
   18.6299992      -9.44485112E-09
   18.6900005      -1.06770148E-08
   18.7500000      -1.19755859E-08
   18.8099995      -1.32329960E-08
   18.8700008      -1.43486050E-08
   18.9300003      -1.52507518E-08
   18.9899998      -1.59112119E-08
   19.0499992      -1.63483254E-08
   19.1100006      -1.66190617E-08
   19.1700001      -1.68036198E-08
   19.2299995      -1.69879275E-08
   19.2900009      -1.72489649E-08
   19.3500004      -1.76459274E-08
   19.4099998      -1.82176052E-08
   19.4699993      -1.89842790E-08
   19.5300007      -1.99515160E-08
   19.5900002      -2.11136246E-08
   19.6499996      -2.24555734E-08
   19.7099991      -2.39533886E-08
   19.7700005      -2.55736268E-08
   19.8299999      -2.72726481E-08
   19.8899994      -2.89962792E-08
   19.9500008      -3.06803045E-08
   20.0100002      -3.22523483E-08
   20.0699997      -3.36357893E-08
   20.1299992      -3.47559990E-08
   20.1900005      -3.55486414E-08
   20.2500000      -3.59686894E-08
   20.3099995      -3.59983510E-08
   20.3700008      -3.56519045E-08
   20.4300003      -3.49759155E-08
   20.4899998      -3.40443407E-08
   20.5499992      -3.29487371E-08
   20.6100006      -3.17847260E-08
   20.6700001      -3.06364605E-08
   20.7299995      -2.95618712E-08
   20.7900009      -2.85817805E-08
   20.8500004      -2.76761689E-08
   20.9099998      -2.67894773E-08
   20.9699993      -2.58446082E-08
   21.0300007      -2.47624037E-08
   21.0900002      -2.34813573E-08
   21.1499996      -2.19719620E-08
   21.2099991      -2.02420196E-08
   21.2700005      -1.83324129E-08
   21.3299999      -1.63061813E-08
   21.3899994      -1.42353933E-08
   21.4500008      -1.21900188E-08
   21.5100002      -1.02308064E-08
   21.5699997      -8.40564773E-09
   21.6299992      -6.74728806E-09
   21.6900005      -5.27047517E-09
   21.7500000      -3.96835853E-09
   21.8099995      -2.81007884E-09
   21.8700008      -1.74255077E-09
   21.9300003      -6.98563651E-10
   21.9899998       3.89278942E-10
   22.0499992       1.57232838E-09
   22.1100006       2.87277668E-09
   22.1700001       4.27854463E-09
   22.2299995       5.74816328E-09
   22.2900009       7.22371230E-09
   22.3500004       8.64679972E-09
   22.4099998       9.97191574E-09
   22.4699993       1.11733494E-08
   22.5300007       1.22451791E-08
   22.5900002       1.31966686E-08
   22.6499996       1.40464431E-08
   22.7099991       1.48178678E-08
   22.7700005       1.55362070E-08
   22.8299999       1.62268101E-08
   22.8899994       1.69135284E-08
   22.9500008       1.76173653E-08
   23.0100002       1.83560882E-08
   23.0699997       1.91449914E-08
   23.1299992       1.99978452E-08
   23.1900005       2.09260111E-08
   23.2500000       2.19342642E-08
   23.3099995       2.30141630E-08
   23.3700008       2.41384779E-08
   23.4300003       2.52613201E-08
   23.4899998       2.63268021E-08
   23.5499992       2.72847114E-08
   23.6100006       2.81071255E-08
   23.6700001       2.87981337E-08
   23.7299995       2.93912592E-08
   23.7900009       2.99348812E-08
   23.8500004       3.04720231E-08
   23.9099998       3.10237844E-08
   23.9699993       3.15835820E-08
   24.0300007       3.21237117E-08
   24.0900002       3.26093890E-08
   24.1499996       3.30122987E-08
   24.2099991       3.33170362E-08
   24.2700005       3.35188410E-08
   24.3299999       3.36161214E-08
   24.3899994       3.36038504E-08
   24.4500008       3.34720802E-08
   24.5100002       3.32098260E-08
   24.5699997       3.28103127E-08
   24.6299992       3.22728972E-08
   24.6900005       3.15991500E-08
   24.7500000       3.07851842E-08
   24.8099995       2.98152649E-08
   24.8700008       2.86617521E-08
   24.9300003       2.72927654E-08
   24.9899998       2.56842636E-08
   25.0499992       2.38301237E-08
   25.1100006       2.17444835E-08
   25.1700001       1.94546654E-08
   25.2299995       1.69883023E-08
   25.2900009       1.43614605E-08
   25.3500004       1.15740226E-08
   25.4099998       8.61454996E-09
   25.4699993       5.47163337E-09
   25.5300007       2.14544094E-09
   25.5900002      -1.34658273E-09
   25.6499996      -4.97235542E-09
   25.7099991      -8.69403749E-09
   25.7700005      -1.24779858E-08
   25.8299999      -1.63007314E-08
   25.8899994      -2.01487733E-08
   25.9500008      -2.40136941E-08
   26.0100002      -2.78864754E-08
   26.0699997      -3.17545314E-08
   26.1299992      -3.56026320E-08
   26.1900005      -3.94159869E-08
   26.2500000      -4.31823821E-08
   26.3099995      -4.68910848E-08
   26.3700008      -5.05288043E-08
   26.4300003      -5.40754073E-08
   26.4899998      -5.75026853E-08
   26.5499992      -6.07779995E-08
   26.6100006      -6.38714894E-08
   26.6700001      -6.67632847E-08
   26.7299995      -6.94467559E-08
   26.7900009      -7.19259248E-08
   26.8500004      -7.42086002E-08
   26.9099998      -7.62991874E-08
   26.9699993      -7.81950718E-08
   27.0300007      -7.98880038E-08
   27.0900002      -8.13686540E-08
   27.1499996      -8.26305282E-08
   27.2099991      -8.36704146E-08
   27.2700005      -8.44855705E-08
   27.3299999      -8.50708162E-08
   27.3899994      -8.54195576E-08
   27.4500008      -8.55299120E-08
   27.5100002      -8.54130420E-08
   27.5699997      -8.50976178E-08
   27.6299992      -8.46253698E-08
   27.6900005      -8.40373318E-08
   27.7500000      -8.33564826E-08
   27.8099995      -8.25759514E-08
   27.8700008      -8.16601329E-08
   27.9300003      -8.05598503E-08
   27.9899998      -7.92350434E-08
   28.0499992      -7.76746560E-08
   28.1100006      -7.59048078E-08
   28.1700001      -7.39826689E-08
   28.2299995      -7.19804305E-08
   28.2900009      -6.99673635E-08
   28.3500004      -6.79964742E-08
   28.4099998      -6.60979254E-08
   28.4699993      -6.42769464E-08
   28.5300007      -6.25136565E-08
   28.5900002      -6.07642292E-08
   28.6499996      -5.89667692E-08
   28.7099991      -5.70551393E-08
   28.7700005      -5.49806529E-08
   28.8299999      -5.27354054E-08
   28.8899994      -5.03668254E-08
   28.9500008      -4.79741864E-08
   29.0100002      -4.56848994E-08
   29.0699997      -4.36179945E-08
   29.1299992      -4.18492441E-08
   29.1900005      -4.03926670E-08
   29.2500000      -3.92062454E-08
   29.3099995      -3.82188183E-08
   29.3700008      -3.73660605E-08
   29.4300003      -3.66202464E-08
   29.4899998      -3.60022909E-08
   29.5499992      -3.55732652E-08
   29.6100006      -3.54110021E-08
   29.6700001      -3.55824454E-08
   29.7299995      -3.61220067E-08
   29.7900009      -3.70218700E-08
   29.8500004      -3.82348055E-08
   29.9099998      -3.96863093E-08
   29.9699993      -4.12913863E-08
   30.0300007      -4.29721787E-08
   30.0900002      -4.46734809E-08
   30.1499996      -4.63736747E-08
   30.2099991      -4.80882889E-08
   30.2700005      -4.98637007E-08
   30.3299999      -5.17604235E-08
   30.3899994      -5.38291545E-08
   30.4500008      -5.60864954E-08
   30.5100002      -5.84993742E-08
   30.5699997      -6.09853359E-08
   30.6299992      -6.34303845E-08
   30.6900005      -6.57191777E-08
   30.7500000      -6.77667700E-08
   30.8099995      -6.95404694E-08
   30.8700008      -7.10639725E-08
   30.9300003      -7.24030755E-08
   30.9899998      -7.36390930E-08
   31.0499992      -7.48397326E-08
   31.1100006      -7.60366845E-08
   31.1700001      -7.72158302E-08
   31.2299995      -7.83211647E-08
   31.2900009      -7.92700305E-08
   31.3500004      -7.99751803E-08
   31.4099998      -8.03680180E-08
   31.4699993      -8.04172160E-08
   31.5300007      -8.01370845E-08
   31.5900002      -7.95820014E-08
   31.6499996      -7.88272487E-08
   31.7099991      -7.79416141E-08
   31.7700005      -7.69616122E-08
   31.8299999      -7.58779422E-08
   31.8899994      -7.46404680E-08
   31.9500008      -7.31805727E-08
   32.0099983      -7.14413915E-08
   32.0699997      -6.94030433E-08
   32.1300011      -6.70918610E-08
   32.1899986      -6.45704503E-08
   32.2500000      -6.19142071E-08
   32.3100014      -5.91852363E-08
   32.3699989      -5.64147911E-08
   32.4300003      -5.35995781E-08
   32.4900017      -5.07106428E-08
   32.5499992      -4.77087347E-08
   32.6100006      -4.45595134E-08
   32.6699982      -4.12448316E-08
   32.7299995      -3.77695812E-08
   32.7900009      -3.41649873E-08
   32.8499985      -3.04879926E-08
   32.9099998      -2.68147478E-08
   32.9700012      -2.32261552E-08
   33.0299988      -1.97867855E-08
   33.0900002      -1.65233889E-08
   33.1500015      -1.34126177E-08
   33.2099991      -1.03862181E-08
   33.2700005      -7.35534034E-09
   33.3300018      -4.24637925E-09
   33.3899994      -1.03398079E-09
   33.4500008       2.24344099E-09
   33.5099983       5.49324541E-09
   33.5699997       8.59948290E-09
   33.6300011       1.14618404E-08
   33.6899986       1.40260905E-08
   33.7500000       1.62943241E-08
   33.8100014       1.83132371E-08
   33.8699989       2.01484376E-08
   33.9300003       2.18573852E-08
   33.9900017       2.34714932E-08
   34.0499992       2.49913814E-08
   34.1100006       2.63925468E-08
   34.1699982       2.76356289E-08
   34.2299995       2.86765971E-08
   34.2900009       2.94756610E-08
   34.3499985       3.00059071E-08
   34.4099998       3.02619796E-08
   34.4700012       3.02659480E-08
   34.5299988       3.00654186E-08
   34.5900002       2.97200398E-08
   34.6500015       2.92780786E-08
   34.7099991       2.87514297E-08
   34.7700005       2.81010468E-08
   34.8300018       2.72424430E-08
   34.8899994       2.60723407E-08
   34.9500008       2.45072602E-08
   35.0099983       2.25179377E-08
   35.0699997       2.01444834E-08
   35.1300011       1.74854193E-08
   35.1899986       1.46655159E-08
   35.2500000       1.17964207E-08
   35.3100014       8.94610075E-09
   35.3699989       6.12777473E-09
   35.4300003       3.30949801E-09
   35.4900017       4.37212100E-10
   35.5499992      -2.53947063E-09
   35.6100006      -5.64755176E-09
   35.6699982      -8.88088003E-09
   35.7299995      -1.21997683E-08
   35.7900009      -1.55376707E-08
   35.8499985      -1.88131768E-08
   35.9099998      -2.19464429E-08
   35.9700012      -2.48782719E-08
   36.0299988      -2.75874257E-08
   36.0900002      -3.00991339E-08
   36.1500015      -3.24783684E-08
   36.2099991      -3.48062734E-08
   36.2700005      -3.71459734E-08
   36.3300018      -3.95106774E-08
   36.3899994      -4.18485442E-08
   36.4500008      -4.40530634E-08
   36.5099983      -4.59969698E-08
   36.5699997      -4.75767159E-08
   36.6300011      -4.87492180E-08
   36.6899986      -4.95455623E-08
   36.7500000      -5.00566273E-08
   36.8100014      -5.03976452E-08
   36.8699989      -5.06672428E-08
   36.9300003      -5.09171407E-08
   36.9900017      -5.11423153E-08
   37.0499992      -5.12918774E-08
   37.1100006      -5.12931138E-08
   37.1699982      -5.10784268E-08
   37.2299995      -5.06072588E-08
   37.2900009      -4.98794037E-08
   37.3499985      -4.89393237E-08
   37.4099998      -4.78718185E-08
   37.4700012      -4.67885855E-08
   37.5299988      -4.58055176E-08
   37.5900002      -4.50137421E-08
   37.6500015      -4.44521753E-08
   37.7099991      -4.40926478E-08
   37.7700005      -4.38469669E-08
   37.8300018      -4.35972893E-08
   37.8899994      -4.32404939E-08
   37.9500008      -4.27289635E-08
   38.0099983      -4.20897663E-08
   38.0699997      -4.14129495E-08
   38.1300011      -4.08136707E-08
   38.1899986      -4.03849505E-08
   38.2500000      -4.01617584E-08
   38.3100014      -4.01107485E-08
   38.3699989      -4.01470643E-08
   38.4300003      -4.01673539E-08
   38.4900017      -4.00826714E-08
   38.5499992      -3.98384614E-08
   38.6100006      -3.94179409E-08
   38.6699982      -3.88336012E-08
   38.7299995      -3.81149725E-08
   38.7900009      -3.72982001E-08
   38.8499985      -3.64177524E-08
   38.9099998      -3.54977345E-08
   38.9700012      -3.45416851E-08
   39.0299988      -3.35242802E-08
   39.0900002      -3.23914016E-08
   39.1500015      -3.10733483E-08
   39.2099991      -2.95090903E-08
   39.2700005      -2.76717653E-08
   39.3300018      -2.55822759E-08
   39.3899994      -2.33022188E-08
   39.4500008      -2.09076187E-08
   39.5099983      -1.84556903E-08
   39.5699997      -1.59614064E-08
   39.6300011      -1.33960523E-08
   39.6899986      -1.07085798E-08
   39.7500000      -7.85868082E-09
   39.8100014      -4.84472329E-09
   39.8699989      -1.71311454E-09
   39.9300003       1.45415679E-09
   39.9900017       4.56593696E-09
   40.0499992       7.54855645E-09
   40.1100006       1.03608624E-08
   40.1699982       1.29935289E-08
   40.2299995       1.54570934E-08
   40.2900009       1.77676878E-08
   40.3499985       1.99380938E-08
   40.4099998       2.19762804E-08
   40.4700012       2.38880666E-08
   40.5299988       2.56785029E-08
   40.5900002       2.73488414E-08
   40.6500015       2.88905611E-08
   40.7099991       3.02813135E-08
   40.7700005       3.14873105E-08
   40.8300018       3.24726308E-08
   40.8899994       3.32108598E-08
   40.9500008       3.36919790E-08
   41.0099983       3.39193527E-08
   41.0699997       3.38976598E-08
   41.1300011       3.36187185E-08
   41.1899986       3.30547678E-08
   41.2500000       3.21655094E-08
   41.3100014       3.09176080E-08
   41.3699989       2.93075004E-08
   41.4300003       2.73749414E-08
   41.4900017       2.51984567E-08
   41.5499992       2.28726122E-08
   41.6100006       2.04767314E-08
   41.6699982       1.80493824E-08
   41.7299995       1.55804276E-08
   41.7900009       1.30236684E-08
   41.8499985       1.03232614E-08
   41.9099998       7.44113127E-09
   41.9700012       4.37357484E-09
   42.0299988       1.15192134E-09
   42.0900002      -2.16970220E-09
   42.1500015      -5.53125457E-09
   42.2099991      -8.88011797E-09
   42.2700005      -1.21768791E-08
   42.3300018      -1.53945585E-08
   42.3899994      -1.85150046E-08
   42.4500008      -2.15255120E-08
   42.5099983      -2.44161704E-08
   42.5699997      -2.71765881E-08
   42.6300011      -2.97911367E-08
   42.6899986      -3.22341265E-08
   42.7500000      -3.44684778E-08
   42.8100014      -3.64509845E-08
   42.8699989      -3.81439698E-08
   42.9300003      -3.95287749E-08
   42.9900017      -4.06139655E-08
   43.0499992      -4.14326813E-08
   43.1100006      -4.20288018E-08
   43.1699982      -4.24378221E-08
   43.2299995      -4.26718572E-08
   43.2900009      -4.27167528E-08
   43.3499985      -4.25431601E-08
   43.4099998      -4.21262492E-08
   43.4700012      -4.14639807E-08
   43.5299988      -4.05846237E-08
   43.5900002      -3.95399944E-08
   43.6500015      -3.83882082E-08
   43.7099991      -3.71750843E-08
   43.7700005      -3.59233319E-08
   43.8300018      -3.46340379E-08
   43.8899994      -3.32981109E-08
   43.9500008      -3.19103215E-08
   44.0099983      -3.04782262E-08
   44.0699997      -2.90219457E-08
   44.1300011      -2.75668235E-08
   44.1899986      -2.61347779E-08
   44.2500000      -2.47403982E-08
   44.3100014      -2.33938486E-08
   44.3699989      -2.21077645E-08
   44.4300003      -2.09023820E-08
   44.4900017      -1.98042880E-08
   44.5499992      -1.88387759E-08
   44.6100006      -1.80203656E-08
   44.6699982      -1.73480821E-08
   44.7299995      -1.68091194E-08
   44.7900009      -1.63891727E-08
   44.8499985      -1.60827209E-08
   44.9099998      -1.58960738E-08
   44.9700012      -1.58404383E-08
   45.0299988      -1.59192410E-08
   45.0900002      -1.61187206E-08
   45.1500015      -1.64099152E-08
   45.2099991      -1.67634422E-08
   45.2700005      -1.71696684E-08
   45.3300018      -1.76519475E-08
   45.3899994      -1.82628490E-08
   45.4500008      -1.90622806E-08
   45.5099983      -2.00870218E-08
   45.5699997      -2.13267910E-08
   45.6300011      -2.27191723E-08
   45.6899986      -2.41657681E-08
   45.7500000      -2.55607944E-08
   45.8100014      -2.68177125E-08
   45.8699989      -2.78824608E-08
   45.9300003      -2.87311970E-08
   45.9900017      -2.93598763E-08
   46.0499992      -2.97763574E-08
   46.1100006      -3.00011571E-08
   46.1699982      -3.00740872E-08
   46.2299995      -3.00571088E-08
   46.2900009      -3.00245091E-08
   46.3499985      -3.00395584E-08
   46.4099998      -3.01274845E-08
   46.4700012      -3.02602210E-08
   46.5299988      -3.03645891E-08
   46.5900002      -3.03536893E-08
   46.6500015      -3.01679783E-08
   46.7099991      -2.98058360E-08
   46.7700005      -2.93280049E-08
   46.8300018      -2.88337141E-08
   46.8899994      -2.84210131E-08
   46.9500008      -2.81516535E-08
   47.0099983      -2.80370749E-08
   47.0699997      -2.80494703E-08
   47.1300011      -2.81483281E-08
   47.1899986      -2.83058483E-08
   47.2500000      -2.85182544E-08
   47.3100014      -2.88005992E-08
   47.3699989      -2.91734068E-08
   47.4300003      -2.96531919E-08
   47.4900017      -3.02540464E-08
   47.5499992      -3.09979420E-08
   47.6100006      -3.19244293E-08
   47.6699982      -3.30909096E-08
   47.7299995      -3.45624542E-08
   47.7900009      -3.63992534E-08
   47.8499985      -3.86534467E-08
   47.9099998      -4.13822079E-08
   47.9700012      -4.46728947E-08
   48.0299988      -4.86667133E-08
   48.0900002      -5.35659908E-08
   48.1500015      -5.96189622E-08
   48.2099991      -6.70896725E-08
   48.2700005      -7.62306556E-08
   48.3300018      -8.72762982E-08
   48.3899994      -1.00463907E-07
   48.4500008      -1.16074773E-07
   48.5099983      -1.34476934E-07
   48.5699997      -1.56151629E-07
   48.6300011      -1.81695711E-07
   48.6899986      -2.11806451E-07
   48.7500000      -2.47263955E-07
   48.8100014      -2.88925918E-07
   48.8699989      -3.37740971E-07
   48.9300003      -3.94774759E-07
   48.9900017      -4.61236482E-07
   49.0499992      -5.38497716E-07
   49.1100006      -6.28102214E-07
   49.1699982      -7.31774151E-07
   49.2299995      -8.51438358E-07
   49.2900009      -9.89255341E-07
   49.3499985      -1.14766885E-06
   49.4099998      -1.32945172E-06
   49.4700012      -1.53773738E-06
   49.5299988      -1.77602942E-06
   49.5900002      -2.04819798E-06
   49.6500015      -2.35847710E-06
   49.7099991      -2.71148110E-06
   49.7700005      -3.11224494E-06
   49.8300018      -3.56628425E-06
   49.8899994      -4.07965490E-06
   49.9500008      -4.65899802E-06
   50.0099983      -5.31156047E-06
   50.0699997      -6.04520028E-06
   50.1300011      -6.86838803E-06
   50.1899986      -7.79020957E-06
   50.2500000      -8.82039149E-06
   50.3100014      -9.96931431E-06
   50.3699989      -1.12480366E-05
   50.4300003      -1.26682917E-05
   50.4900017      -1.42424788E-05
   50.5499992      -1.59836618E-05
   50.6100006      -1.79055587E-05