  -2.400000      0.0000000E+00
  -2.340000      0.0000000E+00
  -2.280000      0.0000000E+00
  -2.220000      0.0000000E+00
  -2.160000      0.0000000E+00
  -2.100000      0.0000000E+00
  -2.040000     -4.0581668E-22
  -1.980000     -1.8025342E-21
  -1.920000      2.2904058E-21
  -1.860000      4.5564133E-20
  -1.800000      2.0137192E-19
  -1.740000      5.1915432E-19
  -1.680000      8.1669982E-19
  -1.620000      4.0862497E-19
  -1.560000     -1.8621384E-18
  -1.500000     -6.7621887E-18
  -1.440000     -1.2847567E-17
  -1.380000     -1.4706087E-17
  -1.320000     -3.5846782E-18
  -1.260000      2.7253464E-17
  -1.200000      7.2752520E-17
  -1.140000      1.0727989E-16
  -1.080000      8.6781715E-17
  -1.020000     -2.9213872E-17
 -0.9600000     -2.3720469E-16
 -0.9000000     -4.5024555E-16
 -0.8400000     -4.9432493E-16
 -0.7800000     -1.7411994E-16
 -0.7200000      5.8795003E-16
 -0.6600000      1.5900447E-15
 -0.6000000      2.2726457E-15
 -0.5400000      1.8454243E-15
 -0.4800000     -3.2108385E-16
 -0.4200000     -4.1264468E-15
 -0.3600000     -8.2663334E-15
 -0.3000000     -1.0244943E-14
 -0.2400000     -7.1937153E-15
 -0.1800000      2.5190103E-15
 -0.1200000      1.7439754E-14
 -5.9999999E-02  3.1995917E-14
  0.0000000E+00  3.7433422E-14
  5.9999999E-02  2.5286661E-14
  0.1200000     -7.3642230E-15
  0.1800000     -5.3142776E-14
  0.2400000     -9.3334913E-14
  0.3000000     -1.0310016E-13
  0.3600000     -6.2882052E-14
  0.4200000      2.7856996E-14
  0.4800000      1.4166207E-13
  0.5400000      2.2627751E-13
  0.6000000      2.2338678E-13
  0.6600000      9.8569224E-14
  0.7200000     -1.3009065E-13
  0.7800000     -3.8135882E-13
  0.8400000     -5.3075475E-13
  0.9000000     -4.6096216E-13
  0.9600000     -1.2584401E-13
   1.020000      4.0177803E-13
   1.080000      9.2898107E-13
   1.140000      1.2028460E-12
   1.200000      1.0182326E-12
   1.260000      3.3092555E-13
   1.320000     -6.8015228E-13
   1.380000     -1.6459402E-12
   1.440000     -2.1415400E-12
   1.500000     -1.8771911E-12
   1.560000     -8.6174286E-13
   1.620000      5.5049872E-13
   1.680000      1.7781091E-12
   1.740000      2.2691419E-12
   1.800000      1.7901787E-12
   1.860000      6.0087146E-13
   1.920000     -6.0541204E-13
   1.980000     -1.0159116E-12
   2.040000     -1.5533362E-13
   2.100000      1.7326268E-12
   2.160000      3.6105238E-12
   2.220000      4.0024477E-12
   2.280000      1.7016150E-12
   2.340000     -3.4555551E-12
   2.400000     -1.0140162E-11
   2.460000     -1.5721391E-11
   2.520000     -1.7155092E-11
   2.580000     -1.2288728E-11
   2.640000     -1.0391001E-12
   2.700000      1.4135523E-11
   2.760000      2.8799053E-11
   2.820000      3.8019737E-11
   2.880000      3.8206154E-11
   2.940000      2.8511908E-11
   3.000000      1.1166271E-11
   3.060000     -9.4426151E-12
   3.120000     -2.8519073E-11
   3.180000     -4.2618811E-11
   3.240000     -5.0571044E-11
   3.300000     -5.3133421E-11
   3.360000     -5.1606986E-11
   3.420000     -4.6211736E-11
   3.480000     -3.5206456E-11
   3.540000     -1.5408447E-11
   3.600000      1.5934287E-11
   3.660000      5.8705367E-11
   3.720000      1.0810269E-10
   3.780000      1.5446219E-10
   3.840000      1.8506233E-10
   3.900000      1.8735838E-10
   3.960000      1.5241647E-10
   4.020000      7.7180672E-11
   4.080000     -3.5306792E-11
   4.140000     -1.7771591E-10
   4.200000     -3.4135753E-10
   4.260000     -5.1883259E-10
   4.320000     -7.0515677E-10
   4.380000     -8.9683799E-10
   4.440000     -1.0893515E-09
   4.500000     -1.2742405E-09
   4.560000     -1.4373120E-09
   4.620000     -1.5590016E-09
   4.680000     -1.6170890E-09
   4.740000     -1.5909659E-09
   4.800000     -1.4659528E-09
   4.860000     -1.2360695E-09
   4.920000     -9.0418861E-10
   4.980000     -4.7947774E-10
   5.040000      2.6920842E-11
   5.100000      6.0629346E-10
   5.160000      1.2550410E-09
   5.220000      1.9743951E-09
   5.280000      2.7669875E-09
   5.340000      3.6313270E-09
   5.400000      4.5561959E-09
   5.460000      5.5172675E-09
   5.520000      6.4776926E-09
   5.580000      7.3931106E-09
   5.640000      8.2199350E-09
   5.700000      8.9244363E-09
   5.760000      9.4896704E-09
   5.820000      9.9179163E-09
   5.880000      1.0227889E-08
   5.940000      1.0447894E-08
   6.000000      1.0607581E-08
   6.060000      1.0731308E-08
   6.120000      1.0835191E-08
   6.180000      1.0928126E-08
   6.240000      1.1015188E-08
   6.300000      1.1100893E-08
   6.360000      1.1190141E-08
   6.420000      1.1286306E-08
   6.480000      1.1387820E-08
   6.540000      1.1485885E-08
   6.600000      1.1565762E-08
   6.660000      1.1612364E-08
   6.720000      1.1618516E-08
   6.780000      1.1592331E-08
   6.840000      1.1559800E-08
   6.900000      1.1560332E-08
   6.960000      1.1635827E-08
   7.020000      1.1816875E-08
   7.080000      1.2111188E-08
   7.140000      1.2498793E-08
   7.200000      1.2936007E-08
   7.260000      1.3366844E-08
   7.320000      1.3737812E-08
   7.380000      1.4011083E-08
   7.440000      1.4172042E-08
   7.500000      1.4229652E-08
   7.560000      1.4210650E-08
   7.620000      1.4150380E-08
   7.680000      1.4083461E-08
   7.740000      1.4036780E-08
   7.800000      1.4025955E-08
   7.860000      1.4055210E-08
   7.920000      1.4119840E-08
   7.980000      1.4210143E-08
   8.040000      1.4315775E-08
   8.100000      1.4429594E-08
   8.160000      1.4550374E-08
   8.220000      1.4684058E-08
   8.280000      1.4843578E-08
   8.340000      1.5047570E-08
   8.400000      1.5318349E-08
   8.460000      1.5679277E-08
   8.520000      1.6151382E-08
   8.580000      1.6748993E-08
   8.640000      1.7474507E-08
   8.700000      1.8313251E-08
   8.760000      1.9230187E-08
   8.820000      2.0170555E-08
   8.880000      2.1065894E-08
   8.940000      2.1845306E-08
   9.000000      2.2449695E-08
   9.060000      2.2845169E-08
   9.120000      2.3031312E-08
   9.180000      2.3041345E-08
   9.240000      2.2933747E-08
   9.300000      2.2777940E-08
   9.360000      2.2638766E-08
   9.420000      2.2564986E-08
   9.480000      2.2585231E-08
   9.540000      2.2711697E-08
   9.600000      2.2948585E-08
   9.660000      2.3300249E-08
   9.720000      2.3774520E-08
   9.780000      2.4379286E-08
   9.840000      2.5114197E-08
   9.900000      2.5962242E-08
   9.960000      2.6886509E-08
   10.02000      2.7835140E-08
   10.08000      2.8753325E-08
   10.14000      2.9597354E-08
   10.20000      3.0344161E-08
   10.26000      3.0991359E-08
   10.32000      3.1547085E-08
   10.38000      3.2013560E-08
   10.44000      3.2371485E-08
   10.50000      3.2572018E-08
   10.56000      3.2540303E-08
   10.62000      3.2189853E-08
   10.68000      3.1443310E-08
   10.74000      3.0253151E-08
   10.80000      2.8616460E-08
   10.86000      2.6579851E-08
   10.92000      2.4233533E-08
   10.98000      2.1695795E-08
   11.04000      1.9091255E-08
   11.10000      1.6527462E-08
   11.16000      1.4075260E-08
   11.22000      1.1757805E-08
   11.28000      9.5514885E-09
   11.34000      7.3988251E-09
   11.40000      5.2298570E-09
   11.46000      2.9857476E-09
   11.52000      6.3763972E-10
   11.58000     -1.8043557E-09
   11.64000     -4.2935255E-09
   11.70000     -6.7579169E-09
   11.76000     -9.1159018E-09
   11.82000     -1.1290932E-08
   11.88000     -1.3222171E-08
   11.94000     -1.4870140E-08
   12.00000     -1.6218278E-08
   12.06000     -1.7271983E-08
   12.12000     -1.8056035E-08
   12.18000     -1.8610477E-08
   12.24000     -1.8984654E-08
   12.30000     -1.9229468E-08
   12.36000     -1.9388990E-08
   12.42000     -1.9493303E-08
   12.48000     -1.9554665E-08
   12.54000     -1.9568203E-08
   12.60000     -1.9517000E-08
   12.66000     -1.9380122E-08
   12.72000     -1.9141265E-08
   12.78000     -1.8795847E-08
   12.84000     -1.8355086E-08
   12.90000     -1.7846704E-08
   12.96000     -1.7312637E-08
   13.02000     -1.6804535E-08
   13.08000     -1.6377570E-08
   13.14000     -1.6082838E-08
   13.20000     -1.5958678E-08
   13.26000     -1.6021803E-08
   13.32000     -1.6260181E-08
   13.38000     -1.6630397E-08
   13.44000     -1.7061888E-08
   13.50000     -1.7468949E-08
   13.56000     -1.7768492E-08
   13.62000     -1.7898929E-08
   13.68000     -1.7834060E-08
   13.74000     -1.7586963E-08
   13.80000     -1.7202057E-08
   13.86000     -1.6737998E-08
   13.92000     -1.6247483E-08
   13.98000     -1.5761159E-08
   14.04000     -1.5280873E-08
   14.10000     -1.4783536E-08
   14.16000     -1.4232562E-08
   14.22000     -1.3591416E-08
   14.28000     -1.2833849E-08
   14.34000     -1.1947860E-08
   14.40000     -1.0933806E-08
   14.46000     -9.7994937E-09
   14.52000     -8.5558716E-09
   14.58000     -7.2155912E-09
   14.64000     -5.7946954E-09
   14.70000     -4.3157766E-09
   14.76000     -2.8104032E-09
   14.82000     -1.3191992E-09
   14.88000      1.1074140E-10
   14.94000      1.4302959E-09
   15.00000      2.5933382E-09
   15.06000      3.5612271E-09
   15.12000      4.3060280E-09
   15.18000      4.8119682E-09
   15.24000      5.0747149E-09
   15.30000      5.0982774E-09
   15.36000      4.8900475E-09
   15.42000      4.4555768E-09
   15.48000      3.7955634E-09
   15.54000      2.9073297E-09
   15.60000      1.7914057E-09
   15.66000      4.6116994E-10
   15.72000     -1.0488452E-09
   15.78000     -2.6808857E-09
   15.84000     -4.3609703E-09
   15.90000     -6.0137415E-09
   15.96000     -7.5799491E-09
   16.02000     -9.0294829E-09
   16.08000     -1.0364301E-08
   16.14000     -1.1609864E-08
   16.20000     -1.2798561E-08
   16.26000     -1.3951852E-08
   16.32000     -1.5067704E-08
   16.38000     -1.6117136E-08
   16.44000     -1.7049645E-08
   16.50000     -1.7804359E-08
   16.56000     -1.8322959E-08
   16.62000     -1.8561403E-08
   16.68000     -1.8499083E-08
   16.74000     -1.8144869E-08
   16.80000     -1.7539467E-08
   16.86000     -1.6752930E-08
   16.92000     -1.5876418E-08
   16.98000     -1.5008590E-08
   17.04000     -1.4238994E-08
   17.10000     -1.3632408E-08
   17.16000     -1.3218174E-08
   17.22000     -1.2987220E-08
   17.28000     -1.2897138E-08
   17.34000     -1.2883541E-08
   17.40000     -1.2874528E-08
   17.46000     -1.2804685E-08
   17.52000     -1.2625338E-08
   17.58000     -1.2308643E-08
   17.64000     -1.1844572E-08
   17.70000     -1.1231974E-08
   17.76000     -1.0467160E-08
   17.82000     -9.5348378E-09
   17.88000     -8.4056335E-09
   17.94000     -7.0416490E-09
   18.00000     -5.4076503E-09
   18.06000     -3.4825547E-09
   18.12000     -1.2658554E-09
   18.18000      1.2233047E-09
   18.24000      3.9522319E-09
   18.30000      6.8806725E-09
   18.36000      9.9618758E-09
   18.42000      1.3137777E-08
   18.48000      1.6332269E-08
   18.54000      1.9449150E-08
   18.60000      2.2379767E-08
   18.66000      2.5019974E-08
   18.72000      2.7290429E-08
   18.78000      2.9151394E-08
   18.84000      3.0605577E-08
   18.90000      3.1688415E-08
   18.96000      3.2451421E-08
   19.02000      3.2947074E-08
   19.08000      3.3221731E-08
   19.14000      3.3317701E-08
   19.20000      3.3280049E-08
   19.26000      3.3161594E-08
   19.32000      3.3021255E-08
   19.38000      3.2915565E-08
   19.44000      3.2887417E-08
   19.50000      3.2957594E-08
   19.56000      3.3122806E-08
   19.62000      3.3360347E-08
   19.68000      3.3636219E-08
   19.74000      3.3912926E-08
   19.80000      3.4154443E-08
   19.86000      3.4328533E-08
   19.92000      3.4408217E-08
   19.98000      3.4374072E-08
   20.04000      3.4217496E-08
   20.10000      3.3943120E-08
   20.16000      3.3568028E-08
   20.22000      3.3116603E-08
   20.28000      3.2612107E-08
   20.34000      3.2068186E-08
   20.40000      3.1484095E-08
   20.46000      3.0845861E-08
   20.52000      3.0132984E-08
   20.58000      2.9327655E-08
   20.64000      2.8422448E-08
   20.70000      2.7423525E-08
   20.76000      2.6348809E-08
   20.82000      2.5223153E-08
   20.88000      2.4073659E-08
   20.94000      2.2927432E-08
   21.00000      2.1812088E-08
   21.06000      2.0757012E-08
   21.12000      1.9792951E-08
   21.18000      1.8948599E-08
   21.24000      1.8245164E-08
   21.30000      1.7691761E-08
   21.36000      1.7284449E-08
   21.42000      1.7009723E-08
   21.48000      1.6850359E-08
   21.54000      1.6789686E-08
   21.60000      1.6810972E-08
   21.66000      1.6891681E-08
   21.72000      1.6996246E-08
   21.78000      1.7073186E-08
   21.84000      1.7061256E-08
   21.90000      1.6904856E-08
   21.96000      1.6573477E-08
   22.02000      1.6076319E-08
   22.08000      1.5464110E-08
   22.14000      1.4815194E-08
   22.20000      1.4210274E-08
   22.26000      1.3705847E-08
   22.32000      1.3317415E-08
   22.38000      1.3019214E-08
   22.44000      1.2759625E-08
   22.50000      1.2484274E-08
   22.56000      1.2155771E-08
   22.62000      1.1761519E-08
   22.68000      1.1307551E-08
   22.74000      1.0803486E-08
   22.80000      1.0247726E-08
   22.86000      9.6210284E-09
   22.92000      8.8915595E-09
   22.98000      8.0282510E-09
   23.04000      7.0152657E-09
   23.10000      5.8605396E-09
   23.16000      4.5950705E-09
   23.22000      3.2646927E-09
   23.28000      1.9193864E-09
   23.34000      6.0525973E-10
   23.40000     -6.3850347E-10
   23.46000     -1.7790680E-09
   23.52000     -2.7892473E-09
   23.58000     -3.6495804E-09
   23.64000     -4.3533315E-09
   23.70000     -4.9115552E-09
   23.76000     -5.3541429E-09
   23.82000     -5.7242615E-09
   23.88000     -6.0669549E-09
   23.94000     -6.4161041E-09
   24.00000     -6.7852426E-09
   24.06000     -7.1662618E-09
   24.12000     -7.5363920E-09
   24.18000     -7.8700726E-09
   24.24000     -8.1503462E-09
   24.30000     -8.3751583E-09
   24.36000     -8.5568281E-09
   24.42000     -8.7162535E-09
   24.48000     -8.8752659E-09
   24.54000     -9.0503036E-09
   24.60000     -9.2486481E-09
   24.66000     -9.4665067E-09
   24.72000     -9.6876693E-09
   24.78000     -9.8825410E-09
   24.84000     -1.0009179E-08
   24.90000     -1.0018808E-08
   24.96000     -9.8669677E-09
   25.02000     -9.5283150E-09
   25.08000     -9.0098551E-09
   25.14000     -8.3562437E-09
   25.20000     -7.6430346E-09
   25.26000     -6.9587545E-09
   25.32000     -6.3818568E-09
   25.38000     -5.9612786E-09
   25.44000     -5.7077330E-09
   25.50000     -5.5978000E-09
   25.56000     -5.5870051E-09
   25.62000     -5.6245693E-09
   25.68000     -5.6632161E-09
   25.74000     -5.6616138E-09
   25.80000     -5.5821112E-09
   25.86000     -5.3892419E-09
   25.92000     -5.0533751E-09
   25.98000     -4.5597002E-09
   26.04000     -3.9181471E-09
   26.10000     -3.1678182E-09
   26.16000     -2.3715319E-09
   26.22000     -1.6010225E-09
   26.28000     -9.1848107E-10
   26.34000     -3.6233291E-10
   26.40000      5.6836220E-11
   26.46000      3.4948189E-10
   26.52000      5.3414334E-10
   26.58000      6.2572808E-10
   26.64000      6.3090072E-10
   26.70000      5.5173466E-10
   26.76000      3.9364270E-10
   26.82000      1.7109511E-10
   26.88000     -9.3822103E-11
   26.94000     -3.8030673E-10
   27.00000     -6.8052503E-10
   27.06000     -1.0070427E-09
   27.12000     -1.3907741E-09
   27.18000     -1.8691417E-09
   27.24000     -2.4694828E-09
   27.30000     -3.1954159E-09
   27.36000     -4.0224051E-09
   27.42000     -4.9040669E-09
   27.48000     -5.7855400E-09
   27.54000     -6.6174493E-09
   27.60000     -7.3649362E-09
   27.66000     -8.0099962E-09
   27.72000     -8.5492982E-09
   27.78000     -8.9913170E-09
   27.84000     -9.3551824E-09
   27.90000     -9.6704413E-09
   27.96000     -9.9746797E-09
   28.02000     -1.0306343E-08
   28.08000     -1.0693377E-08
   28.14000     -1.1142011E-08
   28.20000     -1.1631580E-08
   28.26000     -1.2119119E-08
   28.32000     -1.2552492E-08
   28.38000     -1.2886168E-08
   28.44000     -1.3092203E-08
   28.50000     -1.3162028E-08
   28.56000     -1.3100068E-08
   28.62000     -1.2915086E-08
   28.68000     -1.2615851E-08
   28.74000     -1.2213984E-08
   28.80000     -1.1730966E-08
   28.86000     -1.1202300E-08
   28.92000     -1.0672530E-08
   28.98000     -1.0180330E-08
   29.04000     -9.7399058E-09
   29.10000     -9.3290184E-09
   29.16000     -8.8922105E-09
   29.22000     -8.3605336E-09
   29.28000     -7.6802493E-09
   29.34000     -6.8373569E-09
   29.40000     -5.8658176E-09
   29.46000     -4.8347784E-09
   29.52000     -3.8201260E-09
   29.58000     -2.8732905E-09
   29.64000     -2.0014215E-09
   29.70000     -1.1674850E-09
   29.76000     -3.0937508E-10
   29.82000      6.3140349E-10
   29.88000      1.6845343E-09
   29.94000      2.8395577E-09
   30.00000      4.0517008E-09
   30.06000      5.2604139E-09
   30.12000      6.4114971E-09
   30.18000      7.4737958E-09
   30.24000      8.4454221E-09
   30.30000      9.3496997E-09
   30.36000      1.0224668E-08
   30.42000      1.1110751E-08
   30.48000      1.2039701E-08
   30.54000      1.3025985E-08
   30.60000      1.4061124E-08
   30.66000      1.5112184E-08
   30.72000      1.6126499E-08
   30.78000      1.7043977E-08
   30.84000      1.7815331E-08
   30.90000      1.8420558E-08
   30.96000      1.8879497E-08
   31.02000      1.9247882E-08
   31.08000      1.9597929E-08
   31.14000      1.9990136E-08
   31.20000      2.0448180E-08
   31.26000      2.0948580E-08
   31.32000      2.1430488E-08
   31.38000      2.1821698E-08
   31.44000      2.2069349E-08
   31.50000      2.2161952E-08
   31.56000      2.2134108E-08
   31.62000      2.2053612E-08
   31.68000      2.1998277E-08
   31.74000      2.2032587E-08
   31.80000      2.2192022E-08
   31.86000      2.2477453E-08
   31.92000      2.2857467E-08
   31.98000      2.3275216E-08
   32.04000      2.3658117E-08
   32.10000      2.3931054E-08
   32.16000      2.4033897E-08
   32.22000      2.3941094E-08
   32.28000      2.3676883E-08
   32.34000      2.3317437E-08
   32.40000      2.2974003E-08
   32.46000      2.2758554E-08
   32.52000      2.2742521E-08
   32.58000      2.2924858E-08
   32.64000      2.3224421E-08
   32.70000      2.3502762E-08
   32.76000      2.3610804E-08
   32.82000      2.3441928E-08
   32.88000      2.2970356E-08
   32.94000      2.2259186E-08
   33.00000      2.1434923E-08
   33.06000      2.0639177E-08
   33.12000      1.9977417E-08
   33.18000      1.9484887E-08
   33.24000      1.9121741E-08
   33.30000      1.8796593E-08
   33.36000      1.8406377E-08
   33.42000      1.7875228E-08
   33.48000      1.7177902E-08
   33.54000      1.6341655E-08
   33.60000      1.5430102E-08
   33.66000      1.4518617E-08
   33.72000      1.3671518E-08
   33.78000      1.2927343E-08
   33.84000      1.2293300E-08
   33.90000      1.1746653E-08
   33.96000      1.1240449E-08
   34.02000      1.0712726E-08
   34.08000      1.0099525E-08
   34.14000      9.3510630E-09
   34.20000      8.4474294E-09
   34.26000      7.4075097E-09
   34.32000      6.2851115E-09
   34.38000      5.1505640E-09
   34.44000      4.0629300E-09
   34.50000      3.0437317E-09
   34.56000      2.0642570E-09
   34.62000      1.0536074E-09
   34.68000     -7.4372453E-11
   34.74000     -1.3859993E-09
   34.80000     -2.8993512E-09
   34.86000     -4.5746837E-09
   34.92000     -6.3273835E-09
   34.98000     -8.0573308E-09
   35.04000     -9.6819326E-09
   35.10000     -1.1159662E-08
   35.16000     -1.2496360E-08
   35.22000     -1.3734695E-08
   35.28000     -1.4933757E-08
   35.34000     -1.6148116E-08
   35.40000     -1.7413281E-08
   35.46000     -1.8739835E-08
   35.52000     -2.0114397E-08
   35.58000     -2.1504340E-08
   35.64000     -2.2864333E-08
   35.70000     -2.4144903E-08
   35.76000     -2.5303562E-08
   35.82000     -2.6317263E-08
   35.88000     -2.7191984E-08
   35.94000     -2.7963804E-08
   36.00000     -2.8687916E-08
   36.06000     -2.9417537E-08
   36.12000     -3.0180885E-08
   36.18000     -3.0967442E-08
   36.24000     -3.1731904E-08
   36.30000     -3.2416242E-08
   36.36000     -3.2980729E-08
   36.42000     -3.3429121E-08
   36.48000     -3.3814896E-08
   36.54000     -3.4224033E-08
   36.60000     -3.4741436E-08
   36.66000     -3.5416051E-08
   36.72000     -3.6240369E-08
   36.78000     -3.7152496E-08
   36.84000     -3.8058136E-08
   36.90000     -3.8861089E-08
   36.96000     -3.9488746E-08
   37.02000     -3.9903952E-08
   37.08000     -4.0102780E-08
   37.14000     -4.0104339E-08
   37.20000     -3.9940211E-08
   37.26000     -3.9647773E-08
   37.32000     -3.9266798E-08
   37.38000     -3.8835775E-08
   37.44000     -3.8385750E-08
   37.50000     -3.7932903E-08
   37.56000     -3.7474233E-08
   37.62000     -3.6990180E-08
   37.68000     -3.6454079E-08
   37.74000     -3.5843740E-08
   37.80000     -3.5148371E-08
   37.86000     -3.4366828E-08
   37.92000     -3.3498907E-08
   37.98000     -3.2536750E-08
   38.04000     -3.1464150E-08
   38.10000     -3.0267035E-08
   38.16000     -2.8950684E-08
   38.22000     -2.7553540E-08
   38.28000     -2.6147340E-08
   38.34000     -2.4819764E-08
   38.40000     -2.3645168E-08
   38.46000     -2.2656293E-08
   38.52000     -2.1830402E-08
   38.58000     -2.1096941E-08
   38.64000     -2.0363530E-08
   38.70000     -1.9548665E-08
   38.76000     -1.8607146E-08
   38.82000     -1.7538804E-08
   38.88000     -1.6379847E-08
   38.94000     -1.5184090E-08
   39.00000     -1.4004375E-08
   39.06000     -1.2881894E-08
   39.12000     -1.1844977E-08
   39.18000     -1.0913220E-08
   39.24000     -1.0100980E-08
   39.30000     -9.4166079E-09
   39.36000     -8.8584917E-09
   39.42000     -8.4122789E-09
   39.48000     -8.0535036E-09
   39.54000     -7.7559745E-09
   39.60000     -7.5016580E-09
   39.66000     -7.2855091E-09
   39.72000     -7.1109478E-09
   39.78000     -6.9774537E-09
   39.84000     -6.8676074E-09
   39.90000     -6.7428871E-09
   39.96000     -6.5536883E-09
   40.02000     -6.2609740E-09
   40.08000     -5.8591092E-09
   40.14000     -5.3867608E-09
   40.20000     -4.9174442E-09
   40.26000     -4.5314952E-09
   40.32000     -4.2814907E-09
   40.38000     -4.1676533E-09
   40.44000     -4.1356421E-09
   40.50000     -4.0982600E-09
   40.56000     -3.9708197E-09
   40.62000     -3.7034784E-09
   40.68000     -3.2962473E-09
   40.74000     -2.7918712E-09
   40.80000     -2.2529674E-09
   40.86000     -1.7364792E-09
   40.92000     -1.2774407E-09
   40.98000     -8.8669305E-10
   41.04000     -5.5850263E-10
   41.10000     -2.7932281E-10
   41.16000     -3.0655950E-11
   41.22000      2.1467132E-10
   41.28000      4.9717852E-10
   41.34000      8.6884028E-10
   41.40000      1.3811021E-09
   41.46000      2.0665216E-09
   41.52000      2.9234455E-09
   41.58000      3.9132035E-09
   41.64000      4.9731614E-09
   41.70000      6.0399250E-09
   41.76000      7.0704140E-09
   41.82000      8.0486835E-09
   41.88000      8.9737071E-09
   41.94000      9.8341220E-09
   42.00000      1.0584184E-08
   42.06000      1.1136004E-08
   42.12000      1.1375520E-08
   42.18000      1.1197409E-08
   42.24000      1.0543504E-08
   42.30000      9.4262358E-09
   42.36000      7.9250251E-09
   42.42000      6.1563279E-09
   42.48000      4.2307615E-09
   42.54000      2.2167592E-09
   42.60000      1.2653506E-10
   42.66000     -2.0711912E-09
   42.72000     -4.4202477E-09
   42.78000     -6.9442629E-09
   42.84000     -9.6276276E-09
   42.90000     -1.2417082E-08
   42.96000     -1.5239801E-08
   43.02000     -1.8026368E-08
   43.08000     -2.0726770E-08
   43.14000     -2.3313627E-08
   43.20000     -2.5774865E-08
   43.26000     -2.8103157E-08
   43.32000     -3.0289026E-08
   43.38000     -3.2319914E-08
   43.44000     -3.4182474E-08
   43.50000     -3.5863710E-08
   43.56000     -3.7348840E-08
   43.62000     -3.8618211E-08
   43.68000     -3.9647936E-08
   43.74000     -4.0417298E-08
   43.80000     -4.0920884E-08
   43.86000     -4.1178602E-08
   43.92000     -4.1235776E-08
   43.98000     -4.1150169E-08
   44.04000     -4.0970274E-08
   44.10000     -4.0715367E-08
   44.16000     -4.0368356E-08
   44.22000     -3.9886466E-08
   44.28000     -3.9225608E-08
   44.34000     -3.8366707E-08
   44.40000     -3.7331120E-08
   44.46000     -3.6177639E-08
   44.52000     -3.4983074E-08
   44.58000     -3.3816228E-08
   44.64000     -3.2717679E-08
   44.70000     -3.1693585E-08
   44.76000     -3.0724152E-08
   44.82000     -2.9779876E-08
   44.88000     -2.8836041E-08
   44.94000     -2.7878421E-08
   45.00000     -2.6899221E-08
   45.06000     -2.5888088E-08
   45.12000     -2.4825370E-08
   45.18000     -2.3682562E-08
   45.24000     -2.2429838E-08
   45.30000     -2.1045699E-08
   45.36000     -1.9522085E-08
   45.42000     -1.7860708E-08
   45.48000     -1.6061289E-08
   45.54000     -1.4107044E-08
   45.60000     -1.1954326E-08
   45.66000     -9.5311039E-09
   45.72000     -6.7441870E-09
   45.78000     -3.4905989E-09
   45.84000      3.3335437E-10
   45.90000      4.8303210E-09
   45.96000      1.0108786E-08
   46.02000      1.6296237E-08
   46.08000      2.3554374E-08
   46.14000      3.2092508E-08
   46.20000      4.2177316E-08
   46.26000      5.4139420E-08
   46.32000      6.8378604E-08
   46.38000      8.5370054E-08
   46.44000      1.0567356E-07
   46.50000      1.2994656E-07
   46.56000      1.5896076E-07
   46.62000      1.9362088E-07
   46.68000      2.3498343E-07
   46.74000      2.8427428E-07
   46.80000      3.4290539E-07
   46.86000      4.1249274E-07
   46.92000      4.9487943E-07
   46.98000      5.9216745E-07
   47.04000      7.0675844E-07
   47.10000      8.4140225E-07
   47.16000      9.9925012E-07
   47.22000      1.1839077E-06
   47.28000      1.3994899E-06
   47.34000      1.6506755E-06
   47.40000      1.9427664E-06
   47.46000      2.2817526E-06
   47.52000      2.6743833E-06
   47.58000      3.1282441E-06
   47.64000      3.6518438E-06
   47.70000      4.2547026E-06
   47.76000      4.9474502E-06
   47.82000      5.7419275E-06
   47.88000      6.6512912E-06
   47.94000      7.6901260E-06
   48.00000      8.8745464E-06
   48.06000      1.0222306E-05
   48.12000      1.1752902E-05
   48.18000      1.3487676E-05
   48.24000      1.5449925E-05
   48.30000      1.7664997E-05
   48.36000      2.0160402E-05
   48.42000      2.2965907E-05
   48.48000      2.6113645E-05
   48.54000      2.9638197E-05
   48.60000      3.3576671E-05
   48.66000      3.7968763E-05
   48.72000      4.2856798E-05
   48.78000      4.8285729E-05
   48.84000      5.4303149E-05
   48.90000      6.0959264E-05
   48.96000      6.8306836E-05
   49.02000      7.6401113E-05
   49.08000      8.5299689E-05
   49.14000      9.5062343E-05
   49.20000      1.0575084E-04
   49.26000      1.1742867E-04
   49.32000      1.3016083E-04
   49.38000      1.4401347E-04
   49.44000      1.5905361E-04
   49.50000      1.7534877E-04
   49.56000      1.9296649E-04
   49.62000      2.1197378E-04
   49.68000      2.3243662E-04
   49.74000      2.5441937E-04
   49.80000      2.7798425E-04
   49.86000      3.0319061E-04
   49.92000      3.3009434E-04
   49.98000      3.5874720E-04
   50.04000      3.8919621E-04
   50.10000      4.2148281E-04
   50.16000      4.5564224E-04
   50.22000      4.9170264E-04
   50.28000      5.2968482E-04
   50.34000      5.6960090E-04
   50.40000      6.1145419E-04
   50.46000      6.5523840E-04
   50.52000      7.0093706E-04
   50.58000      7.4852345E-04
   50.64000      7.9795951E-04
   50.70000      8.4919622E-04
   50.76000      9.0217293E-04
   50.82000      9.5681741E-04
   50.88000      1.0130457E-03
   50.94000      1.0707622E-03
   51.00000      1.1298598E-03
   51.06000      1.1902205E-03
   51.12000      1.2517154E-03
   51.18000      1.3142056E-03
   51.24000      1.3775430E-03
   51.30000      1.4415708E-03
   51.36000      1.5061250E-03
   51.42000      1.5710349E-03
   51.48000      1.6361248E-03
   51.54000      1.7012148E-03
   51.60000      1.7661225E-03
   51.66000      1.8306638E-03
   51.72000      1.8946554E-03
   51.78000      1.9579155E-03
   51.84000      2.0202664E-03
   51.90000      2.0815344E-03
   51.96000      2.1415530E-03
   52.02000      2.2001639E-03
   52.08000      2.2572181E-03
   52.14000      2.3125778E-03
   52.20000      2.3661172E-03
   52.26000      2.4177243E-03
   52.32000      2.4673019E-03
   52.38000      2.5147684E-03
   52.44000      2.5600586E-03
   52.50000      2.6031244E-03
   52.56000      2.6439358E-03
   52.62000      2.6824791E-03
   52.68000      2.7187595E-03
   52.74000      2.7527993E-03
   52.80000      2.7846380E-03
   52.86000      2.8143327E-03
   52.92000      2.8419560E-03
   52.98000      2.8675951E-03
   53.04000      2.8913512E-03
   53.10000      2.9133381E-03
   53.16000      2.9336796E-03
   53.22000      2.9525093E-03
   53.28000      2.9699698E-03
   53.34000      2.9862083E-03
   53.40000      3.0013772E-03
   53.46000      3.0156295E-03
   53.52000      3.0291185E-03
   53.58000      3.0419957E-03
   53.64000      3.0544079E-03
   53.70000      3.0664962E-03
   53.76000      3.0783946E-03
   53.82000      3.0902282E-03
   53.88000      3.1021102E-03
   53.94000      3.1141418E-03
   54.00000      3.1264103E-03
   54.06000      3.1389887E-03
   54.12000      3.1519330E-03
   54.18000      3.1652835E-03
   54.24000      3.1790640E-03
   54.30000      3.1932811E-03
   54.36000      3.2079234E-03
   54.42000      3.2229638E-03
   54.48000      3.2383583E-03
   54.54000      3.2540471E-03
   54.60000      3.2699555E-03
   54.66000      3.2859959E-03
   54.72000      3.3020668E-03
   54.78000      3.3180562E-03
   54.84000      3.3338424E-03
   54.90000      3.3492956E-03
   54.96000      3.3642808E-03
   55.02000      3.3786586E-03
   55.08000      3.3922873E-03
   55.14000      3.4050255E-03
   55.20000      3.4167324E-03
   55.26000      3.4272708E-03
   55.32000      3.4365088E-03
   55.38000      3.4443212E-03
   55.44000      3.4505920E-03
   55.50000      3.4552161E-03
   55.56000      3.4580992E-03