 -0.750000000       0.00000000    
 -0.689999998       0.00000000    
 -0.629999995       0.00000000    
 -0.569999993       0.00000000    
 -0.509999990       0.00000000    
 -0.449999988       0.00000000    
 -0.389999986       3.27361183E-23
 -0.330000013       3.06283451E-23
 -0.270000011      -1.29802339E-21
 -0.209999993      -8.92988646E-21
 -0.150000006      -3.16268856E-20
  -9.00000036E-02  -6.99954612E-20
  -2.99999993E-02  -8.51177057E-20
   2.99999993E-02   3.65257820E-20
   9.00000036E-02   4.66847141E-19
  0.150000006       1.29597023E-18
  0.209999993       2.25480667E-18
  0.270000011       2.44178382E-18
  0.330000013       3.66805333E-19
  0.389999986      -5.35659583E-18
  0.449999988      -1.46325537E-17
  0.509999990      -2.43603731E-17
  0.569999993      -2.78835735E-17
  0.629999995      -1.66122964E-17
  0.689999998       1.57469711E-17
  0.750000000       6.74669617E-17
  0.810000002       1.24353635E-16
  0.870000005       1.60071175E-16
  0.930000007       1.43585889E-16
  0.990000010       5.29070411E-17
   1.04999995      -1.09847898E-16
   1.11000001      -3.09993148E-16
   1.16999996      -4.85604730E-16
   1.23000002      -5.68061111E-16
   1.28999996      -5.09955868E-16
   1.35000002      -3.04812906E-16
   1.40999997       1.64052299E-17
   1.47000003       4.14079177E-16
   1.52999997       8.74637222E-16
   1.59000003       1.41539618E-15
   1.64999998       2.03006269E-15
   1.71000004       2.58348458E-15
   1.76999998       2.72107068E-15
   1.83000004       1.89672594E-15
   1.88999999      -4.01065204E-16
   1.95000005      -4.25062605E-15
   2.00999999      -8.90151837E-15
   2.06999993      -1.26616586E-14
   2.13000011      -1.33041102E-14
   2.19000006      -9.00175456E-15
   2.25000000       5.38513584E-16
   2.30999994       1.33285903E-14
   2.36999989       2.53040031E-14
   2.43000007       3.16633113E-14
   2.49000001       2.89163089E-14
   2.54999995       1.67031729E-14
   2.60999990      -1.62520317E-15
   2.67000008      -2.01645798E-14
   2.73000002      -3.29573337E-14
   2.78999996      -3.66420016E-14
   2.84999990      -3.18582847E-14
   2.91000009      -2.26074279E-14
   2.97000003      -1.38812225E-14
   3.02999997      -8.86878817E-15
   3.08999991      -7.30905154E-15
   3.15000010      -5.87505356E-15
   3.21000004      -2.49945817E-16
   3.26999998       1.24434180E-14
   3.32999992       3.22996431E-14
   3.39000010       5.69386660E-14
   3.45000005       8.27699386E-14
   3.50999999       1.05807724E-13
   3.56999993       1.21078101E-13
   3.63000011       1.21077017E-13
   3.69000006       9.51537772E-14
   3.75000000       3.19366183E-14
   3.80999994      -7.45719201E-14
   3.86999989      -2.17234366E-13
   3.93000007      -3.70591226E-13
   3.99000001      -4.92661684E-13
   4.05000019      -5.35564540E-13
   4.11000013      -4.62343651E-13
   4.17000008      -2.63284864E-13
   4.23000002       3.62710960E-14
   4.28999996       3.81782388E-13
   4.34999990       7.07999469E-13
   4.40999985       9.62259460E-13
   4.46999979       1.12087293E-12
   4.53000021       1.18859892E-12
   4.59000015       1.17875902E-12
   4.65000010       1.08224844E-12
   4.71000004       8.42754414E-13
   4.76999998       3.57745084E-13
   4.82999992      -4.82821194E-13
   4.88999987      -1.72459605E-12
   4.94999981      -3.26809304E-12
   5.01000023      -4.81771524E-12
   5.07000017      -5.89916137E-12
   5.13000011      -5.96491259E-12
   5.19000006      -4.57306198E-12
   5.25000000      -1.58657842E-12
   5.30999994       2.68452079E-12
   5.36999989       7.47135253E-12
   5.42999983       1.16993429E-11
   5.48999977       1.42779191E-11
   5.55000019       1.44347832E-11
   5.61000013       1.19686865E-11
   5.67000008       7.31092790E-12
   5.73000002       1.35391774E-12
   5.78999996      -4.89885519E-12
   5.84999990      -1.07240493E-11
   5.90999985      -1.59434670E-11
   5.96999979      -2.09390109E-11
   6.03000021      -2.63986836E-11
   6.09000015      -3.28981703E-11
   6.15000010      -4.05095298E-11
   6.21000004      -4.86336492E-11
   6.26999998      -5.61674804E-11
   6.32999992      -6.19691867E-11
   6.38999987      -6.54375443E-11
   6.44999981      -6.69418340E-11
   6.51000023      -6.78696405E-11
   6.57000017      -7.01989647E-11
   6.63000011      -7.56989055E-11
   6.69000006      -8.50365472E-11
   6.75000000      -9.71396089E-11
   6.80999994      -1.09093970E-10
   6.86999989      -1.16662832E-10
   6.92999983      -1.15274769E-10
   6.98999977      -1.01145974E-10
   7.05000019      -7.21547891E-11
   7.11000013      -2.82038594E-11
   7.17000008       2.89683104E-11
   7.23000002       9.63240321E-11
   7.28999996       1.70065545E-10
   7.34999990       2.45843179E-10
   7.40999985       3.18461840E-10
   7.46999979       3.81157605E-10
   7.53000021       4.24734775E-10
   7.59000015       4.36965214E-10
   7.65000010       4.02613942E-10
   7.71000004       3.04282405E-10
   7.76999998       1.24014660E-10
   7.82999992      -1.54623300E-10
   7.88999987      -5.44431333E-10
   7.94999981      -1.05286824E-09
   8.01000023      -1.68104008E-09
   8.06999969      -2.42343590E-09
   8.13000011      -3.26821925E-09
   8.18999958      -4.19778079E-09
   8.25000000      -5.18932630E-09
   8.31000042      -6.21550234E-09
   8.36999989      -7.24531768E-09
   8.43000031      -8.24571611E-09
   8.48999977      -9.18403309E-09
   8.55000019      -1.00311643E-08
   8.60999966      -1.07648122E-08
   8.67000008      -1.13719087E-08
   8.72999954      -1.18493499E-08
   8.78999996      -1.22026300E-08
   8.85000038      -1.24426718E-08
   8.90999985      -1.25817659E-08
   8.97000027      -1.26298776E-08
   9.02999973      -1.25924906E-08
   9.09000015      -1.24706174E-08
   9.14999962      -1.22629222E-08
   9.21000004      -1.19691794E-08
   9.27000046      -1.15938663E-08
   9.32999992      -1.11486838E-08
   9.39000034      -1.06530678E-08
   9.44999981      -1.01324469E-08
   9.51000023      -9.61466196E-09
   9.56999969      -9.12556342E-09
   9.63000011      -8.68504735E-09
   9.68999958      -8.30462010E-09
   9.75000000      -7.98705901E-09
   9.81000042      -7.72803688E-09
   9.86999989      -7.51894547E-09
   9.93000031      -7.34988470E-09
   9.98999977      -7.21185778E-09
   10.0500002      -7.09769976E-09
   10.1099997      -7.00181113E-09
   10.1700001      -6.91924473E-09
   10.2299995      -6.84489221E-09
   10.2900000      -6.77333611E-09
   10.3500004      -6.69959777E-09
   10.4099998      -6.62054944E-09
   10.4700003      -6.53647536E-09
   10.5299997      -6.45218101E-09
   10.5900002      -6.37723385E-09
   10.6499996      -6.32523367E-09
   10.7100000      -6.31231378E-09
   10.7700005      -6.35525499E-09
   10.8299999      -6.46957021E-09
   10.8900003      -6.66775035E-09
   10.9499998      -6.95767488E-09
   11.0100002      -7.34113570E-09
   11.0699997      -7.81254705E-09
   11.1300001      -8.35818881E-09
   11.1899996      -8.95658037E-09
   11.2500000      -9.58058255E-09
   11.3100004      -1.02015152E-08
   11.3699999      -1.07948281E-08
   11.4300003      -1.13461489E-08
   11.4899998      -1.18558869E-08
   11.5500002      -1.23405881E-08
   11.6099997      -1.28298883E-08
   11.6700001      -1.33591449E-08
   11.7299995      -1.39592977E-08
   11.7900000      -1.46465888E-08
   11.8500004      -1.54151536E-08
   11.9099998      -1.62348588E-08
   11.9700003      -1.70553598E-08
   12.0299997      -1.78155570E-08
   12.0900002      -1.84560953E-08
   12.1499996      -1.89316047E-08
   12.2100000      -1.92194172E-08
   12.2700005      -1.93224263E-08
   12.3299999      -1.92652099E-08
   12.3900003      -1.90843519E-08
   12.4499998      -1.88155038E-08
   12.5100002      -1.84807334E-08
   12.5699997      -1.80798505E-08
   12.6300001      -1.75884818E-08
   12.6899996      -1.69637762E-08
   12.7500000      -1.61563403E-08
   12.8100004      -1.51249662E-08
   12.8699999      -1.38496983E-08
   12.9300003      -1.23392452E-08
   12.9899998      -1.06305098E-08
   13.0500002      -8.78055229E-09
   13.1099997      -6.85363322E-09
   13.1700001      -4.90736518E-09
   13.2299995      -2.98200464E-09
   13.2900000      -1.09569809E-09
   13.3500004       7.53500651E-10
   13.4099998       2.57999688E-09
   13.4700003       4.40007675E-09
   13.5299997       6.22165786E-09
   13.5900002       8.03730771E-09
   13.6499996       9.82234383E-09
   13.7100000       1.15382326E-08
   13.7700005       1.31399505E-08
   13.8299999       1.45848631E-08
   13.8900003       1.58404347E-08
   13.9499998       1.68887162E-08
   14.0100002       1.77267747E-08
   14.0699997       1.83636413E-08
   14.1300001       1.88153209E-08
   14.1899996       1.90996765E-08
   14.2500000       1.92326475E-08
   14.3100004       1.92264729E-08
   14.3699999       1.90897840E-08
   14.4300003       1.88288958E-08
   14.4899998       1.84495281E-08
   14.5500002       1.79582411E-08
   14.6099997       1.73632397E-08
   14.6700001       1.66744485E-08
   14.7299995       1.59029518E-08
   14.7900000       1.50600670E-08
   14.8500004       1.41562744E-08
   14.9099998       1.32002231E-08
   14.9700003       1.21979449E-08
   15.0299997       1.11523866E-08
   15.0900002       1.00633830E-08
   15.1499996       8.92823149E-09
   15.2100000       7.74301601E-09
   15.2700005       6.50466925E-09
   15.3299999       5.21342569E-09
   15.3900003       3.87498345E-09
   15.4499998       2.50151211E-09
   15.5100002       1.11083065E-09
   15.5699997      -2.76323353E-10
   15.6300001      -1.64021796E-09
   15.6899996      -2.96589087E-09
   15.7500000      -4.24529034E-09
   15.8100004      -5.47688117E-09
   15.8699999      -6.66283650E-09
   15.9300003      -7.80496556E-09
   15.9899998      -8.90108609E-09
   16.0499992      -9.94331195E-09
   16.1100006      -1.09188667E-08
   16.1700001      -1.18129329E-08
   16.2299995      -1.26123378E-08
   16.2900009      -1.33087168E-08
   16.3500004      -1.39002250E-08
   16.4099998      -1.43915120E-08
   16.4699993      -1.47920787E-08
   16.5300007      -1.51133808E-08
   16.5900002      -1.53650692E-08
   16.6499996      -1.55510378E-08
   16.7099991      -1.56662594E-08
   16.7700005      -1.56957256E-08
   16.8299999      -1.56164877E-08
   16.8899994      -1.54028967E-08
   16.9500008      -1.50336970E-08
   17.0100002      -1.44986467E-08
   17.0699997      -1.38022358E-08
   17.1299992      -1.29632634E-08
   17.1900005      -1.20107604E-08
   17.2500000      -1.09782405E-08
   17.3099995      -9.89853444E-09
   17.3700008      -8.80055762E-09
   17.4300003      -7.70799513E-09
   17.4899998      -6.63893829E-09
   17.5499992      -5.60558089E-09
   17.6100006      -4.61402339E-09
   17.6700001      -3.66502273E-09
   17.7299995      -2.75654344E-09
   17.7900009      -1.88799465E-09
   17.8500004      -1.06471287E-09
   17.9099998      -3.00610065E-10
   17.9699993       3.82535836E-10
   18.0300007       9.59145541E-10
   18.0900002       1.40567902E-09
   18.1499996       1.70596903E-09
   18.2099991       1.85428328E-09
   18.2700005       1.85561277E-09
   18.3299999       1.72384929E-09
   18.3899994       1.47897583E-09
   18.4500008       1.14411547E-09
   18.5100002       7.42760020E-10
   18.5699997       2.96236174E-10
   18.6299992      -1.78421486E-10
   18.6900005      -6.69823863E-10
   18.7500000      -1.17252241E-09
   18.8099995      -1.68637349E-09
   18.8700008      -2.21552288E-09
   18.9300003      -2.76754086E-09
   18.9899998      -3.35275119E-09
   19.0499992      -3.98318756E-09
   19.1100006      -4.67050087E-09
   19.1700001      -5.42278444E-09
   19.2299995      -6.24128926E-09
   19.2900009      -7.11861592E-09
   19.3500004      -8.03953437E-09
   19.4099998      -8.98425689E-09
   19.4699993      -9.93254812E-09
   19.5300007      -1.08665645E-08
   19.5900002      -1.17711432E-08
   19.6499996      -1.26319355E-08
   19.7099991      -1.34330937E-08
   19.7700005      -1.41563223E-08
   19.8299999      -1.47819419E-08
   19.8899994      -1.52910928E-08
   19.9500008      -1.56674780E-08
   20.0100002      -1.58977436E-08
   20.0699997      -1.59710378E-08
   20.1299992      -1.58793565E-08
   20.1900005      -1.56199711E-08
   20.2500000      -1.51996407E-08
   20.3099995      -1.46384496E-08
   20.3700008      -1.39704834E-08
   20.4300003      -1.32397853E-08
   20.4899998      -1.24925297E-08
   20.5499992      -1.17684982E-08
   20.6100006      -1.10954668E-08
   20.6700001      -1.04885309E-08
   20.7299995      -9.95377825E-09
   20.7900009      -9.49359436E-09
   20.8500004      -9.11057896E-09
   20.9099998      -8.80841533E-09
   20.9699993      -8.59018101E-09
   21.0300007      -8.45597015E-09
   21.0900002      -8.40175307E-09
   21.1499996      -8.42014902E-09
   21.2099991      -8.50247073E-09
   21.2700005      -8.64067928E-09
   21.3299999      -8.82823326E-09
   21.3899994      -9.05965170E-09
   21.4500008      -9.32927069E-09
   21.5100002      -9.62976632E-09
   21.5699997      -9.95072824E-09
   21.6299992      -1.02773159E-08
   21.6900005      -1.05892131E-08
   21.7500000      -1.08605009E-08
   21.8099995      -1.10612737E-08
   21.8700008      -1.11613891E-08
   21.9300003      -1.11357927E-08
   21.9899998      -1.09698757E-08
   22.0499992      -1.06630171E-08
   22.1100006      -1.02290318E-08
   22.1700001      -9.69343450E-09
   22.2299995      -9.08852993E-09
   22.2900009      -8.44781489E-09
   22.3500004      -7.80091636E-09
   22.4099998      -7.16971948E-09
   22.4699993      -6.56595356E-09
   22.5300007      -5.99050498E-09
   22.5900002      -5.43486767E-09
   22.6499996      -4.88500351E-09
   22.7099991      -4.32717373E-09
   22.7700005      -3.75428177E-09
   22.8299999      -3.17058224E-09
   22.8899994      -2.59276467E-09
   22.9500008      -2.04667350E-09
   23.0100002      -1.56063940E-09
   23.0699997      -1.15782917E-09
   23.1299992      -8.50392035E-10
   23.1900005      -6.37329467E-10
   23.2500000      -5.06410414E-10
   23.3099995      -4.38869857E-10
   23.3700008      -4.14779627E-10
   23.4300003      -4.17098328E-10
   23.4899998      -4.33278913E-10
   23.5499992      -4.54395688E-10
   23.6100006      -4.72578254E-10
   23.6700001      -4.77871021E-10
   23.7299995      -4.55542049E-10
   23.7900009      -3.84564158E-10
   23.8500004      -2.37687453E-10
   23.9099998       1.67098869E-11
   23.9699993       4.11015472E-10
   24.0300007       9.73340963E-10
   24.0900002       1.72174919E-09
   24.1499996       2.65882982E-09
   24.2099991       3.76787357E-09
   24.2700005       5.01170616E-09
   24.3299999       6.33466612E-09
   24.3899994       7.66745067E-09
   24.4500008       8.93383056E-09
   24.5100002       1.00579127E-08
   24.5699997       1.09707177E-08
   24.6299992       1.16153629E-08
   24.6900005       1.19506778E-08
   24.7500000       1.19535306E-08
   24.8099995       1.16201990E-08
   24.8700008       1.09668914E-08
   24.9300003       1.00291606E-08
   24.9899998       8.85974227E-09
   25.0499992       7.52441753E-09
   25.1100006       6.09593576E-09
   25.1700001       4.64662309E-09
   25.2299995       3.24085536E-09
   25.2900009       1.92876826E-09
   25.3500004       7.42318207E-10
   25.4099998      -3.05863584E-10
   25.4699993      -1.22118449E-09
   25.5300007      -2.02430761E-09
   25.5900002      -2.74788947E-09
   25.6499996      -3.43340378E-09
   25.7099991      -4.12791801E-09
   25.7700005      -4.88018426E-09
   25.8299999      -5.73542192E-09
   25.8899994      -6.72882372E-09
   25.9500008      -7.87873500E-09
   26.0100002      -9.18124154E-09
   26.0699997      -1.06080211E-08
   26.1299992      -1.21087025E-08
   26.1900005      -1.36178544E-08
   26.2500000      -1.50655151E-08
   26.3099995      -1.63892295E-08
   26.3700008      -1.75452861E-08
   26.4300003      -1.85169551E-08
   26.4899998      -1.93181044E-08
   26.5499992      -1.99913242E-08
   26.6100006      -2.06007602E-08
   26.6700001      -2.12207603E-08
   26.7299995      -2.19225509E-08
   26.7900009      -2.27616344E-08
   26.8500004      -2.37685978E-08
   26.9099998      -2.49452086E-08
   26.9699993      -2.62662923E-08
   27.0300007      -2.76864043E-08
   27.0900002      -2.91492022E-08
   27.1499996      -3.05970467E-08
   27.2099991      -3.19788391E-08
   27.2700005      -3.32549632E-08
   27.3299999      -3.43993136E-08
   27.3899994      -3.53991219E-08
   27.4500008      -3.62534465E-08
   27.5100002      -3.69712119E-08
   27.5699997      -3.75692686E-08
   27.6299992      -3.80705849E-08
   27.6900005      -3.85025771E-08
   27.7500000      -3.88954469E-08
   27.8099995      -3.92802306E-08
   27.8700008      -3.96863804E-08
   27.9300003      -4.01385911E-08
   27.9899998      -4.06530525E-08
   28.0499992      -4.12335410E-08
   28.1100006      -4.18685211E-08
   28.1700001      -4.25305124E-08
   28.2299995      -4.31787299E-08
   28.2900009      -4.37650840E-08
   28.3500004      -4.42424941E-08
   28.4099998      -4.45733619E-08
   28.4699993      -4.47359696E-08
   28.5300007      -4.47271269E-08
   28.5900002      -4.45606787E-08
   28.6499996      -4.42627375E-08
   28.7099991      -4.38653345E-08
   28.7700005      -4.34001528E-08
   28.8299999      -4.28936140E-08
   28.8899994      -4.23637907E-08
   28.9500008      -4.18194439E-08
   29.0100002      -4.12610213E-08
   29.0699997      -4.06834317E-08
   29.1299992      -4.00799927E-08
   29.1900005      -3.94463342E-08
   29.2500000      -3.87829004E-08
   29.3099995      -3.80947895E-08
   29.3700008      -3.73889613E-08
   29.4300003      -3.66699808E-08
   29.4899998      -3.59365870E-08
   29.5499992      -3.51813405E-08
   29.6100006      -3.43941196E-08
   29.6700001      -3.35686217E-08
   29.7299995      -3.27090319E-08
   29.7900009      -3.18338209E-08
   29.8500004      -3.09744799E-08
   29.9099998      -3.01689838E-08
   29.9699993      -2.94519023E-08
   30.0300007      -2.88445108E-08
   30.0900002      -2.83482304E-08
   30.1499996      -2.79436883E-08
   30.2099991      -2.75959273E-08
   30.2700005      -2.72643170E-08
   30.3299999      -2.69143587E-08
   30.3899994      -2.65277773E-08
   30.4500008      -2.61077222E-08
   30.5100002      -2.56771742E-08
   30.5699997      -2.52709160E-08
   30.6299992      -2.49236063E-08
   30.6900005      -2.46582150E-08
   30.7500000      -2.44791138E-08
   30.8099995      -2.43724738E-08
   30.8700008      -2.43136924E-08
   30.9300003      -2.42787230E-08
   30.9899998      -2.42544811E-08
   31.0499992      -2.42440894E-08
   31.1100006      -2.42649794E-08
   31.1700001      -2.43409133E-08
   31.2299995      -2.44914098E-08
   31.2900009      -2.47226613E-08
   31.3500004      -2.50230361E-08
   31.4099998      -2.53642121E-08
   31.4699993      -2.57070383E-08
   31.5300007      -2.60099782E-08
   31.5900002      -2.62378954E-08
   31.6499996      -2.63691469E-08
   31.7099991      -2.63996895E-08
   31.7700005      -2.63433648E-08
   31.8299999      -2.62282462E-08
   31.8899994      -2.60898148E-08
   31.9500008      -2.59626045E-08
   32.0099983      -2.58725734E-08
   32.0699997      -2.58322679E-08
   32.1300011      -2.58398103E-08
   32.1899986      -2.58813486E-08
   32.2500000      -2.59353961E-08
   32.3100014      -2.59771884E-08
   32.3699989      -2.59818211E-08
   32.4300003      -2.59259068E-08
   32.4900017      -2.57884292E-08
   32.5499992      -2.55516284E-08
   32.6100006      -2.52024552E-08
   32.6699982      -2.47344385E-08
   32.7299995      -2.41495766E-08
   32.7900009      -2.34596804E-08
   32.8499985      -2.26867911E-08
   32.9099998      -2.18622471E-08
   32.9700012      -2.10238404E-08
   33.0299988      -2.02106580E-08
   33.0900002      -1.94557241E-08
   33.1500015      -1.87778184E-08
   33.2099991      -1.81748980E-08
   33.2700005      -1.76220123E-08
   33.3300018      -1.70755321E-08
   33.3899994      -1.64833889E-08
   33.4500008      -1.57985802E-08
   33.5099983      -1.49915849E-08
   33.5699997      -1.40576493E-08
   33.6300011      -1.30166864E-08
   33.6899986      -1.19062484E-08
   33.7500000      -1.07702292E-08
   33.8100014      -9.64696678E-09
   33.8699989      -8.56008775E-09
   33.9300003      -7.51420615E-09
   33.9900017      -6.49619247E-09
   34.0499992      -5.48141754E-09
   34.1100006      -4.44328263E-09
   34.1699982      -3.36345729E-09
   34.2299995      -2.23972263E-09
   34.2900009      -1.08856846E-09
   34.3499985       5.89498658E-11
   34.4099998       1.16734500E-09
   34.4700012       2.20969043E-09
   34.5299988       3.17891868E-09
   34.5900002       4.09317158E-09
   34.6500015       4.99296782E-09
   34.7099991       5.93087846E-09
   34.7700005       6.95697411E-09
   34.8300018       8.10463163E-09
   34.8899994       9.38095646E-09
   34.9500008       1.07644942E-08
   35.0099983       1.22107382E-08
   35.0699997       1.36637466E-08
   35.1300011       1.50705688E-08
   35.1899986       1.63942460E-08
   35.2500000       1.76213817E-08
   35.3100014       1.87616607E-08
   35.3699989       1.98391437E-08
   35.4300003       2.08779483E-08
   35.4900017       2.18869864E-08
   35.5499992       2.28488926E-08
   35.6100006       2.37167068E-08
   35.6699982       2.44190961E-08
   35.7299995       2.48719871E-08
   35.7900009       2.49927155E-08
   35.8499985       2.47127794E-08
   35.9099998       2.39864839E-08
   35.9700012       2.27945360E-08
   36.0299988       2.11429558E-08
   36.0900002       1.90582963E-08
   36.1500015       1.65804526E-08
   36.2099991       1.37545255E-08
   36.2700005       1.06234888E-08
   36.3300018       7.22356575E-09
   36.3899994       3.58368024E-09
   36.4500008      -2.70969996E-10
   36.5099983      -4.31272262E-09
   36.5699997      -8.50538395E-09
   36.6300011      -1.28010322E-08
   36.6899986      -1.71412378E-08
   36.7500000      -2.14623359E-08
   36.8100014      -2.57026951E-08
   36.8699989      -2.98092147E-08
   36.9300003      -3.37407897E-08
   36.9900017      -3.74678102E-08
   37.0499992      -4.09683238E-08
   37.1100006      -4.42226380E-08
   37.1699982      -4.72085908E-08
   37.2299995      -4.98994055E-08
   37.2900009      -5.22652641E-08
   37.3499985      -5.42783809E-08
   37.4099998      -5.59200970E-08
   37.4700012      -5.71877443E-08
   37.5299988      -5.80987169E-08
   37.5900002      -5.86901621E-08
   37.6500015      -5.90141020E-08
   37.7099991      -5.91295155E-08
   37.7700005      -5.90937574E-08
   37.8300018      -5.89558233E-08
   37.8899994      -5.87527609E-08
   37.9500008      -5.85093787E-08
   38.0099983      -5.82403565E-08
   38.0699997      -5.79535246E-08
   38.1300011      -5.76532280E-08
   38.1899986      -5.73432253E-08
   38.2500000      -5.70286005E-08
   38.3100014      -5.67163632E-08
   38.3699989      -5.64144322E-08
   38.4300003      -5.61293199E-08
   38.4900017      -5.58634170E-08
   38.5499992      -5.56132775E-08
   38.6100006      -5.53701298E-08
   38.6699982      -5.51226407E-08
   38.7299995      -5.48607915E-08
   38.7900009      -5.45788836E-08
   38.8499985      -5.42759615E-08
   38.9099998      -5.39533396E-08
   38.9700012      -5.36102611E-08
   39.0299988      -5.32398197E-08
   39.0900002      -5.28268735E-08
   39.1500015      -5.23486179E-08
   39.2099991      -5.17772953E-08
   39.2700005      -5.10838589E-08
   39.3300018      -5.02417841E-08
   39.3899994      -4.92305716E-08
   39.4500008      -4.80391016E-08
   39.5099983      -4.66684114E-08
   39.5699997      -4.51330386E-08
   39.6300011      -4.34597922E-08
   39.6899986      -4.16832826E-08
   39.7500000      -3.98388558E-08
   39.8100014      -3.79548162E-08
   39.8699989      -3.60463197E-08
   39.9300003      -3.41128761E-08
   39.9900017      -3.21399192E-08
   40.0499992      -3.01037666E-08
   40.1100006      -2.79783805E-08
   40.1699982      -2.57424304E-08
   40.2299995      -2.33853470E-08
   40.2900009      -2.09114397E-08
   40.3499985      -1.83412894E-08
   40.4099998      -1.57100608E-08
   40.4700012      -1.30630102E-08
   40.5299988      -1.04494440E-08
   40.5900002      -7.91699950E-09
   40.6500015      -5.50790924E-09
   40.7099991      -3.25775495E-09
   40.7700005      -1.19576071E-09
   40.8300018       6.55093091E-10
   40.8899994       2.27940200E-09
   40.9500008       3.67186836E-09
   41.0099983       4.83929208E-09
   41.0699997       5.79990145E-09
   41.1300011       6.57905597E-09
   41.1899986       7.20234050E-09
   41.2500000       7.68861952E-09
   41.3100014       8.04564770E-09
   41.3699989       8.26935942E-09
   41.4300003       8.34595149E-09
   41.4900017       8.25477464E-09
   41.5499992       7.97047672E-09
   41.6100006       7.46444417E-09
   41.6699982       6.70707312E-09
   41.7299995       5.67255265E-09
   41.7900009       4.34639746E-09
   41.8499985       2.73380985E-09
   41.9099998       8.65500949E-10
   41.9700012      -1.20214561E-09
   42.0299988      -3.39369421E-09
   42.0900002      -5.62657831E-09
   42.1500015      -7.82491050E-09
   42.2099991      -9.93140770E-09
   42.2700005      -1.19147581E-08
   42.3300018      -1.37715501E-08
   42.3899994      -1.55233408E-08
   42.4500008      -1.72101959E-08
   42.5099983      -1.88820941E-08
   42.5699997      -2.05893986E-08
   42.6300011      -2.23737295E-08
   42.6899986      -2.42606131E-08
   42.7500000      -2.62554867E-08
   42.8100014      -2.83440684E-08
   42.8699989      -3.04971230E-08
   42.9300003      -3.26783010E-08
   42.9900017      -3.48526754E-08
   43.0499992      -3.69933169E-08
   43.1100006      -3.90838437E-08
   43.1699982      -4.11165892E-08
   43.2299995      -4.30876597E-08
   43.2900009      -4.49914239E-08
   43.3499985      -4.68172843E-08
   43.4099998      -4.85503548E-08
   43.4700012      -5.01758706E-08
   43.5299988      -5.16851060E-08
   43.5900002      -5.30796136E-08
   43.6500015      -5.43711778E-08
   43.7099991      -5.55765887E-08
   43.7700005      -5.67088634E-08
   43.8300018      -5.77683252E-08
   43.8899994      -5.87372426E-08
   43.9500008      -5.95804330E-08
   44.0099983      -6.02518639E-08
   44.0699997      -6.07050694E-08
   44.1300011      -6.09040427E-08
   44.1899986      -6.08314963E-08
   44.2500000      -6.04926171E-08
   44.3100014      -5.99141359E-08
   44.3699989      -5.91397189E-08
   44.4300003      -5.82230477E-08
   44.4900017      -5.72201380E-08
   44.5499992      -5.61820173E-08
   44.6100006      -5.51488277E-08
   44.6699982      -5.41462875E-08
   44.7299995      -5.31851114E-08
   44.7900009      -5.22633208E-08
   44.8499985      -5.13704350E-08
   44.9099998      -5.04919626E-08
   44.9700012      -4.96125061E-08
   45.0299988      -4.87168386E-08
   45.0900002      -4.77894915E-08
   45.1500015      -4.68144989E-08
   45.2099991      -4.57769609E-08
   45.2700005      -4.46670541E-08
   45.3300018      -4.34854606E-08
   45.3899994      -4.22478301E-08
   45.4500008      -4.09857641E-08
   45.5099983      -3.97429787E-08
   45.5699997      -3.85672543E-08
   45.6300011      -3.75005804E-08
   45.6899986      -3.65706541E-08
   45.7500000      -3.57863250E-08
   45.8100014      -3.51380471E-08
   45.8699989      -3.46027136E-08
   45.9300003      -3.41512489E-08
   45.9900017      -3.37566703E-08
   46.0499992      -3.34009123E-08
   46.1100006      -3.30789725E-08
   46.1699982      -3.27995942E-08
   46.2299995      -3.25821183E-08
   46.2900009      -3.24499929E-08
   46.3499985      -3.24222356E-08
   46.4099998      -3.25052127E-08
   46.4700012      -3.26874421E-08
   46.5299988      -3.29398411E-08
   46.5900002      -3.32220189E-08
   46.6500015      -3.34930661E-08
   46.7099991      -3.37230652E-08
   46.7700005      -3.39008039E-08
   46.8300018      -3.40342403E-08
   46.8899994      -3.41432660E-08
   46.9500008      -3.42475630E-08
   47.0099983      -3.43550433E-08
   47.0699997      -3.44561784E-08
   47.1300011      -3.45272184E-08
   47.1899986      -3.45412587E-08
   47.2500000      -3.44824933E-08
   47.3100014      -3.43576616E-08
   47.3699989      -3.42000277E-08
   47.4300003      -3.40645734E-08
   47.4900017      -3.40168853E-08
   47.5499992      -3.41203261E-08
   47.6100006      -3.44262610E-08
   47.6699982      -3.49703981E-08
   47.7299995      -3.57757131E-08
   47.7900009      -3.68605555E-08
   47.8499985      -3.82492189E-08
   47.9099998      -3.99821438E-08
   47.9700012      -4.21232826E-08
   48.0299988      -4.47630626E-08
   48.0900002      -4.80165916E-08
   48.1500015      -5.20183541E-08
   48.2099991      -5.69158338E-08
   48.2700005      -6.28651478E-08
   48.3300018      -7.00310778E-08
   48.3899994      -7.85925280E-08
   48.4500008      -8.87525999E-08
   48.5099983      -1.00751329E-07
   48.5699997      -1.14878461E-07
   48.6300011      -1.31484285E-07
   48.6899986      -1.50986779E-07
   48.7500000      -1.73874795E-07
   48.8100014      -2.00707888E-07
   48.8699989      -2.32115383E-07
   48.9300003      -2.68798146E-07
   48.9900017      -3.11536951E-07
   49.0499992      -3.61208464E-07
   49.1100006      -4.18808099E-07
   49.1699982      -4.85474345E-07
   49.2299995      -5.62509456E-07
   49.2900009      -6.51391986E-07
   49.3499985      -7.53782331E-07
   49.4099998      -8.71524719E-07
   49.4700012      -1.00665193E-06
   49.5299988      -1.16139620E-06
   49.5900002      -1.33820959E-06
   49.6500015      -1.53978942E-06
   49.7099991      -1.76910862E-06
   49.7700005      -2.02944534E-06
   49.8300018      -2.32441198E-06
   49.8899994      -2.65797712E-06
   49.9500008      -3.03448587E-06
   50.0099983      -3.45866783E-06
   50.0699997      -3.93564324E-06
   50.1300011      -4.47091907E-06
   50.1899986      -5.07039749E-06
   50.2500000      -5.74037722E-06
   50.3100014      -6.48757532E-06
   50.3699989      -7.31914270E-06
   50.4300003      -8.24268136E-06
   50.4900017      -9.26625034E-06
   50.5499992      -1.03983639E-05
   50.6100006      -1.16479750E-05