  -2.400000      0.0000000E+00
  -2.340000      0.0000000E+00
  -2.280000      0.0000000E+00
  -2.220000      0.0000000E+00
  -2.160000      0.0000000E+00
  -2.100000      0.0000000E+00
  -2.040000      3.2836518E-23
  -1.980000      4.2480267E-23
  -1.920000     -1.1797472E-21
  -1.860000     -8.3200233E-21
  -1.800000     -2.9545832E-20
  -1.740000     -6.4891518E-20
  -1.680000     -7.6135119E-20
  -1.620000      4.6114805E-20
  -1.560000      4.6440106E-19
  -1.500000      1.2554647E-18
  -1.440000      2.1399218E-18
  -1.380000      2.2224620E-18
  -1.320000      5.1450602E-20
  -1.260000     -5.6802042E-18
  -1.200000     -1.4765468E-17
  -1.140000     -2.3994902E-17
  -1.080000     -2.6663972E-17
  -1.020000     -1.4267962E-17
 -0.9600000      1.9196198E-17
 -0.9000000      7.1450458E-17
 -0.8400000      1.2747874E-16
 -0.7800000      1.5994642E-16
 -0.7200000      1.3696071E-16
 -0.6600000      3.6491589E-17
 -0.6000000     -1.3748865E-16
 -0.5400000     -3.4540021E-16
 -0.4800000     -5.1706073E-16
 -0.4200000     -5.7408251E-16
 -0.3600000     -4.6295343E-16
 -0.3000000     -1.8282194E-16
 -0.2400000      2.1028457E-16
 -0.1800000      6.3111948E-16
 -0.1200000      1.0122386E-15
 -5.9999999E-02  1.3371363E-15
  0.0000000E+00  1.6227355E-15
  5.9999999E-02  1.8406746E-15
  0.1200000      1.8175144E-15
  0.1800000      1.2005262E-15
  0.2400000     -4.2290563E-16
  0.3000000     -3.2346645E-15
  0.3600000     -6.8323363E-15
  0.4200000     -1.0034416E-14
  0.4800000     -1.1076407E-14
  0.5400000     -8.2812378E-15
  0.6000000     -1.0142064E-15
  0.6600000      9.5292460E-15
  0.7200000      2.0226869E-14
  0.7800000      2.6917797E-14
  0.8400000      2.6086905E-14
  0.9000000      1.6648807E-14
  0.9600000      9.0662299E-16
   1.020000     -1.5986464E-14
   1.080000     -2.8046281E-14
   1.140000     -3.1139838E-14
   1.200000     -2.5041435E-14
   1.260000     -1.3747595E-14
   1.320000     -3.7315537E-15
   1.380000     -8.4861738E-16
   1.440000     -7.3160540E-15
   1.500000     -2.0188087E-14
   1.560000     -3.2028233E-14
   1.620000     -3.3463866E-14
   1.680000     -1.6562914E-14
   1.740000      2.2136559E-14
   1.800000      7.9661606E-14
   1.860000      1.4586168E-13
   1.920000      2.0385809E-13
   1.980000      2.3195557E-13
   2.040000      2.0766281E-13
   2.100000      1.1425336E-13
   2.160000     -5.0917339E-14
   2.220000     -2.6897752E-13
   2.280000     -4.9701205E-13
   2.340000     -6.7405494E-13
   2.400000     -7.3638800E-13
   2.460000     -6.3846899E-13
   2.520000     -3.7181632E-13
   2.580000      2.6881521E-14
   2.640000      4.8385710E-13
   2.700000      9.1107417E-13
   2.760000      1.2347324E-12
   2.820000      1.4162194E-12
   2.880000      1.4542914E-12
   2.940000      1.3656625E-12
   3.000000      1.1527698E-12
   3.060000      7.7686073E-13
   3.120000      1.5645533E-13
   3.180000     -7.9696254E-13
   3.240000     -2.1107439E-12
   3.300000     -3.6741634E-12
   3.360000     -5.1898646E-12
   3.420000     -6.1903980E-12
   3.480000     -6.1390801E-12
   3.540000     -4.6025453E-12
   3.600000     -1.4464344E-12
   3.660000      3.0193389E-12
   3.720000      8.0186595E-12
   3.780000      1.2450289E-11
   3.840000      1.5172289E-11
   3.900000      1.5345319E-11
   3.960000      1.2709227E-11
   4.020000      7.6745806E-12
   4.080000      1.1727875E-12
   4.140000     -5.6938521E-12
   4.200000     -1.2068082E-11
   4.260000     -1.7642800E-11
   4.320000     -2.2714133E-11
   4.380000     -2.7947393E-11
   4.440000     -3.3955002E-11
   4.500000     -4.0884910E-11
   4.560000     -4.8230996E-11
   4.620000     -5.4987261E-11
   4.680000     -6.0110229E-11
   4.740000     -6.3096757E-11
   4.800000     -6.4403503E-11
   4.860000     -6.5473529E-11
   4.920000     -6.8287251E-11
   4.980000     -7.4558290E-11
   5.040000     -8.4861507E-11
   5.100000     -9.8035552E-11
   5.160000     -1.1111616E-10
   5.220000     -1.1986109E-10
   5.280000     -1.1970473E-10
   5.340000     -1.0682384E-10
   5.400000     -7.8970240E-11
   5.460000     -3.5841701E-11
   5.520000      2.1035751E-11
   5.580000      8.8739585E-11
   5.640000      1.6340450E-10
   5.700000      2.4041835E-10
   5.760000      3.1421193E-10
   5.820000      3.7768630E-10
   5.880000      4.2150203E-10
   5.940000      4.3355627E-10
   6.000000      3.9896678E-10
   6.060000      3.0076325E-10
   6.120000      1.2129200E-10
   6.180000     -1.5586815E-10
   6.240000     -5.4384153E-10
   6.300000     -1.0506549E-09
   6.360000     -1.6780261E-09
   6.420000     -2.4208706E-09
   6.480000     -3.2674337E-09
   6.540000     -4.1998125E-09
   6.600000     -5.1946500E-09
   6.660000     -6.2239445E-09
   6.720000     -7.2561459E-09
   6.780000     -8.2578184E-09
   6.840000     -9.1960812E-09
   6.900000     -1.0041676E-08
   6.960000     -1.0772157E-08
   7.020000     -1.1374318E-08
   7.080000     -1.1845070E-08
   7.140000     -1.2190246E-08
   7.200000     -1.2421556E-08
   7.260000     -1.2552487E-08
   7.320000     -1.2594412E-08
   7.380000     -1.2554140E-08
   7.440000     -1.2433667E-08
   7.500000     -1.2232170E-08
   7.560000     -1.1949482E-08
   7.620000     -1.1589783E-08
   7.680000     -1.1164151E-08
   7.740000     -1.0691016E-08
   7.800000     -1.0194274E-08
   7.860000     -9.6996544E-09
   7.920000     -9.2304706E-09
   7.980000     -8.8040730E-09
   8.040000     -8.4300051E-09
   8.100000     -8.1101774E-09
   8.160000     -7.8407254E-09
   8.220000     -7.6146760E-09
   8.280000     -7.4244562E-09
   8.340000     -7.2635085E-09
   8.400000     -7.1267650E-09
   8.460000     -7.0101875E-09
   8.520000     -6.9099113E-09
   8.580000     -6.8215673E-09
   8.640000     -6.7402310E-09
   8.700000     -6.6611174E-09
   8.760000     -6.5808532E-09
   8.820000     -6.4989241E-09
   8.880000     -6.4188219E-09
   8.940000     -6.3485013E-09
   9.000000     -6.3000050E-09
   9.060000     -6.2883161E-09
   9.120000     -6.3297065E-09
   9.180000     -6.4398518E-09
   9.240000     -6.6319212E-09
   9.300000     -6.9147190E-09
   9.360000     -7.2909478E-09
   9.420000     -7.7557765E-09
   9.480000     -8.2961025E-09
   9.540000     -8.8910657E-09
   9.600000     -9.5142862E-09
   9.660000     -1.0137953E-08
   9.720000     -1.0738260E-08
   9.780000     -1.1301037E-08
   9.840000     -1.1825986E-08
   9.900000     -1.2327924E-08
   9.960000     -1.2834042E-08
   10.02000     -1.3377193E-08
   10.08000     -1.3986462E-08
   10.14000     -1.4677356E-08
   10.20000     -1.5444392E-08
   10.26000     -1.6258518E-08
   10.32000     -1.7070619E-08
   10.38000     -1.7820637E-08
   10.44000     -1.8450111E-08
   10.50000     -1.8914710E-08
   10.56000     -1.9193221E-08
   10.62000     -1.9290274E-08
   10.68000     -1.9231924E-08
   10.74000     -1.9055262E-08
   10.80000     -1.8795031E-08
   10.86000     -1.8471177E-08
   10.92000     -1.8080975E-08
   10.98000     -1.7598149E-08
   11.04000     -1.6979282E-08
   11.10000     -1.6175733E-08
   11.16000     -1.5147620E-08
   11.22000     -1.3875847E-08
   11.28000     -1.2368782E-08
   11.34000     -1.0661799E-08
   11.40000     -8.8100069E-09
   11.46000     -6.8763923E-09
   11.52000     -4.9188045E-09
   11.58000     -2.9793468E-09
   11.64000     -1.0789264E-09
   11.70000      7.8184653E-10
   11.76000      2.6160196E-09
   11.82000      4.4400994E-09
   11.88000      6.2634227E-09
   11.94000      8.0802636E-09
   12.00000      9.8669695E-09
   12.06000      1.1584806E-08
   12.12000      1.3187424E-08
   12.18000      1.4630419E-08
   12.24000      1.5879957E-08
   12.30000      1.6917966E-08
   12.36000      1.7742732E-08
   12.42000      1.8365428E-08
   12.48000      1.8804288E-08
   12.54000      1.9078634E-08
   12.60000      1.9204611E-08
   12.66000      1.9193440E-08
   12.72000      1.9052038E-08
   12.78000      1.8785052E-08
   12.84000      1.8397159E-08
   12.90000      1.7894751E-08
   12.96000      1.7286572E-08
   13.02000      1.6583458E-08
   13.08000      1.5797472E-08
   13.14000      1.4940863E-08
   13.20000      1.4025058E-08
   13.26000      1.3059692E-08
   13.32000      1.2051647E-08
   13.38000      1.1004206E-08
   13.44000      9.9166124E-09
   13.50000      8.7845464E-09
   13.56000      7.6018249E-09
   13.62000      6.3632810E-09
   13.68000      5.0681197E-09
   13.74000      3.7226022E-09
   13.80000      2.3408895E-09
   13.86000      9.4340102E-10
   13.92000     -4.4700132E-10
   13.98000     -1.8097521E-09
   14.04000     -3.1305105E-09
   14.10000     -4.4027839E-09
   14.16000     -5.6266671E-09
   14.22000     -6.8052803E-09
   14.28000     -7.9404137E-09
   14.34000     -9.0291135E-09
   14.40000     -1.0062464E-08
   14.46000     -1.1026838E-08
   14.52000     -1.1906967E-08
   14.58000     -1.2689619E-08
   14.64000     -1.3366739E-08
   14.70000     -1.3937232E-08
   14.76000     -1.4407088E-08
   14.82000     -1.4787790E-08
   14.88000     -1.5093146E-08
   14.94000     -1.5334932E-08
   15.00000     -1.5518165E-08
   15.06000     -1.5637406E-08
   15.12000     -1.5675658E-08
   15.18000     -1.5606993E-08
   15.24000     -1.5402730E-08
   15.30000     -1.5039472E-08
   15.36000     -1.4506264E-08
   15.42000     -1.3808294E-08
   15.48000     -1.2965971E-08
   15.54000     -1.2010138E-08
   15.60000     -1.0975659E-08
   15.66000     -9.8958424E-09
   15.72000     -8.7990877E-09
   15.78000     -7.7077296E-09
   15.84000     -6.6380483E-09
   15.90000     -5.6005143E-09
   15.96000     -4.6001696E-09
   16.02000     -3.6378345E-09
   16.08000     -2.7127844E-09
   16.14000     -1.8266508E-09
   16.20000     -9.8717823E-10
   16.26000     -2.1001384E-10
   16.32000      4.8262278E-10
   16.38000      1.0661003E-09
   16.44000      1.5187359E-09
   16.50000      1.8263139E-09
   16.56000      1.9843833E-09
   16.62000      1.9981687E-09
   16.68000      1.8808697E-09
   16.74000      1.6513251E-09
   16.80000      1.3315898E-09
   16.86000      9.4449548E-10
   16.92000      5.1115573E-10
   16.98000      4.8661703E-11
   17.04000     -4.3150250E-10
   17.10000     -9.2391728E-10
   17.16000     -1.4286495E-09
   17.22000     -1.9502049E-09
   17.28000     -2.4965792E-09
   17.34000     -3.0784519E-09
   17.40000     -3.7079835E-09
   17.46000     -4.3966062E-09
   17.52000     -5.1518918E-09
   17.58000     -5.9745382E-09
   17.64000     -6.8569954E-09
   17.70000     -7.7846423E-09
   17.76000     -8.7390566E-09
   17.82000     -9.7015986E-09
   17.88000     -1.0655356E-08
   17.94000     -1.1584607E-08
   18.00000     -1.2472683E-08
   18.06000     -1.3300227E-08
   18.12000     -1.4045483E-08
   18.18000     -1.4686731E-08
   18.24000     -1.5205302E-08
   18.30000     -1.5587245E-08
   18.36000     -1.5822751E-08
   18.42000     -1.5904357E-08
   18.48000     -1.5826142E-08
   18.54000     -1.5585581E-08
   18.60000     -1.5187844E-08
   18.66000     -1.4650150E-08
   18.72000     -1.4003161E-08
   18.78000     -1.3287709E-08
   18.84000     -1.2547694E-08
   18.90000     -1.1822255E-08
   18.96000     -1.1140576E-08
   19.02000     -1.0521108E-08
   19.08000     -9.9744444E-09
   19.14000     -9.5072537E-09
   19.20000     -9.1247445E-09
   19.26000     -8.8306278E-09
   19.32000     -8.6255332E-09
   19.38000     -8.5057650E-09
   19.44000     -8.4637817E-09
   19.50000     -8.4903711E-09
   19.56000     -8.5772411E-09
   19.62000     -8.7185308E-09
   19.68000     -8.9105718E-09
   19.74000     -9.1502956E-09
   19.80000     -9.4332400E-09
   19.86000     -9.7519104E-09
   19.92000     -1.0094587E-08
   19.98000     -1.0444356E-08
   20.04000     -1.0778379E-08
   20.10000     -1.1068118E-08
   20.16000     -1.1281418E-08
   20.22000     -1.1386903E-08
   20.28000     -1.1359902E-08
   20.34000     -1.1188016E-08
   20.40000     -1.0874182E-08
   20.46000     -1.0436016E-08
   20.52000     -9.9017372E-09
   20.58000     -9.3042569E-09
   20.64000     -8.6753653E-09
   20.70000     -8.0412876E-09
   20.76000     -7.4199376E-09
   20.82000     -6.8196488E-09
   20.88000     -6.2392642E-09
   20.94000     -5.6699019E-09
   21.00000     -5.0987774E-09
   21.06000     -4.5147757E-09
   21.12000     -3.9143306E-09
   21.18000     -3.3053835E-09
   21.24000     -2.7074625E-09
   21.30000     -2.1473903E-09
   21.36000     -1.6520637E-09
   21.42000     -1.2410950E-09
   21.48000     -9.2211333E-10
   21.54000     -6.9021117E-10
   21.60000     -5.3114979E-10
   21.66000     -4.2650936E-10
   21.72000     -3.5859213E-10
   21.78000     -3.1350458E-10
   21.84000     -2.8188168E-10
   21.90000     -2.5757252E-10
   21.96000     -2.3499444E-10
   22.02000     -2.0591928E-10
   22.08000     -1.5645391E-10
   22.14000     -6.5049778E-11
   22.20000      9.7594960E-11
   22.26000      3.6614656E-10
   22.32000      7.7580292E-10
   22.38000      1.3558894E-09
   22.44000      2.1233602E-09
   22.50000      3.0777647E-09
   22.56000      4.1987729E-09
   22.62000      5.4465867E-09
   22.68000      6.7649122E-09
   22.74000      8.0857685E-09
   22.80000      9.3353822E-09
   22.86000      1.0440417E-08
   22.92000      1.1333904E-08
   22.98000      1.1960242E-08
   23.04000      1.2278885E-08
   23.10000      1.2266642E-08
   23.16000      1.1918851E-08
   23.22000      1.1249808E-08
   23.28000      1.0292580E-08
   23.34000      9.0977812E-09
   23.40000      7.7305753E-09
   23.46000      6.2652656E-09
   23.52000      4.7776463E-09
   23.58000      3.3363219E-09
   23.64000      1.9949122E-09
   23.70000      7.8698376E-10
   23.76000     -2.7539354E-10
   23.82000     -1.1998688E-09
   23.88000     -2.0101585E-09
   23.94000     -2.7419713E-09
   24.00000     -3.4392711E-09
   24.06000     -4.1506678E-09
   24.12000     -4.9251723E-09
   24.18000     -5.8067493E-09
   24.24000     -6.8279493E-09
   24.30000     -8.0037852E-09
   24.36000     -9.3274863E-09
   24.42000     -1.0769521E-08
   24.48000     -1.2280510E-08
   24.54000     -1.3797789E-08
   24.60000     -1.5254681E-08
   24.66000     -1.6591132E-08
   24.72000     -1.7764069E-08
   24.78000     -1.8755680E-08
   24.84000     -1.9577801E-08
   24.90000     -2.0271015E-08
   24.96000     -2.0898083E-08
   25.02000     -2.1532683E-08
   25.08000     -2.2245818E-08
   25.14000     -2.3092939E-08
   25.20000     -2.4104708E-08
   25.26000     -2.5283134E-08
   25.32000     -2.6603463E-08
   25.38000     -2.8020677E-08
   25.44000     -2.9478684E-08
   25.50000     -3.0919939E-08
   25.56000     -3.2293599E-08
   25.62000     -3.3560909E-08
   25.68000     -3.4697397E-08
   25.74000     -3.5692260E-08
   25.80000     -3.6545991E-08
   25.86000     -3.7267561E-08
   25.92000     -3.7872258E-08
   25.98000     -3.8380506E-08
   26.04000     -3.8817408E-08
   26.10000     -3.9212136E-08
   26.16000     -3.9596319E-08
   26.22000     -4.0000995E-08
   26.28000     -4.0452449E-08
   26.34000     -4.0967556E-08
   26.40000     -4.1549825E-08
   26.46000     -4.2186958E-08
   26.52000     -4.2850914E-08
   26.58000     -4.3500822E-08
   26.64000     -4.4088747E-08
   26.70000     -4.4567461E-08
   26.76000     -4.4898712E-08
   26.82000     -4.5059892E-08
   26.88000     -4.5047326E-08
   26.94000     -4.4875353E-08
   27.00000     -4.4571525E-08
   27.06000     -4.4169660E-08
   27.12000     -4.3702713E-08
   27.18000     -4.3197225E-08
   27.24000     -4.2670251E-08
   27.30000     -4.2128743E-08
   27.36000     -4.1571205E-08
   27.42000     -4.0990884E-08
   27.48000     -4.0379899E-08
   27.54000     -3.9733290E-08
   27.60000     -3.9051677E-08
   27.66000     -3.8341309E-08
   27.72000     -3.7611237E-08
   27.78000     -3.6868709E-08
   27.84000     -3.6115029E-08
   27.90000     -3.5344481E-08
   27.96000     -3.4547529E-08
   28.02000     -3.3717434E-08
   28.08000     -3.2857422E-08
   28.14000     -3.1984889E-08
   28.20000     -3.1130149E-08
   28.26000     -3.0329669E-08
   28.32000     -2.9616107E-08
   28.38000     -2.9008742E-08
   28.44000     -2.8507701E-08
   28.50000     -2.8093831E-08
   28.56000     -2.7734149E-08
   28.62000     -2.7391199E-08
   28.68000     -2.7033643E-08
   28.74000     -2.6645164E-08
   28.80000     -2.6229074E-08
   28.86000     -2.5807028E-08
   28.92000     -2.5411834E-08
   28.98000     -2.5076428E-08
   29.04000     -2.4822731E-08
   29.10000     -2.4654650E-08
   29.16000     -2.4558123E-08
   29.22000     -2.4508296E-08
   29.28000     -2.4480899E-08
   29.34000     -2.4462889E-08
   29.40000     -2.4457817E-08
   29.46000     -2.4483795E-08
   29.52000     -2.4565143E-08
   29.58000     -2.4721459E-08
   29.64000     -2.4958391E-08
   29.70000     -2.5263347E-08
   29.76000     -2.5606981E-08
   29.82000     -2.5949415E-08
   29.88000     -2.6248852E-08
   29.94000     -2.6470321E-08
   30.00000     -2.6592659E-08
   30.06000     -2.6612435E-08
   30.12000     -2.6544116E-08
   30.18000     -2.6416291E-08
   30.24000     -2.6264763E-08
   30.30000     -2.6124134E-08
   30.36000     -2.6020196E-08
   30.42000     -2.5965178E-08
   30.48000     -2.5956867E-08
   30.54000     -2.5981194E-08
   30.60000     -2.6016675E-08
   30.66000     -2.6038858E-08
   30.72000     -2.6023489E-08
   30.78000     -2.5948143E-08
   30.84000     -2.5792930E-08
   30.90000     -2.5541086E-08
   30.96000     -2.5180048E-08
   31.02000     -2.4703061E-08
   31.08000     -2.4111007E-08
   31.14000     -2.3414032E-08
   31.20000     -2.2632413E-08
   31.26000     -2.1796097E-08
   31.32000     -2.0942180E-08
   31.38000     -2.0109836E-08
   31.44000     -1.9332958E-08
   31.50000     -1.8631845E-08
   31.56000     -1.8006451E-08
   31.62000     -1.7433928E-08
   31.68000     -1.6872283E-08
   31.74000     -1.6269960E-08
   31.80000     -1.5578893E-08
   31.86000     -1.4767064E-08
   31.92000     -1.3826592E-08
   31.98000     -1.2774881E-08
   32.04000     -1.1648702E-08
   32.10000     -1.0493323E-08
   32.16000     -9.3501038E-09
   32.22000     -8.2461380E-09
   32.28000     -7.1886594E-09
   32.34000     -6.1655161E-09
   32.40000     -5.1514024E-09
   32.46000     -4.1180166E-09
   32.52000     -3.0451206E-09
   32.58000     -1.9289721E-09
   32.64000     -7.8510443E-10
   32.70000      3.5594136E-10
   32.76000      1.4589415E-09
   32.82000      2.4970648E-09
   32.88000      3.4631209E-09
   32.94000      4.3748254E-09
   33.00000      5.2719535E-09
   33.06000      6.2061010E-09
   33.12000      7.2262982E-09
   33.18000      8.3650287E-09
   33.24000      9.6289181E-09
   33.30000      1.0996746E-08
   33.36000      1.2425176E-08
   33.42000      1.3860388E-08
   33.48000      1.5252104E-08
   33.54000      1.6565830E-08
   33.60000      1.7789567E-08
   33.66000      1.8932747E-08
   33.72000      2.0017570E-08
   33.78000      2.1065402E-08
   33.84000      2.2082546E-08
   33.90000      2.3050072E-08
   33.96000      2.3920817E-08
   34.02000      2.4624327E-08
   34.08000      2.5077837E-08
   34.14000      2.5199824E-08
   34.20000      2.4922441E-08
   34.26000      2.4200149E-08
   34.32000      2.3013452E-08
   34.38000      2.1367869E-08
   34.44000      1.9289239E-08
   34.50000      1.6816655E-08
   34.56000      1.3994663E-08
   34.62000      1.0866329E-08
   34.68000      7.4688291E-09
   34.74000      3.8326791E-09
   34.80000     -1.5354254E-11
   34.86000     -4.0468731E-09
   34.92000     -8.2262899E-09
   34.98000     -1.2507511E-08
   35.04000     -1.6834466E-08
   35.10000     -2.1145471E-08
   35.16000     -2.5379872E-08
   35.22000     -2.9484482E-08
   35.28000     -3.3417429E-08
   35.34000     -3.7148236E-08
   35.40000     -4.0654367E-08
   35.46000     -4.3915875E-08
   35.52000     -4.6910547E-08
   35.58000     -4.9611611E-08
   35.64000     -5.1989268E-08
   35.70000     -5.4015750E-08
   35.76000     -5.5672423E-08
   35.82000     -5.6956491E-08
   35.88000     -5.7884975E-08
   35.94000     -5.8494464E-08
   36.00000     -5.8836513E-08
   36.06000     -5.8970080E-08
   36.12000     -5.8953127E-08
   36.18000     -5.8835628E-08
   36.24000     -5.8655470E-08
   36.30000     -5.8437603E-08
   36.36000     -5.8195891E-08
   36.42000     -5.7936585E-08
   36.48000     -5.7662255E-08
   36.54000     -5.7375182E-08
   36.60000     -5.7079529E-08
   36.66000     -5.6781758E-08
   36.72000     -5.6489313E-08
   36.78000     -5.6208080E-08
   36.84000     -5.5939861E-08
   36.90000     -5.5681070E-08
   36.96000     -5.5423655E-08
   37.02000     -5.5157969E-08
   37.08000     -5.4876374E-08
   37.14000     -5.4575619E-08
   37.20000     -5.4256663E-08
   37.26000     -5.3921724E-08
   37.32000     -5.3569899E-08
   37.38000     -5.3193300E-08
   37.44000     -5.2775412E-08
   37.50000     -5.2292076E-08
   37.56000     -5.1714554E-08
   37.62000     -5.1013405E-08
   37.68000     -5.0162260E-08
   37.74000     -4.9141271E-08
   37.80000     -4.7940198E-08
   37.86000     -4.6561023E-08
   37.92000     -4.5019068E-08
   37.98000     -4.3341650E-08
   38.04000     -4.1563506E-08
   38.10000     -3.9719676E-08
   38.16000     -3.7837786E-08
   38.22000     -3.5932104E-08
   38.28000     -3.4001243E-08
   38.34000     -3.2030034E-08
   38.40000     -2.9994663E-08
   38.46000     -2.7869442E-08
   38.52000     -2.5633680E-08
   38.58000     -2.3277442E-08
   38.64000     -2.0805404E-08
   38.70000     -1.8238197E-08
   38.76000     -1.5610860E-08
   38.82000     -1.2968576E-08
   38.88000     -1.0360848E-08
   38.94000     -7.8358244E-09
   39.00000     -5.4364708E-09
   39.06000     -3.1991307E-09
   39.12000     -1.1536602E-09
   39.18000      6.7657890E-10
   39.24000      2.2761211E-09
   39.30000      3.6400112E-09
   39.36000      4.7758828E-09
   39.42000      5.7033316E-09
   39.48000      6.4495156E-09
   39.54000      7.0419399E-09
   39.60000      7.5010460E-09
   39.66000      7.8353715E-09
   39.72000      8.0405940E-09
   39.78000      8.1017557E-09
   39.84000      7.9966531E-09
   39.90000      7.6986506E-09
   39.96000      7.1786670E-09
   40.02000      6.4075993E-09
   40.08000      5.3607758E-09
   40.14000      4.0248409E-09
   40.20000      2.4054894E-09
   40.26000      5.3300497E-10
   40.32000     -1.5373561E-09
   40.38000     -3.7313996E-09
   40.44000     -5.9672787E-09
   40.50000     -8.1689597E-09
   40.56000     -1.0278242E-08
   40.62000     -1.2262560E-08
   40.68000     -1.4117391E-08
   40.74000     -1.5863623E-08
   40.80000     -1.7541119E-08
   40.86000     -1.9199973E-08
   40.92000     -2.0890875E-08
   40.98000     -2.2655950E-08
   41.04000     -2.4521480E-08
   41.10000     -2.6493847E-08
   41.16000     -2.8559731E-08
   41.22000     -3.0690593E-08
   41.28000     -3.2850377E-08
   41.34000     -3.5004096E-08
   41.40000     -3.7124671E-08
   41.46000     -3.9195740E-08
   41.52000     -4.1209805E-08
   41.58000     -4.3162991E-08
   41.64000     -4.5049163E-08
   41.70000     -4.6856517E-08
   41.76000     -4.8568545E-08
   41.82000     -5.0169085E-08
   41.88000     -5.1648936E-08
   41.94000     -5.3010453E-08
   42.00000     -5.4267282E-08
   42.06000     -5.5438466E-08
   42.12000     -5.6538976E-08
   42.18000     -5.7570308E-08
   42.24000     -5.8515109E-08
   42.30000     -5.9337989E-08
   42.36000     -5.9992395E-08
   42.42000     -6.0431162E-08
   42.48000     -6.0617467E-08
   42.54000     -6.0533054E-08
   42.60000     -6.0182252E-08
   42.66000     -5.9591354E-08
   42.72000     -5.8804307E-08
   42.78000     -5.7875905E-08
   42.84000     -5.6863822E-08
   42.90000     -5.5820799E-08
   42.96000     -5.4788163E-08
   43.02000     -5.3791855E-08
   43.08000     -5.2841671E-08
   43.14000     -5.1933803E-08
   43.20000     -5.1055572E-08
   43.26000     -5.0190618E-08
   43.32000     -4.9322775E-08
   43.38000     -4.8437496E-08
   43.44000     -4.7521276E-08
   43.50000     -4.6560615E-08
   43.56000     -4.5542581E-08
   43.62000     -4.4457952E-08
   43.68000     -4.3306489E-08
   43.74000     -4.2101952E-08
   43.80000     -4.0874017E-08
   43.86000     -3.9665231E-08
   43.92000     -3.8523147E-08
   43.98000     -3.7490075E-08
   44.04000     -3.6593963E-08
   44.10000     -3.5843488E-08
   44.16000     -3.5228584E-08
   44.22000     -3.4725741E-08
   44.28000     -3.4305852E-08
   44.34000     -3.3942310E-08
   44.40000     -3.3617425E-08
   44.46000     -3.3326241E-08
   44.52000     -3.3077075E-08
   44.58000     -3.2888575E-08
   44.64000     -3.2783504E-08
   44.70000     -3.2780317E-08
   44.76000     -3.2884898E-08
   44.82000     -3.3085321E-08
   44.88000     -3.3352155E-08
   44.94000     -3.3644962E-08
   45.00000     -3.3923076E-08
   45.06000     -3.4156816E-08
   45.12000     -3.4334725E-08
   45.18000     -3.4463859E-08
   45.24000     -3.4562984E-08
   45.30000     -3.4651475E-08
   45.36000     -3.4738555E-08
   45.42000     -3.4817607E-08
   45.48000     -3.4868222E-08
   45.54000     -3.4865618E-08
   45.60000     -3.4793885E-08
   45.66000     -3.4657752E-08
   45.72000     -3.4487989E-08
   45.78000     -3.4338008E-08
   45.84000     -3.4273082E-08
   45.90000     -3.4356653E-08
   45.96000     -3.4639445E-08
   46.02000     -3.5155619E-08
   46.08000     -3.5926927E-08
   46.14000     -3.6972565E-08
   46.20000     -3.8320429E-08
   46.26000     -4.0016072E-08
   46.32000     -4.2127482E-08
   46.38000     -4.4745946E-08
   46.44000     -4.7984212E-08
   46.50000     -5.1973252E-08
   46.56000     -5.6858404E-08
   46.62000     -6.2795955E-08
   46.68000     -6.9951895E-08
   46.74000     -7.8505060E-08
   46.80000     -8.8656108E-08
   46.86000     -1.0064156E-07
   46.92000     -1.1474944E-07
   46.98000     -1.3133211E-07
   47.04000     -1.5081265E-07
   47.10000     -1.7368488E-07
   47.16000     -2.0050994E-07
   47.22000     -2.3191483E-07
   47.28000     -2.6859672E-07
   47.34000     -3.1133487E-07
   47.40000     -3.6100829E-07
   47.46000     -4.1861642E-07
   47.52000     -4.8529955E-07
   47.58000     -5.6235706E-07
   47.64000     -6.5126113E-07
   47.70000     -7.5366648E-07
   47.76000     -8.7141632E-07
   47.82000     -1.0065473E-06
   47.88000     -1.1612973E-06
   47.94000     -1.3381209E-06
   48.00000     -1.5397137E-06
   48.06000     -1.7690444E-06
   48.12000     -2.0293892E-06
   48.18000     -2.3243615E-06
   48.24000     -2.6579357E-06
   48.30000     -3.0344600E-06
   48.36000     -3.4586635E-06
   48.42000     -3.9356601E-06
   48.48000     -4.4709527E-06
   48.54000     -5.0704402E-06
   48.60000     -5.7404254E-06
   48.66000     -6.4876294E-06
   48.72000     -7.3192032E-06
   48.78000     -8.2427432E-06
   48.84000     -9.2663031E-06
   48.90000     -1.0398398E-05
   48.96000     -1.1647993E-05
   49.02000     -1.3024475E-05
   49.08000     -1.4537633E-05
   49.14000     -1.6197617E-05
   49.20000     -1.8014900E-05
   49.26000     -2.0000243E-05
   49.32000     -2.2164641E-05
   49.38000     -2.4519280E-05
   49.44000     -2.7075477E-05
   49.50000     -2.9844616E-05
   49.56000     -3.2838081E-05
   49.62000     -3.6067158E-05
   49.68000     -3.9542967E-05
   49.74000     -4.3276341E-05
   49.80000     -4.7277714E-05
   49.86000     -5.1557017E-05
   49.92000     -5.6123539E-05
   49.98000     -6.0985796E-05
   50.04000     -6.6151450E-05
   50.10000     -7.1627175E-05
   50.16000     -7.7418554E-05
   50.22000     -8.3529951E-05
   50.28000     -8.9964393E-05
   50.34000     -9.6723437E-05
   50.40000     -1.0380704E-04
   50.46000     -1.1121348E-04
   50.52000     -1.1893923E-04
   50.58000     -1.2697891E-04
   50.64000     -1.3532519E-04
   50.70000     -1.4396873E-04
   50.76000     -1.5289809E-04
   50.82000     -1.6209978E-04
   50.88000     -1.7155820E-04
   50.94000     -1.8125573E-04
   51.00000     -1.9117272E-04
   51.06000     -2.0128753E-04
   51.12000     -2.1157660E-04
   51.18000     -2.2201458E-04
   51.24000     -2.3257441E-04
   51.30000     -2.4322759E-04
   51.36000     -2.5394422E-04
   51.42000     -2.6469328E-04
   51.48000     -2.7544284E-04
   51.54000     -2.8616024E-04
   51.60000     -2.9681224E-04
   51.66000     -3.0736544E-04
   51.72000     -3.1778647E-04
   51.78000     -3.2804234E-04
   51.84000     -3.3810083E-04
   51.90000     -3.4793053E-04
   51.96000     -3.5750141E-04
   52.02000     -3.6678481E-04
   52.08000     -3.7575408E-04
   52.14000     -3.8438442E-04
   52.20000     -3.9265354E-04
   52.26000     -4.0054167E-04
   52.32000     -4.0803174E-04
   52.38000     -4.1510965E-04
   52.44000     -4.2176439E-04
   52.50000     -4.2798833E-04
   52.56000     -4.3377731E-04
   52.62000     -4.3913076E-04
   52.68000     -4.4405149E-04
   52.74000     -4.4854567E-04
   52.80000     -4.5262277E-04
   52.86000     -4.5629527E-04
   52.92000     -4.5957902E-04
   52.98000     -4.6249284E-04
   53.04000     -4.6505861E-04
   53.10000     -4.6730068E-04
   53.16000     -4.6924551E-04
   53.22000     -4.7092128E-04
   53.28000     -4.7235764E-04
   53.34000     -4.7358547E-04
   53.40000     -4.7463662E-04
   53.46000     -4.7554355E-04
   53.52000     -4.7633873E-04
   53.58000     -4.7705407E-04
   53.64000     -4.7772049E-04
   53.70000     -4.7836744E-04
   53.76000     -4.7902288E-04
   53.82000     -4.7971308E-04
   53.88000     -4.8046224E-04
   53.94000     -4.8129217E-04
   54.00000     -4.8222169E-04
   54.06000     -4.8326611E-04
   54.12000     -4.8443716E-04
   54.18000     -4.8574278E-04
   54.24000     -4.8718756E-04
   54.30000     -4.8877264E-04
   54.36000     -4.9049576E-04
   54.42000     -4.9235096E-04
   54.48000     -4.9432839E-04
   54.54000     -4.9641437E-04
   54.60000     -4.9859181E-04
   54.66000     -5.0084060E-04
   54.72000     -5.0313812E-04
   54.78000     -5.0545949E-04
   54.84000     -5.0777808E-04
   54.90000     -5.1006489E-04
   54.96000     -5.1228976E-04
   55.02000     -5.1442103E-04
   55.08000     -5.1642675E-04
   55.14000     -5.1827519E-04
   55.20000     -5.1993510E-04
   55.26000     -5.2137626E-04
   55.32000     -5.2256946E-04
   55.38000     -5.2348705E-04
   55.44000     -5.2410306E-04
   55.50000     -5.2439421E-04
   55.56000     -5.2434020E-04