 -0.750000000       0.00000000    
 -0.689999998       0.00000000    
 -0.629999995       0.00000000    
 -0.569999993       0.00000000    
 -0.509999990       0.00000000    
 -0.449999988       0.00000000    
 -0.389999986      -4.26953686E-22
 -0.330000013      -1.93157134E-21
 -0.270000011       2.03160809E-21
 -0.209999993       4.59409327E-20
 -0.150000006       2.05175378E-19
  -9.00000036E-02   5.31199001E-19
  -2.99999993E-02   8.39298809E-19
   2.99999993E-02   4.31154556E-19
   9.00000036E-02  -1.87370388E-18
  0.150000006      -6.86117698E-18
  0.209999993      -1.30733406E-17
  0.270000011      -1.50244702E-17
  0.330000013      -3.83573411E-18
  0.389999986       2.73437009E-17
  0.449999988       7.34517326E-17
  0.509999990       1.08634159E-16
  0.569999993       8.84011362E-17
  0.629999995      -2.82146873E-17
  0.689999998      -2.37975389E-16
  0.750000000      -4.53655176E-16
  0.810000002      -5.00258717E-16
  0.870000005      -1.80934655E-16
  0.930000007       5.83447253E-16
  0.990000010       1.59186078E-15
   1.04999995       2.28416050E-15
   1.11000001       1.86759796E-15
   1.16999996      -2.91362578E-16
   1.23000002      -4.09744734E-15
   1.28999996      -8.25163234E-15
   1.35000002      -1.02619803E-14
   1.40999997      -7.25937729E-15
   1.47000003       2.39738382E-15
   1.52999997       1.72778187E-14
   1.59000003       3.18453556E-14
   1.64999998       3.73835484E-14
   1.71000004       2.54411275E-14
   1.76999998      -6.94127280E-15
   1.83000004      -5.24967710E-14
   1.88999999      -9.26680743E-14
   1.95000005      -1.02746255E-13
   2.00999999      -6.31812785E-14
   2.06999993       2.67533374E-14
   2.13000011       1.39960228E-13
   2.19000006       2.24559141E-13
   2.25000000       2.22405034E-13
   2.30999994       9.88813184E-14
   2.36999989      -1.28457927E-13
   2.43000007      -3.78975849E-13
   2.49000001      -5.28478086E-13
   2.54999995      -4.59393916E-13
   2.60999990      -1.24932616E-13
   2.67000008       4.02620537E-13
   2.73000002       9.30183773E-13
   2.78999996       1.20382036E-12
   2.84999990       1.01708561E-12
   2.91000009       3.25309468E-13
   2.97000003      -6.91189402E-13
   3.02999997      -1.66012690E-12
   3.08999991      -2.15302624E-12
   3.15000010      -1.87859103E-12
   3.21000004      -8.48094219E-13
   3.26999998       5.77875367E-13
   3.32999992       1.81044622E-12
   3.39000010       2.29328232E-12
   3.45000005       1.79496869E-12
   3.50999999       5.83599412E-13
   3.56999993      -6.36571308E-13
   3.63000011      -1.04569359E-12
   3.69000006      -1.70037514E-13
   3.75000000       1.73638773E-12
   3.80999994       3.62257034E-12
   3.86999989       4.00421710E-12
   3.93000007       1.67776914E-12
   3.99000001      -3.50542620E-12
   4.05000019      -1.01969657E-11
   4.11000013      -1.57528279E-11
   4.17000008      -1.71305366E-11
   4.23000002      -1.21953220E-11
   4.28999996      -8.90689215E-13
   4.34999990       1.43012572E-11
   4.40999985       2.89336610E-11
   4.46999979       3.80805942E-11
   4.53000021       3.81690443E-11
   4.59000015       2.83752744E-11
   4.65000010       1.09480411E-11
   4.71000004      -9.71118411E-12
   4.76999998      -2.87981288E-11
   4.82999992      -4.28619328E-11
   4.88999987      -5.07268949E-11
   4.94999981      -5.31509246E-11
   5.01000023      -5.14462188E-11
   5.07000017      -4.58589174E-11
   5.13000011      -3.46879921E-11
   5.19000006      -1.47975625E-11
   5.25000000       1.65233903E-11
   5.30999994       5.91371604E-11
   5.36999989       1.08250651E-10
   5.42999983       1.54242702E-10
   5.48999977       1.84462404E-10
   5.55000019       1.86447899E-10
   5.61000013       1.51338886E-10
   5.67000008       7.61231633E-11
   5.73000002      -3.61547632E-11
   5.78999996      -1.78202050E-10
   5.84999990      -3.41391027E-10
   5.90999985      -5.18388055E-10
   5.96999979      -7.04262870E-10
   6.03000021      -8.95561958E-10
   6.09000015      -1.08779064E-09
   6.15000010      -1.27252109E-09
   6.21000004      -1.43558920E-09
   6.26999998      -1.55744428E-09
   6.32999992      -1.61584446E-09
   6.38999987      -1.59010782E-09
   6.44999981      -1.46543311E-09
   6.51000023      -1.23569288E-09
   6.57000017      -9.03623898E-10
   6.63000011      -4.78304063E-10
   6.69000006       2.91462757E-11
   6.75000000       6.09959916E-10
   6.80999994       1.26041089E-09
   6.86999989       1.98153960E-09
   6.92999983       2.77573897E-09
   6.98999977       3.64126618E-09
   7.05000019       4.56669058E-09
   7.11000013       5.52756951E-09
   7.17000008       6.48707310E-09
   7.23000002       7.40097894E-09
   7.28999996       8.22588930E-09
   7.34999990       8.92822172E-09
   7.40999985       9.49107459E-09
   7.46999979       9.91669147E-09
   7.53000021       1.02237863E-08
   7.59000015       1.04408473E-08
   7.65000010       1.05980007E-08
   7.71000004       1.07203206E-08
   7.76999998       1.08246834E-08
   7.82999992       1.09204850E-08
   7.88999987       1.10127756E-08
   7.94999981       1.11054170E-08
   8.01000023       1.12021743E-08
   8.06999969       1.13051302E-08
   8.13000011       1.14116752E-08
   8.18999958       1.15125243E-08
   8.25000000       1.15930803E-08
   8.31000042       1.16388863E-08
   8.36999989       1.16435643E-08
   8.43000031       1.16158478E-08
   8.48999977       1.15819523E-08
   8.55000019       1.15810632E-08
   8.60999966       1.16545662E-08
   8.67000008       1.18324905E-08
   8.72999954       1.21221850E-08
   8.78999996       1.25036710E-08
   8.85000038       1.29336257E-08
   8.90999985       1.33566695E-08
   8.97000027       1.37199709E-08
   9.02999973       1.39862069E-08
   9.09000015       1.41410013E-08
   9.14999962       1.41932617E-08
   9.21000004       1.41694647E-08
   9.27000046       1.41046206E-08
   9.32999992       1.40330858E-08
   9.39000034       1.39816496E-08
   9.44999981       1.39660390E-08
   9.51000023       1.39907792E-08
   9.56999969       1.40516025E-08
   9.63000011       1.41393208E-08
   9.68999958       1.42440948E-08
   9.75000000       1.43592152E-08
   9.81000042       1.44837671E-08
   9.86999989       1.46238479E-08
   9.93000031       1.47924037E-08
   9.98999977       1.50079682E-08
   10.0500002       1.52926543E-08
   10.1099997       1.56695208E-08
   10.1700001       1.61591291E-08
   10.2299995       1.67751111E-08
   10.2900000       1.75189001E-08
   10.3500004       1.83746209E-08
   10.4099998       1.93059400E-08
   10.4700003       2.02569357E-08
   10.5299997       2.11583338E-08
   10.5900002       2.19389129E-08
   10.6499996       2.25397745E-08
   10.7100000       2.29276402E-08
   10.7700005       2.31029773E-08
   10.8299999       2.30999966E-08
   10.8900003       2.29781651E-08
   10.9499998       2.28078143E-08
   11.0100002       2.26545946E-08
   11.0699997       2.25679280E-08
   11.1300001       2.25769341E-08
   11.1899996       2.26941363E-08
   11.2500000       2.29239330E-08
   11.3100004       2.32707791E-08
   11.3699999       2.37425137E-08
   11.4300003       2.43468605E-08
   11.4899998       2.50830237E-08
   11.5500002       2.59332200E-08
   11.6099997       2.68595173E-08
   11.6700001       2.78090706E-08
   11.7299995       2.87264825E-08
   11.7900000       2.95681204E-08
   11.8500004       3.03116288E-08
   11.9099998       3.09555794E-08
   11.9700003       3.15087654E-08
   12.0299997       3.19733040E-08
   12.0900002       3.23289733E-08
   12.1499996       3.25256835E-08
   12.2100000       3.24877760E-08
   12.2700005       3.21291012E-08
   12.3299999       3.13739363E-08
   12.3900003       3.01772332E-08
   12.4499998       2.85384445E-08
   12.5100002       2.65055728E-08
   12.5699997       2.41687843E-08
   12.6300001       2.16451639E-08
   12.6899996       1.90576994E-08
   12.7500000       1.65127130E-08
   12.8100004       1.40806247E-08
   12.8699999       1.17848051E-08
   12.9300003       9.60186952E-09
   12.9899998       7.47393791E-09
   13.0500002       5.32974642E-09
   13.1099997       3.10850234E-09
   13.1700001       7.79368958E-10
   13.2299995      -1.64886738E-09
   13.2900000      -4.12978896E-09
   13.3500004      -6.59078347E-09
   13.4099998      -8.94903884E-09
   13.4700003      -1.11268266E-08
   13.5299997      -1.30625262E-08
   13.5900002      -1.47163322E-08
   13.6499996      -1.60716844E-08
   13.7100000      -1.71340364E-08
   13.7700005      -1.79280892E-08
   13.8299999      -1.84936226E-08
   13.8900003      -1.88796125E-08
   13.9499998      -1.91366141E-08
   14.0100002      -1.93084357E-08
   14.0699997      -1.94249630E-08
   14.1300001      -1.94981951E-08
   14.1899996      -1.95228402E-08
   14.2500000      -1.94814387E-08
   14.3100004      -1.93525622E-08
   14.3699999      -1.91198009E-08
   14.4300003      -1.87791489E-08
   14.4899998      -1.83431688E-08
   14.5500002      -1.78413782E-08
   14.6099997      -1.73173067E-08
   14.6700001      -1.68231935E-08
   14.7299995      -1.64132494E-08
   14.7900000      -1.61360934E-08
   14.8500004      -1.60267497E-08
   14.9099998      -1.60989249E-08
   14.9700003      -1.63390244E-08
   15.0299997      -1.67040994E-08
   15.0900002      -1.71259149E-08
   15.1499996      -1.75220638E-08
   15.2100000      -1.78125585E-08
   15.2700005      -1.79377668E-08
   15.3299999      -1.78719439E-08
   15.3900003      -1.76273360E-08
   15.4499998      -1.72468422E-08
   15.5100002      -1.67874994E-08
   15.5699997      -1.63006746E-08
   15.6300001      -1.58161182E-08
   15.6899996      -1.53352691E-08
   15.7500000      -1.48351749E-08
   15.8100004      -1.42800349E-08
   15.8699999      -1.36347138E-08
   15.9300003      -1.28746613E-08
   15.9899998      -1.19893366E-08
   16.0499992      -1.09796900E-08
   16.1100006      -9.85293358E-09
   16.1700001      -8.61836025E-09
   16.2299995      -7.28652960E-09
   16.2900009      -5.87175064E-09
   16.3500004      -4.39584502E-09
   16.4099998      -2.89071389E-09
   16.4699993      -1.39807921E-09
   16.5300007       3.36782928E-11
   16.5900002       1.35449352E-09
   16.6499996       2.51792742E-09
   16.7099991       3.48567997E-09
   16.7700005       4.23068069E-09
   16.8299999       4.73835593E-09
   16.8899994       5.00566344E-09
   16.9500008       5.03767605E-09
   17.0100002       4.84224039E-09
   17.0699997       4.42445014E-09
   17.1299992       3.78362719E-09
   17.1900005       2.91520008E-09
   17.2500000       1.81800375E-09
   17.3099995       5.04601916E-10
   17.3700008      -9.90166504E-10
   17.4300003      -2.60748845E-09
   17.4899998      -4.27237534E-09
   17.5499992      -5.90929172E-09
   17.6100006      -7.45992956E-09
   17.6700001      -8.89584761E-09
   17.7299995      -1.02205595E-08
   17.7900009      -1.14601990E-08
   17.8500004      -1.26467032E-08
   17.9099998      -1.38003058E-08
   17.9699993      -1.49177328E-08
   18.0300007      -1.59693663E-08
   18.0900002      -1.69048509E-08
   18.1499996      -1.76639574E-08
   18.2099991      -1.81890076E-08
   18.2700005      -1.84362730E-08
   18.3299999      -1.83850908E-08
   18.3899994      -1.80441351E-08
   18.4500008      -1.74539565E-08
   18.5100002      -1.66844991E-08
   18.5699997      -1.58266715E-08
   18.6299992      -1.49785979E-08
   18.6900005      -1.42290943E-08
   18.7500000      -1.36423326E-08
   18.8099995      -1.32475702E-08
   18.8700008      -1.30363418E-08
   18.9300003      -1.29673285E-08
   18.9899998      -1.29771536E-08
   19.0499992      -1.29942537E-08
   19.1100006      -1.29525386E-08
   19.1700001      -1.28017392E-08
   19.2299995      -1.25119506E-08
   19.2900009      -1.20712054E-08
   19.3500004      -1.14769980E-08
   19.4099998      -1.07250626E-08
   19.4699993      -9.80025305E-09
   19.5300007      -8.67387140E-09
   19.5900002      -7.30900984E-09
   19.6499996      -5.67154279E-09
   19.7099991      -3.74142939E-09
   19.7700005      -1.51897228E-09
   19.8299999       9.76261960E-10
   19.8899994       3.71160125E-09
   19.9500008       6.64720412E-09
   20.0100002       9.73693037E-09
   20.0699997       1.29232669E-08
   20.1299992       1.61303699E-08
   20.1900005       1.92619254E-08
   20.2500000       2.22088303E-08
   20.3099995       2.48663881E-08
   20.3700008       2.71548579E-08
   20.4300003       2.90344833E-08
   20.4899998       3.05083852E-08
   20.5499992       3.16127036E-08
   20.6100006       3.23996545E-08
   20.6700001       3.29220846E-08
   20.7299995       3.32262076E-08
   20.7900009       3.33536683E-08
   20.8500004       3.33485985E-08
   20.9099998       3.32628822E-08
   20.9699993       3.31547163E-08
   21.0300007       3.30801129E-08
   21.0900002       3.30814593E-08
   21.1499996       3.31788002E-08
   21.2099991       3.33677939E-08
   21.2700005       3.36244845E-08
   21.3299999       3.39137713E-08
   21.3899994       3.41975586E-08
   21.4500008       3.44398892E-08
   21.5100002       3.46092293E-08
   21.5699997       3.46797222E-08
   21.6299992       3.46332456E-08
   21.6900005       3.44625022E-08
   21.7500000       3.41733468E-08
   21.8099995       3.37839126E-08
   21.8700008       3.33192887E-08
   21.9300003       3.28029053E-08
   21.9899998       3.22479536E-08
   22.0499992       3.16528066E-08
   22.1100006       3.10027062E-08
   22.1700001       3.02770360E-08
   22.2299995       2.94588887E-08
   22.2900009       2.85425408E-08
   22.3500004       2.75358953E-08
   22.4099998       2.64577089E-08
   22.4699993       2.53321417E-08
   22.5300007       2.41842155E-08
   22.5900002       2.30384867E-08
   22.6499996       2.19207354E-08
   22.7099991       2.08600941E-08
   22.7700005       1.98886081E-08
   22.8299999       1.90369001E-08
   22.8899994       1.83274373E-08
   22.9500008       1.77690112E-08
   23.0100002       1.73557471E-08
   23.0699997       1.70714962E-08
   23.1299992       1.68970136E-08
   23.1900005       1.68152656E-08
   23.2500000       1.68110184E-08
   23.3099995       1.68644441E-08
   23.3700008       1.69428347E-08
   23.4300003       1.69967986E-08
   23.4899998       1.69660392E-08
   23.5499992       1.67949388E-08
   23.6100006       1.64524039E-08
   23.6700001       1.59468208E-08
   23.7299995       1.53278936E-08
   23.7900009       1.46727039E-08
   23.8500004       1.40605048E-08
   23.9099998       1.35464715E-08
   23.9699993       1.31453808E-08
   24.0300007       1.28316966E-08
   24.0900002       1.25549482E-08
   24.1499996       1.22624026E-08
   24.2099991       1.19181784E-08
   24.2700005       1.15105774E-08
   24.3299999       1.10458114E-08
   24.3899994       1.05332143E-08
   24.4500008       9.97082505E-09
   24.5100002       9.33921651E-09
   24.5699997       8.60651017E-09
   24.6299992       7.74149811E-09
   24.6900005       6.72789691E-09
   24.7500000       5.57283952E-09
   24.8099995       4.30636726E-09
   24.8700008       2.97349323E-09
   24.9300003       1.62373281E-09
   24.9899998       3.03128495E-10
   25.0499992      -9.48870538E-10
   25.1100006      -2.09890194E-09
   25.1700001      -3.11895576E-09
   25.2299995      -3.98835676E-09
   25.2900009      -4.69875427E-09
   25.3500004      -5.25941424E-09
   25.4099998      -5.69875258E-09
   25.4699993      -6.05933659E-09
   25.5300007      -6.38686615E-09
   25.5900002      -6.71705180E-09
   25.6499996      -7.06587455E-09
   25.7099991      -7.42744577E-09
   25.7700005      -7.78023068E-09
   25.8299999      -8.09858580E-09
   25.8899994      -8.36436342E-09
   25.9500008      -8.57384475E-09
   26.0100002      -8.73791706E-09
   26.0699997      -8.87673046E-09
   26.1299992      -9.01210662E-09
   26.1900005      -9.16094489E-09
   26.2500000      -9.33108080E-09
   26.3099995      -9.51918722E-09
   26.3700008      -9.70947411E-09
   26.4300003      -9.87293003E-09
   26.4899998      -9.96850513E-09
   26.5499992      -9.94854954E-09
   26.6100006      -9.76965531E-09
   26.6700001      -9.40709288E-09
   26.7299995      -8.86784601E-09
   26.7900009      -8.19601809E-09
   26.8500004      -7.46645412E-09
   26.9099998      -6.76720768E-09
   26.9699993      -6.17670359E-09
   27.0300007      -5.74417092E-09
   27.0900002      -5.48055112E-09
   27.1499996      -5.36222711E-09
   27.2099991      -5.34396971E-09
   27.2700005      -5.37392664E-09
   27.3299999      -5.40390221E-09
   27.3899994      -5.39224043E-09
   27.4500008      -5.30172928E-09
   27.5100002      -5.09788300E-09
   27.5699997      -4.75215067E-09
   27.6299992      -4.25047642E-09
   27.6900005      -3.60305297E-09
   27.7500000      -2.84891866E-09
   27.8099995      -2.05079975E-09
   27.8700008      -1.28052535E-09
   27.9300003      -6.00481442E-10
   27.9899998      -4.90452054E-11
   28.0499992       3.63857611E-10
   28.1100006       6.50058007E-10
   28.1700001       8.29868840E-10
   28.2299995       9.19724075E-10
   28.2900009       9.26923260E-10
   28.3500004       8.52980075E-10
   28.4099998       7.01760816E-10
   28.4699993       4.85786411E-10
   28.5300007       2.25407859E-10
   28.5900002      -5.97545416E-11
   28.6499996      -3.62523844E-10
   28.7099991      -6.95813851E-10
   28.7700005      -1.09067078E-09
   28.8299999      -1.58424074E-09
   28.8899994      -2.20281104E-09
   28.9500008      -2.94798297E-09
   29.0100002      -3.79255116E-09
   29.0699997      -4.68766315E-09
   29.1299992      -5.57723734E-09
   29.1900005      -6.41259623E-09
   29.2500000      -7.16134885E-09
   29.3099995      -7.80876430E-09
   29.3700008      -8.35426484E-09
   29.4300003      -8.80756268E-09
   29.4899998      -9.18731402E-09
   29.5499992      -9.52153112E-09
   29.6100006      -9.84622783E-09
   29.6700001      -1.01990647E-08
   29.7299995      -1.06081615E-08
   29.7900009      -1.10804281E-08
   29.8500004      -1.15956800E-08
   29.9099998      -1.21107071E-08
   29.9699993      -1.25723592E-08
   30.0300007      -1.29336328E-08
   30.0900002      -1.31651383E-08
   30.1499996      -1.32571696E-08
   30.2099991      -1.32134250E-08
   30.2700005      -1.30423032E-08
   30.3299999      -1.27525421E-08
   30.3899994      -1.23561277E-08
   30.4500008      -1.18754144E-08
   30.5100002      -1.13472538E-08
   30.5699997      -1.08178204E-08
   30.6299992      -1.03273337E-08
   30.6900005      -9.89106397E-09
   30.7500000      -9.48709200E-09
   30.8099995      -9.05942876E-09
   30.8700008      -8.53785398E-09
   30.9300003      -7.86685650E-09
   30.9899998      -7.03050462E-09
   31.0499992      -6.06108097E-09
   31.1100006      -5.02671194E-09
   31.1700001      -4.00318534E-09
   31.2299995      -3.04276759E-09
   31.2900009      -2.15410911E-09
   31.3500004      -1.30190780E-09
   31.4099998      -4.25609270E-10
   31.4699993       5.32114131E-10
   31.5300007       1.60013880E-09
   31.5900002       2.76744139E-09
   31.6499996       3.98888744E-09
   31.7099991       5.20388221E-09
   31.7700005       6.35867003E-09
   31.8299999       7.42303508E-09
   31.8899994       8.39626235E-09
   31.9500008       9.30261201E-09
   32.0099983       1.01804352E-08
   32.0699997       1.10697949E-08
   32.1300011       1.20017685E-08
   32.1899986       1.29903732E-08
   32.2500000       1.40272265E-08
   32.3100014       1.50799195E-08
   32.3699989       1.60962284E-08
   32.4300003       1.70159282E-08
   32.4900017       1.77889365E-08
   32.5499992       1.83942479E-08
   32.6100006       1.88512548E-08
   32.6699982       1.92162730E-08
   32.7299995       1.95630232E-08
   32.7900009       1.99537062E-08
   32.8499985       2.04130135E-08
   32.9099998       2.09173283E-08
   32.9700012       2.14047873E-08
   33.0299988       2.18020784E-08
   33.0900002       2.20559038E-08
   33.1500015       2.21552359E-08
   33.2099991       2.21355556E-08
   33.2700005       2.20651586E-08
   33.3300018       2.20213927E-08
   33.3899994       2.20673808E-08
   33.4500008       2.22370140E-08
   33.5099983       2.25301413E-08
   33.5699997       2.29153549E-08
   33.6300011       2.33366517E-08
   33.6899986       2.37224835E-08
   33.7500000       2.39983073E-08
   33.8100014       2.41038158E-08
   33.8699989       2.40127420E-08
   33.9300003       2.37485338E-08
   33.9900017       2.33869724E-08
   34.0499992       2.30395365E-08
   34.1100006       2.28190586E-08
   34.1699982       2.27983392E-08
   34.2299995       2.29780159E-08
   34.2900009       2.32786448E-08
   34.3499985       2.35630413E-08
   34.4099998       2.36824054E-08
   34.4700012       2.35290170E-08
   34.5299988       2.30746782E-08
   34.5900002       2.23794423E-08
   34.6500015       2.15672102E-08
   34.7099991       2.07784527E-08
   34.7700005       2.01193195E-08
   34.8300018       1.96271230E-08
   34.8899994       1.92644283E-08
   34.9500008       1.89415186E-08
   35.0099983       1.85557223E-08
   35.0699997       1.80305157E-08
   35.1300011       1.73396923E-08
   35.1899986       1.65100058E-08
   35.2500000       1.56053108E-08
   35.3100014       1.47016790E-08
   35.3699989       1.38638994E-08
   35.4300003       1.31301778E-08
   35.4900017       1.25064838E-08
   35.5499992       1.19683818E-08
   35.6100006       1.14675460E-08
   35.6699982       1.09416938E-08
   35.7299995       1.03278817E-08
   35.7900009       9.57837276E-09
   35.8499985       8.67554828E-09
   35.9099998       7.63990737E-09
   35.9700012       6.52553300E-09
   36.0299988       5.40161693E-09
   36.0900002       4.32523839E-09
   36.1500015       3.31607475E-09
   36.2099991       2.34462272E-09
   36.2700005       1.34062306E-09
   36.3300018       2.19588445E-10
   36.3899994      -1.08311005E-09
   36.4500008      -2.58493049E-09
   36.5099983      -4.24711066E-09
   36.5699997      -5.98728356E-09
   36.6300011      -7.70776598E-09
   36.6899986      -9.32737354E-09
   36.7500000      -1.08042695E-08
   36.8100014      -1.21425003E-08
   36.8699989      -1.33824356E-08
   36.9300003      -1.45815466E-08
   36.9900017      -1.57941962E-08
   37.0499992      -1.70570704E-08
   37.1100006      -1.83826536E-08
   37.1699982      -1.97593728E-08
   37.2299995      -2.11557527E-08
   37.2900009      -2.25268142E-08
   37.3499985      -2.38227855E-08
   37.4099998      -2.50003946E-08
   37.4700012      -2.60354618E-08
   37.5299988      -2.69325771E-08
   37.5900002      -2.77264327E-08
   37.6500015      -2.84712698E-08
   37.7099991      -2.92201818E-08
   37.7700005      -3.00021448E-08
   37.8300018      -3.08078221E-08
   37.8899994      -3.15927764E-08
   37.9500008      -3.22988747E-08
   38.0099983      -3.28852963E-08
   38.0699997      -3.33543504E-08
   38.1300011      -3.37586883E-08
   38.1899986      -3.41848114E-08
   38.2500000      -3.47193811E-08
   38.3100014      -3.54134997E-08
   38.3699989      -3.62609747E-08
   38.4300003      -3.71996087E-08
   38.4900017      -3.81332903E-08
   38.5499992      -3.89633534E-08
   38.6100006      -3.96153261E-08
   38.6699982      -4.00515994E-08
   38.7299995      -4.02692066E-08
   38.7900009      -4.02889384E-08
   38.8499985      -4.01438136E-08
   38.9099998      -3.98717788E-08
   38.9700012      -3.95122903E-08
   39.0299988      -3.91031740E-08
   39.0900002      -3.86749903E-08
   39.1500015      -3.82438614E-08
   39.2099991      -3.78069522E-08
   39.2700005      -3.73445879E-08
   39.3300018      -3.68294089E-08
   39.3899994      -3.62379957E-08
   39.4500008      -3.55583758E-08
   39.5099983      -3.47888829E-08
   39.5699997      -3.39298474E-08
   39.6300011      -3.29747856E-08
   39.6899986      -3.19089821E-08
   39.7500000      -3.07191748E-08
   39.8100014      -2.94102556E-08
   39.8699989      -2.80192474E-08
   39.9300003      -2.66161670E-08
   39.9900017      -2.52875658E-08
   40.0499992      -2.41078304E-08
   40.1100006      -2.31107684E-08
   40.1699982      -2.22750405E-08
   40.2299995      -2.15309104E-08
   40.2900009      -2.07857145E-08
   40.3499985      -1.99567403E-08
   40.4099998      -1.89974330E-08
   40.4700012      -1.79070465E-08
   40.5299988      -1.67224972E-08
   40.5900002      -1.54992925E-08
   40.6500015      -1.42920902E-08
   40.7099991      -1.31430520E-08
   40.7700005      -1.20801893E-08
   40.8300018      -1.11218768E-08
   40.8899994      -1.02813065E-08
   40.9500008      -9.56668522E-09
   41.0099983      -8.97758134E-09
   41.0699997      -8.50158788E-09
   41.1300011      -8.11581824E-09
   41.1899986      -7.79433051E-09
   41.2500000      -7.51782459E-09
   41.3100014      -7.27924654E-09
   41.3699989      -7.08055614E-09
   41.4300003      -6.92134616E-09
   41.4900017      -6.78599488E-09
   41.5499992      -6.63857636E-09
   41.6100006      -6.43154507E-09
   41.6699982      -6.12638962E-09
   41.7299995      -5.71640024E-09
   41.7900009      -5.23840171E-09
   41.8499985      -4.76442397E-09
   41.9099998      -4.37433867E-09
   41.9700012      -4.12108037E-09
   42.0299988      -4.00522238E-09
   42.0900002      -3.97198718E-09
   42.1500015      -3.93288735E-09
   42.2099991      -3.80186327E-09
   42.2700005      -3.52872687E-09
   42.3300018      -3.11480086E-09
   42.3899994      -2.60539812E-09
   42.4500008      -2.06566853E-09
   42.5099983      -1.55364444E-09
   42.5699997      -1.10340137E-09
   42.6300011      -7.23421489E-10
   42.6899986      -4.05734529E-10
   42.7500000      -1.36107126E-10
   42.8100014       1.02711437E-10
   42.8699989       3.35670491E-10
   42.9300003       6.01784289E-10
   42.9900017       9.53563561E-10
   43.0499992       1.44506207E-09
   43.1100006       2.11215601E-09
   43.1699982       2.95527336E-09
   43.2299995       3.93529964E-09
   43.2900009       4.98685582E-09
   43.3499985       6.04316286E-09
   43.4099998       7.05923453E-09
   43.4700012       8.01996247E-09
   43.5299988       8.92748719E-09
   43.5900002       9.77410597E-09
   43.6500015       1.05160467E-08
   43.7099991       1.10645360E-08
   43.7700005       1.13023546E-08
   43.8300018       1.11207070E-08
   43.8899994       1.04597921E-08
   43.9500008       9.33326838E-09
   44.0099983       7.82388732E-09
   44.0699997       6.05146999E-09
   44.1300011       4.12789269E-09
   44.1899986       2.11983830E-09
   44.2500000       3.56631426E-11
   44.3100014      -2.15969354E-09
   44.3699989      -4.51156712E-09
   44.4300003      -7.04187109E-09
   44.4900017      -9.73089165E-09
   44.5499992      -1.25209958E-08
   44.6100006      -1.53369015E-08
   44.6699982      -1.81097253E-08
   44.7299995      -2.07924078E-08
   44.7900009      -2.33611495E-08
   44.8499985      -2.58061803E-08
   44.9099998      -2.81202475E-08
   44.9700012      -3.02922203E-08
   45.0299988      -3.23077209E-08
   45.0900002      -3.41530040E-08
   45.1500015      -3.58166758E-08
   45.2099991      -3.72867994E-08
   45.2700005      -3.85461014E-08
   45.3300018      -3.95710806E-08
   45.3899994      -4.03390779E-08
   45.4500008      -4.08415488E-08
   45.5099983      -4.10960155E-08
   45.5699997      -4.11477110E-08
   45.6300011      -4.10566408E-08
   45.6899986      -4.08743581E-08
   45.7500000      -4.06219307E-08
   45.8100014      -4.02814777E-08
   45.8699989      -3.98073325E-08
   45.9300003      -3.91523152E-08
   45.9900017      -3.82962355E-08
   46.0499992      -3.72621258E-08
   46.1100006      -3.61122119E-08
   46.1699982      -3.49262450E-08
   46.2299995      -3.37735919E-08
   46.2900009      -3.26926823E-08
   46.3499985      -3.16863407E-08
   46.4099998      -3.07323127E-08
   46.4700012      -2.98008516E-08
   46.5299988      -2.88689499E-08
   46.5900002      -2.79246049E-08
   46.6500015      -2.69613345E-08
   46.7099991      -2.59687649E-08
   46.7700005      -2.49265053E-08
   46.8300018      -2.38055620E-08
   46.8899994      -2.25762218E-08
   46.9500008      -2.12172804E-08
   47.0099983      -1.97204564E-08
   47.0699997      -1.80864763E-08
   47.1300011      -1.63137521E-08
   47.1899986      -1.43845540E-08
   47.2500000      -1.22549100E-08
   47.3100014      -9.85273996E-09
   47.3699989      -7.08459957E-09
   47.4300003      -3.84713772E-09
   47.4900017      -3.68279157E-11
   47.5499992       4.44772441E-09
   47.6100006       9.71312986E-09
   47.6699982       1.58859574E-08
   47.7299995       2.31295072E-08
   47.7900009       3.16572546E-08
   47.8499985       4.17405097E-08
   47.9099998       5.37118794E-08
   47.9700012       6.79686138E-08
   48.0299988       8.49799804E-08
   48.0900002       1.05300110E-07
   48.1500015       1.29584748E-07
   48.2099991       1.58608756E-07
   48.2700005       1.93282276E-07
   48.3300018       2.34665293E-07
   48.3899994       2.83982729E-07
   48.4500008       3.42642011E-07
   48.5099983       4.12254877E-07
   48.5699997       4.94663880E-07
   48.6300011       5.91973901E-07
   48.6899986       7.06590129E-07
   48.7500000       8.41262818E-07
   48.8100014       9.99139388E-07
   48.8699989       1.18382104E-06
   48.9300003       1.39942085E-06
   48.9900017       1.65062045E-06
   49.0499992       1.94272684E-06
   49.1100006       2.28173258E-06
   49.1699982       2.67438486E-06
   49.2299995       3.12826410E-06
   49.2900009       3.65187361E-06
   49.3499985       4.25473399E-06
   49.4099998       4.94748110E-06
   49.4700012       5.74196201E-06
   49.5299988       6.65133712E-06
   49.5900002       7.69018607E-06
   49.6500015       8.87461829E-06
   49.7099991       1.02223839E-05
   49.7700005       1.17529808E-05
   49.8300018       1.34877573E-05
   49.8899994       1.54500140E-05
   49.9500008       1.76650956E-05
   50.0099983       2.01605089E-05
   50.0699997       2.29660163E-05
   50.1300011       2.61137448E-05
   50.1899986       2.96382823E-05
   50.2500000       3.35767509E-05
   50.3100014       3.79688390E-05
   50.3699989       4.28568674E-05
   50.4300003       4.82857904E-05
   50.4900017       5.43032002E-05
   50.5499992       6.09592971E-05
   50.6100006       6.83068574E-05