 -0.750000000       0.00000000    
 -0.689999998       0.00000000    
 -0.629999995       0.00000000    
 -0.569999993       0.00000000    
 -0.509999990       0.00000000    
 -0.449999988       0.00000000    
 -0.389999986       0.00000000    
 -0.330000013       0.00000000    
 -0.270000011       1.34814196E-25
 -0.209999993       3.36738910E-25
 -0.150000006      -6.43786505E-24
  -9.00000036E-02  -6.16607194E-23
  -2.99999993E-02  -2.86639691E-22
   2.99999993E-02  -8.50339650E-22
   9.00000036E-02  -1.61553463E-21
  0.150000006      -1.25904866E-21
  0.209999993       3.67124687E-21
  0.270000011       1.79007038E-20
  0.330000013       4.19116487E-20
  0.389999986       6.09283403E-20
  0.449999988       3.48545411E-20
  0.509999990      -9.41364624E-20
  0.569999993      -3.56675059E-19
  0.629999995      -6.73363017E-19
  0.689999998      -7.80375270E-19
  0.750000000      -2.62459394E-19
  0.810000002       1.20496754E-18
  0.870000005       3.41147379E-18
  0.930000007       5.19553053E-18
  0.990000010       4.50920388E-18
   1.04999995      -5.95199051E-19
   1.11000001      -1.00760814E-17
   1.16999996      -2.00103841E-17
   1.23000002      -2.24341854E-17
   1.28999996      -8.62718442E-18
   1.35000002       2.40374302E-17
   1.40999997       6.45699635E-17
   1.47000003       8.59939943E-17
   1.52999997       5.42419650E-17
   1.59000003      -5.01346725E-17
   1.64999998      -2.05054580E-16
   1.71000004      -3.32013304E-16
   1.76999998      -3.13195064E-16
   1.83000004      -4.98785972E-17
   1.88999999       4.53185814E-16
   1.95000005       1.02149749E-15
   2.00999999       1.32093814E-15
   2.06999993       9.83632468E-16
   2.13000011      -1.68685950E-16
   2.19000006      -1.89898455E-15
   2.25000000      -3.47569573E-15
   2.30999994      -3.87028412E-15
   2.36999989      -2.24741240E-15
   2.43000007       1.41857489E-15
   2.49000001       5.92975367E-15
   2.54999995       9.01087287E-15
   2.60999990       8.18813621E-15
   2.67000008       2.19543507E-15
   2.73000002      -7.71406796E-15
   2.78999996      -1.73877433E-14
   2.84999990      -2.09565218E-14
   2.91000009      -1.35410287E-14
   2.97000003       5.48062292E-15
   3.02999997       3.03227123E-14
   3.08999991       4.94483435E-14
   3.15000010       4.97493621E-14
   3.21000004       2.32166564E-14
   3.26999998      -2.67280620E-14
   3.32999992      -8.28924332E-14
   3.39000010      -1.18662445E-13
   3.45000005      -1.08937436E-13
   3.50999999      -4.38729829E-14
   3.56999993       6.11172015E-14
   3.63000011       1.65676067E-13
   3.69000006       2.18125011E-13
   3.75000000       1.79068511E-13
   3.80999994       4.52867419E-14
   3.86999989      -1.38721513E-13
   3.93000007      -2.91107226E-13
   3.99000001      -3.25422306E-13
   4.05000019      -1.94421166E-13
   4.11000013       7.52650234E-14
   4.17000008       3.78107647E-13
   4.23000002       5.64351300E-13
   4.28999996       5.06024584E-13
   4.34999990       1.67551194E-13
   4.40999985      -3.54403762E-13
   4.46999979      -8.49276812E-13
   4.53000021      -1.07256012E-12
   4.59000015      -8.59824798E-13
   4.65000010      -2.24076102E-13
   4.71000004       6.16088669E-13
   4.76999998       1.30520724E-12
   4.82999992       1.50047737E-12
   4.88999987       1.04220051E-12
   4.94999981       6.38688728E-14
   5.01000023      -1.02349108E-12
   5.07000017      -1.68660994E-12
   5.13000011      -1.51176077E-12
   5.19000006      -4.28548554E-13
   5.25000000       1.19632082E-12
   5.30999994       2.66069436E-12
   5.36999989       3.20403361E-12
   5.42999983       2.35248084E-12
   5.48999977       1.77936997E-13
   5.55000019      -2.66062736E-12
   5.61000013      -5.13697808E-12
   5.67000008      -6.26290166E-12
   5.73000002      -5.50842445E-12
   5.78999996      -3.04445466E-12
   5.84999990       3.15838447E-13
   5.90999985       3.46595474E-12
   5.96999979       5.49385884E-12
   6.03000021       6.07927033E-12
   6.09000015       5.59969432E-12
   6.15000010       4.87487481E-12
   6.21000004       4.65615393E-12
   6.26999998       5.10726400E-12
   6.32999992       5.55376144E-12
   6.38999987       4.67462917E-12
   6.44999981       1.10943839E-12
   6.51000023      -5.75398366E-12
   6.57000017      -1.51644374E-11
   6.63000011      -2.48820756E-11
   6.69000006      -3.16753394E-11
   6.75000000      -3.23129613E-11
   6.80999994      -2.47028370E-11
   6.86999989      -8.74771176E-12
   6.92999983       1.34129799E-11
   6.98999977       3.78644269E-11
   7.05000019       5.98904606E-11
   7.11000013       7.50751822E-11
   7.17000008       8.01247887E-11
   7.23000002       7.31616920E-11
   7.28999996       5.35123230E-11
   7.34999990       2.12641762E-11
   7.40999985      -2.30131157E-11
   7.46999979      -7.80649295E-11
   7.53000021      -1.41194875E-10
   7.59000015      -2.07190473E-10
   7.65000010      -2.67398909E-10
   7.71000004      -3.09463871E-10
   7.76999998      -3.18053972E-10
   7.82999992      -2.76572765E-10
   7.88999987      -1.69469008E-10
   7.94999981       1.54825736E-11
   8.01000023       2.85583945E-10
   8.06999969       6.42731701E-10
   8.13000011       1.08409370E-09
   8.18999958       1.60358005E-09
   8.25000000       2.19346408E-09
   8.31000042       2.84547519E-09
   8.36999989       3.55090313E-09
   8.43000031       4.29966462E-09
   8.48999977       5.07870856E-09
   8.55000019       5.87047078E-09
   8.60999966       6.65212685E-09
   8.67000008       7.39618633E-09
   8.72999954       8.07255152E-09
   8.78999996       8.65164029E-09
   8.85000038       9.10785225E-09
   8.90999985       9.42250367E-09
   8.97000027       9.58559809E-09
   9.02999973       9.59616120E-09
   9.09000015       9.46138723E-09
   9.14999962       9.19513177E-09
   9.21000004       8.81634588E-09
   9.27000046       8.34783176E-09
   9.32999992       7.81524534E-09
   9.39000034       7.24596738E-09
   9.44999981       6.66730404E-09
   9.51000023       6.10372508E-09
   9.56999969       5.57337643E-09
   9.63000011       5.08469666E-09
   9.68999958       4.63438266E-09
   9.75000000       4.20785362E-09
   9.81000042       3.78278964E-09
   9.86999989       3.33532735E-09
   9.93000031       2.84747004E-09
   9.98999977       2.31360997E-09
   10.0500002       1.74411052E-09
   10.1099997       1.16466148E-09
   10.1700001       6.11418249E-10
   10.2299995       1.23273544E-10
   10.2900000      -2.66507844E-10
   10.3500004      -5.36960754E-10
   10.4099998      -6.82775336E-10
   10.4700003      -7.13917037E-10
   10.5299997      -6.52294940E-10
   10.5900002      -5.26997279E-10
   10.6499996      -3.69641151E-10
   10.7100000      -2.10796630E-10
   10.7700005      -7.76080381E-11
   10.8299999       7.90661373E-12
   10.8900003       3.05298946E-11
   10.9499998      -1.62683304E-11
   11.0100002      -1.28688407E-10
   11.0699997      -2.92208369E-10
   11.1300001      -4.83481699E-10
   11.1899996      -6.74958978E-10
   11.2500000      -8.41605285E-10
   11.3100004      -9.68030878E-10
   11.3699999      -1.05379461E-09
   11.4300003      -1.11490961E-09
   11.4899998      -1.18066368E-09
   11.5500002      -1.28640143E-09
   11.6099997      -1.46432155E-09
   11.6700001      -1.73507486E-09
   11.7299995      -2.10270890E-09
   11.7900000      -2.55436139E-09
   11.8500004      -3.06450554E-09
   11.9099998      -3.60204910E-09
   11.9700003      -4.13776657E-09
   12.0299997      -4.64963179E-09
   12.0900002      -5.12456388E-09
   12.1499996      -5.55651347E-09
   12.2100000      -5.94214056E-09
   12.2700005      -6.27611163E-09
   12.3299999      -6.54799814E-09
   12.3900003      -6.74191725E-09
   12.4499998      -6.83883306E-09
   12.5100002      -6.82024792E-09
   12.5699997      -6.67145272E-09
   12.6300001      -6.38275877E-09
   12.6899996      -5.94814020E-09
   12.7500000      -5.36208278E-09
   12.8100004      -4.61654848E-09
   12.8699999      -3.70026032E-09
   12.9300003      -2.60184008E-09
   12.9899998      -1.31680777E-09
   13.0500002       1.43287854E-10
   13.1099997       1.74259362E-09
   13.1700001       3.41673911E-09
   13.2299995       5.07493292E-09
   13.2900000       6.60879174E-09
   13.3500004       7.90629251E-09
   13.4099998       8.86773321E-09
   13.4700003       9.42005318E-09
   13.5299997       9.52648449E-09
   13.5900002       9.18985421E-09
   13.6499996       8.44962500E-09
   13.7100000       7.37412975E-09
   13.7700005       6.05031936E-09
   13.8299999       4.57332749E-09
   13.8900003       3.03755598E-09
   13.9499998       1.53003477E-09
   14.0100002       1.25918109E-10
   14.0699997      -1.11454102E-09
   14.1300001      -2.14816409E-09
   14.1899996      -2.95035596E-09
   14.2500000      -3.51557694E-09
   14.3100004      -3.85610344E-09
   14.3699999      -3.99861744E-09
   14.4300003      -3.97890698E-09
   14.4899998      -3.83581211E-09
   14.5500002      -3.60612940E-09
   14.6099997      -3.32198669E-09
   14.6700001      -3.01125591E-09
   14.7299995      -2.70022249E-09
   14.7900000      -2.41665910E-09
   14.8500004      -2.19117458E-09
   14.9099998      -2.05549155E-09
   14.9700003      -2.03778217E-09
   15.0299997      -2.15667306E-09
   15.0900002      -2.41637932E-09
   15.1499996      -2.80516388E-09
   15.2100000      -3.29812200E-09
   15.2700005      -3.86365961E-09
   15.3299999      -4.47166082E-09
   15.3900003      -5.10072207E-09
   15.4499998      -5.74223069E-09
   15.5100002      -6.40019637E-09
   15.5699997      -7.08724102E-09
   15.6300001      -7.81842679E-09
   15.6899996      -8.60523475E-09
   15.7500000      -9.45171763E-09
   15.8100004      -1.03538698E-08
   15.8699999      -1.13017782E-08
   15.9300003      -1.22829462E-08
   15.9899998      -1.32847218E-08
   16.0499992      -1.42942689E-08
   16.1100006      -1.52959210E-08
   16.1700001      -1.62671885E-08
   16.2299995      -1.71756191E-08
   16.2900009      -1.79785324E-08
   16.3500004      -1.86264586E-08
   16.4099998      -1.90694660E-08
   16.4699993      -1.92643803E-08
   16.5300007      -1.91806038E-08
   16.5900002      -1.88031102E-08
   16.6499996      -1.81324520E-08
   16.7099991      -1.71827796E-08
   16.7700005      -1.59793068E-08
   16.8299999      -1.45561261E-08
   16.8899994      -1.29545636E-08
   16.9500008      -1.12214220E-08
   17.0100002      -9.40645073E-09
   17.0699997      -7.55878382E-09
   17.1299992      -5.72286352E-09
   17.1900005      -3.93491817E-09
   17.2500000      -2.22111862E-09
   17.3099995      -5.98032179E-10
   17.3700008       9.24876786E-10
   17.4300003       2.34171571E-09
   17.4899998       3.64704933E-09
   17.5499992       4.83443197E-09
   17.6100006       5.89712457E-09
   17.6700001       6.83054768E-09
   17.7299995       7.63519026E-09
   17.7900009       8.31837088E-09
   17.8500004       8.89371954E-09
   17.9099998       9.37825906E-09
   17.9699993       9.78822445E-09
   18.0300007       1.01355582E-08
   18.0900002       1.04269633E-08
   18.1499996       1.06663434E-08
   18.2099991       1.08598934E-08
   18.2700005       1.10217009E-08
   18.3299999       1.11772120E-08
   18.3899994       1.13626326E-08
   18.4500008       1.16199681E-08
   18.5100002       1.19893029E-08
   18.5699997       1.25011157E-08
   18.6299992       1.31715279E-08
   18.6900005       1.40021594E-08
   18.7500000       1.49844048E-08
   18.8099995       1.61061298E-08
   18.8700008       1.73577916E-08
   18.9300003       1.87352764E-08
   18.9899998       2.02380299E-08
   19.0499992       2.18630518E-08
   19.1100006       2.35970621E-08
   19.1700001       2.54102002E-08
   19.2299995       2.72542593E-08
   19.2900009       2.90671185E-08
   19.3500004       3.07828145E-08
   19.4099998       3.23445484E-08
   19.4699993       3.37165709E-08
   19.5300007       3.48908777E-08
   19.5900002       3.58860746E-08
   19.6499996       3.67383493E-08
   19.7099991       3.74871689E-08
   19.7700005       3.81604544E-08
   19.8299999       3.87643730E-08
   19.8899994       3.92816801E-08
   19.9500008       3.96794313E-08
   20.0100002       3.99235631E-08
   20.0699997       3.99948412E-08
   20.1299992       3.98998381E-08
   20.1900005       3.96720417E-08
   20.2500000       3.93618933E-08
   20.3099995       3.90189996E-08
   20.3700008       3.86733241E-08
   20.4300003       3.83228844E-08
   20.4899998       3.79333684E-08
   20.5499992       3.74502065E-08
   20.6100006       3.68186406E-08
   20.6700001       3.60039216E-08
   20.7299995       3.50038114E-08
   20.7900009       3.38489947E-08
   20.8500004       3.25920624E-08
   20.9099998       3.12904653E-08
   20.9699993       2.99907050E-08
   21.0300007       2.87198230E-08
   21.0900002       2.74863368E-08
   21.1499996       2.62884452E-08
   21.2099991       2.51244163E-08
   21.2700005       2.39998954E-08
   21.3299999       2.29289796E-08
   21.3899994       2.19292868E-08
   21.4500008       2.10139444E-08
   21.5100002       2.01845936E-08
   21.5699997       1.94286098E-08
   21.6299992       1.87216358E-08
   21.6900005       1.80342035E-08
   21.7500000       1.73397599E-08
   21.8099995       1.66211809E-08
   21.8700008       1.58738231E-08
   21.9300003       1.51046731E-08
   21.9899998       1.43285508E-08
   22.0499992       1.35630467E-08
   22.1100006       1.28237660E-08
   22.1700001       1.21208963E-08
   22.2299995       1.14573195E-08
   22.2900009       1.08280354E-08
   22.3500004       1.02206696E-08
   22.4099998       9.61709645E-09
   22.4699993       8.99637165E-09
   22.5300007       8.33898106E-09
   22.5900002       7.63167485E-09
   22.6499996       6.87144386E-09
   22.7099991       6.06677197E-09
   22.7700005       5.23478016E-09
   22.8299999       4.39416503E-09
   22.8899994       3.55548457E-09
   22.9500008       2.71171130E-09
   23.0100002       1.83231363E-09
   23.0699997       8.63357219E-10
   23.1299992      -2.65592631E-10
   23.1900005      -1.62897651E-09
   23.2500000      -3.29001781E-09
   23.3099995      -5.28647925E-09
   23.3700008      -7.62099983E-09
   23.4300003      -1.02586224E-08
   23.4899998      -1.31324596E-08
   23.5499992      -1.61564415E-08
   23.6100006      -1.92422114E-08
   23.6700001      -2.23158594E-08
   23.7299995      -2.53300598E-08
   23.7900009      -2.82681274E-08
   23.8500004      -3.11388817E-08
   23.9099998      -3.39638255E-08
   23.9699993      -3.67606390E-08
   24.0300007      -3.95281035E-08
   24.0900002      -4.22369872E-08
   24.1499996      -4.48296582E-08
   24.2099991      -4.72281272E-08
   24.2700005      -4.93476833E-08
   24.3299999      -5.11116411E-08
   24.3899994      -5.24626209E-08
   24.4500008      -5.33674083E-08
   24.5100002      -5.38150857E-08
   24.5699997      -5.38106164E-08
   24.6299992      -5.33679128E-08
   24.6900005      -5.25060351E-08
   24.7500000      -5.12504954E-08
   24.8099995      -4.96385972E-08
   24.8700008      -4.77253224E-08
   24.9300003      -4.55853844E-08
   24.9899998      -4.33083933E-08
   25.0499992      -4.09870964E-08
   25.1100006      -3.87022254E-08
   25.1700001      -3.65093555E-08
   25.2299995      -3.44328832E-08
   25.2900009      -3.24694902E-08
   25.3500004      -3.05994519E-08
   25.4099998      -2.88011215E-08
   25.4699993      -2.70627503E-08
   25.5300007      -2.53874965E-08
   25.5900002      -2.37906939E-08
   25.6499996      -2.22917897E-08
   25.7099991      -2.09053379E-08
   25.7700005      -1.96350811E-08
   25.8299999      -1.84731324E-08
   25.8899994      -1.74036554E-08
   25.9500008      -1.64084728E-08
   26.0100002      -1.54716542E-08
   26.0699997      -1.45811319E-08
   26.1299992      -1.37272265E-08
   26.1900005      -1.28994744E-08
   26.2500000      -1.20837980E-08
   26.3099995      -1.12617151E-08
   26.3700008      -1.04121618E-08
   26.4300003      -9.51536716E-09
   26.4899998      -8.55738236E-09
   26.5499992      -7.53364304E-09
   26.6100006      -6.45030918E-09
   26.6700001      -5.32278621E-09
   26.7299995      -4.17165191E-09
   26.7900009      -3.01695646E-09
   26.8500004      -1.87240001E-09
   26.9099998      -7.41075923E-10
   26.9699993       3.85768972E-10
   27.0300007       1.52621349E-09
   27.0900002       2.70166600E-09
   27.1499996       3.92875066E-09
   27.2099991       5.21124210E-09
   27.2700005       6.53441568E-09
   27.3299999       7.86368748E-09
   27.3899994       9.14832921E-09
   27.4500008       1.03296456E-08
   27.5100002       1.13516787E-08
   27.5699997       1.21717205E-08
   27.6299992       1.27678481E-08
   27.6900005       1.31414497E-08
   27.7500000       1.33141498E-08
   27.8099995       1.33201183E-08
   27.8700008       1.31960993E-08
   27.9300003       1.29720439E-08
   27.9899998       1.26647883E-08
   28.0499992       1.22760193E-08
   28.1100006       1.17942651E-08
   28.1700001       1.11994609E-08
   28.2299995       1.04682272E-08
   28.2900009       9.57836388E-09
   28.3500004       8.51196891E-09
   28.4099998       7.25739691E-09
   28.4699993       5.81065507E-09
   28.5300007       4.17667723E-09
   28.5900002       2.37037323E-09
   28.6499996       4.16875950E-10
   28.7099991      -1.64976477E-09
   28.7700005      -3.78991682E-09
   28.8299999      -5.96362781E-09
   28.8899994      -8.13701639E-09
   28.9500008      -1.02884012E-08
   29.0100002      -1.24124790E-08
   29.0699997      -1.45209551E-08
   29.1299992      -1.66387526E-08
   29.1900005      -1.87960474E-08
   29.2500000      -2.10178985E-08
   29.3099995      -2.33143851E-08
   29.3700008      -2.56745558E-08
   29.4300003      -2.80666121E-08
   29.4899998      -3.04447951E-08
   29.5499992      -3.27610223E-08
   29.6100006      -3.49776457E-08
   29.6700001      -3.70772248E-08
   29.7299995      -3.90664603E-08
   29.7900009      -4.09735463E-08
   29.8500004      -4.28404228E-08
   29.9099998      -4.47125998E-08
   29.9699993      -4.66293741E-08
   30.0300007      -4.86162541E-08
   30.0900002      -5.06805193E-08
   30.1499996      -5.28100550E-08
   30.2099991      -5.49754269E-08
   30.2700005      -5.71351748E-08
   30.3299999      -5.92435114E-08
   30.3899994      -6.12589943E-08
   30.4500008      -6.31515462E-08
   30.5100002      -6.49051728E-08
   30.5699997      -6.65146302E-08
   30.6299992      -6.79770480E-08
   30.6900005      -6.92817537E-08
   30.7500000      -7.04032388E-08
   30.8099995      -7.13013790E-08
   30.8700008      -7.19302946E-08
   30.9300003      -7.22530871E-08
   30.9899998      -7.22565048E-08
   31.0499992      -7.19589863E-08
   31.1100006      -7.14075128E-08
   31.1700001      -7.06635106E-08
   31.2299995      -6.97827005E-08
   31.2900009      -6.87965453E-08
   31.3500004      -6.77028780E-08
   31.4099998      -6.64693474E-08
   31.4699993      -6.50483756E-08
   31.5300007      -6.33976924E-08
   31.5900002      -6.14984401E-08
   31.6499996      -5.93643286E-08
   31.7099991      -5.70390917E-08
   31.7700005      -5.45843299E-08
   31.8299999      -5.20631573E-08
   31.8899994      -4.95260117E-08
   31.9500008      -4.70030805E-08
   32.0099983      -4.45045352E-08
   32.0699997      -4.20264321E-08
   32.1300011      -3.95585573E-08
   32.1899986      -3.70907038E-08
   32.2500000      -3.46155602E-08
   32.3100014      -3.21286535E-08
   32.3699989      -2.96268041E-08
   32.4300003      -2.71070100E-08
   32.4900017      -2.45665905E-08
   32.5499992      -2.20046363E-08
   32.6100006      -1.94241050E-08
   32.6699982      -1.68337735E-08
   32.7299995      -1.42495811E-08
   32.7900009      -1.16948051E-08
   32.8499985      -9.19859833E-09
   32.9099998      -6.79227163E-09
   32.9700012      -4.50336435E-09
   33.0299988      -2.34860065E-09
   33.0900002      -3.28197858E-10
   33.1500015       1.57554869E-09
   33.2099991       3.39340067E-09
   33.2700005       5.15848564E-09
   33.3300018       6.89313717E-09
   33.3899994       8.59851745E-09
   33.4500008       1.02518545E-08
   33.5099983       1.18132943E-08
   33.5699997       1.32402000E-08
   33.6300011       1.45032200E-08
   33.6899986       1.55973776E-08
   33.7500000       1.65433764E-08
   33.8100014       1.73785715E-08
   33.8699989       1.81414705E-08
   33.9300003       1.88564453E-08
   33.9900017       1.95250305E-08
   34.0499992       2.01271249E-08
   34.1100006       2.06310240E-08
   34.1699982       2.10074180E-08
   34.2299995       2.12410782E-08
   34.2900009       2.13353779E-08
   34.3499985       2.13083435E-08
   34.4099998       2.11829736E-08
   34.4700012       2.09770636E-08
   34.5299988       2.06976676E-08
   34.5900002       2.03426307E-08
   34.6500015       1.99077963E-08
   34.7099991       1.93954381E-08
   34.7700005       1.88189784E-08
   34.8300018       1.82011526E-08
   34.8899994       1.75666415E-08
   34.9500008       1.69334058E-08
   35.0099983       1.63077285E-08
   35.0699997       1.56858579E-08
   35.1300011       1.50612198E-08
   35.1899986       1.44326924E-08
   35.2500000       1.38086262E-08
   35.3100014       1.32035325E-08
   35.3699989       1.26286270E-08
   35.4300003       1.20812347E-08
   35.4900017       1.15392380E-08
   35.5499992       1.09645830E-08
   35.6100006       1.03154081E-08
   35.6699982       9.56206669E-09
   35.7299995       8.70026717E-09
   35.7900009       7.75578179E-09
   35.8499985       6.77884193E-09
   35.9099998       5.83057291E-09
   35.9700012       4.96667241E-09
   36.0299988       4.22397495E-09
   36.0900002       3.61379815E-09
   36.1500015       3.12314263E-09
   36.2099991       2.72221490E-09
   36.2700005       2.37514608E-09
   36.3300018       2.05040163E-09
   36.3899994       1.72797987E-09
   36.4500008       1.40166312E-09
   36.5099983       1.07608955E-09
   36.5699997       7.59968255E-10
   36.6300011       4.58074662E-10
   36.6899986       1.65263081E-10
   36.7500000      -1.34801309E-10
   36.8100014      -4.65196187E-10
   36.8699989      -8.47014070E-10
   36.9300003      -1.28996136E-09
   36.9900017      -1.78672588E-09
   37.0499992      -2.31444108E-09
   37.1100006      -2.84373103E-09
   37.1699982      -3.35234640E-09
   37.2299995      -3.83786602E-09
   37.2900009      -4.32365654E-09
   37.3499985      -4.85465135E-09
   37.4099998      -5.48370549E-09
   37.4700012      -6.25349994E-09
   37.5299988      -7.18126003E-09
   37.5900002      -8.25270963E-09
   37.6500015      -9.42786382E-09
   37.7099991      -1.06561329E-08
   37.7700005      -1.18940493E-08
   37.8300018      -1.31177682E-08
   37.8899994      -1.43249679E-08
   37.9500008      -1.55257336E-08
   38.0099983      -1.67272916E-08
   38.0699997      -1.79203941E-08
   38.1300011      -1.90745464E-08
   38.1899986      -2.01450607E-08
   38.2500000      -2.10895053E-08
   38.3100014      -2.18863825E-08
   38.3699989      -2.25476917E-08
   38.4300003      -2.31192523E-08
   38.4900017      -2.36679423E-08
   38.5499992      -2.42604763E-08
   38.6100006      -2.49420289E-08
   38.6699982      -2.57231161E-08
   38.7299995      -2.65797517E-08
   38.7900009      -2.74665162E-08
   38.8499985      -2.83369648E-08
   38.9099998      -2.91630506E-08
   38.9700012      -2.99459657E-08
   39.0299988      -3.07144532E-08
   39.0900002      -3.15118740E-08
   39.1500015      -3.23775993E-08
   39.2099991      -3.33302381E-08
   39.2700005      -3.43589264E-08
   39.3300018      -3.54253125E-08
   39.3899994      -3.64746597E-08
   39.4500008      -3.74512297E-08
   39.5099983      -3.83123044E-08
   39.5699997      -3.90364576E-08
   39.6300011      -3.96246982E-08
   39.6899986      -4.00959266E-08
   39.7500000      -4.04798293E-08
   39.8100014      -4.08105123E-08
   39.8699989      -4.11225436E-08
   39.9300003      -4.14493009E-08
   39.9900017      -4.18217887E-08
   40.0499992      -4.22660591E-08
   40.1100006      -4.27982414E-08
   40.1699982      -4.34183605E-08
   40.2299995      -4.41056542E-08
   40.2900009      -4.48187869E-08
   40.3499985      -4.55029046E-08
   40.4099998      -4.61027767E-08
   40.4700012      -4.65781689E-08
   40.5299988      -4.69156554E-08
   40.5900002      -4.71316461E-08
   40.6500015      -4.72645780E-08
   40.7099991      -4.73587463E-08
   40.7700005      -4.74462496E-08
   40.8300018      -4.75347264E-08
   40.8899994      -4.76063917E-08
   40.9500008      -4.76287916E-08
   41.0099983      -4.75723958E-08
   41.0699997      -4.74267701E-08
   41.1300011      -4.72077453E-08
   41.1899986      -4.69521559E-08
   41.2500000      -4.67026275E-08
   41.3100014      -4.64894327E-08
   41.3699989      -4.63177798E-08
   41.4300003      -4.61662601E-08
   41.4900017      -4.59967815E-08
   41.5499992      -4.57714293E-08
   41.6100006      -4.54684610E-08
   41.6699982      -4.50906228E-08
   41.7299995      -4.46624817E-08
   41.7900009      -4.42182326E-08
   41.8499985      -4.37855121E-08
   41.9099998      -4.33720722E-08
   41.9700012      -4.29606608E-08
   42.0299988      -4.25139497E-08
   42.0900002      -4.19872386E-08
   42.1500015      -4.13435508E-08
   42.2099991      -4.05648457E-08
   42.2700005      -3.96550384E-08
   42.3300018      -3.86337753E-08
   42.3899994      -3.75240994E-08
   42.4500008      -3.63397454E-08
   42.5099983      -3.50779246E-08
   42.5699997      -3.37210011E-08
   42.6300011      -3.22464118E-08
   42.6899986      -3.06402796E-08
   42.7500000      -2.89085964E-08
   42.8100014      -2.70808922E-08
   42.8699989      -2.52048675E-08
   42.9300003      -2.33345041E-08
   42.9900017      -2.15168541E-08
   43.0499992      -1.97828616E-08
   43.1100006      -1.81453128E-08
   43.1699982      -1.66035594E-08
   43.2299995      -1.51517874E-08
   43.2900009      -1.37866643E-08
   43.3499985      -1.25110464E-08
   43.4099998      -1.13327969E-08
   43.4700012      -1.02599218E-08
   43.5299988      -9.29467259E-09
   43.5900002      -8.42919956E-09
   43.6500015      -7.64434649E-09
   43.7099991      -6.91167346E-09
   43.7700005      -6.19760288E-09
   43.8300018      -5.46804024E-09
   43.8899994      -4.69210981E-09
   43.9500008      -3.84446164E-09
   44.0099983      -2.90661006E-09
   44.0699997      -1.86831839E-09
   44.1300011      -7.29921956E-10
   44.1899986       4.94390084E-10
   44.2500000       1.77348991E-09
   44.3100014       3.05837378E-09
   44.3699989       4.28515934E-09
   44.4300003       5.38258371E-09
   44.4900017       6.28272412E-09
   44.5499992       6.93213265E-09
   44.6100006       7.30009164E-09
   44.6699982       7.38159400E-09
   44.7299995       7.19453430E-09
   44.7900009       6.77256873E-09
   44.8499985       6.15638296E-09
   44.9099998       5.38626033E-09
   44.9700012       4.49794424E-09
   45.0299988       3.52243323E-09
   45.0900002       2.48903542E-09
   45.1500015       1.43015133E-09
   45.2099991       3.85921656E-10
   45.2700005      -5.92845606E-10
   45.3300018      -1.44436496E-09
   45.3899994      -2.09804929E-09
   45.4500008      -2.47800047E-09
   45.5099983      -2.50597743E-09
   45.5699997      -2.10209294E-09
   45.6300011      -1.18240584E-09
   45.6899986       3.46077778E-10
   45.7500000       2.59130117E-09
   45.8100014       5.68101166E-09
   45.8699989       9.76547820E-09
   45.9300003       1.50185500E-08
   45.9900017       2.16390266E-08
   46.0499992       2.98548422E-08
   46.1100006       3.99317877E-08
   46.1699982       5.21867776E-08
   46.2299995       6.70036755E-08
   46.2900009       8.48485939E-08
   46.3499985       1.06281888E-07
   46.4099998       1.31965663E-07
   46.4700012       1.62668087E-07
   46.5299988       1.99268385E-07
   46.5900002       2.42767157E-07
   46.6500015       2.94306460E-07
   46.7099991       3.55201848E-07
   46.7700005       4.26984371E-07
   46.8300018       5.11448548E-07
   46.8899994       6.10699885E-07
   46.9500008       7.27197460E-07
   47.0099983       8.63789126E-07
   47.0699997       1.02374281E-06
   47.1300011       1.21078074E-06
   47.1899986       1.42912074E-06
   47.2500000       1.68353415E-06
   47.3100014       1.97941495E-06
   47.3699989       2.32286152E-06
   47.4300003       2.72076022E-06
   47.4900017       3.18086973E-06
   47.5499992       3.71189776E-06
   47.6100006       4.32358047E-06
   47.6699982       5.02676039E-06
   47.7299995       5.83347719E-06
   47.7900009       6.75706542E-06
   47.8499985       7.81226754E-06
   47.9099998       9.01535805E-06
   47.9700012       1.03842594E-05
   48.0299988       1.19386596E-05
   48.0900002       1.37001280E-05
   48.1500015       1.56922124E-05
   48.2099991       1.79405379E-05
   48.2700005       2.04728985E-05
   48.3300018       2.33193423E-05
   48.3899994       2.65122580E-05
   48.4500008       3.00864576E-05
   48.5099983       3.40792576E-05
   48.5699997       3.85304957E-05
   48.6300011       4.34826106E-05
   48.6899986       4.89806080E-05
   48.7500000       5.50720579E-05
   48.8100014       6.18070335E-05
   48.8699989       6.92380709E-05
   48.9300003       7.74200307E-05
   48.9900017       8.64099638E-05
   49.0499992       9.62669656E-05
   49.1100006       1.07051914E-04
   49.1699982       1.18827214E-04
   49.2299995       1.31656518E-04
   49.2900009       1.45604339E-04
   49.3499985       1.60735712E-04
   49.4099998       1.77115726E-04
   49.4700012       1.94809036E-04
   49.5299988       2.13879423E-04
   49.5900002       2.34389139E-04
   49.6500015       2.56398373E-04
   49.7099991       2.79964675E-04
   49.7700005       3.05142225E-04
   49.8300018       3.31981253E-04
   49.8899994       3.60527250E-04
   49.9500008       3.90820234E-04
   50.0099983       4.22894140E-04
   50.0699997       4.56775888E-04
   50.1300011       4.92484891E-04
   50.1899986       5.30032441E-04
   50.2500000       5.69420867E-04
   50.3100014       6.10642950E-04
   50.3699989       6.53681520E-04
   50.4300003       6.98508753E-04
   50.4900017       7.45085999E-04
   50.5499992       7.93363259E-04
   50.6100006       8.43278947E-04