  -2.400000      0.0000000E+00
  -2.340000      0.0000000E+00
  -2.280000      0.0000000E+00
  -2.220000      0.0000000E+00
  -2.160000      0.0000000E+00
  -2.100000      0.0000000E+00
  -2.040000      0.0000000E+00
  -1.980000      0.0000000E+00
  -1.920000      1.4156710E-25
  -1.860000      5.1845053E-25
  -1.800000     -4.8275507E-24
  -1.740000     -5.3861933E-23
  -1.680000     -2.6326568E-22
  -1.620000     -8.1058081E-22
  -1.560000     -1.6155097E-21
  -1.500000     -1.4892291E-21
  -1.440000      2.8799212E-21
  -1.380000      1.6361090E-20
  -1.320000      4.0328716E-20
  -1.260000      6.1828875E-20
  -1.200000      4.2580143E-20
  -1.140000     -7.6012535E-20
  -1.080000     -3.3112562E-19
  -1.020000     -6.5625310E-19
 -0.9600000     -8.0074713E-19
 -0.9000000     -3.4945400E-19
 -0.8400000      1.0489045E-18
 -0.7800000      3.2374360E-18
 -0.7200000      5.1095108E-18
 -0.6600000      4.6275366E-18
 -0.6000000     -2.2636020E-19
 -0.5400000     -9.5443309E-18
 -0.4800000     -1.9511639E-17
 -0.4200000     -2.2129798E-17
 -0.3600000     -8.4634680E-18
 -0.3000000      2.4359179E-17
 -0.2400000      6.5290987E-17
 -0.1800000      8.6687780E-17
 -0.1200000      5.3281473E-17
 -5.9999999E-02 -5.5358507E-17
  0.0000000E+00 -2.1659791E-16
  5.9999999E-02 -3.4867142E-16
  0.1200000     -3.2790935E-16
  0.1800000     -4.9499653E-17
  0.2400000      4.8364872E-16
  0.3000000      1.0897945E-15
  0.3600000      1.4165352E-15
  0.4200000      1.0708377E-15
  0.4800000     -1.4618644E-16
  0.5400000     -1.9979362E-15
  0.6000000     -3.7206172E-15
  0.6600000     -4.2210036E-15
  0.7200000     -2.5860553E-15
  0.7800000      1.2637677E-15
  0.8400000      6.1198211E-15
  0.9000000      9.6088722E-15
  0.9600000      9.0884077E-15
   1.020000      3.1150094E-15
   1.080000     -7.1548670E-15
   1.140000     -1.7510572E-14
   1.200000     -2.1859577E-14
   1.260000     -1.5012304E-14
   1.320000      3.9034336E-15
   1.380000      2.9149199E-14
   1.440000      4.8984349E-14
   1.500000      4.9949272E-14
   1.560000      2.3760755E-14
   1.620000     -2.6134107E-14
   1.680000     -8.2163707E-14
   1.740000     -1.1719682E-13
   1.800000     -1.0590715E-13
   1.860000     -3.8925609E-14
   1.920000      6.7081235E-14
   1.980000      1.7018539E-13
   2.040000      2.1772920E-13
   2.100000      1.7087253E-13
   2.160000      2.8870881E-14
   2.220000     -1.5998914E-13
   2.280000     -3.1032303E-13
   2.340000     -3.3430168E-13
   2.400000     -1.8671367E-13
   2.460000      1.0058209E-13
   2.520000      4.1551650E-13
   2.580000      6.0330099E-13
   2.640000      5.3483644E-13
   2.700000      1.7798050E-13
   2.760000     -3.6419801E-13
   2.820000     -8.7489992E-13
   2.880000     -1.1065747E-12
   2.940000     -8.9610952E-13
   3.000000     -2.6067305E-13
   3.060000      5.7758719E-13
   3.120000      1.2636797E-12
   3.180000      1.4604030E-12
   3.240000      1.0164363E-12
   3.300000      7.1392036E-14
   3.360000     -9.6506440E-13
   3.420000     -1.5708941E-12
   3.480000     -1.3511514E-12
   3.540000     -2.5517988E-13
   3.600000      1.3377555E-12
   3.660000      2.7260685E-12
   3.720000      3.1638184E-12
   3.780000      2.2011865E-12
   3.840000     -6.4349622E-14
   3.900000     -2.9542738E-12
   3.960000     -5.4329241E-12
   4.020000     -6.5123354E-12
   4.080000     -5.6689948E-12
   4.140000     -3.0829176E-12
   4.200000      4.2210148E-13
   4.260000      3.7256791E-12
   4.320000      5.8958923E-12
   4.380000      6.5859484E-12
   4.440000      6.1440419E-12
   4.500000      5.3659854E-12
   4.560000      4.9943075E-12
   4.620000      5.2059802E-12
   4.680000      5.3623946E-12
   4.740000      4.1939451E-12
   4.800000      3.9475506E-13
   4.860000     -6.6031729E-12
   4.920000     -1.6024741E-11
   4.980000     -2.5629722E-11
   5.040000     -3.2206036E-11
   5.100000     -3.2553606E-11
   5.160000     -2.4614389E-11
   5.220000     -8.3221954E-12
   5.280000      1.4156576E-11
   5.340000      3.8881114E-11
   5.400000      6.1105732E-11
   5.460000      7.6379604E-11
   5.520000      8.1372423E-11
   5.580000      7.4178531E-11
   5.640000      5.4118092E-11
   5.700000      2.1305296E-11
   5.760000     -2.3627121E-11
   5.820000     -7.9331604E-11
   5.880000     -1.4300292E-10
   5.940000     -2.0931855E-10
   6.000000     -2.6952279E-10
   6.060000     -3.1116287E-10
   6.120000     -3.1881159E-10
   6.180000     -2.7577576E-10
   6.240000     -1.6641859E-10
   6.300000      2.1532262E-11
   6.360000      2.9535316E-10
   6.420000      6.5681710E-10
   6.480000      1.1028722E-09
   6.540000      1.6271445E-09
   6.600000      2.2216129E-09
   6.660000      2.8777540E-09
   6.720000      3.5866716E-09
   6.780000      4.3381427E-09
   6.840000      5.1189772E-09
   6.900000      5.9114091E-09
   6.960000      6.6923223E-09
   7.020000      7.4338820E-09
   7.080000      8.1056752E-09
   7.140000      8.6779703E-09
   7.200000      9.1252845E-09
   7.260000      9.4293799E-09
   7.320000      9.5809822E-09
   7.380000      9.5800043E-09
   7.440000      9.4345269E-09
   7.500000      9.1591366E-09
   7.560000      8.7732763E-09
   7.620000      8.2999714E-09
   7.680000      7.7648776E-09
   7.740000      7.1952120E-09
   7.800000      6.6179919E-09
   7.860000      6.0572996E-09
   7.920000      5.5307985E-09
   7.980000      5.0463758E-09
   8.040000      4.6001594E-09
   8.100000      4.1770756E-09
   8.160000      3.7544861E-09
   8.220000      3.3084588E-09
   8.280000      2.8211959E-09
   8.340000      2.2875200E-09
   8.400000      1.7183669E-09
   8.460000      1.1400298E-09
   8.520000      5.8918126E-10
   8.580000      1.0504225E-10
   8.640000     -2.7905675E-10
   8.700000     -5.4237442E-10
   8.760000     -6.8007794E-10
   8.820000     -7.0275941E-10
   8.880000     -6.3295735E-10
   8.940000     -5.0024829E-10
   9.000000     -3.3651143E-10
   9.060000     -1.7236580E-10
   9.120000     -3.4894674E-11
   9.180000      5.3912961E-11
   9.240000      7.8731244E-11
   9.300000      3.2775570E-11
   9.360000     -8.0453942E-11
   9.420000     -2.4661687E-10
   9.480000     -4.4228946E-10
   9.540000     -6.3954492E-10
   9.600000     -8.1276463E-10
   9.660000     -9.4596353E-10
   9.720000     -1.0383010E-09
   9.780000     -1.1057011E-09
   9.840000     -1.1776268E-09
   9.900000     -1.2896542E-09
   9.960000     -1.4739894E-09
   10.02000     -1.7508528E-09
   10.08000     -2.1234070E-09
   10.14000     -2.5776941E-09
   10.20000     -3.0873084E-09
   10.26000     -3.6209464E-09
   10.32000     -4.1500829E-09
   10.38000     -4.6541992E-09
   10.44000     -5.1220725E-09
   10.50000     -5.5492237E-09
   10.56000     -5.9330647E-09
   10.62000     -6.2680230E-09
   10.68000     -6.5427166E-09
   10.74000     -6.7402044E-09
   10.80000     -6.8409083E-09
   10.86000     -6.8266406E-09
   10.92000     -6.6836998E-09
   10.98000     -6.4035262E-09
   11.04000     -5.9806173E-09
   11.10000     -5.4088698E-09
   11.16000     -4.6784994E-09
   11.22000     -3.7758117E-09
   11.28000     -2.6871352E-09
   11.34000     -1.4065963E-09
   11.40000      5.4298194E-11
   11.46000      1.6584284E-09
   11.52000      3.3393179E-09
   11.58000      5.0039137E-09
   11.64000      6.5420354E-09
   11.70000      7.8406837E-09
   11.76000      8.8000309E-09
   11.82000      9.3474988E-09
   11.88000      9.4470636E-09
   11.94000      9.1022683E-09
   12.00000      8.3531280E-09
   12.06000      7.2684192E-09
   12.12000      5.9355800E-09
   12.18000      4.4504103E-09
   12.24000      2.9081686E-09
   12.30000      1.3967565E-09
   12.36000     -8.0973526E-12
   12.42000     -1.2461692E-09
   12.48000     -2.2750584E-09
   12.54000     -3.0715657E-09
   12.60000     -3.6317618E-09
   12.66000     -3.9692059E-09
   12.72000     -4.1110759E-09
   12.78000     -4.0926853E-09
   12.84000     -3.9516075E-09
   12.90000     -3.7230596E-09
   12.96000     -3.4378516E-09
   13.02000     -3.1232472E-09
   13.08000     -2.8057865E-09
   13.14000     -2.5141795E-09
   13.20000     -2.2802396E-09
   13.26000     -2.1366815E-09
   13.32000     -2.1120976E-09
   13.38000     -2.2248632E-09
   13.44000     -2.4784621E-09
   13.50000     -2.8603719E-09
   13.56000     -3.3453498E-09
   13.62000     -3.9022825E-09
   13.68000     -4.5023918E-09
   13.74000     -5.1260987E-09
   13.80000     -5.7664007E-09
   13.86000     -6.4279284E-09
   13.92000     -7.1224417E-09
   13.98000     -7.8627185E-09
   14.04000     -8.6571843E-09
   14.10000     -9.5071089E-09
   14.16000     -1.0406941E-08
   14.22000     -1.1346974E-08
   14.28000     -1.2316481E-08
   14.34000     -1.3305378E-08
   14.40000     -1.4303214E-08
   14.46000     -1.5295742E-08
   14.52000     -1.6260636E-08
   14.58000     -1.7164561E-08
   14.64000     -1.7963494E-08
   14.70000     -1.8606716E-08
   14.76000     -1.9043581E-08
   14.82000     -1.9230866E-08
   14.88000     -1.9138492E-08
   14.94000     -1.8752294E-08
   15.00000     -1.8073720E-08
   15.06000     -1.7117612E-08
   15.12000     -1.5909446E-08
   15.18000     -1.4483117E-08
   15.24000     -1.2879362E-08
   15.30000     -1.1144207E-08
   15.36000     -9.3266213E-09
   15.42000     -7.4750428E-09
   15.48000     -5.6332339E-09
   15.54000     -3.8366279E-09
   15.60000     -2.1104321E-09
   15.66000     -4.7022825E-10
   15.72000      1.0751642E-09
   15.78000      2.5197591E-09
   15.84000      3.8570644E-09
   15.90000      5.0787361E-09
   15.96000      6.1757270E-09
   16.02000      7.1412880E-09
   16.08000      7.9742781E-09
   16.14000      8.6810399E-09
   16.20000      9.2747205E-09
   16.26000      9.7721253E-09
   16.32000      1.0189420E-08
   16.38000      1.0538714E-08
   16.44000      1.0827308E-08
   16.50000      1.1060227E-08
   16.56000      1.1245188E-08
   16.62000      1.1397837E-08
   16.68000      1.1544764E-08
   16.74000      1.1722597E-08
   16.80000      1.1973008E-08
   16.86000      1.2335251E-08
   16.92000      1.2838894E-08
   16.98000      1.3499450E-08
   17.04000      1.4318439E-08
   17.10000      1.5287645E-08
   17.16000      1.6395600E-08
   17.22000      1.7633418E-08
   17.28000      1.8997362E-08
   17.34000      2.0486782E-08
   17.40000      2.2098087E-08
   17.46000      2.3817027E-08
   17.52000      2.5612602E-08
   17.58000      2.7435588E-08
   17.64000      2.9223216E-08
   17.70000      3.0909373E-08
   17.76000      3.2437679E-08
   17.82000      3.3773304E-08
   17.88000      3.4909576E-08
   17.94000      3.5866705E-08
   18.00000      3.6682561E-08
   18.06000      3.7398159E-08
   18.12000      3.8042558E-08
   18.18000      3.8622495E-08
   18.24000      3.9120629E-08
   18.30000      3.9503419E-08
   18.36000      3.9735923E-08
   18.42000      3.9798003E-08
   18.48000      3.9695443E-08
   18.54000      3.9461082E-08
   18.60000      3.9144801E-08
   18.66000      3.8795832E-08
   18.72000      3.8444121E-08
   18.78000      3.8088313E-08
   18.84000      3.7695440E-08
   18.90000      3.7212757E-08
   18.96000      3.6587146E-08
   19.02000      3.5784542E-08
   19.08000      3.4801978E-08
   19.14000      3.3668009E-08
   19.20000      3.2432375E-08
   19.26000      3.1149941E-08
   19.32000      2.9865728E-08
   19.38000      2.8606681E-08
   19.44000      2.7382260E-08
   19.50000      2.6191898E-08
   19.56000      2.5034742E-08
   19.62000      2.3916677E-08
   19.68000      2.2851625E-08
   19.74000      2.1857067E-08
   19.80000      2.0946425E-08
   19.86000      2.0122121E-08
   19.92000      1.9372511E-08
   19.98000      1.8673985E-08
   20.04000      1.7997250E-08
   20.10000      1.7315251E-08
   20.16000      1.6609821E-08
   20.22000      1.5874981E-08
   20.28000      1.5116411E-08
   20.34000      1.4347881E-08
   20.40000      1.3586405E-08
   20.46000      1.2847678E-08
   20.52000      1.2142721E-08
   20.58000      1.1475886E-08
   20.64000      1.0843980E-08
   20.70000      1.0236305E-08
   20.76000      9.6358033E-09
   20.82000      9.0217096E-09
   20.88000      8.3737808E-09
   20.94000      7.6774151E-09
   21.00000      6.9280639E-09
   21.06000      6.1329115E-09
   21.12000      5.3083062E-09
   21.18000      4.4727684E-09
   21.24000      3.6371499E-09
   21.30000      2.7949238E-09
   21.36000      1.9159589E-09
   21.42000      9.4637953E-10
   21.48000     -1.8461889E-10
   21.54000     -1.5521582E-09
   21.60000     -3.2201655E-09
   21.66000     -5.2267759E-09
   21.72000     -7.5744113E-09
   21.78000     -1.0227271E-08
   21.84000     -1.3117226E-08
   21.90000     -1.6156974E-08
   21.96000     -1.9257349E-08
   22.02000     -2.2344317E-08
   22.08000     -2.5371097E-08
   22.14000     -2.8322006E-08
   22.20000     -3.1206948E-08
   22.26000     -3.4048295E-08
   22.32000     -3.6864165E-08
   22.38000     -3.9653308E-08
   22.44000     -4.2386098E-08
   22.50000     -4.5004263E-08
   22.56000     -4.7429019E-08
   22.62000     -4.9574798E-08
   22.68000     -5.1364044E-08
   22.74000     -5.2738571E-08
   22.80000     -5.3664550E-08
   22.86000     -5.4130691E-08
   22.92000     -5.4141935E-08
   22.98000     -5.3712387E-08
   23.04000     -5.2861377E-08
   23.10000     -5.1614517E-08
   23.16000     -5.0008875E-08
   23.22000     -4.8098940E-08
   23.28000     -4.5958878E-08
   23.34000     -4.3678007E-08
   23.40000     -4.1349345E-08
   23.46000     -3.9054470E-08
   23.52000     -3.6850135E-08
   23.58000     -3.4761829E-08
   23.64000     -3.2786833E-08
   23.70000     -3.0905358E-08
   23.76000     -2.9095135E-08
   23.82000     -2.7343587E-08
   23.88000     -2.5653232E-08
   23.94000     -2.4039140E-08
   24.00000     -2.2520874E-08
   24.06000     -2.1113259E-08
   24.12000     -1.9820243E-08
   24.18000     -1.8633983E-08
   24.24000     -1.7538580E-08
   24.30000     -1.6515807E-08
   24.36000     -1.5549761E-08
   24.42000     -1.4628452E-08
   24.48000     -1.3742220E-08
   24.54000     -1.2880497E-08
   24.60000     -1.2029089E-08
   24.66000     -1.1169634E-08
   24.72000     -1.0281691E-08
   24.78000     -9.3467216E-09
   24.84000     -8.3524201E-09
   24.90000     -7.2958537E-09
   24.96000     -6.1843264E-09
   25.02000     -5.0336086E-09
   25.08000     -3.8638901E-09
   25.14000     -2.6943858E-09
   25.20000     -1.5379001E-09
   25.26000     -3.9683712E-10
   25.32000      7.3799850E-10
   25.38000      1.8850057E-09
   25.44000      3.0659226E-09
   25.50000      4.2977142E-09
   25.56000      5.5843734E-09
   25.62000      6.9111104E-09
   25.68000      8.2429787E-09
   25.74000      9.5287636E-09
   25.80000      1.0709435E-08
   25.86000      1.1729029E-08
   25.92000      1.2545106E-08
   25.98000      1.3135997E-08
   26.04000      1.3503026E-08
   26.10000      1.3667339E-08
   26.16000      1.3662454E-08
   26.22000      1.3524764E-08
   26.28000      1.3284549E-08
   26.34000      1.2959663E-08
   26.40000      1.2553025E-08
   26.46000      1.2053905E-08
   26.52000      1.1441934E-08
   26.58000      1.0692361E-08
   26.64000      9.7811377E-09
   26.70000      8.6889322E-09
   26.76000      7.4037989E-09
   26.82000      5.9227183E-09
   26.88000      4.2523514E-09
   26.94000      2.4092439E-09
   27.00000      4.1939172E-10
   27.06000     -1.6831946E-09
   27.12000     -3.8593750E-09
   27.18000     -6.0694370E-09
   27.24000     -8.2790095E-09
   27.30000     -1.0465246E-08
   27.36000     -1.2621553E-08
   27.42000     -1.4758899E-08
   27.48000     -1.6902378E-08
   27.54000     -1.9083028E-08
   27.60000     -2.1326803E-08
   27.66000     -2.3644022E-08
   27.72000     -2.6023065E-08
   27.78000     -2.8430927E-08
   27.84000     -3.0820882E-08
   27.90000     -3.3144921E-08
   27.96000     -3.5366824E-08
   28.02000     -3.7471580E-08
   28.08000     -3.9468432E-08
   28.14000     -4.1387288E-08
   28.20000     -4.3270301E-08
   28.26000     -4.5161666E-08
   28.32000     -4.7098300E-08
   28.38000     -4.9103043E-08
   28.44000     -5.1180926E-08
   28.50000     -5.3318423E-08
   28.56000     -5.5485685E-08
   28.62000     -5.7641579E-08
   28.68000     -5.9741154E-08
   28.74000     -6.1743989E-08
   28.80000     -6.3620980E-08
   28.86000     -6.5356858E-08
   28.92000     -6.6946903E-08
   28.98000     -6.8388559E-08
   29.04000     -6.9671408E-08
   29.10000     -7.0770163E-08
   29.16000     -7.1644969E-08
   29.22000     -7.2250145E-08
   29.28000     -7.2548779E-08
   29.34000     -7.2527335E-08
   29.40000     -7.2203704E-08
   29.46000     -7.1624370E-08
   29.52000     -7.0850589E-08
   29.58000     -6.9938451E-08
   29.64000     -6.8920407E-08
   29.70000     -6.7795547E-08
   29.76000     -6.6532621E-08
   29.82000     -6.5084464E-08
   29.88000     -6.3408315E-08
   29.94000     -6.1484030E-08
   30.00000     -5.9323703E-08
   30.06000     -5.6969814E-08
   30.12000     -5.4483614E-08
   30.18000     -5.1929014E-08
   30.24000     -4.9358153E-08
   30.30000     -4.6803201E-08
   30.36000     -4.4275851E-08
   30.42000     -4.1772672E-08
   30.48000     -3.9282821E-08
   30.54000     -3.6794635E-08
   30.60000     -3.4299269E-08
   30.66000     -3.1791213E-08
   30.72000     -2.9267209E-08
   30.78000     -2.6725061E-08
   30.84000     -2.4163416E-08
   30.90000     -2.1582720E-08
   30.96000     -1.8986928E-08
   31.02000     -1.6385355E-08
   31.08000     -1.3794084E-08
   31.14000     -1.1236288E-08
   31.20000     -8.7408027E-09
   31.26000     -6.3383814E-09
   31.32000     -4.0557411E-09
   31.38000     -1.9086408E-09
   31.44000      1.0354385E-10
   31.50000      1.9989403E-09
   31.56000      3.8081871E-09
   31.62000      5.5638854E-09
   31.68000      7.2877957E-09
   31.74000      8.9808116E-09
   31.80000      1.0620323E-08
   31.86000      1.2166886E-08
   31.92000      1.3578155E-08
   31.98000      1.4824649E-08
   32.04000      1.5900815E-08
   32.10000      1.6826585E-08
   32.16000      1.7638722E-08
   32.22000      1.8375616E-08
   32.28000      1.9061986E-08
   32.34000      1.9699980E-08
   32.40000      2.0270102E-08
   32.46000      2.0741096E-08
   32.52000      2.1083984E-08
   32.58000      2.1283890E-08
   32.64000      2.1344666E-08
   32.70000      2.1284961E-08
   32.76000      2.1128425E-08
   32.82000      2.0893435E-08
   32.88000      2.0587454E-08
   32.94000      2.0208573E-08
   33.00000      1.9752683E-08
   33.06000      1.9221917E-08
   33.12000      1.8629333E-08
   33.18000      1.7997163E-08
   33.24000      1.7349572E-08
   33.30000      1.6704172E-08
   33.36000      1.6067128E-08
   33.42000      1.5434711E-08
   33.48000      1.4800293E-08
   33.54000      1.4162470E-08
   33.60000      1.3529123E-08
   33.66000      1.2914405E-08
   33.72000      1.2329628E-08
   33.78000      1.1772822E-08
   33.84000      1.1222942E-08
   33.90000      1.0642808E-08
   33.96000      9.9906616E-09
   34.02000      9.2359995E-09
   34.08000      8.3730782E-09
   34.14000      7.4263924E-09
   34.20000      6.4458274E-09
   34.26000      5.4933609E-09
   34.32000      4.6263540E-09
   34.38000      3.8832630E-09
   34.44000      3.2761542E-09
   34.50000      2.7915665E-09
   34.56000      2.3983491E-09
   34.62000      2.0591466E-09
   34.68000      1.7415623E-09
   34.74000      1.4256617E-09
   34.80000      1.1059542E-09
   34.86000      7.8782614E-10
   34.92000      4.8016552E-10
   34.98000      1.8716902E-10
   35.04000     -9.7349170E-11
   35.10000     -3.9064454E-10
   35.16000     -7.1609269E-10
   35.22000     -1.0943220E-09
   35.28000     -1.5340788E-09
   35.34000     -2.0270701E-09
   35.40000     -2.5498252E-09
   35.46000     -3.0728526E-09
   35.52000     -3.5741070E-09
   35.58000     -4.0514245E-09
   35.64000     -4.5283182E-09
   35.70000     -5.0498024E-09
   35.76000     -5.6688991E-09
   35.82000     -6.4286216E-09
   35.88000     -7.3465762E-09
   35.94000     -8.4086391E-09
   36.00000     -9.5745190E-09
   36.06000     -1.0792906E-08
   36.12000     -1.2019578E-08
   36.18000     -1.3230443E-08
   36.24000     -1.4423802E-08
   36.30000     -1.5611148E-08
   36.36000     -1.6801339E-08
   36.42000     -1.7986208E-08
   36.48000     -1.9135237E-08
   36.54000     -2.0202656E-08
   36.60000     -2.1144434E-08
   36.66000     -2.1937838E-08
   36.72000     -2.2594573E-08
   36.78000     -2.3161144E-08
   36.84000     -2.3705516E-08
   36.90000     -2.4295023E-08
   36.96000     -2.4974327E-08
   37.02000     -2.5752177E-08
   37.08000     -2.6602098E-08
   37.14000     -2.7476396E-08
   37.20000     -2.8327499E-08
   37.26000     -2.9127937E-08
   37.32000     -2.9881132E-08
   37.38000     -3.0619088E-08
   37.44000     -3.1388510E-08
   37.50000     -3.2231263E-08
   37.56000     -3.3167016E-08
   37.62000     -3.4184435E-08
   37.68000     -3.5243612E-08
   37.74000     -3.6287915E-08
   37.80000     -3.7260083E-08
   37.86000     -3.8116642E-08
   37.92000     -3.8836170E-08
   37.98000     -3.9420073E-08
   38.04000     -3.9887514E-08
   38.10000     -4.0268013E-08
   38.16000     -4.0595026E-08
   38.22000     -4.0902300E-08
   38.28000     -4.1222606E-08
   38.34000     -4.1586929E-08
   38.40000     -4.2021956E-08
   38.46000     -4.2545054E-08
   38.52000     -4.3157726E-08
   38.58000     -4.3840586E-08
   38.64000     -4.4553182E-08
   38.70000     -4.5240807E-08
   38.76000     -4.5847571E-08
   38.82000     -4.6331952E-08
   38.88000     -4.6678963E-08
   38.94000     -4.6903661E-08
   39.00000     -4.7043699E-08
   39.06000     -4.7143324E-08
   39.12000     -4.7235154E-08
   39.18000     -4.7327610E-08
   39.24000     -4.7403567E-08
   39.30000     -4.7430966E-08
   39.36000     -4.7380379E-08
   39.42000     -4.7241375E-08
   39.48000     -4.7029740E-08
   39.54000     -4.6782251E-08
   39.60000     -4.6541331E-08
   39.66000     -4.6336865E-08
   39.72000     -4.6173621E-08
   39.78000     -4.6029879E-08
   39.84000     -4.5867633E-08
   39.90000     -4.5649475E-08
   39.96000     -4.5354419E-08
   40.02000     -4.4985850E-08
   40.08000     -4.4568491E-08
   40.14000     -4.4136119E-08
   40.20000     -4.3715517E-08
   40.26000     -4.3313467E-08
   40.32000     -4.2911957E-08
   40.38000     -4.2473275E-08
   40.44000     -4.1952635E-08
   40.50000     -4.1313083E-08
   40.56000     -4.0536552E-08
   40.62000     -3.9626734E-08
   40.68000     -3.8602959E-08
   40.74000     -3.7487961E-08
   40.80000     -3.6295280E-08
   40.86000     -3.5022108E-08
   40.92000     -3.3650977E-08
   40.98000     -3.2159633E-08
   41.04000     -3.0534650E-08
   41.10000     -2.8782649E-08
   41.16000     -2.6934011E-08
   41.22000     -2.5037535E-08
   41.28000     -2.3148456E-08
   41.34000     -2.1315046E-08
   41.40000     -1.9569157E-08
   41.46000     -1.7923890E-08
   41.52000     -1.6378172E-08
   41.58000     -1.4925138E-08
   41.64000     -1.3560116E-08
   41.70000     -1.2284771E-08
   41.76000     -1.1106269E-08
   41.82000     -1.0032525E-08
   41.88000     -9.0661336E-09
   41.94000     -8.1997422E-09
   42.00000     -7.4146445E-09
   42.06000     -6.6828116E-09
   42.12000     -5.9712133E-09
   42.18000     -5.2465778E-09
   42.24000     -4.4790358E-09
   42.30000     -3.6440853E-09
   42.36000     -2.7234937E-09
   42.42000     -1.7064582E-09
   42.48000     -5.9210908E-10
   42.54000      6.0668542E-10
   42.60000      1.8596731E-09
   42.66000      3.1180418E-09
   42.72000      4.3176689E-09
   42.78000      5.3871916E-09
   42.84000      6.2592171E-09
   42.90000      6.8814736E-09
   42.96000      7.2245285E-09
   43.02000      7.2839916E-09
   43.08000      7.0771859E-09
   43.14000      6.6361578E-09
   43.20000      5.9997611E-09
   43.26000      5.2072604E-09
   43.32000      4.2948742E-09
   43.38000      3.2954530E-09
   43.44000      2.2406619E-09
   43.50000      1.1645902E-09
   43.56000      1.0757176E-10
   43.62000     -8.8093466E-10
   43.68000     -1.7412864E-09
   43.74000     -2.4047095E-09
   43.80000     -2.7958840E-09
   43.86000     -2.8356915E-09
   43.92000     -2.4424609E-09
   43.98000     -1.5305504E-09
   44.04000     -6.2508449E-12
   44.10000      2.2377575E-09
   44.16000      5.3276175E-09
   44.22000      9.4118597E-09
   44.28000      1.4663320E-08
   44.34000      2.1280924E-08
   44.40000      2.9493656E-08
   44.46000      3.9568622E-08
   44.52000      5.1823605E-08
   44.58000      6.6642556E-08
   44.64000      8.4491148E-08
   44.70000      1.0592919E-07
   44.76000      1.3161865E-07
   44.82000      1.6232799E-07
   44.88000      1.9893692E-07
   44.94000      2.4244616E-07
   45.00000      2.9399760E-07
   45.06000      3.5490623E-07
   45.12000      4.2670294E-07
   45.18000      5.1118275E-07
   45.24000      6.1045210E-07
   45.30000      7.2697100E-07
   45.36000      8.6358739E-07
   45.42000      1.0235688E-06
   45.48000      1.2106352E-06
   45.54000      1.4290033E-06
   45.60000      1.6834425E-06
   45.66000      1.9793470E-06
   45.72000      2.3228156E-06
   45.78000      2.7207359E-06
   45.84000      3.1808675E-06
   45.90000      3.7119191E-06
   45.96000      4.3236273E-06
   46.02000      5.0268336E-06
   46.08000      5.8335759E-06
   46.14000      6.7571873E-06
   46.20000      7.8124112E-06
   46.26000      9.0155199E-06
   46.32000      1.0384436E-05
   46.38000      1.1938853E-05
   46.44000      1.3700341E-05
   46.50000      1.5692445E-05
   46.56000      1.7940791E-05
   46.62000      2.0473164E-05
   46.68000      2.3319612E-05
   46.74000      2.6512524E-05
   46.80000      3.0086721E-05
   46.86000      3.4079516E-05
   46.92000      3.8530758E-05
   46.98000      4.3482873E-05
   47.04000      4.8980870E-05
   47.10000      5.5072316E-05
   47.16000      6.1807288E-05
   47.22000      6.9238311E-05
   47.28000      7.7420249E-05
   47.34000      8.6410175E-05
   47.40000      9.6267169E-05
   47.46000      1.0705211E-04
   47.52000      1.1882740E-04
   47.58000      1.3165671E-04
   47.64000      1.4560454E-04
   47.70000      1.6073593E-04
   47.76000      1.7711593E-04
   47.82000      1.9480922E-04
   47.88000      2.1387960E-04
   47.94000      2.3438931E-04
   48.00000      2.5639858E-04
   48.06000      2.7996491E-04
   48.12000      3.0514254E-04
   48.18000      3.3198163E-04
   48.24000      3.6052763E-04
   48.30000      3.9082064E-04
   48.36000      4.2289449E-04
   48.42000      4.5677624E-04
   48.48000      4.9248530E-04
   48.54000      5.3003296E-04
   48.60000      5.6942145E-04
   48.66000      6.1064359E-04
   48.72000      6.5368222E-04
   48.78000      6.9850945E-04
   48.84000      7.4508676E-04
   48.90000      7.9336407E-04
   48.96000      8.4327988E-04
   49.02000      8.9476106E-04
   49.08000      9.4772282E-04
   49.14000      1.0020689E-03
   49.20000      1.0576913E-03
   49.26000      1.1144716E-03
   49.32000      1.1722804E-03
   49.38000      1.2309783E-03
   49.44000      1.2904168E-03
   49.50000      1.3504390E-03
   49.56000      1.4108809E-03
   49.62000      1.4715726E-03
   49.68000      1.5323389E-03
   49.74000      1.5930012E-03
   49.80000      1.6533788E-03
   49.86000      1.7132905E-03
   49.92000      1.7725560E-03
   49.98000      1.8309980E-03
   50.04000      1.8884430E-03
   50.10000      1.9447237E-03
   50.16000      1.9996800E-03
   50.22000      2.0531614E-03
   50.28000      2.1050281E-03
   50.34000      2.1551526E-03
   50.40000      2.2034214E-03
   50.46000      2.2497354E-03
   50.52000      2.2940119E-03
   50.58000      2.3361847E-03
   50.64000      2.3762055E-03
   50.70000      2.4140438E-03
   50.76000      2.4496878E-03
   50.82000      2.4831456E-03
   50.88000      2.5144431E-03
   50.94000      2.5436257E-03
   51.00000      2.5707560E-03
   51.06000      2.5959141E-03
   51.12000      2.6191962E-03
   51.18000      2.6407132E-03
   51.24000      2.6605905E-03
   51.30000      2.6789650E-03
   51.36000      2.6959849E-03
   51.42000      2.7118069E-03
   51.48000      2.7265949E-03
   51.54000      2.7405166E-03
   51.60000      2.7537425E-03
   51.66000      2.7664430E-03
   51.72000      2.7787869E-03
   51.78000      2.7909393E-03
   51.84000      2.8030595E-03
   51.90000      2.8152980E-03
   51.96000      2.8277955E-03
   52.02000      2.8406803E-03
   52.08000      2.8540678E-03
   52.14000      2.8680579E-03
   52.20000      2.8827339E-03
   52.26000      2.8981625E-03
   52.32000      2.9143924E-03
   52.38000      2.9314542E-03
   52.44000      2.9493582E-03
   52.50000      2.9680973E-03
   52.56000      2.9876446E-03
   52.62000      3.0079552E-03
   52.68000      3.0289667E-03
   52.74000      3.0506004E-03
   52.80000      3.0727626E-03
   52.86000      3.0953463E-03
   52.92000      3.1182312E-03
   52.98000      3.1412877E-03
   53.04000      3.1643764E-03
   53.10000      3.1873519E-03
   53.16000      3.2100631E-03
   53.22000      3.2323578E-03
   53.28000      3.2540832E-03
   53.34000      3.2750890E-03
   53.40000      3.2952281E-03
   53.46000      3.3143591E-03
   53.52000      3.3323488E-03
   53.58000      3.3490721E-03
   53.64000      3.3644151E-03
   53.70000      3.3782772E-03
   53.76000      3.3905706E-03
   53.82000      3.4012236E-03
   53.88000      3.4101787E-03
   53.94000      3.4173941E-03
   54.00000      3.4228445E-03
   54.06000      3.4265199E-03
   54.12000      3.4284266E-03
   54.18000      3.4285868E-03
   54.24000      3.4270370E-03
   54.30000      3.4238284E-03
   54.36000      3.4190239E-03
   54.42000      3.4126984E-03
   54.48000      3.4049370E-03
   54.54000      3.3958321E-03
   54.60000      3.3854854E-03
   54.66000      3.3740026E-03
   54.72000      3.3614931E-03
   54.78000      3.3480679E-03
   54.84000      3.3338377E-03
   54.90000      3.3189123E-03
   54.96000      3.3033960E-03
   55.02000      3.2873894E-03
   55.08000      3.2709860E-03
   55.14000      3.2542720E-03
   55.20000      3.2373236E-03
   55.26000      3.2202073E-03
   55.32000      3.2029788E-03
   55.38000      3.1856811E-03
   55.44000      3.1683459E-03
   55.50000      3.1509921E-03
   55.56000      3.1336264E-03