  -2.400000      0.0000000E+00
  -2.340000      0.0000000E+00
  -2.280000      0.0000000E+00
  -2.220000      0.0000000E+00
  -2.160000      0.0000000E+00
  -2.100000      0.0000000E+00
  -2.040000      0.0000000E+00
  -1.980000      0.0000000E+00
  -1.920000     -6.2588763E-27
  -1.860000     -2.4046423E-25
  -1.800000     -2.4191039E-24
  -1.740000     -1.2979079E-23
  -1.680000     -4.3753918E-23
  -1.620000     -9.0959297E-23
  -1.560000     -6.3920099E-23
  -1.500000      3.2087479E-22
  -1.440000      1.5181295E-21
  -1.380000      3.6579106E-21
  -1.320000      5.3034406E-21
  -1.260000      1.9500518E-21
  -1.200000     -1.3758334E-20
  -1.140000     -4.6959370E-20
  -1.080000     -8.8956192E-20
  -1.020000     -1.0341744E-19
 -0.9600000     -2.4131655E-20
 -0.9000000      2.1633313E-19
 -0.8400000      6.1700694E-19
 -0.7800000      1.0190185E-18
 -0.7200000      1.0612347E-18
 -0.6600000      2.7180865E-19
 -0.6000000     -1.6477544E-18
 -0.5400000     -4.4053013E-18
 -0.4800000     -6.7906685E-18
 -0.4200000     -6.7724358E-18
 -0.3600000     -2.2820172E-18
 -0.3000000      7.3751101E-18
 -0.2400000      2.0037560E-17
 -0.1800000      3.0105434E-17
 -0.1200000      2.9816721E-17
 -5.9999999E-02  1.2681479E-17
  0.0000000E+00 -2.1845316E-17
  5.9999999E-02 -6.4644026E-17
  0.1200000     -9.6914936E-17
  0.1800000     -9.5787945E-17
  0.2400000     -4.5111608E-17
  0.3000000      5.2243626E-17
  0.3600000      1.6684089E-16
  0.4200000      2.4639770E-16
  0.4800000      2.3392292E-16
  0.5400000      9.6722778E-17
  0.6000000     -1.4504805E-16
  0.6600000     -4.0650231E-16
  0.7200000     -5.5681299E-16
  0.7800000     -4.7136394E-16
  0.8400000     -1.0196694E-16
  0.9000000      4.6701331E-16
  0.9600000      1.0138488E-15
   1.020000      1.2482008E-15
   1.080000      9.4142926E-16
   1.140000      6.6236004E-17
   1.200000     -1.1300887E-15
   1.260000     -2.1803157E-15
   1.320000     -2.5845946E-15
   1.380000     -2.0570881E-15
   1.440000     -7.0187972E-16
   1.500000      1.0031636E-15
   1.560000      2.4457771E-15
   1.620000      3.2345649E-15
   1.680000      3.4527187E-15
   1.740000      3.5959293E-15
   1.800000      4.1342835E-15
   1.860000      4.8919871E-15
   1.920000      4.6560397E-15
   1.980000      1.4438001E-15
   2.040000     -6.4094026E-15
   2.100000     -1.8672121E-14
   2.160000     -3.1959092E-14
   2.220000     -3.9770826E-14
   2.280000     -3.4440143E-14
   2.340000     -1.0724757E-14
   2.400000      3.0254696E-14
   2.460000      7.8706268E-14
   2.520000      1.1728567E-13
   2.580000      1.2625572E-13
   2.640000      9.1453036E-14
   2.700000      1.2104213E-14
   2.760000     -9.5159618E-14
   2.820000     -1.9881631E-13
   2.880000     -2.6178441E-13
   2.940000     -2.5480185E-13
   3.000000     -1.6876381E-13
   3.060000     -2.0606734E-14
   3.120000      1.5052343E-13
   3.180000      2.9611751E-13
   3.240000      3.7534293E-13
   3.300000      3.6915932E-13
   3.360000      2.8527148E-13
   3.420000      1.5167399E-13
   3.480000      2.0057586E-15
   3.540000     -1.3975926E-13
   3.600000     -2.6698161E-13
   3.660000     -3.8569400E-13
   3.720000     -4.9955900E-13
   3.780000     -5.9291190E-13
   3.840000     -6.2313653E-13
   3.900000     -5.3051872E-13
   3.960000     -2.6539293E-13
   4.020000      1.7758836E-13
   4.080000      7.3479634E-13
   4.140000      1.2743395E-12
   4.200000      1.6285369E-12
   4.260000      1.6501404E-12
   4.320000      1.2713389E-12
   4.380000      5.3980811E-13
   4.440000     -3.8697889E-13
   4.500000     -1.2911078E-12
   4.560000     -1.9694062E-12
   4.620000     -2.3031976E-12
   4.680000     -2.2914624E-12
   4.740000     -2.0311500E-12
   4.800000     -1.6522904E-12
   4.860000     -1.2377757E-12
   4.920000     -7.6742313E-13
   4.980000     -1.1757967E-13
   5.040000      8.7627952E-13
   5.100000      2.3157264E-12
   5.160000      4.1375744E-12
   5.220000      6.0609382E-12
   5.280000      7.6134784E-12
   5.340000      8.2370543E-12
   5.400000      7.4419958E-12
   5.460000      4.9599556E-12
   5.520000      8.4529259E-13
   5.580000     -4.5066446E-12
   5.640000     -1.0427018E-11
   5.700000     -1.6101155E-11
   5.760000     -2.0712746E-11
   5.820000     -2.3558461E-11
   5.880000     -2.4099590E-11
   5.940000     -2.1940953E-11
   6.000000     -1.6754591E-11
   6.060000     -8.1889417E-12
   6.120000      4.1854966E-12
   6.180000      2.0851064E-11
   6.240000      4.2223773E-11
   6.300000      6.8466746E-11
   6.360000      9.9302497E-11
   6.420000      1.3390927E-10
   6.480000      1.7096989E-10
   6.540000      2.0888889E-10
   6.600000      2.4612357E-10
   6.660000      2.8151573E-10
   6.720000      3.1449776E-10
   6.780000      3.4508979E-10
   6.840000      3.7369155E-10
   6.900000      4.0076426E-10
   6.960000      4.2654721E-10
   7.020000      4.5093501E-10
   7.080000      4.7355569E-10
   7.140000      4.9398380E-10
   7.200000      5.1194521E-10
   7.260000      5.2737303E-10
   7.320000      5.4025301E-10
   7.380000      5.5032118E-10
   7.440000      5.5677551E-10
   7.500000      5.5818827E-10
   7.560000      5.5272908E-10
   7.620000      5.3867272E-10
   7.680000      5.1502957E-10
   7.740000      4.8206772E-10
   7.800000      4.4153536E-10
   7.860000      3.9650974E-10
   7.920000      3.5094611E-10
   7.980000      3.0909778E-10
   8.040000      2.7498748E-10
   8.100000      2.5203886E-10
   8.160000      2.4287053E-10
   8.220000      2.4918295E-10
   8.280000      2.7166594E-10
   8.340000      3.0991870E-10
   8.400000      3.6245287E-10
   8.460000      4.2688064E-10
   8.520000      5.0034304E-10
   8.580000      5.8012223E-10
   8.640000      6.6426714E-10
   8.700000      7.5201595E-10
   8.760000      8.4385982E-10
   8.820000      9.4123609E-10
   8.880000      1.0460027E-09
   8.940000      1.1599327E-09
   9.000000      1.2844406E-09
   9.060000      1.4206214E-09
   9.120000      1.5695105E-09
   9.180000      1.7323580E-09
   9.240000      1.9107063E-09
   9.300000      2.1061604E-09
   9.360000      2.3198905E-09
   9.420000      2.5520313E-09
   9.480000      2.8011764E-09
   9.540000      3.0641221E-09
   9.600000      3.3359180E-09
   9.660000      3.6101999E-09
   9.720000      3.8797605E-09
   9.780000      4.1373127E-09
   9.840000      4.3764250E-09
   9.900000      4.5925956E-09
   9.960000      4.7843458E-09
   10.02000      4.9541495E-09
   10.08000      5.1089395E-09
   10.14000      5.2599649E-09
   10.20000      5.4219047E-09
   10.26000      5.6112923E-09
   10.32000      5.8444778E-09
   10.38000      6.1354077E-09
   10.44000      6.4934693E-09
   10.50000      6.9215313E-09
   10.56000      7.4141902E-09
   10.62000      7.9562392E-09
   10.68000      8.5214538E-09
   10.74000      9.0720516E-09
   10.80000      9.5593569E-09
   10.86000      9.9263087E-09
   10.92000      1.0112251E-08
   10.98000      1.0060019E-08
   11.04000      9.7246460E-09
   11.10000      9.0824459E-09
   11.16000      8.1387439E-09
   11.22000      6.9325665E-09
   11.28000      5.5369740E-09
   11.34000      4.0545163E-09
   11.40000      2.6081757E-09
   11.46000      1.3289829E-09
   11.52000      3.4201805E-10
   11.58000     -2.4729971E-10
   11.64000     -3.6486006E-10
   11.70000      2.3976335E-11
   11.76000      9.1066271E-10
   11.82000      2.2446343E-09
   11.88000      3.9392480E-09
   11.94000      5.8818048E-09
   12.00000      7.9464009E-09
   12.06000      1.0007889E-08
   12.12000      1.1954989E-08
   12.18000      1.3700656E-08
   12.24000      1.5188300E-08
   12.30000      1.6393230E-08
   12.36000      1.7319593E-08
   12.42000      1.7993949E-08
   12.48000      1.8457071E-08
   12.54000      1.8755594E-08
   12.60000      1.8934783E-08
   12.66000      1.9032996E-08
   12.72000      1.9077909E-08
   12.78000      1.9084222E-08
   12.84000      1.9052621E-08
   12.90000      1.8970065E-08
   12.96000      1.8811779E-08
   13.02000      1.8545263E-08
   13.08000      1.8136333E-08
   13.14000      1.7556522E-08
   13.20000      1.6790425E-08
   13.26000      1.5841305E-08
   13.32000      1.4733323E-08
   13.38000      1.3509468E-08
   13.44000      1.2225250E-08
   13.50000      1.0939186E-08
   13.56000      9.7019273E-09
   13.62000      8.5461931E-09
   13.68000      7.4796764E-09
   13.74000      6.4826255E-09
   13.80000      5.5109788E-09
   13.86000      4.5048747E-09
   13.92000      3.4011329E-09
   13.98000      2.1472137E-09
   14.04000      7.1360179E-10
   14.10000     -8.9827901E-10
   14.16000     -2.6544897E-09
   14.22000     -4.4935891E-09
   14.28000     -6.3367902E-09
   14.34000     -8.1006029E-09
   14.40000     -9.7089181E-09
   14.46000     -1.1102103E-08
   14.52000     -1.2241792E-08
   14.58000     -1.3111407E-08
   14.64000     -1.3713369E-08
   14.70000     -1.4064388E-08
   14.76000     -1.4190089E-08
   14.82000     -1.4119849E-08
   14.88000     -1.3882315E-08
   14.94000     -1.3501833E-08
   15.00000     -1.2995954E-08
   15.06000     -1.2374197E-08
   15.12000     -1.1638196E-08
   15.18000     -1.0783145E-08
   15.24000     -9.8002237E-09
   15.30000     -8.6793985E-09
   15.36000     -7.4119471E-09
   15.42000     -5.9922520E-09
   15.48000     -4.4188244E-09
   15.54000     -2.6949492E-09
   15.60000     -8.2954943E-10
   15.66000      1.1612860E-09
   15.72000      3.2522578E-09
   15.78000      5.4071037E-09
   15.84000      7.5784268E-09
   15.90000      9.7102681E-09
   15.96000      1.1743846E-08
   16.02000      1.3625631E-08
   16.08000      1.5315862E-08
   16.14000      1.6794962E-08
   16.20000      1.8065672E-08
   16.26000      1.9149835E-08
   16.32000      2.0080449E-08
   16.38000      2.0891042E-08
   16.44000      2.1605423E-08
   16.50000      2.2230852E-08
   16.56000      2.2756717E-08
   16.62000      2.3159306E-08
   16.68000      2.3411301E-08
   16.74000      2.3493120E-08
   16.80000      2.3402352E-08
   16.86000      2.3157922E-08
   16.92000      2.2796993E-08
   16.98000      2.2365027E-08
   17.04000      2.1901787E-08
   17.10000      2.1427750E-08
   17.16000      2.0935593E-08
   17.22000      2.0390049E-08
   17.28000      1.9736719E-08
   17.34000      1.8917548E-08
   17.40000      1.7888366E-08
   17.46000      1.6633264E-08
   17.52000      1.5171425E-08
   17.58000      1.3554346E-08
   17.64000      1.1854067E-08
   17.70000      1.0145612E-08
   17.76000      8.4882839E-09
   17.82000      6.9108625E-09
   17.88000      5.4047198E-09
   17.94000      3.9269556E-09
   18.00000      2.4130566E-09
   18.06000      7.9603446E-10
   18.12000     -9.7292663E-10
   18.18000     -2.9079805E-09
   18.24000     -4.9810884E-09
   18.30000     -7.1259119E-09
   18.36000     -9.2524042E-09
   18.42000     -1.1268159E-08
   18.48000     -1.3100408E-08
   18.54000     -1.4712119E-08
   18.60000     -1.6107139E-08
   18.66000     -1.7322511E-08
   18.72000     -1.8409938E-08
   18.78000     -1.9411914E-08
   18.84000     -2.0340027E-08
   18.90000     -2.1162778E-08
   18.96000     -2.1807647E-08
   19.02000     -2.2177854E-08
   19.08000     -2.2179508E-08
   19.14000     -2.1751086E-08
   19.20000     -2.0886024E-08
   19.26000     -1.9640900E-08
   19.32000     -1.8126153E-08
   19.38000     -1.6481733E-08
   19.44000     -1.4845095E-08
   19.50000     -1.3321257E-08
   19.56000     -1.1964002E-08
   19.62000     -1.0773435E-08
   19.68000     -9.7097681E-09
   19.74000     -8.7179792E-09
   19.80000     -7.7546849E-09
   19.86000     -6.8081834E-09
   19.92000     -5.9052425E-09
   19.98000     -5.1027715E-09
   20.04000     -4.4676631E-09
   20.10000     -4.0519916E-09
   20.16000     -3.8722181E-09
   20.22000     -3.8996255E-09
   20.28000     -4.0652712E-09
   20.34000     -4.2777870E-09
   20.40000     -4.4479354E-09
   20.46000     -4.5116302E-09
   20.52000     -4.4438364E-09
   20.58000     -4.2591410E-09
   20.64000     -3.9995935E-09
   20.70000     -3.7148691E-09
   20.76000     -3.4422967E-09
   20.82000     -3.1940013E-09
   20.88000     -2.9554972E-09
   20.94000     -2.6957456E-09
   21.00000     -2.3845461E-09
   21.06000     -2.0106796E-09
   21.12000     -1.5942644E-09
   21.18000     -1.1891461E-09
   21.24000     -8.7486629E-10
   21.30000     -7.4138751E-10
   21.36000     -8.7196922E-10
   21.42000     -1.3297029E-09
   21.48000     -2.1512945E-09
   21.54000     -3.3486316E-09
   21.60000     -4.9157278E-09
   21.66000     -6.8369412E-09
   21.72000     -9.0924397E-09
   21.78000     -1.1658646E-08
   21.84000     -1.4503894E-08
   21.90000     -1.7581877E-08
   21.96000     -2.0826521E-08
   22.02000     -2.4151673E-08
   22.08000     -2.7457220E-08
   22.14000     -3.0641033E-08
   22.20000     -3.3613937E-08
   22.26000     -3.6313750E-08
   22.32000     -3.8714411E-08
   22.38000     -4.0827324E-08
   22.44000     -4.2694396E-08
   22.50000     -4.4374215E-08
   22.56000     -4.5925141E-08
   22.62000     -4.7389786E-08
   22.68000     -4.8785186E-08
   22.74000     -5.0101168E-08
   22.80000     -5.1307115E-08
   22.86000     -5.2364733E-08
   22.92000     -5.3242655E-08
   22.98000     -5.3928442E-08
   23.04000     -5.4434484E-08
   23.10000     -5.4796391E-08
   23.16000     -5.5064820E-08
   23.22000     -5.5293370E-08
   23.28000     -5.5525977E-08
   23.34000     -5.5786849E-08
   23.40000     -5.6074935E-08
   23.46000     -5.6363497E-08
   23.52000     -5.6604389E-08
   23.58000     -5.6735704E-08
   23.64000     -5.6691391E-08
   23.70000     -5.6411213E-08
   23.76000     -5.5849846E-08
   23.82000     -5.4983850E-08
   23.88000     -5.3815842E-08
   23.94000     -5.2375192E-08
   24.00000     -5.0715187E-08
   24.06000     -4.8906756E-08
   24.12000     -4.7029335E-08
   24.18000     -4.5160057E-08
   24.24000     -4.3362903E-08
   24.30000     -4.1680089E-08
   24.36000     -4.0127780E-08
   24.42000     -3.8697742E-08
   24.48000     -3.7365066E-08
   24.54000     -3.6100346E-08
   24.60000     -3.4883193E-08
   24.66000     -3.3713281E-08
   24.72000     -3.2615738E-08
   24.78000     -3.1639306E-08
   24.84000     -3.0847843E-08
   24.90000     -3.0307739E-08
   24.96000     -3.0074759E-08
   25.02000     -3.0183866E-08
   25.08000     -3.0644472E-08
   25.14000     -3.1442067E-08
   25.20000     -3.2545483E-08
   25.26000     -3.3917551E-08
   25.32000     -3.5525971E-08
   25.38000     -3.7351100E-08
   25.44000     -3.9388024E-08
   25.50000     -4.1642117E-08
   25.56000     -4.4119346E-08
   25.62000     -4.6814584E-08
   25.68000     -4.9702230E-08
   25.74000     -5.2732673E-08
   25.80000     -5.5836232E-08
   25.86000     -5.8933320E-08
   25.92000     -6.1947524E-08
   25.98000     -6.4817279E-08
   26.04000     -6.7502604E-08
   26.10000     -6.9985582E-08
   26.16000     -7.2265316E-08
   26.22000     -7.4350055E-08
   26.28000     -7.6249577E-08
   26.34000     -7.7969965E-08
   26.40000     -7.9511878E-08
   26.46000     -8.0871665E-08
   26.52000     -8.2043726E-08
   26.58000     -8.3022243E-08
   26.64000     -8.3801119E-08
   26.70000     -8.4371962E-08
   26.76000     -8.4721158E-08
   26.82000     -8.4828031E-08
   26.88000     -8.4666127E-08
   26.94000     -8.4208509E-08
   27.00000     -8.3436497E-08
   27.06000     -8.2348897E-08
   27.12000     -8.0968341E-08
   27.18000     -7.9341298E-08
   27.24000     -7.7530522E-08
   27.30000     -7.5601541E-08
   27.36000     -7.3607573E-08
   27.42000     -7.1578000E-08
   27.48000     -6.9515124E-08
   27.54000     -6.7400478E-08
   27.60000     -6.5208759E-08
   27.66000     -6.2923995E-08
   27.72000     -6.0551692E-08
   27.78000     -5.8122051E-08
   27.84000     -5.5682715E-08
   27.90000     -5.3283525E-08
   27.96000     -5.0959251E-08
   28.02000     -4.8716952E-08
   28.08000     -4.6533131E-08
   28.14000     -4.4362025E-08
   28.20000     -4.2152280E-08
   28.26000     -3.9866013E-08
   28.32000     -3.7493553E-08
   28.38000     -3.5058832E-08
   28.44000     -3.2613819E-08
   28.50000     -3.0224101E-08
   28.56000     -2.7950644E-08
   28.62000     -2.5833419E-08
   28.68000     -2.3881768E-08
   28.74000     -2.2074046E-08
   28.80000     -2.0366253E-08
   28.86000     -1.8706888E-08
   28.92000     -1.7053644E-08
   28.98000     -1.5387155E-08
   29.04000     -1.3717808E-08
   29.10000     -1.2083662E-08
   29.16000     -1.0540112E-08
   29.22000     -9.1445607E-09
   29.28000     -7.9409102E-09
   29.34000     -6.9487194E-09
   29.40000     -6.1602208E-09
   29.46000     -5.5455409E-09
   29.52000     -5.0636331E-09
   29.58000     -4.6745918E-09
   29.64000     -4.3488715E-09
   29.70000     -4.0705022E-09
   29.76000     -3.8338932E-09
   29.82000     -3.6363346E-09
   29.88000     -3.4698540E-09
   29.94000     -3.3162015E-09
   30.00000     -3.1474439E-09
   30.06000     -2.9324461E-09
   30.12000     -2.6471361E-09
   30.18000     -2.2847035E-09
   30.24000     -1.8614442E-09
   30.30000     -1.4150797E-09
   30.36000     -9.9490194E-10
   30.42000     -6.4620559E-10
   30.48000     -3.9411499E-10
   30.54000     -2.3291025E-10
   30.60000     -1.2570167E-10
   30.66000     -1.5942995E-11
   30.72000      1.5210594E-10
   30.78000      4.1064513E-10
   30.84000      7.5163692E-10
   30.90000      1.1230835E-09
   30.96000      1.4410939E-09
   31.02000      1.6150135E-09
   31.08000      1.5778823E-09
   31.14000      1.3118930E-09
   31.20000      8.5942797E-10
   31.26000      3.1457573E-10
   31.32000     -2.0354274E-10
   31.38000     -5.8791083E-10
   31.44000     -7.7934559E-10
   31.50000     -7.8865320E-10
   31.56000     -6.9694417E-10
   31.62000     -6.3280503E-10
   31.68000     -7.3280065E-10
   31.74000     -1.0976977E-09
   31.80000     -1.7587067E-09
   31.86000     -2.6651570E-09
   31.92000     -3.6981873E-09
   31.98000     -4.7065294E-09
   32.04000     -5.5531650E-09
   32.10000     -6.1579946E-09
   32.16000     -6.5228591E-09
   32.22000     -6.7309132E-09
   32.28000     -6.9205131E-09
   32.34000     -7.2418898E-09
   32.40000     -7.8102840E-09
   32.46000     -8.6702929E-09
   32.52000     -9.7825650E-09
   32.58000     -1.1036843E-08
   32.64000     -1.2286934E-08
   32.70000     -1.3396202E-08
   32.76000     -1.4278903E-08
   32.82000     -1.4924295E-08
   32.88000     -1.5396376E-08
   32.94000     -1.5810334E-08
   33.00000     -1.6294432E-08
   33.06000     -1.6950455E-08
   33.12000     -1.7825556E-08
   33.18000     -1.8903673E-08
   33.24000     -2.0117582E-08
   33.30000     -2.1375723E-08
   33.36000     -2.2593685E-08
   33.42000     -2.3719741E-08
   33.48000     -2.4746834E-08
   33.54000     -2.5708642E-08
   33.60000     -2.6662526E-08
   33.66000     -2.7666061E-08
   33.72000     -2.8755107E-08
   33.78000     -2.9930352E-08
   33.84000     -3.1156056E-08
   33.90000     -3.2370824E-08
   33.96000     -3.3506417E-08
   34.02000     -3.4508254E-08
   34.08000     -3.5350741E-08
   34.14000     -3.6042543E-08
   34.20000     -3.6620289E-08
   34.26000     -3.7133233E-08
   34.32000     -3.7624570E-08
   34.38000     -3.8115953E-08
   34.44000     -3.8600660E-08
   34.50000     -3.9047265E-08
   34.56000     -3.9412043E-08
   34.62000     -3.9655035E-08
   34.68000     -3.9753800E-08
   34.74000     -3.9709793E-08
   34.80000     -3.9545387E-08
   34.86000     -3.9293020E-08
   34.92000     -3.8980801E-08
   34.98000     -3.8620261E-08
   35.04000     -3.8201105E-08
   35.10000     -3.7695091E-08
   35.16000     -3.7067821E-08
   35.22000     -3.6293944E-08
   35.28000     -3.5369901E-08
   35.34000     -3.4318969E-08
   35.40000     -3.3186371E-08
   35.46000     -3.2025934E-08
   35.52000     -3.0883360E-08
   35.58000     -2.9782370E-08
   35.64000     -2.8719095E-08
   35.70000     -2.7666678E-08
   35.76000     -2.6588129E-08
   35.82000     -2.5452188E-08
   35.88000     -2.4245926E-08
   35.94000     -2.2979178E-08
   36.00000     -2.1679169E-08
   36.06000     -2.0377641E-08
   36.12000     -1.9095832E-08
   36.18000     -1.7833779E-08
   36.24000     -1.6569079E-08
   36.30000     -1.5266798E-08
   36.36000     -1.3897751E-08
   36.42000     -1.2458625E-08
   36.48000     -1.0985557E-08
   36.54000     -9.5543555E-09
   36.60000     -8.2648315E-09
   36.66000     -7.2128246E-09
   36.72000     -6.4588352E-09
   36.78000     -6.0046927E-09
   36.84000     -5.7878760E-09
   36.90000     -5.6974083E-09
   36.96000     -5.6075464E-09
   37.02000     -5.4187290E-09
   37.08000     -5.0920295E-09
   37.14000     -4.6650528E-09
   37.20000     -4.2432879E-09
   37.26000     -3.9691890E-09
   37.32000     -3.9788710E-09
   37.38000     -4.3605133E-09
   37.44000     -5.1280220E-09
   37.50000     -6.2183814E-09
   37.56000     -7.5131723E-09
   37.62000     -8.8767163E-09
   37.68000     -1.0197845E-08
   37.74000     -1.1421382E-08
   37.80000     -1.2559246E-08
   37.86000     -1.3678396E-08
   37.92000     -1.4870910E-08
   37.98000     -1.6217534E-08
   38.04000     -1.7757802E-08
   38.10000     -1.9476907E-08
   38.16000     -2.1313079E-08
   38.22000     -2.3181705E-08
   38.28000     -2.5006662E-08
   38.34000     -2.6747186E-08
   38.40000     -2.8410691E-08
   38.46000     -3.0047278E-08
   38.52000     -3.1728305E-08
   38.58000     -3.3517033E-08
   38.64000     -3.5442078E-08
   38.70000     -3.7483275E-08
   38.76000     -3.9575291E-08
   38.82000     -4.1627846E-08
   38.88000     -4.3555346E-08
   38.94000     -4.5305214E-08
   39.00000     -4.6874348E-08
   39.06000     -4.8307371E-08
   39.12000     -4.9676959E-08
   39.18000     -5.1053352E-08
   39.24000     -5.2474153E-08
   39.30000     -5.3925852E-08
   39.36000     -5.5344117E-08
   39.42000     -5.6633045E-08
   39.48000     -5.7696777E-08
   39.54000     -5.8472093E-08
   39.60000     -5.8950313E-08
   39.66000     -5.9180593E-08
   39.72000     -5.9253061E-08
   39.78000     -5.9267403E-08
   39.84000     -5.9297545E-08
   39.90000     -5.9364517E-08
   39.96000     -5.9426924E-08
   40.02000     -5.9392651E-08
   40.08000     -5.9148118E-08
   40.14000     -5.8595742E-08
   40.20000     -5.7687092E-08
   40.26000     -5.6440825E-08
   40.32000     -5.4939292E-08
   40.38000     -5.3304909E-08
   40.44000     -5.1663893E-08
   40.50000     -5.0109211E-08
   40.56000     -4.8674611E-08
   40.62000     -4.7328083E-08
   40.68000     -4.5986525E-08
   40.74000     -4.4546542E-08
   40.80000     -4.2921108E-08
   40.86000     -4.1069853E-08
   40.92000     -3.9013052E-08
   40.98000     -3.6824908E-08
   41.04000     -3.4608728E-08
   41.10000     -3.2463060E-08
   41.16000     -3.0450710E-08
   41.22000     -2.8581772E-08
   41.28000     -2.6816336E-08
   41.34000     -2.5085500E-08
   41.40000     -2.3322345E-08
   41.46000     -2.1491028E-08
   41.52000     -1.9603124E-08
   41.58000     -1.7715466E-08
   41.64000     -1.5910933E-08
   41.70000     -1.4270202E-08
   41.76000     -1.2845478E-08
   41.82000     -1.1646063E-08
   41.88000     -1.0640561E-08
   41.94000     -9.7739354E-09
   42.00000     -8.9920675E-09
   42.06000     -8.2640277E-09
   42.12000     -7.5936173E-09
   42.18000     -7.0162480E-09
   42.24000     -6.5829613E-09
   42.30000     -6.3382091E-09
   42.36000     -6.3002172E-09
   42.42000     -6.4515984E-09
   42.48000     -6.7439787E-09
   42.54000     -7.1151063E-09
   42.60000     -7.5121989E-09
   42.66000     -7.9128579E-09
   42.72000     -8.3355509E-09
   42.78000     -8.8353760E-09
   42.84000     -9.4861257E-09
   42.90000     -1.0354792E-08
   42.96000     -1.1477584E-08
   43.02000     -1.2846218E-08
   43.08000     -1.4409620E-08
   43.14000     -1.6090709E-08
   43.20000     -1.7812395E-08
   43.26000     -1.9523615E-08
   43.32000     -2.1216204E-08
   43.38000     -2.2926701E-08
   43.44000     -2.4722715E-08
   43.50000     -2.6678929E-08
   43.56000     -2.8851524E-08
   43.62000     -3.1260068E-08
   43.68000     -3.3883140E-08
   43.74000     -3.6668716E-08
   43.80000     -3.9555111E-08
   43.86000     -4.2494577E-08
   43.92000     -4.5471136E-08
   43.98000     -4.8506585E-08
   44.04000     -5.1653398E-08
   44.10000     -5.4977779E-08
   44.16000     -5.8539708E-08
   44.22000     -6.2377261E-08
   44.28000     -6.6500817E-08
   44.34000     -7.0898999E-08
   44.40000     -7.5554546E-08
   44.46000     -8.0465213E-08
   44.52000     -8.5663942E-08
   44.58000     -9.1232785E-08
   44.64000     -9.7307272E-08
   44.70000     -1.0407069E-07
   44.76000     -1.1174077E-07
   44.82000     -1.2055389E-07
   44.88000     -1.3075312E-07
   44.94000     -1.4258610E-07
   45.00000     -1.5631589E-07
   45.06000     -1.7224406E-07
   45.12000     -1.9074068E-07
   45.18000     -2.1227346E-07
   45.24000     -2.3742820E-07
   45.30000     -2.6691581E-07
   45.36000     -3.0156599E-07
   45.42000     -3.4231368E-07
   45.48000     -3.9018664E-07
   45.54000     -4.4630227E-07
   45.60000     -5.1188044E-07
   45.66000     -5.8827135E-07
   45.72000     -6.7699540E-07
   45.78000     -7.7978643E-07
   45.84000     -8.9863056E-07
   45.90000     -1.0357952E-06
   45.96000     -1.1938462E-06
   46.02000     -1.3756555E-06
   46.08000     -1.5844059E-06
   46.14000     -1.8236007E-06
   46.20000     -2.0970820E-06
   46.26000     -2.4090632E-06
   46.32000     -2.7641715E-06
   46.38000     -3.1674954E-06
   46.44000     -3.6246317E-06
   46.50000     -4.1417256E-06
   46.56000     -4.7255007E-06
   46.62000     -5.3832769E-06
   46.68000     -6.1229807E-06
   46.74000     -6.9531588E-06
   46.80000     -7.8829844E-06
   46.86000     -8.9222813E-06
   46.92000     -1.0081543E-05
   46.98000     -1.1371964E-05
   47.04000     -1.2805454E-05
   47.10000     -1.4394654E-05
   47.16000     -1.6152922E-05
   47.22000     -1.8094310E-05
   47.28000     -2.0233512E-05
   47.34000     -2.2585824E-05
   47.40000     -2.5167079E-05
   47.46000     -2.7993599E-05
   47.52000     -3.1082149E-05
   47.58000     -3.4449877E-05
   47.64000     -3.8114234E-05
   47.70000     -4.2092917E-05
   47.76000     -4.6403729E-05
   47.82000     -5.1064482E-05
   47.88000     -5.6092838E-05
   47.94000     -6.1506151E-05
   48.00000     -6.7321307E-05
   48.06000     -7.3554547E-05
   48.12000     -8.0221333E-05
   48.18000     -8.7336150E-05
   48.24000     -9.4912328E-05
   48.30000     -1.0296193E-04
   48.36000     -1.1149553E-04
   48.42000     -1.2052200E-04
   48.48000     -1.3004839E-04
   48.54000     -1.4007963E-04
   48.60000     -1.5061841E-04
   48.66000     -1.6166495E-04
   48.72000     -1.7321693E-04
   48.78000     -1.8526928E-04
   48.84000     -1.9781417E-04
   48.90000     -2.1084088E-04
   48.96000     -2.2433582E-04
   49.02000     -2.3828230E-04
   49.08000     -2.5266065E-04
   49.14000     -2.6744811E-04
   49.20000     -2.8261880E-04
   49.26000     -2.9814383E-04
   49.32000     -3.1399142E-04
   49.38000     -3.3012693E-04
   49.44000     -3.4651309E-04
   49.50000     -3.6311042E-04
   49.56000     -3.7987731E-04
   49.62000     -3.9677040E-04
   49.68000     -4.1374486E-04
   49.74000     -4.3075465E-04
   49.80000     -4.4775283E-04
   49.86000     -4.6469181E-04
   49.92000     -4.8152398E-04
   49.98000     -4.9820170E-04
   50.04000     -5.1467825E-04
   50.10000     -5.3090788E-04
   50.16000     -5.4684666E-04
   50.22000     -5.6245265E-04
   50.28000     -5.7768653E-04
   50.34000     -5.9251179E-04
   50.40000     -6.0689502E-04
   50.46000     -6.2080659E-04
   50.52000     -6.3422025E-04
   50.58000     -6.4711401E-04
   50.64000     -6.5947016E-04
   50.70000     -6.7127543E-04
   50.76000     -6.8252120E-04
   50.82000     -6.9320371E-04
   50.88000     -7.0332398E-04
   50.94000     -7.1288779E-04
   51.00000     -7.2190585E-04
   51.06000     -7.3039328E-04
   51.12000     -7.3836977E-04
   51.18000     -7.4585882E-04
   51.24000     -7.5288775E-04
   51.30000     -7.5948716E-04
   51.36000     -7.6569052E-04
   51.42000     -7.7153399E-04
   51.48000     -7.7705592E-04
   51.54000     -7.8229635E-04
   51.60000     -7.8729627E-04
   51.66000     -7.9209753E-04
   51.72000     -7.9674169E-04
   51.78000     -8.0126961E-04
   51.84000     -8.0572109E-04
   51.90000     -8.1013422E-04
   51.96000     -8.1454479E-04
   52.02000     -8.1898598E-04
   52.08000     -8.2348770E-04
   52.14000     -8.2807645E-04
   52.20000     -8.3277497E-04
   52.26000     -8.3760166E-04
   52.32000     -8.4257079E-04
   52.38000     -8.4769190E-04
   52.44000     -8.5296977E-04
   52.50000     -8.5840427E-04
   52.56000     -8.6399075E-04
   52.62000     -8.6971954E-04
   52.68000     -8.7557681E-04
   52.74000     -8.8154402E-04
   52.80000     -8.8759884E-04
   52.86000     -8.9371507E-04
   52.92000     -8.9986331E-04
   52.98000     -9.0601126E-04
   53.04000     -9.1212441E-04
   53.10000     -9.1816642E-04
   53.16000     -9.2409976E-04
   53.22000     -9.2988595E-04
   53.28000     -9.3548617E-04
   53.34000     -9.4086176E-04
   53.40000     -9.4597484E-04
   53.46000     -9.5078902E-04
   53.52000     -9.5526956E-04
   53.58000     -9.5938437E-04
   53.64000     -9.6310419E-04
   53.70000     -9.6640276E-04
   53.76000     -9.6925761E-04
   53.82000     -9.7164989E-04
   53.88000     -9.7356510E-04
   53.94000     -9.7499281E-04
   54.00000     -9.7592687E-04
   54.06000     -9.7636570E-04
   54.12000     -9.7631174E-04
   54.18000     -9.7577204E-04
   54.24000     -9.7475771E-04
   54.30000     -9.7328372E-04
   54.36000     -9.7136881E-04
   54.42000     -9.6903520E-04
   54.48000     -9.6630811E-04
   54.54000     -9.6321537E-04
   54.60000     -9.5978711E-04
   54.66000     -9.5605524E-04
   54.72000     -9.5205312E-04
   54.78000     -9.4781484E-04
   54.84000     -9.4337511E-04
   54.90000     -9.3876821E-04
   54.96000     -9.3402818E-04
   55.02000     -9.2918781E-04
   55.08000     -9.2427863E-04
   55.14000     -9.1933046E-04
   55.20000     -9.1437099E-04
   55.26000     -9.0942538E-04
   55.32000     -9.0451632E-04
   55.38000     -8.9966354E-04
   55.44000     -8.9488371E-04
   55.50000     -8.9019031E-04
   55.56000     -8.8559341E-04