  -2.400000      0.0000000E+00
  -2.340000      0.0000000E+00
  -2.280000      0.0000000E+00
  -2.220000      0.0000000E+00
  -2.160000      0.0000000E+00
  -2.100000      0.0000000E+00
  -2.040000      0.0000000E+00
  -1.980000      0.0000000E+00
  -1.920000     -3.6620437E-25
  -1.860000     -4.0960825E-24
  -1.800000     -2.1982248E-23
  -1.740000     -7.1353832E-23
  -1.680000     -1.3533984E-22
  -1.620000     -4.3413635E-23
  -1.560000      6.7074361E-22
  -1.500000      2.6185010E-21
  -1.440000      5.5423912E-21
  -1.380000      6.2025549E-21
  -1.320000     -3.4321085E-21
  -1.260000     -3.3576718E-20
  -1.200000     -8.4331425E-20
  -1.140000     -1.2363785E-19
  -1.080000     -7.0233282E-20
  -1.020000      1.8513310E-19
 -0.9600000      6.8468609E-19
 -0.9000000      1.2401566E-18
 -0.8400000      1.2984802E-18
 -0.7800000      3.3905406E-20
 -0.7200000     -3.1356541E-18
 -0.6600000     -7.6262744E-18
 -0.6000000     -1.0822139E-17
 -0.5400000     -8.1846064E-18
 -0.4800000      4.7216532E-18
 -0.4200000      2.8194398E-17
 -0.3600000      5.3995647E-17
 -0.3000000      6.4051017E-17
 -0.2400000      3.6062828E-17
 -0.1800000     -4.2744608E-17
 -0.1200000     -1.5817569E-16
 -5.9999999E-02 -2.5864609E-16
  0.0000000E+00 -2.6488671E-16
  5.9999999E-02 -1.0668177E-16
  0.1200000      2.2201694E-16
  0.1800000      6.1738532E-16
  0.2400000      8.6782141E-16
  0.3000000      7.3142836E-16
  0.3600000      7.9702611E-17
  0.4200000     -9.5294298E-16
  0.4800000     -1.9117819E-15
  0.5400000     -2.1452748E-15
  0.6000000     -1.1242776E-15
  0.6600000      1.1500180E-15
  0.7200000      3.8688471E-15
  0.7800000      5.5136644E-15
  0.8400000      4.4529632E-15
  0.9000000     -9.4050720E-17
  0.9600000     -7.1509655E-15
   1.020000     -1.3719772E-14
   1.080000     -1.5615742E-14
   1.140000     -9.3958180E-15
   1.200000      5.2847148E-15
   1.260000      2.4092844E-14
   1.320000      3.8469865E-14
   1.380000      3.8697076E-14
   1.440000      1.8874010E-14
   1.500000     -1.8274180E-14
   1.560000     -5.9556553E-14
   1.620000     -8.4616098E-14
   1.680000     -7.4442107E-14
   1.740000     -2.2256328E-14
   1.800000      5.8420242E-14
   1.860000      1.3397619E-13
   1.920000      1.6195171E-13
   1.980000      1.1092449E-13
   2.040000     -1.8880473E-14
   2.100000     -1.8514648E-13
   2.160000     -3.1203629E-13
   2.220000     -3.1916299E-13
   2.280000     -1.6189112E-13
   2.340000      1.3475354E-13
   2.400000      4.6798589E-13
   2.460000      6.8632784E-13
   2.520000      6.5104302E-13
   2.580000      3.0733516E-13
   2.640000     -2.6787673E-13
   2.700000     -8.7092649E-13
   2.760000     -1.2387718E-12
   2.820000     -1.1595210E-12
   2.880000     -5.8144456E-13
   2.940000      3.3255218E-13
   3.000000      1.2416715E-12
   3.060000      1.7542373E-12
   3.120000      1.5999299E-12
   3.180000      7.7235597E-13
   3.240000     -4.3122087E-13
   3.300000     -1.5083313E-12
   3.360000     -1.9619421E-12
   3.420000     -1.5387029E-12
   3.480000     -3.8349724E-13
   3.540000      9.7775076E-13
   3.600000      1.8453793E-12
   3.660000      1.6723054E-12
   3.720000      3.6924557E-13
   3.780000     -1.5635004E-12
   3.840000     -3.1711526E-12
   3.900000     -3.4274393E-12
   3.960000     -1.7259804E-12
   4.020000      1.7323637E-12
   4.080000      5.8532745E-12
   4.140000      8.9525661E-12
   4.200000      9.3746556E-12
   4.260000      6.2002443E-12
   4.320000     -2.5028645E-13
   4.380000     -8.3562332E-12
   4.440000     -1.5651329E-11
   4.500000     -1.9653354E-11
   4.560000     -1.8758474E-11
   4.620000     -1.2842885E-11
   4.680000     -3.3192251E-12
   4.740000      7.3846814E-12
   4.800000      1.6713048E-11
   4.860000      2.2862993E-11
   4.920000      2.5285255E-11
   4.980000      2.4596046E-11
   5.040000      2.1955370E-11
   5.100000      1.8215358E-11
   5.160000      1.3261683E-11
   5.220000      5.9034487E-12
   5.280000     -5.5656812E-12
   5.340000     -2.2313382E-11
   5.400000     -4.3840240E-11
   5.460000     -6.7269440E-11
   5.520000     -8.7416484E-11
   5.580000     -9.7715606E-11
   5.640000     -9.1752668E-11
   5.700000     -6.4919237E-11
   5.760000     -1.5654153E-11
   5.820000      5.4101879E-11
   5.880000      1.3931022E-10
   5.940000      2.3284311E-10
   6.000000      3.2662770E-10
   6.060000      4.1243786E-10
   6.120000      4.8203586E-10
   6.180000      5.2668903E-10
   6.240000      5.3641269E-10
   6.300000      4.9947890E-10
   6.360000      4.0269665E-10
   6.420000      2.3270605E-10
   6.480000     -2.1864828E-11
   6.540000     -3.6791001E-10
   6.600000     -8.0574930E-10
   6.660000     -1.3280791E-09
   6.720000     -1.9202846E-09
   6.780000     -2.5619500E-09
   6.840000     -3.2289775E-09
   6.900000     -3.8955346E-09
   6.960000     -4.5351976E-09
   7.020000     -5.1211231E-09
   7.080000     -5.6256320E-09
   7.140000     -6.0200649E-09
   7.200000     -6.2758390E-09
   7.260000     -6.3672925E-09
   7.320000     -6.2761640E-09
   7.380000     -5.9967360E-09
   7.440000     -5.5400662E-09
   7.500000     -4.9356466E-09
   7.560000     -4.2293573E-09
   7.620000     -3.4776000E-09
   7.680000     -2.7386404E-09
   7.740000     -2.0630970E-09
   7.800000     -1.4858275E-09
   7.860000     -1.0210904E-09
   7.920000     -6.6192135E-10
   7.980000     -3.8351483E-10
   8.040000     -1.4943111E-10
   8.100000      8.1062587E-11
   8.160000      3.4613093E-10
   8.220000      6.7607958E-10
   8.280000      1.0900261E-09
   8.340000      1.5943389E-09
   8.400000      2.1823889E-09
   8.460000      2.8352336E-09
   8.520000      3.5231456E-09
   8.580000      4.2081751E-09
   8.640000      4.8480033E-09
   8.700000      5.4011196E-09
   8.760000      5.8328831E-09
   8.820000      6.1215388E-09
   8.880000      6.2629080E-09
   8.940000      6.2725132E-09
   9.000000      6.1843091E-09
   9.060000      6.0459464E-09
   9.120000      5.9113479E-09
   9.180000      5.8320726E-09
   9.240000      5.8493224E-09
   9.300000      5.9882757E-09
   9.360000      6.2558714E-09
   9.420000      6.6422432E-09
   9.480000      7.1250619E-09
   9.540000      7.6753279E-09
   9.600000      8.2629024E-09
   9.660000      8.8603764E-09
   9.720000      9.4446317E-09
   9.780000      9.9964170E-09
   9.840000      1.0499035E-08
   9.900000      1.0937552E-08
   9.960000      1.1299604E-08
   10.02000      1.1578021E-08
   10.08000      1.1774453E-08
   10.14000      1.1902342E-08
   10.20000      1.1987487E-08
   10.26000      1.2065001E-08
   10.32000      1.2172729E-08
   10.38000      1.2342524E-08
   10.44000      1.2591781E-08
   10.50000      1.2917841E-08
   10.56000      1.3297104E-08
   10.62000      1.3689299E-08
   10.68000      1.4045784E-08
   10.74000      1.4319523E-08
   10.80000      1.4474053E-08
   10.86000      1.4489194E-08
   10.92000      1.4362452E-08
   10.98000      1.4106365E-08
   11.04000      1.3743159E-08
   11.10000      1.3298489E-08
   11.16000      1.2795972E-08
   11.22000      1.2253557E-08
   11.28000      1.1682047E-08
   11.34000      1.1085493E-08
   11.40000      1.0462825E-08
   11.46000      9.8101012E-09
   11.52000      9.1229033E-09
   11.58000      8.3985991E-09
   11.64000      7.6382571E-09
   11.70000      6.8480031E-09
   11.76000      6.0394423E-09
   11.82000      5.2288072E-09
   11.88000      4.4346251E-09
   11.94000      3.6740839E-09
   12.00000      2.9588336E-09
   12.06000      2.2913791E-09
   12.12000      1.6634258E-09
   12.18000      1.0572279E-09
   12.24000      4.5024634E-10
   12.30000     -1.7759734E-10
   12.36000     -8.3580554E-10
   12.42000     -1.5166851E-09
   12.48000     -2.1925863E-09
   12.54000     -2.8186089E-09
   12.60000     -3.3409864E-09
   12.66000     -3.7096226E-09
   12.72000     -3.8916634E-09
   12.78000     -3.8820933E-09
   12.84000     -3.7076486E-09
   12.90000     -3.4219478E-09
   12.96000     -3.0923881E-09
   13.02000     -2.7822258E-09
   13.08000     -2.5332740E-09
   13.14000     -2.3549145E-09
   13.20000     -2.2233058E-09
   13.26000     -2.0912732E-09
   13.32000     -1.9056359E-09
   13.38000     -1.6261020E-09
   13.44000     -1.2393694E-09
   13.50000     -7.6391454E-10
   13.56000     -2.4433186E-10
   13.62000      2.6232422E-10
   13.68000      7.0327710E-10
   13.74000      1.0443448E-09
   13.80000      1.2776229E-09
   13.86000      1.4207908E-09
   13.92000      1.5089926E-09
   13.98000      1.5823137E-09
   14.04000      1.6728102E-09
   14.10000      1.7947708E-09
   14.16000      1.9406621E-09
   14.22000      2.0834638E-09
   14.28000      2.1843654E-09
   14.34000      2.2035347E-09
   14.40000      2.1111373E-09
   14.46000      1.8960260E-09
   14.52000      1.5703071E-09
   14.58000      1.1690241E-09
   14.64000      7.4515000E-10
   14.70000      3.6086384E-10
   14.76000      7.6686102E-11
   14.82000     -5.9489559E-11
   14.88000     -2.1184920E-11
   14.94000      1.9216811E-10
   15.00000      5.5636423E-10
   15.06000      1.0291631E-09
   15.12000      1.5610049E-09
   15.18000      2.1068514E-09
   15.24000      2.6359641E-09
   15.30000      3.1371989E-09
   15.36000      3.6189343E-09
   15.42000      4.1044226E-09
   15.48000      4.6244963E-09
   15.54000      5.2098477E-09
   15.60000      5.8846301E-09
   15.66000      6.6623365E-09
   15.72000      7.5441990E-09
   15.78000      8.5199199E-09
   15.84000      9.5703001E-09
   15.90000      1.0671161E-08
   15.96000      1.1797671E-08
   16.02000      1.2928061E-08
   16.08000      1.4045738E-08
   16.14000      1.5139392E-08
   16.20000      1.6201403E-08
   16.26000      1.7225551E-08
   16.32000      1.8205363E-08
   16.38000      1.9133957E-08
   16.44000      2.0005542E-08
   16.50000      2.0817682E-08
   16.56000      2.1573047E-08
   16.62000      2.2279472E-08
   16.68000      2.2947862E-08
   16.74000      2.3588514E-08
   16.80000      2.4207171E-08
   16.86000      2.4802210E-08
   16.92000      2.5364022E-08
   16.98000      2.5876632E-08
   17.04000      2.6320789E-08
   17.10000      2.6677339E-08
   17.16000      2.6929751E-08
   17.22000      2.7065372E-08
   17.28000      2.7075647E-08
   17.34000      2.6956020E-08
   17.40000      2.6706163E-08
   17.46000      2.6330651E-08
   17.52000      2.5839620E-08
   17.58000      2.5248610E-08
   17.64000      2.4576952E-08
   17.70000      2.3844779E-08
   17.76000      2.3069452E-08
   17.82000      2.2262718E-08
   17.88000      2.1429814E-08
   17.94000      2.0570988E-08
   18.00000      1.9684935E-08
   18.06000      1.8772710E-08
   18.12000      1.7840449E-08
   18.18000      1.6899588E-08
   18.24000      1.5964336E-08
   18.30000      1.5047410E-08
   18.36000      1.4155770E-08
   18.42000      1.3288329E-08
   18.48000      1.2436718E-08
   18.54000      1.1588957E-08
   18.60000      1.0734559E-08
   18.66000      9.8690798E-09
   18.72000      8.9963672E-09
   18.78000      8.1279401E-09
   18.84000      7.2801476E-09
   18.90000      6.4705539E-09
   18.96000      5.7149205E-09
   19.02000      5.0253899E-09
   19.08000      4.4096029E-09
   19.14000      3.8700607E-09
   19.20000      3.4033640E-09
   19.26000      2.9997091E-09
   19.32000      2.6436109E-09
   19.38000      2.3166913E-09
   19.44000      2.0024460E-09
   19.50000      1.6916729E-09
   19.56000      1.3864283E-09
   19.62000      1.1005493E-09
   19.68000      8.5595886E-10
   19.74000      6.7562050E-10
   19.80000      5.7537203E-10
   19.86000      5.5732158E-10
   19.92000      6.0693200E-10
   19.98000      6.9466616E-10
   20.04000      7.8167872E-10
   20.10000      8.2799229E-10
   20.16000      8.0110130E-10
   20.22000      6.8298861E-10
   20.28000      4.7399068E-10
   20.34000      1.9267006E-10
   20.40000     -1.2825527E-10
   20.46000     -4.4897833E-10
   20.52000     -7.3100792E-10
   20.58000     -9.4496411E-10
   20.64000     -1.0760416E-09
   20.70000     -1.1261023E-09
   20.76000     -1.1122495E-09
   20.82000     -1.0625395E-09
   20.88000     -1.0100069E-09
   20.94000     -9.8634756E-10
   21.00000     -1.0165258E-09
   21.06000     -1.1153082E-09
   21.12000     -1.2863675E-09
   21.18000     -1.5241111E-09
   21.24000     -1.8178126E-09
   21.30000     -2.1570730E-09
   21.36000     -2.5372828E-09
   21.42000     -2.9637730E-09
   21.48000     -3.4537588E-09
   21.54000     -4.0358370E-09
   21.60000     -4.7474296E-09
   21.66000     -5.6309370E-09
   21.72000     -6.7293731E-09
   21.78000     -8.0820559E-09
   21.84000     -9.7206927E-09
   21.90000     -1.1666120E-08
   21.96000     -1.3926039E-08
   22.02000     -1.6494162E-08
   22.08000     -1.9351047E-08
   22.14000     -2.2466530E-08
   22.20000     -2.5803129E-08
   22.26000     -2.9319333E-08
   22.32000     -3.2971776E-08
   22.38000     -3.6715619E-08
   22.44000     -4.0503249E-08
   22.50000     -4.4282096E-08
   22.56000     -4.7992696E-08
   22.62000     -5.1567916E-08
   22.68000     -5.4933981E-08
   22.74000     -5.8013260E-08
   22.80000     -6.0728517E-08
   22.86000     -6.3008123E-08
   22.92000     -6.4791671E-08
   22.98000     -6.6035241E-08
   23.04000     -6.6715465E-08
   23.10000     -6.6831333E-08
   23.16000     -6.6403167E-08
   23.22000     -6.5468768E-08
   23.28000     -6.4077817E-08
   23.34000     -6.2286219E-08
   23.40000     -6.0152033E-08
   23.46000     -5.7734102E-08
   23.52000     -5.5093007E-08
   23.58000     -5.2293110E-08
   23.64000     -4.9403955E-08
   23.70000     -4.6499615E-08
   23.76000     -4.3655547E-08
   23.82000     -4.0943384E-08
   23.88000     -3.8424819E-08
   23.94000     -3.6145693E-08
   24.00000     -3.4131361E-08
   24.06000     -3.2384126E-08
   24.12000     -3.0883299E-08
   24.18000     -2.9588339E-08
   24.24000     -2.8445017E-08
   24.30000     -2.7393947E-08
   24.36000     -2.6380048E-08
   24.42000     -2.5361098E-08
   24.48000     -2.4313604E-08
   24.54000     -2.3234882E-08
   24.60000     -2.2141206E-08
   24.66000     -2.1062698E-08
   24.72000     -2.0036119E-08
   24.78000     -1.9096893E-08
   24.84000     -1.8271548E-08
   24.90000     -1.7571704E-08
   24.96000     -1.6990706E-08
   25.02000     -1.6503609E-08
   25.08000     -1.6070826E-08
   25.14000     -1.5644746E-08
   25.20000     -1.5177884E-08
   25.26000     -1.4630710E-08
   25.32000     -1.3977497E-08
   25.38000     -1.3209410E-08
   25.44000     -1.2335065E-08
   25.50000     -1.1379465E-08
   25.56000     -1.0382334E-08
   25.62000     -9.3962749E-09
   25.68000     -8.4845135E-09
   25.74000     -7.7174516E-09
   25.80000     -7.1673174E-09
   25.86000     -6.9008070E-09
   25.92000     -6.9704780E-09
   25.98000     -7.4064235E-09
   26.04000     -8.2101108E-09
   26.10000     -9.3521022E-09
   26.16000     -1.0774669E-08
   26.22000     -1.2399296E-08
   26.28000     -1.4137902E-08
   26.34000     -1.5905693E-08
   26.40000     -1.7632905E-08
   26.46000     -1.9272948E-08
   26.52000     -2.0805146E-08
   26.58000     -2.2231731E-08
   26.64000     -2.3570225E-08
   26.70000     -2.4843573E-08
   26.76000     -2.6070870E-08
   26.82000     -2.7261118E-08
   26.88000     -2.8411252E-08
   26.94000     -2.9508259E-08
   27.00000     -3.0533936E-08
   27.06000     -3.1470250E-08
   27.12000     -3.2303436E-08
   27.18000     -3.3025820E-08
   27.24000     -3.3635317E-08
   27.30000     -3.4133475E-08
   27.36000     -3.4523215E-08
   27.42000     -3.4807236E-08
   27.48000     -3.4987487E-08
   27.54000     -3.5065614E-08
   27.60000     -3.5043925E-08
   27.66000     -3.4926437E-08
   27.72000     -3.4719800E-08
   27.78000     -3.4433999E-08
   27.84000     -3.4082714E-08
   27.90000     -3.3682909E-08
   27.96000     -3.3253226E-08
   28.02000     -3.2810664E-08
   28.08000     -3.2365858E-08
   28.14000     -3.1917999E-08
   28.20000     -3.1451243E-08
   28.26000     -3.0934423E-08
   28.32000     -3.0325257E-08
   28.38000     -2.9578610E-08
   28.44000     -2.8656819E-08
   28.50000     -2.7539196E-08
   28.56000     -2.6227797E-08
   28.62000     -2.4747887E-08
   28.68000     -2.3143352E-08
   28.74000     -2.1468859E-08
   28.80000     -1.9781467E-08
   28.86000     -1.8133939E-08
   28.92000     -1.6570922E-08
   28.98000     -1.5127851E-08
   29.04000     -1.3831511E-08
   29.10000     -1.2701084E-08
   29.16000     -1.1748878E-08
   29.22000     -1.0980552E-08
   29.28000     -1.0394966E-08
   29.34000     -9.9837729E-09
   29.40000     -9.7306714E-09
   29.46000     -9.6101651E-09
   29.52000     -9.5859773E-09
   29.58000     -9.6098756E-09
   29.64000     -9.6221262E-09
   29.70000     -9.5548360E-09
   29.76000     -9.3386943E-09
   29.82000     -8.9123837E-09
   29.88000     -8.2326057E-09
   29.94000     -7.2819666E-09
   30.00000     -6.0722107E-09
   30.06000     -4.6415951E-09
   30.12000     -3.0469787E-09
   30.18000     -1.3529129E-09
   30.24000      3.7915335E-10
   30.30000      2.0986752E-09
   30.36000      3.7692067E-09
   30.42000      5.3670828E-09
   30.48000      6.8771473E-09
   30.54000      8.2877945E-09
   30.60000      9.5873247E-09
   30.66000      1.0762709E-08
   30.72000      1.1800644E-08
   30.78000      1.2690034E-08
   30.84000      1.3424679E-08
   30.90000      1.4005238E-08
   30.96000      1.4439942E-08
   31.02000      1.4743955E-08
   31.08000      1.4937447E-08
   31.14000      1.5042639E-08
   31.20000      1.5080209E-08
   31.26000      1.5065833E-08
   31.32000      1.5007828E-08
   31.38000      1.4906851E-08
   31.44000      1.4758021E-08
   31.50000      1.4554918E-08
   31.56000      1.4293984E-08
   31.62000      1.3977489E-08
   31.68000      1.3613608E-08
   31.74000      1.3213261E-08
   31.80000      1.2784747E-08
   31.86000      1.2328179E-08
   31.92000      1.1831947E-08
   31.98000      1.1272768E-08
   32.04000      1.0619670E-08
   32.10000      9.8408810E-09
   32.16000      8.9116057E-09
   32.22000      7.8204110E-09
   32.28000      6.5723271E-09
   32.34000      5.1878852E-09
   32.40000      3.6985763E-09
   32.46000      2.1403854E-09
   32.52000      5.4750149E-10
   32.58000     -1.0520169E-09
   32.64000     -2.6378915E-09
   32.70000     -4.1971009E-09
   32.76000     -5.7224887E-09
   32.82000     -7.2117765E-09
   32.88000     -8.6674490E-09
   32.94000     -1.0096944E-08
   33.00000     -1.1512014E-08
   33.06000     -1.2926494E-08
   33.12000     -1.4352696E-08
   33.18000     -1.5797799E-08
   33.24000     -1.7261895E-08
   33.30000     -1.8738739E-08
   33.36000     -2.0218790E-08
   33.42000     -2.1692944E-08
   33.48000     -2.3154939E-08
   33.54000     -2.4601322E-08
   33.60000     -2.6029296E-08
   33.66000     -2.7434069E-08
   33.72000     -2.8807600E-08
   33.78000     -3.0139763E-08
   33.84000     -3.1421401E-08
   33.90000     -3.2647534E-08
   33.96000     -3.3818726E-08
   34.02000     -3.4939589E-08
   34.08000     -3.6014882E-08
   34.14000     -3.7045194E-08
   34.20000     -3.8024563E-08
   34.26000     -3.8941682E-08
   34.32000     -3.9784730E-08
   34.38000     -4.0548194E-08
   34.44000     -4.1238714E-08
   34.50000     -4.1877318E-08
   34.56000     -4.2496513E-08
   34.62000     -4.3132804E-08
   34.68000     -4.3817177E-08
   34.74000     -4.4566953E-08
   34.80000     -4.5381928E-08
   34.86000     -4.6245958E-08
   34.92000     -4.7132922E-08
   34.98000     -4.8014204E-08
   35.04000     -4.8864816E-08
   35.10000     -4.9666113E-08
   35.16000     -5.0405244E-08
   35.22000     -5.1072895E-08
   35.28000     -5.1661296E-08
   35.34000     -5.2163852E-08
   35.40000     -5.2576180E-08
   35.46000     -5.2897438E-08
   35.52000     -5.3130670E-08
   35.58000     -5.3281845E-08
   35.64000     -5.3358090E-08
   35.70000     -5.3366296E-08
   35.76000     -5.3312728E-08
   35.82000     -5.3203390E-08
   35.88000     -5.3044189E-08
   35.94000     -5.2840139E-08
   36.00000     -5.2593659E-08
   36.06000     -5.2303228E-08
   36.12000     -5.1963859E-08
   36.18000     -5.1570140E-08
   36.24000     -5.1120971E-08
   36.30000     -5.0623814E-08
   36.36000     -5.0095998E-08
   36.42000     -4.9561816E-08
   36.48000     -4.9046275E-08
   36.54000     -4.8568065E-08
   36.60000     -4.8134968E-08
   36.66000     -4.7743715E-08
   36.72000     -4.7384152E-08
   36.78000     -4.7045624E-08
   36.84000     -4.6722384E-08
   36.90000     -4.6415515E-08
   36.96000     -4.6130729E-08
   37.02000     -4.5873307E-08
   37.08000     -4.5642864E-08
   37.14000     -4.5430539E-08
   37.20000     -4.5220148E-08
   37.26000     -4.4992717E-08
   37.32000     -4.4732754E-08
   37.38000     -4.4433545E-08
   37.44000     -4.4099661E-08
   37.50000     -4.3745953E-08
   37.56000     -4.3393882E-08
   37.62000     -4.3066901E-08
   37.68000     -4.2786578E-08
   37.74000     -4.2570349E-08
   37.80000     -4.2430806E-08
   37.86000     -4.2375611E-08
   37.92000     -4.2407390E-08
   37.98000     -4.2523464E-08
   38.04000     -4.2716071E-08
   38.10000     -4.2973873E-08
   38.16000     -4.3284903E-08
   38.22000     -4.3640107E-08
   38.28000     -4.4035815E-08
   38.34000     -4.4473612E-08
   38.40000     -4.4957261E-08
   38.46000     -4.5487951E-08
   38.52000     -4.6060251E-08
   38.58000     -4.6661093E-08
   38.64000     -4.7272668E-08
   38.70000     -4.7878249E-08
   38.76000     -4.8468312E-08
   38.82000     -4.9044242E-08
   38.88000     -4.9617867E-08
   38.94000     -5.0207010E-08
   39.00000     -5.0828859E-08
   39.06000     -5.1493469E-08
   39.12000     -5.2199365E-08
   39.18000     -5.2932048E-08
   39.24000     -5.3665349E-08
   39.30000     -5.4364943E-08
   39.36000     -5.4993393E-08
   39.42000     -5.5516097E-08
   39.48000     -5.5907364E-08
   39.54000     -5.6155322E-08
   39.60000     -5.6264085E-08
   39.66000     -5.6251839E-08
   39.72000     -5.6144643E-08
   39.78000     -5.5967373E-08
   39.84000     -5.5734734E-08
   39.90000     -5.5445899E-08
   39.96000     -5.5085327E-08
   40.02000     -5.4630068E-08
   40.08000     -5.4061193E-08
   40.14000     -5.3374929E-08
   40.20000     -5.2588724E-08
   40.26000     -5.1739292E-08
   40.32000     -5.0872728E-08
   40.38000     -5.0030259E-08
   40.44000     -4.9235094E-08
   40.50000     -4.8485571E-08
   40.56000     -4.7757204E-08
   40.62000     -4.7012438E-08
   40.68000     -4.6213845E-08
   40.74000     -4.5335369E-08
   40.80000     -4.4367482E-08
   40.86000     -4.3315364E-08
   40.92000     -4.2192177E-08
   40.98000     -4.1011457E-08
   41.04000     -3.9782222E-08
   41.10000     -3.8508414E-08
   41.16000     -3.7192002E-08
   41.22000     -3.5837342E-08
   41.28000     -3.4454491E-08
   41.34000     -3.3060061E-08
   41.40000     -3.1675718E-08
   41.46000     -3.0325200E-08
   41.52000     -2.9030888E-08
   41.58000     -2.7810630E-08
   41.64000     -2.6675176E-08
   41.70000     -2.5626413E-08
   41.76000     -2.4656925E-08
   41.82000     -2.3751403E-08
   41.88000     -2.2890028E-08
   41.94000     -2.2053348E-08
   42.00000     -2.1227267E-08
   42.06000     -2.0406663E-08
   42.12000     -1.9596335E-08
   42.18000     -1.8808979E-08
   42.24000     -1.8060854E-08
   42.30000     -1.7366576E-08
   42.36000     -1.6734649E-08
   42.42000     -1.6165190E-08
   42.48000     -1.5650560E-08
   42.54000     -1.5178882E-08
   42.60000     -1.4739547E-08
   42.66000     -1.4329091E-08
   42.72000     -1.3955460E-08
   42.78000     -1.3638981E-08
   42.84000     -1.3409168E-08
   42.90000     -1.3297811E-08
   42.96000     -1.3330165E-08
   43.02000     -1.3516714E-08
   43.08000     -1.3848059E-08
   43.14000     -1.4294503E-08
   43.20000     -1.4810626E-08
   43.26000     -1.5343682E-08
   43.32000     -1.5843820E-08
   43.38000     -1.6273656E-08
   43.44000     -1.6615060E-08
   43.50000     -1.6871756E-08
   43.56000     -1.7067320E-08
   43.62000     -1.7239300E-08
   43.68000     -1.7431132E-08
   43.74000     -1.7683998E-08
   43.80000     -1.8030690E-08
   43.86000     -1.8492768E-08
   43.92000     -1.9081298E-08
   43.98000     -1.9800281E-08
   44.04000     -2.0651404E-08
   44.10000     -2.1638641E-08
   44.16000     -2.2771800E-08
   44.22000     -2.4068745E-08
   44.28000     -2.5556577E-08
   44.34000     -2.7272231E-08
   44.40000     -2.9262845E-08
   44.46000     -3.1586140E-08
   44.52000     -3.4310847E-08
   44.58000     -3.7517463E-08
   44.64000     -4.1299455E-08
   44.70000     -4.5765248E-08
   44.76000     -5.1040921E-08
   44.82000     -5.7273375E-08
   44.88000     -6.4633632E-08
   44.94000     -7.3319768E-08
   45.00000     -8.3559762E-08
   45.06000     -9.5614418E-08
   45.12000     -1.0978125E-07
   45.18000     -1.2639954E-07
   45.24000     -1.4585670E-07
   45.30000     -1.6859546E-07
   45.36000     -1.9512134E-07
   45.42000     -2.2601033E-07
   45.48000     -2.6191708E-07
   45.54000     -3.0358478E-07
   45.60000     -3.5185724E-07
   45.66000     -4.0769379E-07
   45.72000     -4.7218657E-07
   45.78000     -5.4657829E-07
   45.84000     -6.3228009E-07
   45.90000     -7.3088717E-07
   45.96000     -8.4419327E-07
   46.02000     -9.7420377E-07
   46.08000     -1.1231480E-06
   46.14000     -1.2934918E-06
   46.20000     -1.4879516E-06
   46.26000     -1.7095091E-06
   46.32000     -1.9614283E-06
   46.38000     -2.2472755E-06
   46.44000     -2.5709417E-06
   46.50000     -2.9366686E-06
   46.56000     -3.3490755E-06
   46.62000     -3.8131859E-06
   46.68000     -4.3344498E-06
   46.74000     -4.9187661E-06
   46.80000     -5.5724936E-06
   46.86000     -6.3024640E-06
   46.92000     -7.1159839E-06
   46.98000     -8.0208310E-06
   47.04000     -9.0252406E-06
   47.10000     -1.0137900E-05
   47.16000     -1.1367924E-05
   47.22000     -1.2724847E-05
   47.28000     -1.4218596E-05
   47.34000     -1.5859487E-05
   47.40000     -1.7658193E-05
   47.46000     -1.9625721E-05
   47.52000     -2.1773367E-05
   47.58000     -2.4112656E-05
   47.64000     -2.6655292E-05
   47.70000     -2.9413073E-05
   47.76000     -3.2397824E-05
   47.82000     -3.5621277E-05
   47.88000     -3.9095012E-05
   47.94000     -4.2830303E-05
   48.00000     -4.6838042E-05
   48.06000     -5.1128616E-05
   48.12000     -5.5711778E-05
   48.18000     -6.0596551E-05
   48.24000     -6.5791093E-05
   48.30000     -7.1302580E-05
   48.36000     -7.7137061E-05
   48.42000     -8.3299332E-05
   48.48000     -8.9792811E-05
   48.54000     -9.6619406E-05
   48.60000     -1.0377937E-04
   48.66000     -1.1127125E-04
   48.72000     -1.1909172E-04
   48.78000     -1.2723556E-04
   48.84000     -1.3569555E-04
   48.90000     -1.4446239E-04
   48.96000     -1.5352473E-04
   49.02000     -1.6286910E-04
   49.08000     -1.7247985E-04
   49.14000     -1.8233928E-04
   49.20000     -1.9242753E-04
   49.26000     -2.0272275E-04
   49.32000     -2.1320111E-04
   49.38000     -2.2383696E-04
   49.44000     -2.3460292E-04
   49.50000     -2.4547009E-04
   49.56000     -2.5640818E-04
   49.62000     -2.6738580E-04
   49.68000     -2.7837060E-04
   49.74000     -2.8932947E-04
   49.80000     -3.0022889E-04
   49.86000     -3.1103514E-04
   49.92000     -3.2171461E-04
   49.98000     -3.3223425E-04
   50.04000     -3.4256160E-04
   50.10000     -3.5266535E-04
   50.16000     -3.6251536E-04
   50.22000     -3.7208322E-04
   50.28000     -3.8134240E-04
   50.34000     -3.9026854E-04
   50.40000     -3.9883979E-04
   50.46000     -4.0703695E-04
   50.52000     -4.1484358E-04
   50.58000     -4.2224643E-04
   50.64000     -4.2923537E-04
   50.70000     -4.3580358E-04
   50.76000     -4.4194775E-04
   50.82000     -4.4766808E-04
   50.88000     -4.5296826E-04
   50.94000     -4.5785547E-04
   51.00000     -4.6234019E-04
   51.06000     -4.6643603E-04
   51.12000     -4.7015969E-04
   51.18000     -4.7353064E-04
   51.24000     -4.7657092E-04
   51.30000     -4.7930499E-04
   51.36000     -4.8175952E-04
   51.42000     -4.8396297E-04
   51.48000     -4.8594517E-04
   51.54000     -4.8773689E-04
   51.60000     -4.8936938E-04
   51.66000     -4.9087405E-04
   51.72000     -4.9228210E-04
   51.78000     -4.9362401E-04
   51.84000     -4.9492938E-04
   51.90000     -4.9622654E-04
   51.96000     -4.9754197E-04
   52.02000     -4.9889984E-04
   52.08000     -5.0032191E-04
   52.14000     -5.0182716E-04
   52.20000     -5.0343160E-04
   52.26000     -5.0514826E-04
   52.32000     -5.0698692E-04
   52.38000     -5.0895382E-04
   52.44000     -5.1105162E-04
   52.50000     -5.1327929E-04
   52.56000     -5.1563221E-04
   52.62000     -5.1810220E-04
   52.68000     -5.2067812E-04
   52.74000     -5.2334560E-04
   52.80000     -5.2608748E-04
   52.86000     -5.2888395E-04
   52.92000     -5.3171255E-04
   52.98000     -5.3454877E-04
   53.04000     -5.3736632E-04
   53.10000     -5.4013752E-04
   53.16000     -5.4283417E-04
   53.22000     -5.4542773E-04
   53.28000     -5.4788950E-04
   53.34000     -5.5019109E-04
   53.40000     -5.5230461E-04
   53.46000     -5.5420329E-04
   53.52000     -5.5586186E-04
   53.58000     -5.5725710E-04
   53.64000     -5.5836810E-04
   53.70000     -5.5917667E-04
   53.76000     -5.5966718E-04
   53.82000     -5.5982685E-04
   53.88000     -5.5964576E-04
   53.94000     -5.5911712E-04
   54.00000     -5.5823743E-04
   54.06000     -5.5700686E-04
   54.12000     -5.5542885E-04
   54.18000     -5.5351044E-04
   54.24000     -5.5126142E-04
   54.30000     -5.4869469E-04
   54.36000     -5.4582575E-04
   54.42000     -5.4267258E-04
   54.48000     -5.3925533E-04
   54.54000     -5.3559622E-04
   54.60000     -5.3171889E-04
   54.66000     -5.2764837E-04
   54.72000     -5.2341050E-04
   54.78000     -5.1903178E-04
   54.84000     -5.1453878E-04
   54.90000     -5.0995796E-04
   54.96000     -5.0531508E-04
   55.02000     -5.0063524E-04
   55.08000     -4.9594219E-04
   55.14000     -4.9125805E-04
   55.20000     -4.8660341E-04
   55.26000     -4.8199674E-04
   55.32000     -4.7745445E-04
   55.38000     -4.7299053E-04
   55.44000     -4.6861666E-04
   55.50000     -4.6434172E-04
   55.56000     -4.6017207E-04