 -0.750000000       0.00000000    
 -0.689999998       0.00000000    
 -0.629999995       0.00000000    
 -0.569999993       0.00000000    
 -0.509999990       0.00000000    
 -0.449999988       0.00000000    
 -0.389999986       0.00000000    
 -0.330000013       0.00000000    
 -0.270000011      -2.80852293E-26
 -0.209999993      -4.47258840E-25
 -0.150000006      -3.26268374E-24
  -9.00000036E-02  -1.43991112E-23
  -2.99999993E-02  -4.09739813E-23
   2.99999993E-02  -6.54869662E-23
   9.00000036E-02   2.24671546E-23
  0.150000006       5.04309462E-22
  0.209999993       1.75141177E-21
  0.270000011       3.67412383E-21
  0.330000013       4.51482287E-21
  0.389999986      -4.56260386E-22
  0.449999988      -1.84221491E-20
  0.509999990      -5.37295264E-20
  0.569999993      -9.61963554E-20
  0.629999995      -1.06958389E-19
  0.689999998      -1.49257714E-20
  0.750000000       2.56205469E-19
  0.810000002       7.16340582E-19
  0.870000005       1.20665468E-18
  0.930000007       1.32747030E-18
  0.990000010       4.98583424E-19
   1.04999995      -1.75479646E-18
   1.11000001      -5.29850500E-18
   1.16999996      -8.86778893E-18
   1.23000002      -9.92708221E-18
   1.28999996      -5.36053403E-18
   1.35000002       6.82136395E-18
   1.40999997       2.51888226E-17
   1.47000003       4.31965925E-17
   1.52999997       4.96883688E-17
   1.59000003       3.27574375E-17
   1.64999998      -1.34289613E-17
   1.71000004      -8.14490934E-17
   1.76999998      -1.47412664E-16
   1.83000004      -1.75802879E-16
   1.88999999      -1.33443675E-16
   1.95000005      -8.52497551E-18
   2.00999999       1.74216638E-16
   2.06999993       3.52341751E-16
   2.13000011       4.44258193E-16
   2.19000006       3.83613784E-16
   2.25000000       1.55341396E-16
   2.30999994      -1.85754550E-16
   2.36999989      -5.27857804E-16
   2.43000007      -7.45665867E-16
   2.49000001      -7.56029633E-16
   2.54999995      -5.56630666E-16
   2.60999990      -2.23564606E-16
   2.67000008       1.35427360E-16
   2.73000002       4.47958456E-16
   2.78999996       7.21887376E-16
   2.84999990       1.03032865E-15
   2.91000009       1.42931844E-15
   2.97000003       1.84493771E-15
   3.02999997       2.00203458E-15
   3.08999991       1.46937876E-15
   3.15000010      -1.45871488E-16
   3.21000004      -2.89951999E-15
   3.26999998      -6.23644736E-15
   3.32999992      -8.91684713E-15
   3.39000010      -9.28735035E-15
   3.45000005      -5.91889471E-15
   3.50999999       1.55591609E-15
   3.56999993       1.17557289E-14
   3.63000011       2.14380702E-14
   3.69000006       2.62644317E-14
   3.75000000       2.24092375E-14
   3.80999994       8.52310386E-15
   3.86999989      -1.28102764E-14
   3.93000007      -3.50299420E-14
   3.99000001      -4.94436611E-14
   4.05000019      -4.86083511E-14
   4.11000013      -2.99803619E-14
   4.17000008       1.92634859E-15
   4.23000002       3.63178963E-14
   4.28999996       6.00856306E-14
   4.34999990       6.35780084E-14
   4.40999985       4.55329032E-14
   4.46999979       1.44323911E-14
   4.53000021      -1.50452211E-14
   4.59000015      -2.93494680E-14
   4.65000010      -2.37121825E-14
   4.71000004      -5.85686734E-15
   4.76999998       7.06919679E-15
   4.82999992      -2.17514884E-15
   4.88999987      -3.95574381E-14
   4.94999981      -9.26094054E-14
   5.01000023      -1.32565766E-13
   5.07000017      -1.26642484E-13
   5.13000011      -5.57557642E-14
   5.19000006       7.09689536E-14
   5.25000000       2.13448671E-13
   5.30999994       3.13434093E-13
   5.36999989       3.19021665E-13
   5.42999983       2.10311193E-13
   5.48999977       1.34494661E-14
   5.55000019      -2.05515360E-13
   5.61000013      -3.66353486E-13
   5.67000008      -4.09330501E-13
   5.73000002      -3.22540063E-13
   5.78999996      -1.47698653E-13
   5.84999990       4.00958258E-14
   5.90999985       1.70054671E-13
   5.96999979       2.12226233E-13
   6.03000021       1.92882155E-13
   6.09000015       1.77849855E-13
   6.15000010       2.28932812E-13
   6.21000004       3.54152796E-13
   6.26999998       4.79525599E-13
   6.32999992       4.63659764E-13
   6.38999987       1.58002978E-13
   6.44999981      -5.07419410E-13
   6.51000023      -1.44977162E-12
   6.57000017      -2.40948212E-12
   6.63000011      -2.99945810E-12
   6.69000006      -2.82184866E-12
   6.75000000      -1.61733582E-12
   6.80999994       6.05793627E-13
   6.86999989       3.51324829E-12
   6.92999983       6.48520690E-12
   6.98999977       8.75008833E-12
   7.05000019       9.57390504E-12
   7.11000013       8.44918926E-12
   7.17000008       5.22927014E-12
   7.23000002       1.73542970E-13
   7.28999996      -6.10100208E-12
   7.34999990      -1.27383711E-11
   7.40999985      -1.87906513E-11
   7.46999979      -2.33487726E-11
   7.53000021      -2.56233333E-11
   7.59000015      -2.49630386E-11
   7.65000010      -2.08230950E-11
   7.71000004      -1.27165153E-11
   7.76999998      -1.90418509E-13
   7.82999992       1.71385163E-11
   7.88999987       3.94807520E-11
   7.94999981       6.67298578E-11
   8.01000023       9.83368803E-11
   8.06999969       1.33272990E-10
   8.13000011       1.70128883E-10
   8.18999958       2.07348014E-10
   8.25000000       2.43529974E-10
   8.31000042       2.77698947E-10
   8.36999989       3.09435422E-10
   8.43000031       3.38822831E-10
   8.48999977       3.66242592E-10
   8.55000019       3.92119920E-10
   8.60999966       4.16742280E-10
   8.67000008       4.40226439E-10
   8.72999954       4.62619582E-10
   8.78999996       4.84034091E-10
   8.85000038       5.04684017E-10
   8.90999985       5.24739141E-10
   8.97000027       5.44020995E-10
   9.02999973       5.61672930E-10
   9.09000015       5.75991144E-10
   9.14999962       5.84560900E-10
   9.21000004       5.84719273E-10
   9.27000046       5.74221448E-10
   9.32999992       5.51895307E-10
   9.39000034       5.18067700E-10
   9.44999981       4.74646544E-10
   9.51000023       4.24877550E-10
   9.56999969       3.72908843E-10
   9.63000011       3.23322868E-10
   9.68999958       2.80739515E-10
   9.75000000       2.49498061E-10
   9.81000042       2.33353059E-10
   9.86999989       2.35122005E-10
   9.93000031       2.56298177E-10
   9.98999977       2.96742242E-10
   10.0500002       3.54618557E-10
   10.1099997       4.26700869E-10
   10.1700001       5.09039033E-10
   10.2299995       5.97818017E-10
   10.2900000       6.90139612E-10
   10.3500004       7.84476484E-10
   10.4099998       8.80687689E-10
   10.4700003       9.79677228E-10
   10.5299997       1.08292397E-09
   10.5900002       1.19213117E-09
   10.6499996       1.30913447E-09
   10.7100000       1.43602341E-09
   10.7700005       1.57528934E-09
   10.8299999       1.72977910E-09
   10.8900003       1.90233718E-09
   10.9499998       2.09519069E-09
   11.0100002       2.30927899E-09
   11.0699997       2.54375854E-09
   11.1300001       2.79584267E-09
   11.1899996       3.06097481E-09
   11.2500000       3.33322236E-09
   11.3100004       3.60576258E-09
   11.3699999       3.87139210E-09
   11.4300003       4.12311740E-09
   11.4899998       4.35493108E-09
   11.5500002       4.56282612E-09
   11.6099997       4.74594364E-09
   11.6700001       4.90758723E-09
   11.7299995       5.05574427E-09
   11.7900000       5.20281596E-09
   11.8500004       5.36447287E-09
   11.9099998       5.55777113E-09
   11.9700003       5.79889736E-09
   12.0299997       6.10090112E-09
   12.0900002       6.47171339E-09
   12.1499996       6.91250124E-09
   12.2100000       7.41628314E-09
   12.2700005       7.96669486E-09
   12.3299999       8.53694182E-09
   12.3900003       9.08927245E-09
   12.4499998       9.57553947E-09
   12.5100002       9.93953186E-09
   12.5699997       1.01215569E-08
   12.6300001       1.00652997E-08
   12.6899996       9.72633885E-09
   12.7500000       9.08108255E-09
   12.8100004       8.13448331E-09
   12.8699999       6.92485802E-09
   12.9300003       5.52452661E-09
   12.9899998       4.03562739E-09
   13.0500002       2.58135313E-09
   13.1099997       1.29362565E-09
   13.1700001       2.98846836E-10
   13.2299995      -2.96309560E-10
   13.2900000      -4.17091833E-10
   13.3500004      -2.91678626E-11
   13.4099998       8.57726168E-10
   13.4700003       2.19143637E-09
   13.5299997       3.88403265E-09
   13.5900002       5.82242432E-09
   13.6499996       7.88139332E-09
   13.7100000       9.93721727E-09
   13.7700005       1.18800489E-08
   13.8299999       1.36235165E-08
   13.8900003       1.51104942E-08
   13.9499998       1.63146350E-08
   14.0100002       1.72379124E-08
   14.0699997       1.79049859E-08
   14.1300001       1.83556406E-08
   14.1899996       1.86366940E-08
   14.2500000       1.87945464E-08
   14.3100004       1.88692226E-08
   14.3699999       1.88902121E-08
   14.4300003       1.88740081E-08
   14.4899998       1.88231528E-08
   14.5500002       1.87266629E-08
   14.6099997       1.85619449E-08
   14.6700001       1.82984525E-08
   14.7299995       1.79031758E-08
   14.7900000       1.73475048E-08
   14.8500004       1.66144272E-08
   14.9099998       1.57044493E-08
   14.9700003       1.46385561E-08
   15.0299997       1.34569644E-08
   15.0900002       1.22134081E-08
   15.1499996       1.09657332E-08
   15.2100000       9.76466819E-09
   15.2700005       8.64317862E-09
   15.3299999       7.60888419E-09
   15.3900003       6.64148025E-09
   15.4499998       5.69611425E-09
   15.5100002       4.71234696E-09
   15.5699997       3.62702512E-09
   15.6300001       2.38831999E-09
   15.6899996       9.67798286E-10
   15.7500000      -6.32242148E-10
   15.8100004      -2.37776443E-09
   15.8699999      -4.20829016E-09
   15.9300003      -6.04690609E-09
   15.9899998      -7.81236142E-09
   16.0499992      -9.43046086E-09
   16.1100006      -1.08425979E-08
   16.1700001      -1.20103190E-08
   16.2299995      -1.29159936E-08
   16.2900009      -1.35603964E-08
   16.3500004      -1.39583394E-08
   16.4099998      -1.41334651E-08
   16.4699993      -1.41130618E-08
   16.5300007      -1.39235015E-08
   16.5900002      -1.35867664E-08
   16.6499996      -1.31182976E-08
   16.7099991      -1.25262600E-08
   16.7700005      -1.18120811E-08
   16.8299999      -1.09719247E-08
   16.8899994      -9.99866767E-09
   16.9500008      -8.88393892E-09
   17.0100002      -7.61994201E-09
   17.0699997      -6.20098239E-09
   17.1299992      -4.62480276E-09
   17.1900005      -2.89396951E-09
   17.2500000      -1.01749287E-09
   17.3099995       9.87332216E-10
   17.3700008       3.09320947E-09
   17.4300003       5.26194732E-09
   17.4899998       7.44525064E-09
   17.5499992       9.58788426E-09
   17.6100006       1.16332641E-08
   17.6700001       1.35307117E-08
   17.7299995       1.52427333E-08
   17.7900009       1.67503291E-08
   17.8500004       1.80545747E-08
   17.9099998       1.91736813E-08
   17.9699993       2.01360546E-08
   18.0300007       2.09711057E-08
   18.0900002       2.17003393E-08
   18.1499996       2.23312782E-08
   18.2099991       2.28560637E-08
   18.2700005       2.32552644E-08
   18.3299999       2.35059208E-08
   18.3899994       2.35914719E-08
   18.4500008       2.35103936E-08
   18.5100002       2.32804158E-08
   18.5699997       2.29362822E-08
   18.6299992       2.25210162E-08
   18.6900005       2.20728875E-08
   18.7500000       2.16121272E-08
   18.8099995       2.11320366E-08
   18.8700008       2.05980513E-08
   18.9300003       1.99558770E-08
   18.9899998       1.91467642E-08
   19.0499992       1.81254425E-08
   19.1100006       1.68751679E-08
   19.1700001       1.54151056E-08
   19.2299995       1.37976546E-08
   19.2900009       1.20963080E-08
   19.3500004       1.03874545E-08
   19.4099998       8.73114647E-09
   19.4699993       7.15610859E-09
   19.5300007       5.65306824E-09
   19.5900002       4.17829904E-09
   19.6499996       2.66666378E-09
   19.7099991       1.05094167E-09
   19.7700005      -7.17545690E-10
   19.8299999      -2.65257327E-09
   19.8899994      -4.72560790E-09
   19.9500008      -6.86979451E-09
   20.0100002      -8.99462904E-09
   20.0699997      -1.10074279E-08
   20.1299992      -1.28354811E-08
   20.1900005      -1.44422412E-08
   20.2500000      -1.58324163E-08
   20.3099995      -1.70440604E-08
   20.3700008      -1.81297324E-08
   20.4300003      -1.91323792E-08
   20.4899998      -2.00636450E-08
   20.5499992      -2.08919069E-08
   20.6100006      -2.15446949E-08
   20.6700001      -2.19257199E-08
   20.7299995      -2.19420286E-08
   20.7900009      -2.15331948E-08
   20.8500004      -2.06933830E-08
   20.9099998      -1.94790246E-08
   20.9699993      -1.79992199E-08
   21.0300007      -1.63914553E-08
   21.0900002      -1.47900003E-08
   21.1499996      -1.32966962E-08
   21.2099991      -1.19629329E-08
   21.2700005      -1.07878746E-08
   21.3299999      -9.73253478E-09
   21.3899994      -8.74421868E-09
   21.4500008      -7.78269893E-09
   21.5100002      -6.83927803E-09
   21.5699997      -5.94264993E-09
   21.6299992      -5.15006215E-09
   21.6900005      -4.52729410E-09
   21.7500000      -4.12456602E-09
   21.8099995      -3.95673938E-09
   21.8700008      -3.99455979E-09
   21.9300003      -4.16988533E-09
   21.9899998      -4.39309478E-09
   22.0499992      -4.57682114E-09
   22.1100006      -4.65810812E-09
   22.1700001      -4.61181315E-09
   22.2299995      -4.45125892E-09
   22.2900009      -4.21663859E-09
   22.3500004      -3.95592314E-09
   22.4099998      -3.70546149E-09
   22.4699993      -3.47729445E-09
   22.5300007      -3.25751226E-09
   22.5900002      -3.01583647E-09
   22.6499996      -2.72254264E-09
   22.7099991      -2.36632647E-09
   22.7700005      -1.96664485E-09
   22.8299999      -1.57630842E-09
   22.8899994      -1.27376443E-09
   22.9500008      -1.14814569E-09
   23.0100002      -1.28241207E-09
   23.0699997      -1.74003811E-09
   23.1299992      -2.55879695E-09
   23.1900005      -3.75214393E-09
   23.2500000      -5.31580735E-09
   23.3099995      -7.23554150E-09
   23.3700008      -9.49218570E-09
   23.4300003      -1.20618822E-08
   23.4899998      -1.49118264E-08
   23.5499992      -1.79940827E-08
   23.6100006      -2.12410196E-08
   23.6700001      -2.45654643E-08
   23.7299995      -2.78670651E-08
   23.7900009      -3.10441699E-08
   23.8500004      -3.40085045E-08
   23.9099998      -3.66988466E-08
   23.9699993      -3.90898016E-08
   24.0300007      -4.11931111E-08
   24.0900002      -4.30506581E-08
   24.1499996      -4.47208244E-08
   24.2099991      -4.62616683E-08
   24.2700005      -4.77154956E-08
   24.3299999      -4.90990182E-08
   24.3899994      -5.04018125E-08
   24.4500008      -5.15930978E-08
   24.5100002      -5.26345758E-08
   24.5699997      -5.34950928E-08
   24.6299992      -5.41626086E-08
   24.6900005      -5.46500125E-08
   24.7500000      -5.49933858E-08
   24.8099995      -5.52437172E-08
   24.8700008      -5.54547199E-08
   24.9300003      -5.56702204E-08
   24.9899998      -5.59141782E-08
   25.0499992      -5.61852929E-08
   25.1100006      -5.64567841E-08
   25.1700001      -5.66808076E-08
   25.2299995      -5.67961713E-08
   25.2900009      -5.67377789E-08
   25.3500004      -5.64463356E-08
   25.4099998      -5.58770097E-08
   25.4699993      -5.50061081E-08
   25.5300007      -5.38351941E-08
   25.5900002      -5.23920107E-08
   25.6499996      -5.07281719E-08
   25.7099991      -4.89133605E-08
   25.7700005      -4.70265711E-08
   25.8299999      -4.51453204E-08
   25.8899994      -4.33345662E-08
   25.9500008      -4.16376977E-08
   26.0100002      -4.00718783E-08
   26.0699997      -3.86294943E-08
   26.1299992      -3.72858118E-08
   26.1900005      -3.60112082E-08
   26.2500000      -3.47847724E-08
   26.3099995      -3.36054704E-08
   26.3700008      -3.24976632E-08
   26.4300003      -3.15093978E-08
   26.4899998      -3.07041077E-08
   26.5499992      -3.01481293E-08
   26.6100006      -2.98975813E-08
   26.6700001      -2.99880440E-08
   26.7299995      -3.04296037E-08
   26.7900009      -3.12082484E-08
   26.8500004      -3.22930269E-08
   26.9099998      -3.36466606E-08
   26.9699993      -3.52365923E-08
   27.0300007      -3.70429341E-08
   27.0900002      -3.90607617E-08
   27.1499996      -4.12957668E-08
   27.2099991      -4.37545822E-08
   27.2700005      -4.64329766E-08
   27.3299999      -4.93062693E-08
   27.3899994      -5.23254577E-08
   27.4500008      -5.54209194E-08
   27.5100002      -5.85124660E-08
   27.5699997      -6.15225204E-08
   27.6299992      -6.43880611E-08
   27.6900005      -6.70678020E-08
   27.7500000      -6.95429847E-08
   27.8099995      -7.18125790E-08
   27.8700008      -7.38854311E-08
   27.9300003      -7.57724692E-08
   27.9899998      -7.74813032E-08
   28.0499992      -7.90142209E-08
   28.1100006      -8.03690341E-08
   28.1700001      -8.15410246E-08
   28.2299995      -8.25244371E-08
   28.2900009      -8.33123082E-08
   28.3500004      -8.38944274E-08
   28.4099998      -8.42549355E-08
   28.4699993      -8.43710950E-08
   28.5300007      -8.42152161E-08
   28.5900002      -8.37603125E-08
   28.6499996      -8.29886702E-08
   28.7099991      -8.19006303E-08
   28.7700005      -8.05202376E-08
   28.8299999      -7.88947645E-08
   28.8899994      -7.70871154E-08
   28.9500008      -7.51626530E-08
   29.0100002      -7.31746113E-08
   29.0699997      -7.11530177E-08
   29.1299992      -6.91014677E-08
   29.1900005      -6.70030644E-08
   29.2500000      -6.48335998E-08
   29.3099995      -6.25771150E-08
   29.3700008      -6.02377241E-08
   29.4300003      -5.78429429E-08
   29.4899998      -5.54371269E-08
   29.5499992      -5.30671187E-08
   29.6100006      -5.07657809E-08
   29.6700001      -4.85397820E-08
   29.7299995      -4.63666474E-08
   29.7900009      -4.42025403E-08
   29.8500004      -4.19981951E-08
   29.9099998      -3.97174418E-08
   29.9699993      -3.73516826E-08
   30.0300007      -3.49254314E-08
   30.0900002      -3.24910054E-08
   30.1499996      -3.01144247E-08
   30.2099991      -2.78571175E-08
   30.2700005      -2.57593644E-08
   30.3299999      -2.38303954E-08
   30.3899994      -2.20478960E-08
   30.4500008      -2.03667572E-08
   30.5100002      -1.87342586E-08
   30.5699997      -1.71071157E-08
   30.6299992      -1.54653748E-08
   30.6900005      -1.38191396E-08
   30.7500000      -1.22062298E-08
   30.8099995      -1.06816156E-08
   30.8700008      -9.30203381E-09
   30.9300003      -8.11066858E-09
   30.9899998      -7.12663084E-09
   31.0499992      -6.34224229E-09
   31.1100006      -5.72833248E-09
   31.1700001      -5.24502974E-09
   31.2299995      -4.85377027E-09
   31.2900009      -4.52620785E-09
   31.3500004      -4.24721058E-09
   31.4099998      -4.01158040E-09
   31.4699993      -3.81657284E-09
   31.5300007      -3.65381259E-09
   31.5900002      -3.50437324E-09
   31.6499996      -3.33948447E-09
   31.7099991      -3.12716275E-09
   31.7700005      -2.84264368E-09
   31.8299999      -2.47872411E-09
   31.8899994      -2.05167039E-09
   31.9500008      -1.59949909E-09
   32.0099983      -1.17200760E-09
   32.0699997      -8.15068901E-10
   32.1300011      -5.54346125E-10
   32.1899986      -3.84542981E-10
   32.2500000      -2.69004929E-10
   32.3100014      -1.51140545E-10
   32.3699989       2.52197031E-11
   32.4300003       2.93133073E-10
   32.4900017       6.45750564E-10
   32.5499992       1.03231124E-09
   32.6100006       1.36980516E-09
   32.6699982       1.56773095E-09
   32.7299995       1.55839119E-09
   32.7900009       1.32250333E-09
   32.8499985       9.00669428E-10
   32.9099998       3.85429327E-10
   32.9700012      -1.05004609E-10
   33.0299988      -4.63769523E-10
   33.0900002      -6.31282804E-10
   33.1500015      -6.17793039E-10
   33.2099991      -5.04076225E-10
   33.2700005      -4.18800633E-10
   33.3300018      -4.98969255E-10
   33.3899994      -8.45894521E-10
   33.4500008      -1.49114854E-09
   33.5099983      -2.38404052E-09
   33.5699997      -3.40527673E-09
   33.6300011      -4.40288250E-09
   33.6899986      -5.23908650E-09
   33.7500000      -5.83322635E-09
   33.8100014      -6.18695450E-09
   33.8699989      -6.38370823E-09
   33.9300003      -6.56260202E-09
   33.9900017      -6.87501522E-09
   34.0499992      -7.43754791E-09
   34.1100006      -8.29610158E-09
   34.1699982      -9.41226208E-09
   34.2299995      -1.06760476E-08
   34.2900009      -1.19407195E-08
   34.3499985      -1.30683029E-08
   34.4099998      -1.39712126E-08
   34.4700012      -1.46368144E-08
   34.5299988      -1.51276414E-08
   34.5900002      -1.55581485E-08
   34.6500015      -1.60566032E-08
   34.7099991      -1.67252576E-08
   34.7700005      -1.76117592E-08
   34.8300018      -1.87002165E-08
   34.8899994      -1.99231369E-08
   34.9500008      -2.11884732E-08
   35.0099983      -2.24115126E-08
   35.0699997      -2.35407818E-08
   35.1300011      -2.45702108E-08
   35.1899986      -2.55350407E-08
   35.2500000      -2.64943640E-08
   35.3100014      -2.75071699E-08
   35.3699989      -2.86100565E-08
   35.4300003      -2.98036156E-08
   35.4900017      -3.10512718E-08
   35.5499992      -3.22903304E-08
   35.6100006      -3.34511157E-08
   35.6699982      -3.44778144E-08
   35.7299995      -3.53440299E-08
   35.7900009      -3.60581396E-08
   35.8499985      -3.66568855E-08
   35.9099998      -3.71898103E-08
   35.9700012      -3.77002820E-08
   36.0299988      -3.82098939E-08
   36.0900002      -3.87116152E-08
   36.1500015      -3.91737842E-08
   36.2099991      -3.95527735E-08
   36.2700005      -3.98092475E-08
   36.3300018      -3.99218010E-08
   36.3899994      -3.98929814E-08
   36.4500008      -3.97458884E-08
   36.5099983      -3.95130506E-08
   36.5699997      -3.92220620E-08
   36.6300011      -3.88836341E-08
   36.6899986      -3.84866823E-08
   36.7500000      -3.80024332E-08
   36.8100014      -3.73961520E-08
   36.8699989      -3.66422199E-08
   36.9300003      -3.57367149E-08
   36.9900017      -3.47025981E-08
   37.0499992      -3.35850388E-08
   37.1100006      -3.24383969E-08
   37.1699982      -3.13094652E-08
   37.2299995      -3.02233012E-08
   37.2900009      -2.91770483E-08
   37.3499985      -2.81439920E-08
   37.4099998      -2.70861538E-08
   37.4700012      -2.59703778E-08
   37.5299988      -2.47814587E-08
   37.5900002      -2.35272282E-08
   37.6500015      -2.22336887E-08
   37.7099991      -2.09323776E-08
   37.7700005      -1.96453218E-08
   37.8300018      -1.83740951E-08
   37.8899994      -1.70982553E-08
   37.9500008      -1.57848277E-08
   38.0099983      -1.44061998E-08
   38.0699997      -1.29598874E-08
   38.1300011      -1.14819878E-08
   38.1899986      -1.00475175E-08
   38.2500000      -8.75512640E-09
   38.3100014      -7.69959474E-09
   38.3699989      -6.94083280E-09
   38.4300003      -6.48061871E-09
   38.4900017      -6.25671248E-09
   38.5499992      -6.15839824E-09
   38.6100006      -6.05990458E-09
   38.6699982      -5.86130877E-09
   38.7299995      -5.52316415E-09
   38.7900009      -5.08266496E-09
   38.8499985      -4.64516736E-09
   38.9099998      -4.35329195E-09
   38.9700012      -4.34349134E-09
   39.0299988      -4.70430450E-09
   39.0900002      -5.44992318E-09
   39.1500015      -6.51750742E-09
   39.2099991      -7.78870035E-09
   39.2700005      -9.12775278E-09
   39.3300018      -1.04232960E-08
   39.3899994      -1.16199006E-08
   39.4500008      -1.27293802E-08
   39.5099983      -1.38189833E-08
   39.5699997      -1.49816284E-08
   39.6300011      -1.62993636E-08
   39.6899986      -1.78131234E-08
   39.7500000      -1.95090948E-08
   39.8100014      -2.13256648E-08
   39.8699989      -2.31774102E-08
   39.9300003      -2.49866421E-08
   39.9900017      -2.67107350E-08
   40.0499992      -2.83554282E-08
   40.1100006      -2.99696872E-08
   40.1699982      -3.16244275E-08
   40.2299995      -3.33831629E-08
   40.2900009      -3.52753453E-08
   40.3499985      -3.72821347E-08
   40.4099998      -3.93398238E-08
   40.4700012      -4.13597512E-08
   40.5299988      -4.32576748E-08
   40.5900002      -4.49818707E-08
   40.6500015      -4.65295678E-08
   40.7099991      -4.79453739E-08
   40.7700005      -4.93019101E-08
   40.8300018      -5.06694420E-08
   40.8899994      -5.20856496E-08
   40.9500008      -5.35369153E-08
   41.0099983      -5.49583419E-08
   41.0699997      -5.62531106E-08
   41.1300011      -5.73243781E-08
   41.1899986      -5.81084443E-08
   41.2500000      -5.85970277E-08
   41.3100014      -5.88405378E-08
   41.3699989      -5.89307412E-08
   41.4300003      -5.89686628E-08
   41.4900017      -5.90286433E-08
   41.5499992      -5.91310787E-08
   41.6100006      -5.92331979E-08
   41.6699982      -5.92413159E-08
   41.7299995      -5.90406941E-08
   41.7900009      -5.85331676E-08
   41.8499985      -5.76702384E-08
   41.9099998      -5.64706397E-08
   41.9700012      -5.50167378E-08
   42.0299988      -5.34307816E-08
   42.0900002      -5.18388177E-08
   42.1500015      -5.03337780E-08
   42.2099991      -4.89496657E-08
   42.2700005      -4.76549538E-08
   42.3300018      -4.63670276E-08
   42.3899994      -4.49827766E-08
   42.4500008      -4.34150031E-08
   42.5099983      -4.16226023E-08
   42.5699997      -3.96245419E-08
   42.6300011      -3.74931837E-08
   42.6899986      -3.53297409E-08
   42.7500000      -3.32306556E-08
   42.8100014      -3.12570592E-08
   42.8699989      -2.94181497E-08
   42.9300003      -2.76741652E-08
   42.9900017      -2.59573412E-08
   43.0499992      -2.42025369E-08
   43.1100006      -2.23757937E-08
   43.1699982      -2.04900399E-08
   43.2299995      -1.86024938E-08
   43.2900009      -1.67953562E-08
   43.3499985      -1.51478297E-08
   43.4099998      -1.37104141E-08
   43.4700012      -1.24911290E-08
   43.5299988      -1.14582086E-08
   43.5900002      -1.05573292E-08
   43.6500015      -9.73597825E-09
   43.7099991      -8.96522234E-09
   43.7700005      -8.25067037E-09
   43.8300018      -7.62888330E-09
   43.8899994      -7.15121429E-09
   43.9500008      -6.86172319E-09
   44.0099983      -6.77790268E-09
   44.0699997      -6.88171387E-09
   44.1300011      -7.12449166E-09
   44.1899986      -7.44409556E-09
   44.2500000      -7.78809284E-09
   44.3100014      -8.13443801E-09
   44.3699989      -8.50185344E-09
   44.4300003      -8.94572949E-09
   44.4900017      -9.54049195E-09
   44.5499992      -1.03543956E-08
   44.6100006      -1.14255325E-08
   44.6699982      -1.27477140E-08
   44.7299995      -1.42714809E-08
   44.7900009      -1.59202180E-08
   44.8499985      -1.76159141E-08
   44.9099998      -1.93055065E-08
   44.9700012      -2.09785451E-08
   45.0299988      -2.26698251E-08
   45.0900002      -2.44462459E-08
   45.1500015      -2.63827360E-08
   45.2099991      -2.85361583E-08
   45.2700005      -3.09266426E-08
   45.3300018      -3.35328778E-08
   45.3899994      -3.63025805E-08
   45.4500008      -3.91737380E-08
   45.5099983      -4.20984776E-08
   45.5699997      -4.50609363E-08
   45.6300011      -4.80830806E-08
   45.6899986      -5.12174338E-08
   45.7500000      -5.45300871E-08
   45.8100014      -5.80808610E-08
   45.8699989      -6.19077838E-08
   45.9300003      -6.60212862E-08
   45.9900017      -7.04100600E-08
   46.0499992      -7.50568176E-08
   46.1100006      -7.99592357E-08
   46.1699982      -8.51503259E-08
   46.2299995      -9.07125610E-08
   46.2900009      -9.67822373E-08
   46.3499985      -1.03543414E-07
   46.4099998      -1.11214270E-07
   46.4700012      -1.20031046E-07
   46.5299988      -1.30236344E-07
   46.5900002      -1.42077312E-07
   46.6500015      -1.55816906E-07
   46.7099991      -1.71756739E-07
   46.7700005      -1.90266945E-07
   46.8300018      -2.11814879E-07
   46.8899994      -2.36985599E-07
   46.9500008      -2.66489224E-07
   47.0099983      -3.01155325E-07
   47.0699997      -3.41919105E-07
   47.1300011      -3.89808633E-07
   47.1899986      -4.45941225E-07
   47.2500000      -5.11535575E-07
   47.3100014      -5.87940406E-07
   47.3699989      -6.76675143E-07
   47.4300003      -7.79473794E-07
   47.4900017      -8.98324231E-07
   47.5499992      -1.03549610E-06
   47.6100006      -1.19355661E-06
   47.6699982      -1.37537768E-06
   47.7299995      -1.58414082E-06
   47.7900009      -1.82334679E-06
   47.8499985      -2.09683640E-06
   47.9099998      -2.40882127E-06
   47.9700012      -2.76392871E-06
   48.0299988      -3.16724709E-06
   48.0900002      -3.62437345E-06
   48.1500015      -4.14145416E-06
   48.2099991      -4.72521288E-06
   48.2700005      -5.38297036E-06
   48.3300018      -6.12265649E-06
   48.3899994      -6.95281778E-06
   48.4500008      -7.88262878E-06
   48.5099983      -8.92191292E-06
   48.5699997      -1.00811640E-05
   48.6300011      -1.13715741E-05
   48.6899986      -1.28050578E-05
   48.7500000      -1.43942525E-05
   48.8100014      -1.61525186E-05
   48.8699989      -1.80939005E-05
   48.9300003      -2.02331012E-05
   48.9900017      -2.25854055E-05
   49.0499992      -2.51666552E-05
   49.1100006      -2.79931664E-05
   49.1699982      -3.10817086E-05
   49.2299995      -3.44494256E-05
   49.2900009      -3.81137725E-05
   49.3499985      -4.20924480E-05
   49.4099998      -4.64032601E-05
   49.4700012      -5.10640202E-05
   49.5299988      -5.60923872E-05
   49.5900002      -6.15057288E-05
   49.6500015      -6.73209070E-05
   49.7099991      -7.35541835E-05
   49.7700005      -8.02209979E-05
   49.8300018      -8.73358149E-05
   49.8899994      -9.49120003E-05
   49.9500008      -1.02961603E-04
   50.0099983      -1.11495188E-04
   50.0699997      -1.20521661E-04
   50.1300011      -1.30048036E-04
   50.1899986      -1.40079283E-04
   50.2500000      -1.50618100E-04
   50.3100014      -1.61664677E-04
   50.3699989      -1.73216700E-04
   50.4300003      -1.85269106E-04
   50.4900017      -1.97814050E-04
   50.5499992      -2.10840808E-04
   50.6100006      -2.24335759E-04