 -0.750000000       0.00000000    
 -0.689999998       0.00000000    
 -0.629999995       0.00000000    
 -0.569999993       0.00000000    
 -0.509999990       0.00000000    
 -0.449999988       0.00000000    
 -0.389999986       0.00000000    
 -0.330000013       0.00000000    
 -0.270000011      -4.00371882E-25
 -0.209999993      -4.42356514E-24
 -0.150000006      -2.33398083E-23
  -9.00000036E-02  -7.37884840E-23
  -2.99999993E-02  -1.32120759E-22
   2.99999993E-02  -9.61254544E-24
   9.00000036E-02   7.77916161E-22
  0.150000006       2.80343223E-21
  0.209999993       5.62256917E-21
  0.270000011       5.64584776E-21
  0.330000013      -5.38847221E-21
  0.389999986      -3.71263733E-20
  0.449999988      -8.76331555E-20
  0.509999990      -1.21792626E-19
  0.569999993      -5.68584049E-20
  0.629999995       2.12283807E-19
  0.689999998       7.16358676E-19
  0.750000000       1.25394315E-18
  0.810000002       1.27109019E-18
  0.870000005      -3.44529029E-20
  0.930000007      -3.20594836E-18
  0.990000010      -7.64781085E-18
   1.04999995      -1.08151938E-17
   1.11000001      -8.32747124E-18
   1.16999996       4.12607947E-18
   1.23000002       2.69981511E-17
   1.28999996       5.27035348E-17
   1.35000002       6.42159699E-17
   1.40999997       4.00083671E-17
   1.47000003      -3.33485606E-17
   1.52999997      -1.44701497E-16
   1.59000003      -2.47616238E-16
   1.64999998      -2.67726204E-16
   1.71000004      -1.35331936E-16
   1.76999998       1.63472343E-16
   1.83000004       5.41837235E-16
   1.88999999       8.09143946E-16
   1.95000005       7.37533028E-16
   2.00999999       1.92679773E-16
   2.06999993      -7.24584647E-16
   2.13000011      -1.61678060E-15
   2.19000006      -1.89424329E-15
   2.25000000      -1.06439367E-15
   2.30999994       8.90138136E-16
   2.36999989       3.24931431E-15
   2.43000007       4.64106716E-15
   2.49000001       3.59354236E-15
   2.54999995      -5.69988270E-16
   2.60999990      -6.89523740E-15
   2.67000008      -1.25714267E-14
   2.73000002      -1.37395131E-14
   2.78999996      -7.31242273E-15
   2.84999990       6.83539283E-15
   2.91000009       2.44446695E-14
   2.97000003       3.73691861E-14
   3.02999997       3.64997407E-14
   3.08999991       1.64247668E-14
   3.15000010      -2.01150216E-14
   3.21000004      -6.05387458E-14
   3.26999998      -8.54708963E-14
   3.32999992      -7.65858934E-14
   3.39000010      -2.67108943E-14
   3.45000005       5.24701742E-14
   3.50999999       1.30070691E-13
   3.56999993       1.65693170E-13
   3.63000011       1.27362341E-13
   3.69000006       1.09302639E-14
   3.75000000      -1.48774791E-13
   3.80999994      -2.83510032E-13
   3.86999989      -3.16198863E-13
   3.93000007      -1.97594111E-13
   3.99000001       6.02895487E-14
   4.05000019       3.72106426E-13
   4.11000013       6.00767537E-13
   4.17000008       6.11092069E-13
   4.23000002       3.37046471E-13
   4.28999996      -1.67753696E-13
   4.34999990      -7.25906639E-13
   4.40999985      -1.09197590E-12
   4.46999979      -1.05466970E-12
   4.53000021      -5.45464010E-13
   4.59000015       2.98578111E-13
   4.65000010       1.15850547E-12
   4.71000004       1.64978177E-12
   4.76999998       1.49239345E-12
   4.82999992       6.61614643E-13
   4.88999987      -5.57983998E-13
   4.94999981      -1.65894685E-12
   5.01000023      -2.11969570E-12
   5.07000017      -1.65389219E-12
   5.13000011      -3.84667721E-13
   5.19000006       1.15431048E-12
   5.25000000       2.21981938E-12
   5.30999994       2.19640278E-12
   5.36999989       9.26891918E-13
   5.42999983      -1.12673250E-12
   5.48999977      -2.99874839E-12
   5.55000019      -3.60188268E-12
   5.61000013      -2.23801511E-12
   5.67000008       9.82775276E-13
   5.73000002       5.02510490E-12
   5.78999996       8.21446036E-12
   5.84999990       8.85827002E-12
   5.90999985       5.97386854E-12
   5.96999979      -1.80126286E-13
   6.03000021      -8.02065012E-12
   6.09000015      -1.50882709E-11
   6.15000010      -1.88888748E-11
   6.21000004      -1.78124512E-11
   6.26999998      -1.17582810E-11
   6.32999992      -2.19947606E-12
   6.38999987       8.35426780E-12
   6.44999981       1.72816032E-11
   6.51000023       2.27753458E-11
   6.57000017       2.43738675E-11
   6.63000011       2.28699299E-11
   6.69000006       1.96454554E-11
   6.75000000       1.57469298E-11
   6.80999994       1.11517375E-11
   6.86999989       4.61358469E-12
   6.92999983      -5.76709860E-12
   6.98999977      -2.14248307E-11
   7.05000019      -4.21054615E-11
   7.11000013      -6.50701021E-11
   7.17000008      -8.51272317E-11
   7.23000002      -9.55878363E-11
   7.28999996      -8.98799785E-11
   7.34999990      -6.32968816E-11
   7.40999985      -1.42946740E-11
   7.46999979       5.50699278E-11
   7.53000021       1.39634346E-10
   7.59000015       2.32266095E-10
   7.65000010       3.25108773E-10
   7.71000004       4.10391637E-10
   7.76999998       4.80479156E-10
   7.82999992       5.27206889E-10
   7.88999987       5.40921141E-10
   7.94999981       5.09845222E-10
   8.01000023       4.20342122E-10
   8.06999969       2.58332189E-10
   8.13000011       1.16668394E-11
   8.18999958      -3.27160743E-10
   8.25000000      -7.58792362E-10
   8.31000042      -1.27597855E-09
   8.36999989      -1.86405336E-09
   8.43000031      -2.50266652E-09
   8.48999977      -3.16806537E-09
   8.55000019      -3.83505094E-09
   8.60999966      -4.47794868E-09
   8.67000008      -5.07047915E-09
   8.72999954      -5.58504665E-09
   8.78999996      -5.99243277E-09
   8.85000038      -6.26291818E-09
   8.90999985      -6.36939479E-09
   8.97000027      -6.29221697E-09
   9.02999973      -6.02466255E-09
   9.09000015      -5.57730528E-09
   9.14999962      -4.97959407E-09
   9.21000004      -4.27758229E-09
   9.27000046      -3.52782004E-09
   9.32999992      -2.78858603E-09
   9.39000034      -2.11046269E-09
   9.44999981      -1.52846180E-09
   9.51000023      -1.05744224E-09
   9.56999969      -6.91588509E-10
   9.63000011      -4.07637563E-10
   9.68999958      -1.70672032E-10
   9.75000000       5.90705818E-11
   9.81000042       3.19773652E-10
   9.86999989       6.42894460E-10
   9.93000031       1.04959164E-09
   9.98999977       1.54859392E-09
   10.0500002       2.13525508E-09
   10.1099997       2.79166956E-09
   10.1700001       3.48797458E-09
   10.2299995       4.18509272E-09
   10.2900000       4.83907625E-09
   10.3500004       5.40686562E-09
   10.4099998       5.85278315E-09
   10.4700003       6.15467233E-09
   10.5299997       6.30839381E-09
   10.5900002       6.32956709E-09
   10.6499996       6.25195185E-09
   10.7100000       6.12256157E-09
   10.7700005       5.99437300E-09
   10.8299999       5.91805049E-09
   10.8900003       5.93435434E-09
   10.9499998       6.06875705E-09
   11.0100002       6.32924646E-09
   11.0699997       6.70750877E-09
   11.1300001       7.18284010E-09
   11.1899996       7.72749953E-09
   11.2500000       8.31194402E-09
   11.3100004       8.90863738E-09
   11.3699999       9.49379686E-09
   11.4300003       1.00472892E-08
   11.4899998       1.05516618E-08
   11.5500002       1.09915694E-08
   11.6099997       1.13546310E-08
   11.6700001       1.16339240E-08
   11.7299995       1.18313688E-08
   11.7900000       1.19604948E-08
   11.8500004       1.20468862E-08
   11.9099998       1.21251897E-08
   11.9700003       1.22327046E-08
   12.0299997       1.24008972E-08
   12.0900002       1.26471313E-08
   12.1499996       1.29691289E-08
   12.2100000       1.33439730E-08
   12.2700005       1.37321461E-08
   12.3299999       1.40855363E-08
   12.3900003       1.43572176E-08
   12.4499998       1.45103511E-08
   12.5100002       1.45240504E-08
   12.5699997       1.43950611E-08
   12.6300001       1.41354226E-08
   12.6899996       1.37673259E-08
   12.7500000       1.33168916E-08
   12.8100004       1.28085063E-08
   12.8699999       1.22608874E-08
   12.9300003       1.16853203E-08
   12.9899998       1.10858869E-08
   13.0500002       1.04611662E-08
   13.1099997       9.80671011E-09
   13.1700001       9.11774123E-09
   13.2299995       8.39161718E-09
   13.2900000       7.62978214E-09
   13.3500004       6.83894097E-09
   13.4099998       6.03120132E-09
   13.4700003       5.22296828E-09
   13.5299997       4.43250148E-09
   13.5900002       3.67638098E-09
   13.6499996       2.96554892E-09
   13.7100000       2.30198571E-09
   13.7700005       1.67724312E-09
   13.8299999       1.07381204E-09
   13.8900003       4.69632500E-10
   13.9499998      -1.54902521E-10
   14.0100002      -8.09079304E-10
   14.0699997      -1.48539092E-09
   14.1300001      -2.15676832E-09
   14.1899996      -2.77911960E-09
   14.2500000      -3.29945360E-09
   14.3100004      -3.66814024E-09
   14.3699999      -3.85229848E-09
   14.4300003      -3.84637211E-09
   14.4899998      -3.67618624E-09
   14.5500002      -3.39434925E-09
   14.6099997      -3.06743209E-09
   14.6700001      -2.75824985E-09
   14.7299995      -2.50861931E-09
   14.7900000      -2.32830399E-09
   14.8500004      -2.19408181E-09
   14.9099998      -2.05949258E-09
   14.9700003      -1.87205007E-09
   15.0299997      -1.59203328E-09
   15.0900002      -1.20647659E-09
   15.1499996      -7.33854866E-10
   15.2100000      -2.18381299E-10
   15.2700005       2.83556456E-10
   15.3299999       7.19886262E-10
   15.3900003       1.05685605E-09
   15.4499998       1.28649646E-09
   15.5100002       1.42594814E-09
   15.5699997       1.50963353E-09
   15.6300001       1.57715341E-09
   15.6899996       1.66062497E-09
   15.7500000       1.77494408E-09
   15.8100004       1.91338922E-09
   15.8699999       2.04945727E-09
   15.9300003       2.14419527E-09
   15.9899998       2.15696616E-09
   16.0499992       2.05685247E-09
   16.1100006       1.83191740E-09
   16.1700001       1.49423296E-09
   16.2299995       1.07967368E-09
   16.2900009       6.42639386E-10
   16.3500004       2.46839327E-10
   16.4099998      -4.60425205E-11
   16.4699993      -1.87575080E-10
   16.5300007      -1.51367946E-10
   16.5900002       6.26163080E-11
   16.6499996       4.29445896E-10
   16.7099991       9.06186404E-10
   16.7700005       1.44279388E-09
   16.8299999       1.99407513E-09
   16.8899994       2.52950327E-09
   16.9500008       3.03842573E-09
   17.0100002       3.52976315E-09
   17.0699997       4.02703559E-09
   17.1299992       4.56078375E-09
   17.1900005       5.16073140E-09
   17.2500000       5.84952797E-09
   17.3099995       6.63898758E-09
   17.3700008       7.52892682E-09
   17.4300003       8.50826076E-09
   17.4899998       9.55781143E-09
   17.5499992       1.06541869E-08
   17.6100006       1.17739223E-08
   17.6700001       1.28968844E-08
   17.7299995       1.40080498E-08
   17.7900009       1.50972639E-08
   17.8500004       1.61573830E-08
   17.9099998       1.71819039E-08
   17.9699993       1.81634618E-08
   18.0300007       1.90940899E-08
   18.0900002       1.99672119E-08
   18.1499996       2.07803055E-08
   18.2099991       2.15367546E-08
   18.2700005       2.22456311E-08
   18.3299999       2.29191119E-08
   18.3899994       2.35683100E-08
   18.4500008       2.41990499E-08
   18.5100002       2.48091272E-08
   18.5699997       2.53879566E-08
   18.6299992       2.59184851E-08
   18.6900005       2.63804782E-08
   18.7500000       2.67539022E-08
   18.8099995       2.70214215E-08
   18.8700008       2.71696745E-08
   18.9300003       2.71896283E-08
   18.9899998       2.70766645E-08
   19.0499992       2.68308646E-08
   19.1100006       2.64575775E-08
   19.1700001       2.59678057E-08
   19.2299995       2.53777408E-08
   19.2900009       2.47070311E-08
   19.3500004       2.39758524E-08
   19.4099998       2.32015118E-08
   19.4699993       2.23957279E-08
   19.5300007       2.15636540E-08
   19.5900002       2.07051816E-08
   19.6499996       1.98182040E-08
   19.7099991       1.89026412E-08
   19.7700005       1.79635968E-08
   19.8299999       1.70122298E-08
   19.8899994       1.60637512E-08
   19.9500008       1.51331445E-08
   20.0100002       1.42303804E-08
   20.0699997       1.33571643E-08
   20.1299992       1.25067849E-08
   20.1900005       1.16672725E-08
   20.2500000       1.08266054E-08
   20.3099995       9.97781235E-09
   20.3700008       9.12193965E-09
   20.4300003       8.26796942E-09
   20.4899998       7.43020578E-09
   20.5499992       6.62465727E-09
   20.6100006       5.86601212E-09
   20.6700001       5.16595655E-09
   20.7299995       4.53256366E-09
   20.7900009       3.96987909E-09
   20.8500004       3.47714169E-09
   20.9099998       3.04791126E-09
   20.9699993       2.67016587E-09
   21.0300007       2.32840924E-09
   21.0900002       2.00793004E-09
   21.1499996       1.70001047E-09
   21.2099991       1.40593481E-09
   21.2700005       1.13773613E-09
   21.3299999       9.14804565E-10
   21.3899994       7.57185981E-10
   21.4500008       6.77796486E-10
   21.5100002       6.76230127E-10
   21.5699997       7.36227190E-10
   21.6299992       8.27581392E-10
   21.6900005       9.11893283E-10
   21.7500000       9.50578505E-10
   21.8099995       9.13127185E-10
   21.8700008       7.83688614E-10
   21.9300003       5.64511382E-10
   21.9899998       2.75474671E-10
   22.0499992      -5.01878157E-11
   22.1100006      -3.72981424E-10
   22.1700001      -6.55392518E-10
   22.2299995      -8.69363248E-10
   22.2900009      -1.00137920E-09
   22.3500004      -1.05426978E-09
   22.4099998      -1.04569375E-09
   22.4699993      -1.00398601E-09
   22.5300007      -9.62439239E-10
   22.5900002      -9.53183088E-10
   22.6499996      -1.00176800E-09
   22.7099991      -1.12342380E-09
   22.7700005      -1.32175149E-09
   22.8299999      -1.59022118E-09
   22.8899994      -1.91625515E-09
   22.9500008      -2.28700703E-09
   23.0100002      -2.69542721E-09
   23.0699997      -3.14510529E-09
   23.1299992      -3.65274588E-09
   23.1900005      -4.24784963E-09
   23.2500000      -4.96992447E-09
   23.3099995      -5.86404170E-09
   23.3700008      -6.97571734E-09
   23.4300003      -8.34593106E-09
   23.4899998      -1.00068460E-08
   23.5499992      -1.19785994E-08
   23.6100006      -1.42674361E-08
   23.6700001      -1.68653607E-08
   23.7299995      -1.97513366E-08
   23.7900009      -2.28938166E-08
   23.8500004      -2.62539377E-08
   23.9099998      -2.97886391E-08
   23.9699993      -3.34527925E-08
   24.0300007      -3.71998823E-08
   24.0900002      -4.09811953E-08
   24.1499996      -4.47440449E-08
   24.2099991      -4.84298930E-08
   24.2700005      -5.19733270E-08
   24.3299999      -5.53025821E-08
   24.3899994      -5.83419002E-08
   24.4500008      -6.10155979E-08
   24.5100002      -6.32533386E-08
   24.5699997      -6.49959233E-08
   24.6299992      -6.62005775E-08
   24.6900005      -6.68449331E-08
   24.7500000      -6.69286351E-08
   24.8099995      -6.64723316E-08
   24.8700008      -6.55138948E-08
   24.9300003      -6.41030340E-08
   24.9899998      -6.22955909E-08
   25.0499992      -6.01493682E-08
   25.1100006      -5.77224739E-08
   25.1700001      -5.50742314E-08
   25.2299995      -5.22675343E-08
   25.2900009      -4.93708789E-08
   25.3500004      -4.64582968E-08
   25.4099998      -4.36063523E-08
   25.4699993      -4.08884695E-08
   25.5300007      -3.83678938E-08
   25.5900002      -3.60909738E-08
   25.6499996      -3.40822837E-08
   25.7099991      -3.23425304E-08
   25.7700005      -3.08494954E-08
   25.8299999      -2.95618516E-08
   25.8899994      -2.84254487E-08
   25.9500008      -2.73812653E-08
   26.0100002      -2.63741224E-08
   26.0699997      -2.53608352E-08
   26.1299992      -2.43163676E-08
   26.1900005      -2.32367654E-08
   26.2500000      -2.21381597E-08
   26.3099995      -2.10519655E-08
   26.3700008      -2.00171844E-08
   26.4300003      -1.90713525E-08
   26.4899998      -1.82419022E-08
   26.5499992      -1.75396693E-08
   26.6100006      -1.69557950E-08
   26.6700001      -1.64626055E-08
   26.7299995      -1.60182676E-08
   26.7900009      -1.55741091E-08
   26.8500004      -1.50829980E-08
   26.9099998      -1.45069468E-08
   26.9699993      -1.38225449E-08
   27.0300007      -1.30236133E-08
   27.0900002      -1.21213599E-08
   27.1499996      -1.11429177E-08
   27.2099991      -1.01292663E-08
   27.2700005      -9.13310050E-09
   27.3299999      -8.21651014E-09
   27.3899994      -7.44780682E-09
   27.4500008      -6.89676005E-09
   27.5100002      -6.62790045E-09
   27.5699997      -6.69241373E-09
   27.6299992      -7.12001036E-09
   27.6900005      -7.91266164E-09
   27.7500000      -9.04206932E-09
   27.8099995      -1.04520472E-08
   27.8700008      -1.20658497E-08
   27.9300003      -1.37972371E-08
   27.9899998      -1.55630389E-08
   28.0499992      -1.72945196E-08
   28.1100006      -1.89450908E-08
   28.1700001      -2.04928661E-08
   28.2299995      -2.19378418E-08
   28.2900009      -2.32948736E-08
   28.3500004      -2.45845850E-08
   28.4099998      -2.58247379E-08
   28.4699993      -2.70242300E-08
   28.5300007      -2.81808603E-08
   28.5900002      -2.92829352E-08
   28.6499996      -3.03134549E-08
   28.7099991      -3.12551727E-08
   28.7700005      -3.20946789E-08
   28.8299999      -3.28244205E-08
   28.8899994      -3.34423440E-08
   28.9500008      -3.39499273E-08
   29.0100002      -3.43497604E-08
   29.0699997      -3.46437190E-08
   29.1299992      -3.48324463E-08
   29.1900005      -3.49159883E-08
   29.2500000      -3.48951978E-08
   29.3099995      -3.47732261E-08
   29.3700008      -3.45566917E-08
   29.4300003      -3.42564022E-08
   29.4899998      -3.38874990E-08
   29.5499992      -3.34687655E-08
   29.6100006      -3.30207719E-08
   29.6700001      -3.25624754E-08
   29.7299995      -3.21064064E-08
   29.7900009      -3.16534710E-08
   29.8500004      -3.11890673E-08
   29.9099998      -3.06824361E-08
   29.9699993      -3.00905469E-08
   30.0300007      -2.93662623E-08
   30.0900002      -2.84689960E-08
   30.1499996      -2.73748171E-08
   30.2099991      -2.60830042E-08
   30.2700005      -2.46171741E-08
   30.3299999      -2.30209647E-08
   30.3899994      -2.13501004E-08
   30.4500008      -1.96635650E-08
   30.5100002      -1.80163813E-08
   30.5699997      -1.64553011E-08
   30.6299992      -1.50173669E-08
   30.6900005      -1.37302365E-08
   30.7500000      -1.26130679E-08
   30.8099995      -1.16771597E-08
   30.8700008      -1.09262430E-08
   30.9300003      -1.03566613E-08
   30.9899998      -9.95755567E-09
   31.0499992      -9.71082859E-09
   31.1100006      -9.59045643E-09
   31.1700001      -9.56108259E-09
   31.2299995      -9.57652180E-09
   31.2900009      -9.57958868E-09
   31.3500004      -9.50477563E-09
   31.4099998      -9.28458110E-09
   31.4699993      -8.85886653E-09
   31.5300007      -8.18504464E-09
   31.5900002      -7.24609617E-09
   31.6499996      -6.05373263E-09
   31.7099991      -4.64547822E-09
   31.7700005      -3.07650927E-09
   31.8299999      -1.40876222E-09
   31.8899994       2.99410052E-10
   31.9500008       2.00028039E-09
   32.0099983       3.65918273E-09
   32.0699997       5.25275778E-09
   32.1300011       6.76475009E-09
   32.1899986       8.18154877E-09
   32.2500000       9.48922807E-09
   32.3100014       1.06728875E-08
   32.3699989       1.17180274E-08
   32.4300003       1.26130475E-08
   32.4900017       1.33517801E-08
   32.5499992       1.39352183E-08
   32.6100006       1.43720182E-08
   32.6699982       1.46776928E-08
   32.7299995       1.48726160E-08
   32.7900009       1.49790846E-08
   32.8499985       1.50178696E-08
   32.9099998       1.50049715E-08
   32.9700012       1.49493982E-08
   33.0299988       1.48528319E-08
   33.0900002       1.47114640E-08
   33.1500015       1.45195314E-08
   33.2099991       1.42732981E-08
   33.2700005       1.39738621E-08
   33.3300018       1.36274521E-08
   33.3899994       1.32428370E-08
   33.4500008       1.28266366E-08
   33.5099983       1.23782815E-08
   33.5699997       1.18866357E-08
   33.6300011       1.13298206E-08
   33.6899986       1.06786828E-08
   33.7500000       9.90308457E-09
   33.8100014       8.97921737E-09
   33.8699989       7.89576227E-09
   33.9300003       6.65706557E-09
   33.9900017       5.28247801E-09
   34.0499992       3.80226162E-09
   34.1100006       2.25154917E-09
   34.1699982       6.64353794E-10
   34.2299995      -9.30698574E-10
   34.2900009      -2.51220400E-09
   34.3499985      -4.06582501E-09
   34.4099998      -5.58333335E-09
   34.4700012      -7.06198477E-09
   34.5299988      -8.50458903E-09
   34.5900002      -9.91966775E-09
   34.6500015      -1.13205951E-08
   34.7099991      -1.27230120E-08
   34.7700005      -1.41408396E-08
   34.8300018      -1.55823265E-08
   34.8899994      -1.70479115E-08
   34.9500008      -1.85309315E-08
   35.0099983      -2.00208170E-08
   35.0699997      -2.15070681E-08
   35.1300011      -2.29819310E-08
   35.1899986      -2.44405456E-08
   35.2500000      -2.58788848E-08
   35.3100014      -2.72911240E-08
   35.3699989      -2.86684312E-08
   35.4300003      -3.00002192E-08
   35.4900017      -3.12773274E-08
   35.5499992      -3.24953469E-08
   35.6100006      -3.36559758E-08
   35.6699982      -3.47653497E-08
   35.7299995      -3.58299417E-08
   35.7900009      -3.68520183E-08
   35.8499985      -3.78271103E-08
   35.9099998      -3.87451564E-08
   35.9700012      -3.95953030E-08
   36.0299988      -4.03725018E-08
   36.0900002      -4.10831547E-08
   36.1500015      -4.17471036E-08
   36.2099991      -4.23947384E-08
   36.2700005      -4.30598597E-08
   36.3300018      -4.37708216E-08
   36.3899994      -4.45430892E-08
   36.4500008      -4.53758879E-08
   36.5099983      -4.62538168E-08
   36.5699997      -4.71523158E-08
   36.6300011      -4.80444804E-08
   36.6899986      -4.89065499E-08
   36.7500000      -4.97204518E-08
   36.8100014      -5.04734530E-08
   36.8699989      -5.11563378E-08
   36.9300003      -5.17617309E-08
   36.9900017      -5.22836530E-08
   37.0499992      -5.27181001E-08
   37.1100006      -5.30637898E-08
   37.1699982      -5.33222533E-08
   37.2299995      -5.34970148E-08
   37.2900009      -5.35925651E-08
   37.3499985      -5.36138280E-08
   37.4099998      -5.35663887E-08
   37.4700012      -5.34569402E-08
   37.5299988      -5.32930180E-08
   37.5900002      -5.30814894E-08
   37.6500015      -5.28263087E-08
   37.7099991      -5.25269463E-08
   37.7700005      -5.21790113E-08
   37.8300018      -5.17775050E-08
   37.8899994      -5.13216989E-08
   37.9500008      -5.08192741E-08
   38.0099983      -5.02874862E-08
   38.0699997      -4.97501951E-08
   38.1300011      -4.92318577E-08
   38.1899986      -4.87509091E-08
   38.2500000      -4.83154672E-08
   38.3100014      -4.79231339E-08
   38.3699989      -4.75647788E-08
   38.4300003      -4.72302624E-08
   38.4900017      -4.69134278E-08
   38.5499992      -4.66140229E-08
   38.6100006      -4.63359591E-08
   38.6699982      -4.60829206E-08
   38.7299995      -4.58537031E-08
   38.7900009      -4.56395348E-08
   38.8499985      -4.54250113E-08
   38.9099998      -4.51922375E-08
   38.9700012      -4.49267432E-08
   39.0299988      -4.46226700E-08
   39.0900002      -4.42853114E-08
   39.1500015      -4.39301360E-08
   39.2099991      -4.35790461E-08
   39.2700005      -4.32555289E-08
   39.3300018      -4.29805915E-08
   39.3899994      -4.27704983E-08
   39.4500008      -4.26362732E-08
   39.5099983      -4.25840589E-08
   39.5699997      -4.26154507E-08
   39.6300011      -4.27274820E-08
   39.6899986      -4.29129372E-08
   39.7500000      -4.31616307E-08
   39.8100014      -4.34630962E-08
   39.8699989      -4.38097771E-08
   39.9300003      -4.41993073E-08
   39.9900017      -4.46341986E-08
   40.0499992      -4.51186786E-08
   40.1100006      -4.56538380E-08
   40.1699982      -4.62335414E-08
   40.2299995      -4.68434429E-08
   40.2900009      -4.74641055E-08
   40.3499985      -4.80771689E-08
   40.4099998      -4.86719571E-08
   40.4700012      -4.92494934E-08
   40.5299988      -4.98220807E-08
   40.5900002      -5.04085911E-08
   40.6500015      -5.10272251E-08
   40.7099991      -5.16885450E-08
   40.7700005      -5.23908916E-08
   40.8300018      -5.31191944E-08
   40.8899994      -5.38469642E-08
   40.9500008      -5.45403616E-08
   41.0099983      -5.51633264E-08
   41.0699997      -5.56830884E-08
   41.1300011      -5.60753186E-08
   41.1899986      -5.63282612E-08
   41.2500000      -5.64446587E-08
   41.3100014      -5.64402960E-08
   41.3699989      -5.63387061E-08
   41.4300003      -5.61630067E-08
   41.4900017      -5.59273694E-08
   41.5499992      -5.56315491E-08
   41.6100006      -5.52611858E-08
   41.6699982      -5.47946328E-08
   41.7299995      -5.42141017E-08
   41.7900009      -5.35167999E-08
   41.8499985      -5.27210915E-08
   41.9099998      -5.18645038E-08
   41.9700012      -5.09937337E-08
   42.0299988      -5.01502306E-08
   42.0900002      -4.93570695E-08
   42.1500015      -4.86122289E-08
   42.2099991      -4.78908291E-08
   42.2700005      -4.71549235E-08
   42.3300018      -4.63666012E-08
   42.3899994      -4.54990818E-08
   42.4500008      -4.45419452E-08
   42.5099983      -4.34995790E-08
   42.5699997      -4.23848796E-08
   42.6300011      -4.12118588E-08
   42.6899986      -3.99905460E-08
   42.7500000      -3.87258865E-08
   42.8100014      -3.74202429E-08
   42.8699989      -3.60775516E-08
   42.9300003      -3.47069680E-08
   42.9900017      -3.33243904E-08
   43.0499992      -3.19514761E-08
   43.1100006      -3.06126928E-08
   43.1699982      -2.93313622E-08
   43.2299995      -2.81257453E-08
   43.2900009      -2.70060116E-08
   43.3499985      -2.59726392E-08
   43.4099998      -2.50166714E-08
   43.4700012      -2.41219027E-08
   43.5299988      -2.32686403E-08
   43.5900002      -2.24383356E-08
   43.6500015      -2.16179235E-08
   43.7099991      -2.08027746E-08
   43.7700005      -1.99974082E-08
   43.8300018      -1.92137044E-08
   43.8899994      -1.84670714E-08
   43.9500008      -1.77716313E-08
   44.0099983      -1.71358678E-08
   44.0699997      -1.65601399E-08
   44.1300011      -1.60370686E-08
   44.1899986      -1.55549760E-08
   44.2500000      -1.51035024E-08
   44.3100014      -1.46796468E-08
   44.3699989      -1.42920529E-08
   44.4300003      -1.39617420E-08
   44.4900017      -1.37185356E-08
   44.5499992      -1.35938771E-08
   44.6100006      -1.36120279E-08
   44.6699982      -1.37822092E-08
   44.7299995      -1.40939962E-08
   44.7900009      -1.45172967E-08
   44.8499985      -1.50069628E-08
   44.9099998      -1.55109294E-08
   44.9700012      -1.59800102E-08
   45.0299988      -1.63771894E-08
   45.0900002      -1.66844387E-08
   45.1500015      -1.69055880E-08
   45.2099991      -1.70646253E-08
   45.2700005      -1.71999268E-08
   45.3300018      -1.73559584E-08
   45.3899994      -1.75747239E-08
   45.4500008      -1.78892972E-08
   45.5099983      -1.83209519E-08
   45.5699997      -1.88801810E-08
   45.6300011      -1.95705692E-08
   45.6899986      -2.03938146E-08
   45.7500000      -2.13542322E-08
   45.8100014      -2.24619381E-08
   45.8699989      -2.37346747E-08
   45.9300003      -2.51988972E-08
   45.9900017      -2.68906906E-08
   46.0499992      -2.88567144E-08
   46.1100006      -3.11550217E-08
   46.1699982      -3.38555459E-08
   46.2299995      -3.70403797E-08
   46.2900009      -4.08042986E-08
   46.3499985      -4.52561508E-08
   46.4099998      -5.05214075E-08
   46.4700012      -5.67456375E-08
   46.5299988      -6.40983231E-08
   46.5900002      -7.27763734E-08
   46.6500015      -8.30072509E-08
   46.7099991      -9.50519734E-08
   46.7700005      -1.09208749E-07
   46.8300018      -1.25817735E-07
   46.8899994      -1.45267052E-07
   46.9500008      -1.67999659E-07
   47.0099983      -1.94520723E-07
   47.0699997      -2.25405458E-07
   47.1300011      -2.61307662E-07
   47.1899986      -3.02969909E-07
   47.2500000      -3.51235911E-07
   47.3100014      -4.07065244E-07
   47.3699989      -4.71550209E-07
   47.4300003      -5.45933631E-07
   47.4900017      -6.31626449E-07
   47.5499992      -7.30224031E-07
   47.6100006      -8.43520922E-07
   47.6699982      -9.73523811E-07
   47.7299995      -1.12246357E-06
   47.7900009      -1.29280693E-06
   47.8499985      -1.48726951E-06
   47.9099998      -1.70883186E-06
   47.9700012      -1.96075689E-06
   48.0299988      -2.24661017E-06
   48.0900002      -2.57028319E-06
   48.1500015      -2.93601943E-06
   48.2099991      -3.34843890E-06
   48.2700005      -3.81256473E-06
   48.3300018      -4.33384594E-06
   48.3899994      -4.91817991E-06
   48.4500008      -5.57192561E-06
   48.5099983      -6.30191425E-06
   48.5699997      -7.11545135E-06
   48.6300011      -8.02031536E-06
   48.6899986      -9.02474221E-06
   48.7500000      -1.01374180E-05
   48.8100014      -1.13674587E-05
   48.8699989      -1.27243929E-05
   48.9300003      -1.42181561E-05
   48.9900017      -1.58590592E-05
   49.0499992      -1.76577814E-05
   49.1100006      -1.96253241E-05
   49.1699982      -2.17729812E-05
   49.2299995      -2.41122889E-05
   49.2900009      -2.66549505E-05
   49.3499985      -2.94127658E-05
   49.4099998      -3.23975510E-05
   49.4700012      -3.56210330E-05
   49.5299988      -3.90947789E-05
   49.5900002      -4.28300664E-05
   49.6500015      -4.68377984E-05
   49.7099991      -5.11283652E-05
   49.7700005      -5.57115345E-05
   49.8300018      -6.05963360E-05
   49.8899994      -6.57909113E-05
   49.9500008      -7.13024201E-05
   50.0099983      -7.71369159E-05
   50.0699997      -8.32991936E-05
   50.1300011      -8.97926875E-05
   50.1899986      -9.66192965E-05
   50.2500000      -1.03779297E-04
   50.3100014      -1.11271205E-04
   50.3699989      -1.19091703E-04
   50.4300003      -1.27235544E-04
   50.4900017      -1.35695504E-04
   50.5499992      -1.44462319E-04
   50.6100006      -1.53524641E-04