 -0.750000000       0.00000000    
 -0.689999998       0.00000000    
 -0.629999995       0.00000000    
 -0.569999993       0.00000000    
 -0.509999990       0.00000000    
 -0.449999988       0.00000000    
 -0.389999986       0.00000000    
 -0.330000013       0.00000000    
 -0.270000011       0.00000000    
 -0.209999993       0.00000000    
 -0.150000006       0.00000000    
  -9.00000036E-02   0.00000000    
  -2.99999993E-02   5.46006106E-35
   2.99999993E-02   9.30870946E-34
   9.00000036E-02   7.91932087E-33
  0.150000006       4.46494514E-32
  0.209999993       1.87288800E-31
  0.270000011       6.25009688E-31
  0.330000013       1.75082981E-30
  0.389999986       4.36199209E-30
  0.449999988       1.02915437E-29
  0.509999990       2.38482834E-29
  0.569999993       5.23705732E-29
  0.629999995       9.55302299E-29
  0.689999998       9.37008071E-29
  0.750000000      -2.14679703E-28
  0.810000002      -1.54935007E-27
  0.870000005      -5.29800987E-27
  0.930000007      -1.30620359E-26
  0.990000010      -2.42516981E-26
   1.04999995      -3.01761945E-26
   1.11000001      -4.68025744E-27
   1.16999996       1.03147834E-25
   1.23000002       3.58650064E-25
   1.28999996       7.87757338E-25
   1.35000002       1.25595136E-24
   1.40999997       1.29215209E-24
   1.47000003      -4.31272106E-26
   1.52999997      -4.01864954E-24
   1.59000003      -1.15021458E-23
   1.64999998      -2.14113873E-23
   1.71000004      -2.85845926E-23
   1.76999998      -2.22235086E-23
   1.83000004       1.28314364E-23
   1.88999999       8.92298998E-23
   1.95000005       2.03225349E-22
   2.00999999       3.16641724E-22
   2.06999993       3.44514263E-22
   2.13000011       1.64863485E-22
   2.19000006      -3.32642272E-22
   2.25000000      -1.15542359E-21
   2.30999994      -2.09962855E-21
   2.36999989      -2.68765622E-21
   2.43000007      -2.23811668E-21
   2.49000001      -1.33395710E-22
   2.54999995       3.73841491E-21
   2.60999990       8.53356678E-21
   2.67000008       1.22938515E-20
   2.73000002       1.23928603E-20
   2.78999996       6.69889594E-21
   2.84999990      -4.86052217E-21
   2.91000009      -1.91415878E-20
   2.97000003      -3.00866139E-20
   3.02999997      -3.11769155E-20
   3.08999991      -1.96151439E-20
   3.15000010      -2.62681266E-22
   3.21000004       1.37885144E-20
   3.26999998       6.74328985E-21
   3.32999992      -2.82237935E-20
   3.39000010      -7.56963383E-20
   3.45000005      -9.21427568E-20
   3.50999999      -1.74322627E-20
   3.56999993       1.91783841E-19
   3.63000011       5.14806711E-19
   3.69000006       8.28973165E-19
   3.75000000       9.13659037E-19
   3.80999994       5.22162001E-19
   3.86999989      -4.80481456E-19
   3.93000007      -1.95921492E-18
   3.99000001      -3.41579457E-18
   4.05000019      -4.05571080E-18
   4.11000013      -3.06652107E-18
   4.17000008      -6.12110616E-20
   4.23000002       4.48032577E-18
   4.28999996       9.02242455E-18
   4.34999990       1.12697750E-17
   4.40999985       9.02389363E-18
   4.46999979       1.40439376E-18
   4.53000021      -1.00485280E-17
   4.59000015      -2.10334692E-17
   4.65000010      -2.54454769E-17
   4.71000004      -1.77376789E-17
   4.76999998       3.88145279E-18
   4.82999992       3.46679236E-17
   4.88999987       6.25927172E-17
   4.94999981       7.09559897E-17
   5.01000023       4.46305498E-17
   5.07000017      -2.14841354E-17
   5.13000011      -1.14970442E-16
   5.19000006      -2.03528941E-16
   5.25000000      -2.41292635E-16
   5.30999994      -1.84703859E-16
   5.36999989      -1.45032174E-17
   5.42999983       2.44212410E-16
   5.48999977       5.14533817E-16
   5.55000019       6.81969890E-16
   5.61000013       6.32542394E-16
   5.67000008       3.05892449E-16
   5.73000002      -2.56662709E-16
   5.78999996      -8.94749066E-16
   5.84999990      -1.36241629E-15
   5.90999985      -1.41452205E-15
   5.96999979      -9.21746865E-16
   6.03000021       3.35893827E-17
   6.09000015       1.13575133E-15
   6.15000010       1.92310085E-15
   6.21000004       1.97490115E-15
   6.26999998       1.13207753E-15
   6.32999992      -3.52093332E-16
   6.38999987      -1.83086659E-15
   6.44999981      -2.49283575E-15
   6.51000023      -1.74253513E-15
   6.57000017       4.21725872E-16
   6.63000011       3.22955727E-15
   6.69000006       5.30752327E-15
   6.75000000       5.20543166E-15
   6.80999994       2.11254951E-15
   6.86999989      -3.53934792E-15
   6.92999983      -9.90716417E-15
   6.98999977      -1.41911968E-14
   7.05000019      -1.36560007E-14
   7.11000013      -6.89219486E-15
   7.17000008       5.17965941E-15
   7.23000002       1.90539994E-14
   7.28999996       2.94139442E-14
   7.34999990       3.08552012E-14
   7.40999985       2.00896598E-14
   7.46999979      -2.13132209E-15
   7.53000021      -3.02013765E-14
   7.59000015      -5.45545630E-14
   7.65000010      -6.43679310E-14
   7.71000004      -5.14853358E-14
   7.76999998      -1.43304964E-14
   7.82999992       3.97566433E-14
   7.88999987       9.51010036E-14
   7.94999981       1.31664292E-13
   8.01000023       1.31568123E-13
   8.06999969       8.60562706E-14
   8.13000011       1.73438784E-16
   8.18999958      -1.07047360E-13
   8.25000000      -2.07456922E-13
   8.31000042      -2.72123930E-13
   8.36999989      -2.79856948E-13
   8.43000031      -2.22421907E-13
   8.48999977      -1.04550036E-13
   8.55000019       6.03726934E-14
   8.60999966       2.55460692E-13
   8.67000008       4.62061270E-13
   8.72999954       6.55671914E-13
   8.78999996       7.97693021E-13
   8.85000038       8.29005972E-13
   8.90999985       6.73500047E-13
   8.97000027       2.57685366E-13
   9.02999973      -4.53763410E-13
   9.09000015      -1.41535698E-12
   9.14999962      -2.46739131E-12
   9.21000004      -3.33085642E-12
   9.27000046      -3.64526595E-12
   9.32999992      -3.05259203E-12
   9.39000034      -1.31492560E-12
   9.44999981       1.56167299E-12
   9.51000023       5.23436372E-12
   9.56999969       8.99947651E-12
   9.63000011       1.18645710E-11
   9.68999958       1.27237925E-11
   9.75000000       1.06173282E-11
   9.81000042       5.02870228E-12
   9.86999989      -3.84734432E-12
   9.93000031      -1.49420649E-11
   9.98999977      -2.63215925E-11
   10.0500002      -3.54060427E-11
   10.1099997      -3.93938493E-11
   10.1700001      -3.58358343E-11
   10.2299995      -2.32582720E-11
   10.2900000      -1.70695532E-12
   10.3500004       2.69158272E-11
   10.4099998       5.88204069E-11
   10.4700003       8.86517248E-11
   10.5299997       1.10148418E-10
   10.5900002       1.17064719E-10
   10.6499996       1.04237771E-10
   10.7100000       6.86604315E-11
   10.7700005       1.04139882E-11
   10.8299999      -6.66776634E-11
   10.8900003      -1.54798188E-10
   10.9499998      -2.42398518E-10
   11.0100002      -3.15039134E-10
   11.0699997      -3.56835422E-10
   11.1300001      -3.52451179E-10
   11.1899996      -2.89492097E-10
   11.2500000      -1.61055849E-10
   11.3100004       3.18821393E-11
   11.3699999       2.78605305E-10
   11.4300003       5.57660029E-10
   11.4899998       8.37005354E-10
   11.5500002       1.07547549E-09
   11.6099997       1.22557897E-09
   11.6700001       1.23749822E-09
   11.7299995       1.06398135E-09
   11.7900000       6.65666300E-10
   11.8500004       1.62348242E-11
   11.9099998      -8.93275787E-10
   11.9700003      -2.05167239E-09
   12.0299997      -3.42686901E-09
   12.0900002      -4.96752772E-09
   12.1499996      -6.60706334E-09
   12.2100000      -8.26962410E-09
   12.2700005      -9.87730253E-09
   12.3299999      -1.13576171E-08
   12.3900003      -1.26501787E-08
   12.4499998      -1.37116203E-08
   12.5100002      -1.45181174E-08
   12.5699997      -1.50652486E-08
   12.6300001      -1.53654067E-08
   12.6899996      -1.54433923E-08
   12.7500000      -1.53310751E-08
   12.8100004      -1.50621844E-08
   12.8699999      -1.46680863E-08
   12.9300003      -1.41752485E-08
   12.9899998      -1.36045122E-08
   13.0500002      -1.29720252E-08
   13.1099997      -1.22912125E-08
   13.1700001      -1.15750565E-08
   13.2299995      -1.08379643E-08
   13.2900000      -1.00967457E-08
   13.3500004      -9.37052747E-09
   13.4099998      -8.67977512E-09
   13.4700003      -8.04475242E-09
   13.5299997      -7.48380291E-09
   13.5900002      -7.01171254E-09
   13.6499996      -6.63818200E-09
   13.7100000      -6.36634923E-09
   13.7700005      -6.19121687E-09
   13.8299999      -6.09805317E-09
   13.8900003      -6.06107120E-09
   13.9499998      -6.04301809E-09
   14.0100002      -5.99645089E-09
   14.0699997      -5.86736881E-09
   14.1300001      -5.60146907E-09
   14.1899996      -5.15260457E-09
   14.2500000      -4.49223458E-09
   14.3100004      -3.61803898E-09
   14.3699999      -2.55957233E-09
   14.4300003      -1.37913037E-09
   14.4899998      -1.66821376E-10
   14.5500002       9.69935354E-10
   14.6099997       1.92095340E-09
   14.6700001       2.58928701E-09
   14.7299995       2.90567126E-09
   14.7900000       2.83863066E-09
   14.8500004       2.39843834E-09
   14.9099998       1.63446545E-09
   14.9700003       6.26856955E-10
   15.0299997      -5.25443522E-10
   15.0900002      -1.71779002E-09
   15.1499996      -2.85166424E-09
   15.2100000      -3.84353882E-09
   15.2700005      -4.63006167E-09
   15.3299999      -5.16984633E-09
   15.3900003      -5.44285772E-09
   15.4499998      -5.44865930E-09
   15.5100002      -5.20453058E-09
   15.5699997      -4.74386308E-09
   15.6300001      -4.11450518E-09
   15.6899996      -3.37614203E-09
   15.7500000      -2.59568989E-09
   15.8100004      -1.84012172E-09
   15.8699999      -1.16708776E-09
   15.9300003      -6.14819973E-10
   15.9899998      -1.93711769E-10
   16.0499992       1.17785476E-10
   16.1100006       3.70931175E-10
   16.1700001       6.37544351E-10
   16.2299995       9.95226790E-10
   16.2900009       1.50999468E-09
   16.3500004       2.22038121E-09
   16.4099998       3.12700044E-09
   16.4699993       4.19033030E-09
   16.5300007       5.33740563E-09
   16.5900002       6.47578524E-09
   16.6499996       7.51125562E-09
   16.7099991       8.36479153E-09
   16.7700005       8.98461927E-09
   16.8299999       9.35066335E-09
   16.8899994       9.47094314E-09
   16.9500008       9.37172029E-09
   17.0100002       9.08500652E-09
   17.0699997       8.63766214E-09
   17.1299992       8.04556155E-09
   17.1900005       7.31449123E-09
   17.2500000       6.44689946E-09
   17.3099995       5.45140422E-09
   17.3700008       4.35068159E-09
   17.4300003       3.18368887E-09
   17.4899998       2.00008365E-09
   17.5499992       8.47666382E-10
   17.6100006      -2.43339265E-10
   17.6700001      -1.27342914E-09
   17.7299995      -2.27868102E-09
   17.7900009      -3.32384031E-09
   17.8500004      -4.48393234E-09
   17.9099998      -5.81890536E-09
   17.9699993      -7.34890415E-09
   18.0300007      -9.03855391E-09
   18.0900002      -1.07966187E-08
   18.1499996      -1.24930075E-08
   18.2099991      -1.39896708E-08
   18.2700005      -1.51771911E-08
   18.3299999      -1.60064086E-08
   18.3899994      -1.65052150E-08
   18.4500008      -1.67745426E-08
   18.5100002      -1.69635452E-08
   18.5699997      -1.72302350E-08
   18.6299992      -1.76984400E-08
   18.6900005      -1.84235009E-08
   18.7500000      -1.93768788E-08
   18.8099995      -2.04545856E-08
   18.8700008      -2.15072777E-08
   18.9300003      -2.23833769E-08
   18.9899998      -2.29724630E-08
   19.0499992      -2.32359163E-08
   19.1100006      -2.32155131E-08
   19.1700001      -2.30174741E-08
   19.2299995      -2.27770673E-08
   19.2900009      -2.26151471E-08
   19.3500004      -2.26006414E-08
   19.4099998      -2.27312977E-08
   19.4699993      -2.29391084E-08
   19.5300007      -2.31188650E-08
   19.5900002      -2.31705553E-08
   19.6499996      -2.30414123E-08
   19.7099991      -2.27531274E-08
   19.7700005      -2.24041035E-08
   19.8299999      -2.21445067E-08
   19.8899994      -2.21307630E-08
   19.9500008      -2.24731558E-08
   20.0100002      -2.31930422E-08
   20.0699997      -2.42039917E-08
   20.1299992      -2.53240966E-08
   20.1900005      -2.63174051E-08
   20.2500000      -2.69532414E-08
   20.3099995      -2.70665428E-08
   20.3700008      -2.66015139E-08
   20.4300003      -2.56256971E-08
   20.4899998      -2.43101947E-08
   20.5499992      -2.28817445E-08
   20.6100006      -2.15605738E-08
   20.6700001      -2.05019948E-08
   20.7299995      -1.97581791E-08
   20.7900009      -1.92703755E-08
   20.8500004      -1.88925622E-08
   20.9099998      -1.84384099E-08
   20.9699993      -1.77369284E-08
   21.0300007      -1.66803034E-08
   21.0900002      -1.52505510E-08
   21.1499996      -1.35186191E-08
   21.2099991      -1.16181305E-08
   21.2700005      -9.70342295E-09
   21.3299999      -7.90571875E-09
   21.3899994      -6.30084207E-09
   21.4500008      -4.89741403E-09
   21.5100002      -3.64739483E-09
   21.5699997      -2.47357268E-09
   21.6299992      -1.30354927E-09
   21.6900005      -9.83529647E-11
   21.7500000       1.13361731E-09
   21.8099995       2.34114461E-09
   21.8700008       3.45065621E-09
   21.9300003       4.39478098E-09
   21.9899998       5.13883469E-09
   22.0499992       5.69616487E-09
   22.1100006       6.12730267E-09
   22.1700001       6.52331922E-09
   22.2299995       6.97885172E-09
   22.2900009       7.56334462E-09
   22.3500004       8.29935676E-09
   22.4099998       9.15438658E-09
   22.4699993       1.00484483E-08
   22.5300007       1.08749694E-08
   22.5900002       1.15288898E-08
   22.6499996       1.19340200E-08
   22.7099991       1.20621939E-08
   22.7700005       1.19392762E-08
   22.8299999       1.16367911E-08
   22.8899994       1.12518128E-08
   22.9500008       1.08807452E-08
   23.0100002       1.05940305E-08
   23.0699997       1.04183595E-08
   23.1299992       1.03308215E-08
   23.1900005       1.02663087E-08
   23.2500000       1.01360884E-08
   23.3099995       9.85267690E-09
   23.3700008       9.35457578E-09
   23.4300003       8.62435279E-09
   23.4899998       7.69508368E-09
   23.5499992       6.64299016E-09
   23.6100006       5.56757929E-09
   23.6700001       4.56411886E-09
   23.7299995       3.69571707E-09
   23.7900009       2.97299629E-09
   23.8500004       2.34782682E-09
   23.9099998       1.72395642E-09
   23.9699993       9.82516291E-10
   24.0300007       1.56934327E-11
   24.0900002      -1.24112465E-09
   24.1499996      -2.78856671E-09
   24.2099991      -4.56067539E-09
   24.2700005      -6.44192699E-09
   24.3299999      -8.29921376E-09
   24.3899994      -1.00192485E-08
   24.4500008      -1.15399130E-08
   24.5100002      -1.28657156E-08
   24.5699997      -1.40624028E-08
   24.6299992      -1.52322794E-08
   24.6900005      -1.64779408E-08
   24.7500000      -1.78658528E-08
   24.8099995      -1.94013126E-08
   24.8700008      -2.10227782E-08
   24.9300003      -2.26173729E-08
   24.9899998      -2.40526070E-08
   25.0499992      -2.52142645E-08
   25.1100006      -2.60385047E-08
   25.1700001      -2.65282765E-08
   25.2299995      -2.67493458E-08
   25.2900009      -2.68079212E-08
   25.3500004      -2.68176095E-08
   25.4099998      -2.68665943E-08
   25.4699993      -2.69953180E-08
   25.5300007      -2.71910068E-08
   25.5900002      -2.73995617E-08
   25.6499996      -2.75496692E-08
   25.7099991      -2.75802510E-08
   25.7700005      -2.74619616E-08
   25.8299999      -2.72060134E-08
   25.8899994      -2.68584479E-08
   25.9500008      -2.64829989E-08
   26.0100002      -2.61395510E-08
   26.0699997      -2.58661625E-08
   26.1299992      -2.56709569E-08
   26.1900005      -2.55362007E-08
   26.2500000      -2.54322927E-08
   26.3099995      -2.53357406E-08
   26.3700008      -2.52438621E-08
   26.4300003      -2.51802525E-08
   26.4899998      -2.51886600E-08
   26.5499992      -2.53172523E-08
   26.6100006      -2.55990162E-08
   26.6700001      -2.60356323E-08
   26.7299995      -2.65911169E-08
   26.7900009      -2.71981726E-08
   26.8500004      -2.77756715E-08
   26.9099998      -2.82516357E-08
   26.9699993      -2.85839619E-08
   27.0300007      -2.87717334E-08
   27.0900002      -2.88531439E-08
   27.1499996      -2.88907955E-08
   27.2099991      -2.89495539E-08
   27.2700005      -2.90750002E-08
   27.3299999      -2.92801623E-08
   27.3899994      -2.95453297E-08
   27.4500008      -2.98306908E-08
   27.5100002      -3.00967855E-08
   27.5699997      -3.03245855E-08
   27.6299992      -3.05270866E-08
   27.6900005      -3.07473798E-08
   27.7500000      -3.10432462E-08
   27.8099995      -3.14635002E-08
   27.8700008      -3.20247899E-08
   27.9300003      -3.26976881E-08
   27.9899998      -3.34080177E-08
   28.0499992      -3.40540467E-08
   28.1100006      -3.45346329E-08
   28.1700001      -3.47791875E-08
   28.2299995      -3.47693145E-08
   28.2900009      -3.45441933E-08
   28.3500004      -3.41870887E-08
   28.4099998      -3.37965567E-08
   28.4699993      -3.34514176E-08
   28.5300007      -3.31810135E-08
   28.5900002      -3.29512524E-08
   28.6499996      -3.26717711E-08
   28.7099991      -3.22227045E-08
   28.7700005      -3.14925508E-08
   28.8299999      -3.04144656E-08
   28.8899994      -2.89884596E-08
   28.9500008      -2.72814660E-08
   29.0100002      -2.54050381E-08
   29.0699997      -2.34783180E-08
   29.1299992      -2.15894698E-08
   29.1900005      -1.97695478E-08
   29.2500000      -1.79884143E-08
   29.3099995      -1.61744698E-08
   29.3700008      -1.42510999E-08
   29.4300003      -1.21765238E-08
   29.4899998      -9.97210936E-09
   29.5499992      -7.72814435E-09
   29.6100006      -5.58405366E-09
   29.6700001      -3.68924336E-09
   29.7299995      -2.15792695E-09
   29.7900009      -1.03375508E-09
   29.8500004      -2.76984491E-10
   29.9099998       2.20704108E-10
   29.9699993       5.98133598E-10
   30.0300007       9.75800774E-10
   30.0900002       1.41269785E-09
   30.1499996       1.88356042E-09
   30.2099991       2.28466712E-09
   30.2700005       2.46684762E-09
   30.3299999       2.28521579E-09
   30.3899994       1.64935710E-09
   30.4500008       5.57225432E-10
   30.5100002      -8.98907004E-10
   30.5699997      -2.55708232E-09
   30.6299992      -4.23341406E-09
   30.6900005      -5.77771786E-09
   30.7500000      -7.11888637E-09
   30.8099995      -8.28498870E-09
   30.8700008      -9.39126199E-09
   30.9300003      -1.05997460E-08
   30.9899998      -1.20637695E-08
   31.0499992      -1.38755691E-08
   31.1100006      -1.60342921E-08
   31.1700001      -1.84447213E-08
   31.2299995      -2.09467181E-08
   31.2900009      -2.33650486E-08
   31.3500004      -2.55625530E-08
   31.4099998      -2.74788103E-08
   31.4699993      -2.91416384E-08
   31.5300007      -3.06482413E-08
   31.5900002      -3.21232072E-08
   31.6499996      -3.36681794E-08
   31.7099991      -3.53206318E-08
   31.7700005      -3.70356190E-08
   31.8299999      -3.86964736E-08
   31.8899994      -4.01503755E-08
   31.9500008      -4.12566159E-08
   32.0099983      -4.19313722E-08
   32.0699997      -4.21742854E-08
   32.1300011      -4.20685886E-08
   32.1899986      -4.17553530E-08
   32.2500000      -4.13909227E-08
   32.3100014      -4.11017140E-08
   32.3699989      -4.09509653E-08
   32.4300003      -4.09275174E-08
   32.4900017      -4.09592147E-08
   32.5499992      -4.09452667E-08
   32.6100006      -4.07959426E-08
   32.6699982      -4.04658884E-08
   32.7299995      -3.99699722E-08
   32.7900009      -3.93768076E-08
   32.8499985      -3.87826233E-08
   32.9099998      -3.82748517E-08
   32.9700012      -3.78980722E-08
   33.0299988      -3.76340346E-08
   33.0900002      -3.74025539E-08
   33.1500015      -3.70831437E-08
   33.2099991      -3.65503112E-08
   33.2700005      -3.57112455E-08
   33.3300018      -3.45340823E-08
   33.3899994      -3.30583099E-08
   33.4500008      -3.13848538E-08
   33.5099983      -2.96496712E-08
   33.5699997      -2.79894472E-08
   33.6300011      -2.65097491E-08
   33.6899986      -2.52643240E-08
   33.7500000      -2.42502711E-08
   33.8100014      -2.34187070E-08
   33.8699989      -2.26963479E-08
   33.9300003      -2.20109939E-08
   33.9900017      -2.13137810E-08
   34.0499992      -2.05929851E-08
   34.1100006      -1.98770458E-08
   34.1699982      -1.92274747E-08
   34.2299995      -1.87245881E-08
   34.2900009      -1.84500344E-08
   34.3499985      -1.84701356E-08
   34.4099998      -1.88233003E-08
   34.4700012      -1.95136085E-08
   34.5299988      -2.05114450E-08
   34.5900002      -2.17608100E-08
   34.6500015      -2.31918431E-08
   34.7099991      -2.47360674E-08
   34.7700005      -2.63411479E-08
   34.8300018      -2.79818693E-08
   34.8899994      -2.96645446E-08
   34.9500008      -3.14235749E-08
   35.0099983      -3.33106946E-08
   35.0699997      -3.53793830E-08
   35.1300011      -3.76684319E-08
   35.1899986      -4.01888194E-08
   35.2500000      -4.29174420E-08
   35.3100014      -4.57993252E-08
   35.3699989      -4.87577374E-08
   35.4300003      -5.17095557E-08
   35.4900017      -5.45818075E-08
   35.5499992      -5.73251313E-08
   35.6100006      -5.99206160E-08
   35.6699982      -6.23782910E-08
   35.7299995      -6.47276579E-08
   35.7900009      -6.70026949E-08
   35.8499985      -6.92251874E-08
   35.9099998      -7.13909714E-08
   35.9700012      -7.34628998E-08
   36.0299988      -7.53730234E-08
   36.0900002      -7.70340023E-08
   36.1500015      -7.83573668E-08
   36.2099991      -7.92742654E-08
   36.2700005      -7.97529509E-08
   36.3300018      -7.98081246E-08
   36.3899994      -7.94989106E-08
   36.4500008      -7.89154910E-08
   36.5099983      -7.81577967E-08
   36.5699997      -7.73120874E-08
   36.6300011      -7.64323147E-08
   36.6899986      -7.55316236E-08
   36.7500000      -7.45863176E-08
   36.8100014      -7.35508081E-08
   36.8699989      -7.23780502E-08
   36.9300003      -7.10387908E-08
   36.9900017      -6.95328737E-08
   37.0499992      -6.78890686E-08
   37.1100006      -6.61538309E-08
   37.1699982      -6.43732960E-08
   37.2299995      -6.25754950E-08
   37.2900009      -6.07595538E-08
   37.3499985      -5.88963580E-08
   37.4099998      -5.69408236E-08
   37.4700012      -5.48517676E-08
   37.5299988      -5.26122719E-08
   37.5900002      -5.02429458E-08
   37.6500015      -4.78030273E-08
   37.7099991      -4.53783038E-08
   37.7700005      -4.30596359E-08
   37.8300018      -4.09193284E-08
   37.8899994      -3.89933739E-08
   37.9500008      -3.72755977E-08
   38.0099983      -3.57254670E-08
   38.0699997      -3.42867637E-08
   38.1300011      -3.29104388E-08
   38.1899986      -3.15740252E-08
   38.2500000      -3.02913996E-08
   38.3100014      -2.91102840E-08
   38.3699989      -2.80992047E-08
   38.4300003      -2.73288130E-08
   38.4900017      -2.68538081E-08
   38.5499992      -2.67007074E-08
   38.6100006      -2.68640701E-08
   38.6699982      -2.73105520E-08
   38.7299995      -2.79879053E-08
   38.7900009      -2.88348989E-08
   38.8499985      -2.97890264E-08
   38.9099998      -3.07906483E-08
   38.9700012      -3.17842002E-08
   39.0299988      -3.27184821E-08
   39.0900002      -3.35480941E-08
   39.1500015      -3.42369191E-08
   39.2099991      -3.47629054E-08
   39.2700005      -3.51219285E-08
   39.3300018      -3.53281600E-08
   39.3899994      -3.54093466E-08
   39.4500008      -3.53974556E-08
   39.5099983      -3.53172958E-08
   39.5699997      -3.51770737E-08
   39.6300011      -3.49646143E-08
   39.6899986      -3.46511477E-08
   39.7500000      -3.42018609E-08
   39.8100014      -3.35896821E-08
   39.8699989      -3.28076162E-08
   39.9300003      -3.18751212E-08
   39.9900017      -3.08362438E-08
   40.0499992      -2.97499021E-08
   40.1100006      -2.86756254E-08
   40.1699982      -2.76593966E-08
   40.2299995      -2.67244396E-08
   40.2900009      -2.58700119E-08
   40.3499985      -2.50787018E-08
   40.4099998      -2.43296352E-08
   40.4700012      -2.36128290E-08
   40.5299988      -2.29391173E-08
   40.5900002      -2.23413110E-08
   40.6500015      -2.18652669E-08
   40.7099991      -2.15532872E-08
   40.7700005      -2.14256399E-08
   40.8300018      -2.14673381E-08
   40.8899994      -2.16260947E-08
   40.9500008      -2.18236131E-08
   41.0099983      -2.19776783E-08
   41.0699997      -2.20282175E-08
   41.1300011      -2.19586482E-08
   41.1899986      -2.18049561E-08
   41.2500000      -2.16488090E-08
   41.3100014      -2.15961808E-08
   41.3699989      -2.17478426E-08
   41.4300003      -2.21708536E-08
   41.4900017      -2.28800108E-08
   41.5499992      -2.38352396E-08
   41.6100006      -2.49557708E-08
   41.6699982      -2.61465445E-08
   41.7299995      -2.73281806E-08
   41.7900009      -2.84605193E-08
   41.8499985      -2.95518827E-08
   41.9099998      -3.06509946E-08
   41.9700012      -3.18246727E-08
   42.0299988      -3.31294352E-08
   42.0900002      -3.45874902E-08
   42.1500015      -3.61759511E-08
   42.2099991      -3.78334519E-08
   42.2700005      -3.94820105E-08
   42.3300018      -4.10563281E-08
   42.3899994      -4.25300826E-08
   42.4500008      -4.39296386E-08
   42.5099983      -4.53298874E-08
   42.5699997      -4.68330832E-08
   42.6300011      -4.85373626E-08
   42.6899986      -5.05053031E-08
   42.7500000      -5.27430224E-08
   42.8100014      -5.51969030E-08
   42.8699989      -5.77693129E-08
   42.9300003      -6.03482206E-08
   42.9900017      -6.28409396E-08
   43.0499992      -6.52008225E-08
   43.1100006      -6.74379663E-08
   43.1699982      -6.96106284E-08
   43.2299995      -7.18004785E-08
   43.2900009      -7.40803472E-08
   43.3499985      -7.64855699E-08
   43.4099998      -7.89985819E-08
   43.4700012      -8.15516188E-08
   43.5299988      -8.40463770E-08
   43.5900002      -8.63835297E-08
   43.6500015      -8.84920368E-08
   43.7099991      -9.03486352E-08
   43.7700005      -9.19812777E-08
   43.8300018      -9.34562223E-08
   43.8899994      -9.48538244E-08
   43.9500008      -9.62416991E-08
   44.0099983      -9.76544356E-08
   44.0699997      -9.90860940E-08
   44.1300011      -1.00496699E-07
   44.1899986      -1.01829045E-07
   44.2500000      -1.03028647E-07
   44.3100014      -1.04059396E-07
   44.3699989      -1.04909986E-07
   44.4300003      -1.05590445E-07
   44.4900017      -1.06121874E-07
   44.5499992      -1.06524645E-07
   44.6100006      -1.06810020E-07
   44.6699982      -1.06977652E-07
   44.7299995      -1.07018394E-07
   44.7900009      -1.06919629E-07
   44.8499985      -1.06669560E-07
   44.9099998      -1.06258419E-07
   44.9700012      -1.05676492E-07
   45.0299988      -1.04911045E-07
   45.0900002      -1.03944998E-07
   45.1500015      -1.02759472E-07
   45.2099991      -1.01340632E-07
   45.2700005      -9.96887906E-08
   45.3300018      -9.78260530E-08
   45.3899994      -9.57989386E-08
   45.4500008      -9.36733784E-08
   45.5099983      -9.15221960E-08
   45.5699997      -8.94082604E-08
   45.6300011      -8.73682140E-08
   45.6899986      -8.54026041E-08
   45.7500000      -8.34763512E-08
   45.8100014      -8.15306507E-08
   45.8699989      -7.95033372E-08
   45.9300003      -7.73514586E-08
   45.9900017      -7.50686269E-08
   46.0499992      -7.26907174E-08
   46.1100006      -7.02873635E-08
   46.1699982      -6.79415919E-08
   46.2299995      -6.57242012E-08
   46.2900009      -6.36719975E-08
   46.3499985      -6.17777829E-08
   46.4099998      -5.99961822E-08
   46.4700012      -5.82635558E-08
   46.5299988      -5.65249607E-08
   46.5900002      -5.47583312E-08
   46.6500015      -5.29867101E-08
   46.7099991      -5.12734708E-08
   46.7700005      -4.97017361E-08
   46.8300018      -4.83450329E-08
   46.8899994      -4.72397126E-08
   46.9500008      -4.63693759E-08
   47.0099983      -4.56676297E-08
   47.0699997      -4.50391227E-08
   47.1300011      -4.43924471E-08
   47.1899986      -4.36741061E-08
   47.2500000      -4.28921609E-08
   47.3100014      -4.21214033E-08
   47.3699989      -4.14878052E-08
   47.4300003      -4.11368397E-08
   47.4900017      -4.11953813E-08
   47.5499992      -4.17389785E-08
   47.6100006      -4.27745697E-08
   47.6699982      -4.42438832E-08
   47.7299995      -4.60464094E-08
   47.7900009      -4.80748952E-08
   47.8499985      -5.02527548E-08
   47.9099998      -5.25622816E-08
   47.9700012      -5.50560664E-08
   48.0299988      -5.78492489E-08
   48.0900002      -6.10969337E-08
   48.1500015      -6.49656045E-08
   48.2099991      -6.96094276E-08
   48.2700005      -7.51598179E-08
   48.3300018      -8.17320043E-08
   48.3899994      -8.94459831E-08
   48.4500008      -9.84544926E-08
   48.5099983      -1.08969047E-07
   48.5699997      -1.21276727E-07
   48.6300011      -1.35744727E-07
   48.6899986      -1.52814238E-07
   48.7500000      -1.72989175E-07
   48.8100014      -1.96826591E-07
   48.8699989      -2.24934439E-07
   48.9300003      -2.57980304E-07
   48.9900017      -2.96710596E-07
   49.0499992      -3.41978250E-07
   49.1100006      -3.94773281E-07
   49.1699982      -4.56251939E-07
   49.2299995      -5.27760164E-07
   49.2900009      -6.10851316E-07
   49.3499985      -7.07297886E-07
   49.4099998      -8.19102979E-07
   49.4700012      -9.48514867E-07
   49.5299988      -1.09804625E-06
   49.5900002      -1.27050066E-06
   49.6500015      -1.46900254E-06
   49.7099991      -1.69702878E-06
   49.7700005      -1.95844200E-06
   49.8300018      -2.25752183E-06
   49.8899994      -2.59899821E-06
   49.9500008      -2.98808709E-06
   50.0099983      -3.43052716E-06
   50.0699997      -3.93262098E-06
   50.1300011      -4.50127573E-06
   50.1899986      -5.14404519E-06
   50.2500000      -5.86916667E-06
   50.3100014      -6.68559051E-06
   50.3699989      -7.60300782E-06
   50.4300003      -8.63185869E-06
   50.4900017      -9.78333992E-06
   50.5499992      -1.10694073E-05
   50.6100006      -1.25027764E-05