  -2.400000      0.0000000E+00
  -2.340000      0.0000000E+00
  -2.280000      0.0000000E+00
  -2.220000      0.0000000E+00
  -2.160000      0.0000000E+00
  -2.100000      0.0000000E+00
  -2.040000      0.0000000E+00
  -1.980000      0.0000000E+00
  -1.920000      0.0000000E+00
  -1.860000      0.0000000E+00
  -1.800000      0.0000000E+00
  -1.740000      0.0000000E+00
  -1.680000      5.7422463E-35
  -1.620000      9.8325125E-34
  -1.560000      8.4144406E-33
  -1.500000      4.7783243E-32
  -1.440000      2.0200990E-31
  -1.380000      6.7854480E-31
  -1.320000      1.9012658E-30
  -1.260000      4.6648246E-30
  -1.200000      1.0563665E-29
  -1.140000      2.2906558E-29
  -1.080000      4.6424081E-29
  -1.020000      7.6273735E-29
 -0.9600000      4.9598143E-29
 -0.9000000     -2.8472602E-28
 -0.8400000     -1.5952017E-27
 -0.7800000     -5.1417160E-27
 -0.7200000     -1.2316627E-26
 -0.6600000     -2.2360990E-26
 -0.6000000     -2.6832848E-26
 -0.5400000     -9.3198504E-28
 -0.4800000      1.0307013E-25
 -0.4200000      3.4565393E-25
 -0.3600000      7.4881468E-25
 -0.3000000      1.1816307E-24
 -0.2400000      1.1943598E-24
 -0.1800000     -1.0479217E-25
 -0.1200000     -3.9156259E-24
 -5.9999999E-02 -1.1051232E-23
  0.0000000E+00 -2.0465917E-23
  5.9999999E-02 -2.7227664E-23
  0.1200000     -2.1022839E-23
  0.1800000      1.2664646E-23
  0.2400000      8.6051794E-23
  0.3000000      1.9580354E-22
  0.3600000      3.0560535E-22
  0.4200000      3.3377124E-22
  0.4800000      1.6169242E-22
  0.5400000     -3.2014674E-22
  0.6000000     -1.1235289E-21
  0.6600000     -2.0540286E-21
  0.7200000     -2.6432678E-21
  0.7800000     -2.2095955E-21
  0.8400000     -1.1975518E-22
  0.9000000      3.7599697E-21
  0.9600000      8.5830950E-21
   1.020000      1.2325446E-20
   1.080000      1.2225672E-20
   1.140000      6.0271756E-21
   1.200000     -6.2785965E-21
   1.260000     -2.1096859E-20
   1.320000     -3.1505839E-20
   1.380000     -3.0073511E-20
   1.440000     -1.3843730E-20
   1.500000      1.0804857E-20
   1.560000      2.7267211E-20
   1.620000      1.5311672E-20
   1.680000     -3.4565619E-20
   1.740000     -1.0454373E-19
   1.800000     -1.4179040E-19
   1.860000     -7.2020361E-20
   1.920000      1.6046391E-19
   1.980000      5.3654683E-19
   2.040000      9.1833116E-19
   2.100000      1.0555033E-18
   2.160000      6.6972621E-19
   2.220000     -3.8983182E-19
   2.280000     -1.9757771E-18
   2.340000     -3.5521613E-18
   2.400000     -4.2810915E-18
   2.460000     -3.3266104E-18
   2.520000     -3.1051518E-19
   2.580000      4.2607614E-18
   2.640000      8.8441795E-18
   2.700000      1.1188556E-17
   2.760000      9.1836445E-18
   2.820000      2.0170737E-18
   2.880000     -8.8214999E-18
   2.940000     -1.9269867E-17
   3.000000     -2.3622290E-17
   3.060000     -1.6732802E-17
   3.120000      3.0322293E-18
   3.180000      3.1233188E-17
   3.240000      5.6671011E-17
   3.300000      6.3828770E-17
   3.360000      3.8723723E-17
   3.420000     -2.3136424E-17
   3.480000     -1.0970450E-16
   3.540000     -1.9025960E-16
   3.600000     -2.2161401E-16
   3.660000     -1.6346178E-16
   3.720000      6.0673398E-19
   3.780000      2.4436710E-16
   3.840000      4.9284739E-16
   3.900000      6.3733295E-16
   3.960000      5.7293605E-16
   4.020000      2.4934090E-16
   4.080000     -2.8522132E-16
   4.140000     -8.7129981E-16
   4.200000     -1.2750255E-15
   4.260000     -1.2741034E-15
   4.320000     -7.6713799E-16
   4.380000      1.4125619E-16
   4.440000      1.1315253E-15
   4.500000      1.7664331E-15
   4.560000      1.6783560E-15
   4.620000      7.7682794E-16
   4.680000     -6.2734733E-16
   4.740000     -1.8735340E-15
   4.800000     -2.2045657E-15
   4.860000     -1.1473817E-15
   4.920000      1.1443244E-15
   4.980000      3.7784636E-15
   5.040000      5.3687108E-15
   5.100000      4.6066581E-15
   5.160000      9.5781215E-16
   5.220000     -4.8355218E-15
   5.280000     -1.0738941E-14
   5.340000     -1.4020513E-14
   5.400000     -1.2314932E-14
   5.460000     -4.7764700E-15
   5.520000      7.1647569E-15
   5.580000      1.9837474E-14
   5.640000      2.8285779E-14
   5.700000      2.7938353E-14
   5.760000      1.6487212E-14
   5.820000     -4.6745457E-15
   5.880000     -3.0058970E-14
   5.940000     -5.1095650E-14
   6.000000     -5.8517881E-14
   6.060000     -4.5613229E-14
   6.120000     -1.1385236E-14
   6.180000      3.7571390E-14
   6.240000      8.7543213E-14
   6.300000      1.2095599E-13
   6.360000      1.2183624E-13
   6.420000      8.1819480E-14
   6.480000      4.4337719E-15
   6.540000     -9.4317234E-14
   6.600000     -1.8974575E-13
   6.660000     -2.5545752E-13
   6.720000     -2.7078104E-13
   6.780000     -2.2559640E-13
   6.840000     -1.2082479E-13
   6.900000      3.4689896E-14
   6.960000      2.2783392E-13
   7.020000      4.4162653E-13
   7.080000      6.5038746E-13
   7.140000      8.1155395E-13
   7.200000      8.6017472E-13
   7.260000      7.1404682E-13
   7.320000      2.9529748E-13
   7.380000     -4.3226124E-13
   7.440000     -1.4194638E-12
   7.500000     -2.4987707E-12
   7.560000     -3.3812514E-12
   7.620000     -3.6978870E-12
   7.680000     -3.0873364E-12
   7.740000     -1.3161895E-12
   7.800000      1.5973821E-12
   7.860000      5.2945352E-12
   7.920000      9.0581570E-12
   7.980000      1.1891739E-11
   8.040000      1.2698712E-11
   8.100000      1.0540421E-11
   8.160000      4.9259997E-12
   8.220000     -3.9307889E-12
   8.280000     -1.4958789E-11
   8.340000     -2.6242362E-11
   8.400000     -3.5235669E-11
   8.460000     -3.9174431E-11
   8.520000     -3.5634693E-11
   8.580000     -2.3144842E-11
   8.640000     -1.7282624E-12
   8.700000      2.6750350E-11
   8.760000      5.8538424E-11
   8.820000      8.8303295E-11
   8.880000      1.0978584E-10
   8.940000      1.1672845E-10
   9.000000      1.0395654E-10
   9.060000      6.8464789E-11
   9.120000      1.0354024E-11
   9.180000     -6.6524397E-11
   9.240000     -1.5433918E-10
   9.300000     -2.4156041E-10
   9.360000     -3.1381317E-10
   9.420000     -3.5531642E-10
   9.480000     -3.5085257E-10
   9.540000     -2.8812824E-10
   9.600000     -1.6029407E-10
   9.660000      3.1687222E-11
   9.720000      2.7717986E-10
   9.780000      5.5486959E-10
   9.840000      8.3289953E-10
   9.900000      1.0703184E-09
   9.960000      1.2198669E-09
   10.02000      1.2319580E-09
   10.08000      1.0595427E-09
   10.14000      6.6339628E-10
   10.20000      1.7233897E-11
   10.26000     -8.8800656E-10
   10.32000     -2.0413720E-09
   10.38000     -3.4111372E-09
   10.44000     -4.9464064E-09
   10.50000     -6.5810646E-09
   10.56000     -8.2397094E-09
   10.62000     -9.8448227E-09
   10.68000     -1.1324213E-08
   10.74000     -1.2617651E-08
   10.80000     -1.3681771E-08
   10.86000     -1.4492555E-08
   10.92000     -1.5045190E-08
   10.98000     -1.5351509E-08
   11.04000     -1.5435649E-08
   11.10000     -1.5328837E-08
   11.16000     -1.5064273E-08
   11.22000     -1.4673043E-08
   11.28000     -1.4181585E-08
   11.34000     -1.3610977E-08
   11.40000     -1.2977782E-08
   11.46000     -1.2295926E-08
   11.52000     -1.1578873E-08
   11.58000     -1.0841423E-08
   11.64000     -1.0100639E-08
   11.70000     -9.3757606E-09
   11.76000     -8.6872314E-09
   11.82000     -8.0551841E-09
   11.88000     -7.4977464E-09
   11.94000     -7.0294135E-09
   12.00000     -6.6595525E-09
   12.06000     -6.3909322E-09
   12.12000     -6.2181882E-09
   12.18000     -6.1262662E-09
   12.24000     -6.0891696E-09
   12.30000     -6.0696217E-09
   12.36000     -6.0204033E-09
   12.42000     -5.8880110E-09
   12.48000     -5.6188778E-09
   12.54000     -5.1677125E-09
   12.60000     -4.5067829E-09
   12.66000     -3.6343355E-09
   12.72000     -2.5801030E-09
   12.78000     -1.4061052E-09
   12.84000     -2.0177195E-10
   12.90000      9.2642211E-10
   12.96000      1.8693163E-09
   13.02000      2.5309037E-09
   13.08000      2.8426590E-09
   13.14000      2.7736022E-09
   13.20000      2.3342619E-09
   13.26000      1.5740380E-09
   13.32000      5.7287253E-10
   13.38000     -5.7074834E-10
   13.44000     -1.7529109E-09
   13.50000     -2.8760834E-09
   13.56000     -3.8578887E-09
   13.62000     -4.6361324E-09
   13.68000     -5.1703863E-09
   13.74000     -5.4411919E-09
   13.80000     -5.4481681E-09
   13.86000     -5.2081006E-09
   13.92000     -4.7534083E-09
   13.98000     -4.1306478E-09
   14.04000     -3.3981062E-09
   14.10000     -2.6214177E-09
   14.16000     -1.8665836E-09
   14.22000     -1.1907245E-09
   14.28000     -6.3203831E-10
   14.34000     -2.0134644E-10
   14.40000      1.2211808E-10
   14.46000      3.8863537E-10
   14.52000      6.6901340E-10
   14.58000      1.0399432E-09
   14.64000      1.5667000E-09
   14.70000      2.2872462E-09
   14.76000      3.2017462E-09
   14.82000      4.2702912E-09
   14.88000      5.4195675E-09
   14.94000      6.5568493E-09
   15.00000      7.5877935E-09
   15.06000      8.4335028E-09
   15.12000      9.0426688E-09
   15.18000      9.3960537E-09
   15.24000      9.5028154E-09
   15.30000      9.3905328E-09
   15.36000      9.0925303E-09
   15.42000      8.6367749E-09
   15.48000      8.0398674E-09
   15.54000      7.3077864E-09
   15.60000      6.4425665E-09
   15.66000      5.4518154E-09
   15.72000      4.3567283E-09
   15.78000      3.1945464E-09
   15.84000      2.0132889E-09
   15.90000      8.5952018E-10
   15.96000     -2.3711652E-10
   16.02000     -1.2769297E-09
   16.08000     -2.2951010E-09
   16.14000     -3.3549716E-09
   16.20000     -4.5299253E-09
   16.26000     -5.8782916E-09
   16.32000     -7.4188113E-09
   16.38000     -9.1150323E-09
   16.44000     -1.0875030E-08
   16.50000     -1.2568452E-08
   16.56000     -1.4057462E-08
   16.62000     -1.5233352E-08
   16.68000     -1.6048148E-08
   16.74000     -1.6531274E-08
   16.80000     -1.6785350E-08
   16.86000     -1.6961112E-08
   16.92000     -1.7217836E-08
   16.98000     -1.7680147E-08
   17.04000     -1.8403668E-08
   17.10000     -1.9359669E-08
   17.16000     -2.0443535E-08
   17.22000     -2.1504894E-08
   17.28000     -2.2390759E-08
   17.34000     -2.2988988E-08
   17.40000     -2.3259082E-08
   17.46000     -2.3241087E-08
   17.52000     -2.3040055E-08
   17.58000     -2.2791047E-08
   17.64000     -2.2615918E-08
   17.70000     -2.2585766E-08
   17.76000     -2.2701286E-08
   17.82000     -2.2897554E-08
   17.88000     -2.3071854E-08
   17.94000     -2.3125486E-08
   18.00000     -2.3005549E-08
   18.06000     -2.2732280E-08
   18.12000     -2.2401750E-08
   18.18000     -2.2161538E-08
   18.24000     -2.2165793E-08
   18.30000     -2.2523169E-08
   18.36000     -2.3254168E-08
   18.42000     -2.4272140E-08
   18.48000     -2.5395384E-08
   18.54000     -2.6388356E-08
   18.60000     -2.7020890E-08
   18.66000     -2.7128484E-08
   18.72000     -2.6655991E-08
   18.78000     -2.5671708E-08
   18.84000     -2.4347562E-08
   18.90000     -2.2911095E-08
   18.96000     -2.1583203E-08
   19.02000     -2.0519593E-08
   19.08000     -1.9772489E-08
   19.14000     -1.9282833E-08
   19.20000     -1.8904023E-08
   19.26000     -1.8449027E-08
   19.32000     -1.7746189E-08
   19.38000     -1.6687208E-08
   19.44000     -1.5253846E-08
   19.50000     -1.3516998E-08
   19.56000     -1.1610340E-08
   19.62000     -9.6882946E-09
   19.68000     -7.8821856E-09
   19.74000     -6.2680332E-09
   19.80000     -4.8548729E-09
   19.86000     -3.5953720E-09
   19.92000     -2.4132747E-09
   19.98000     -1.2372002E-09
   20.04000     -2.8981229E-11
   20.10000      1.2026286E-09
   20.16000      2.4066051E-09
   20.22000      3.5100227E-09
   20.28000      4.4463766E-09
   20.34000      5.1818017E-09
   20.40000      5.7302549E-09
   20.46000      6.1526544E-09
   20.52000      6.5403660E-09
   20.58000      6.9883912E-09
   20.64000      7.5666913E-09
   20.70000      8.2984331E-09
   20.76000      9.1516092E-09
   20.82000      1.0046375E-08
   20.88000      1.0875788E-08
   20.94000      1.1533934E-08
   21.00000      1.1943516E-08
   21.06000      1.2075366E-08
   21.12000      1.1954803E-08
   21.18000      1.1653427E-08
   21.24000      1.1268903E-08
   21.30000      1.0898397E-08
   21.36000      1.0612836E-08
   21.42000      1.0438777E-08
   21.48000      1.0352522E-08
   21.54000      1.0287843E-08
   21.60000      1.0155128E-08
   21.66000      9.8668353E-09
   21.72000      9.3625152E-09
   21.78000      8.6266976E-09
   21.84000      7.6946911E-09
   21.90000      6.6443175E-09
   21.96000      5.5753078E-09
   22.02000      4.5814628E-09
   22.08000      3.7230536E-09
   22.14000      3.0073568E-09
   22.20000      2.3834879E-09
   22.26000      1.7539744E-09
   22.32000      1.0007010E-09
   22.38000      1.8351532E-11
   22.44000     -1.2542687E-09
   22.50000     -2.8145755E-09
   22.56000     -4.5946380E-09
   22.62000     -6.4787877E-09
   22.68000     -8.3355385E-09
   22.74000     -1.0054331E-08
   22.80000     -1.1575873E-08
   22.86000     -1.2906613E-08
   22.92000     -1.4112761E-08
   22.98000     -1.5295591E-08
   23.04000     -1.6555690E-08
   23.10000     -1.7957337E-08
   23.16000     -1.9504212E-08
   23.22000     -2.1134156E-08
   23.28000     -2.2734621E-08
   23.34000     -2.4174037E-08
   23.40000     -2.5339167E-08
   23.46000     -2.6166816E-08
   23.52000     -2.6660084E-08
   23.58000     -2.6884527E-08
   23.64000     -2.6946024E-08
   23.70000     -2.6957979E-08
   23.76000     -2.7008598E-08
   23.82000     -2.7138508E-08
   23.88000     -2.7335140E-08
   23.94000     -2.7544498E-08
   24.00000     -2.7695231E-08
   24.06000     -2.7726184E-08
   24.12000     -2.7608035E-08
   24.18000     -2.7352243E-08
   24.24000     -2.7005285E-08
   24.30000     -2.6631376E-08
   24.36000     -2.6290641E-08
   24.42000     -2.6020901E-08
   24.48000     -2.5829506E-08
   24.54000     -2.5697586E-08
   24.60000     -2.5594415E-08
   24.66000     -2.5495837E-08
   24.72000     -2.5399261E-08
   24.78000     -2.5329165E-08
   24.84000     -2.5330609E-08
   24.90000     -2.5452987E-08
   24.96000     -2.5729918E-08
   25.02000     -2.6162889E-08
   25.08000     -2.6715066E-08
   25.14000     -2.7318134E-08
   25.20000     -2.7890348E-08
   25.26000     -2.8359915E-08
   25.32000     -2.8685708E-08
   25.38000     -2.8868183E-08
   25.44000     -2.8946683E-08
   25.50000     -2.8984147E-08
   25.56000     -2.9044708E-08
   25.62000     -2.9172243E-08
   25.68000     -2.9377608E-08
   25.74000     -2.9639072E-08
   25.80000     -2.9915562E-08
   25.86000     -3.0167456E-08
   25.92000     -3.0376704E-08
   25.98000     -3.0558152E-08
   26.04000     -3.0757072E-08
   26.10000     -3.1033167E-08
   26.16000     -3.1436361E-08
   26.22000     -3.1983287E-08
   26.28000     -3.2643396E-08
   26.34000     -3.3340630E-08
   26.40000     -3.3971251E-08
   26.46000     -3.4432567E-08
   26.52000     -3.4653343E-08
   26.58000     -3.4615486E-08
   26.64000     -3.4359211E-08
   26.70000     -3.3969147E-08
   26.76000     -3.3545206E-08
   26.82000     -3.3167382E-08
   26.88000     -3.2866097E-08
   26.94000     -3.2608327E-08
   27.00000     -3.2304790E-08
   27.06000     -3.1836503E-08
   27.12000     -3.1092302E-08
   27.18000     -3.0004852E-08
   27.24000     -2.8572844E-08
   27.30000     -2.6861432E-08
   27.36000     -2.4980631E-08
   27.42000     -2.3048948E-08
   27.48000     -2.1155181E-08
   27.54000     -1.9332106E-08
   27.60000     -1.7551738E-08
   27.66000     -1.5744222E-08
   27.72000     -1.3833669E-08
   27.78000     -1.1777888E-08
   27.84000     -9.5971115E-09
   27.90000     -7.3804478E-09
   27.96000     -5.2666183E-09
   28.02000     -3.4048486E-09
   28.08000     -1.9092363E-09
   28.14000     -8.2270812E-10
   28.20000     -1.0376268E-10
   28.26000      3.5853262E-10
   28.32000      7.0566430E-10
   28.38000      1.0597841E-09
   28.44000      1.4797839E-09
   28.50000      1.9385635E-09
   28.56000      2.3296751E-09
   28.62000      2.5016007E-09
   28.68000      2.3085200E-09
   28.74000      1.6607404E-09
   28.80000      5.5791149E-10
   28.86000     -9.0627256E-10
   28.92000     -2.5698390E-09
   28.98000     -4.2507056E-09
   29.04000     -5.8017737E-09
   29.10000     -7.1550961E-09
   29.16000     -8.3406899E-09
   29.22000     -9.4737782E-09
   29.28000     -1.0714484E-08
   29.34000     -1.2213089E-08
   29.40000     -1.4058705E-08
   29.46000     -1.6248142E-08
   29.52000     -1.8685034E-08
   29.58000     -2.1209178E-08
   29.64000     -2.3645992E-08
   29.70000     -2.5859240E-08
   29.76000     -2.7789362E-08
   29.82000     -2.9464790E-08
   29.88000     -3.0983006E-08
   29.94000     -3.2468463E-08
   30.00000     -3.4022214E-08
   30.06000     -3.5680696E-08
   30.12000     -3.7397591E-08
   30.18000     -3.9054719E-08
   30.24000     -4.0498016E-08
   30.30000     -4.1586176E-08
   30.36000     -4.2235705E-08
   30.42000     -4.2447596E-08
   30.48000     -4.2307168E-08
   30.54000     -4.1957833E-08
   30.60000     -4.1557850E-08
   30.66000     -4.1234646E-08
   30.72000     -4.1051425E-08
   30.78000     -4.0996305E-08
   30.84000     -4.0996365E-08
   30.90000     -4.0950638E-08
   30.96000     -4.0770122E-08
   31.02000     -4.0410885E-08
   31.08000     -3.9889343E-08
   31.14000     -3.9275054E-08
   31.20000     -3.8664126E-08
   31.26000     -3.8142829E-08
   31.32000     -3.7753974E-08
   31.38000     -3.7477569E-08
   31.44000     -3.7232308E-08
   31.50000     -3.6897472E-08
   31.56000     -3.6348247E-08
   31.62000     -3.5493198E-08
   31.68000     -3.4302168E-08
   31.74000     -3.2816263E-08
   31.80000     -3.1137450E-08
   31.86000     -2.9401782E-08
   31.92000     -2.7744903E-08
   31.98000     -2.6270415E-08
   32.04000     -2.5029752E-08
   32.10000     -2.4018142E-08
   32.16000     -2.3185962E-08
   32.22000     -2.2460574E-08
   32.28000     -2.1771491E-08
   32.34000     -2.1071916E-08
   32.40000     -2.0351726E-08
   32.46000     -1.9639995E-08
   32.52000     -1.8997911E-08
   32.58000     -1.8504910E-08
   32.64000     -1.8241762E-08
   32.70000     -1.8274315E-08
   32.76000     -1.8640963E-08
   32.82000     -1.9345967E-08
   32.88000     -2.0359701E-08
   32.94000     -2.1625672E-08
   33.00000     -2.3072989E-08
   33.06000     -2.4631827E-08
   33.12000     -2.6248648E-08
   33.18000     -2.7897613E-08
   33.24000     -2.9585371E-08
   33.30000     -3.1347664E-08
   33.36000     -3.3238305E-08
   33.42000     -3.5313050E-08
   33.48000     -3.7612423E-08
   33.54000     -4.0148080E-08
   33.60000     -4.2896342E-08
   33.66000     -4.5800675E-08
   33.72000     -4.8782514E-08
   33.78000     -5.1757347E-08
   33.84000     -5.4651828E-08
   33.90000     -5.7417306E-08
   33.96000     -6.0036271E-08
   34.02000     -6.2520222E-08
   34.08000     -6.4899588E-08
   34.14000     -6.7208319E-08
   34.20000     -6.9467355E-08
   34.26000     -7.1671167E-08
   34.32000     -7.3781216E-08
   34.38000     -7.5728508E-08
   34.44000     -7.7425106E-08
   34.50000     -7.8782307E-08
   34.56000     -7.9731038E-08
   34.62000     -8.0239126E-08
   34.68000     -8.0320426E-08
   34.74000     -8.0032869E-08
   34.80000     -7.9465401E-08
   34.86000     -7.8716923E-08
   34.92000     -7.7873288E-08
   34.98000     -7.6988741E-08
   35.04000     -7.6077391E-08
   35.10000     -7.5116972E-08
   35.16000     -7.4063358E-08
   35.22000     -7.2870755E-08
   35.28000     -7.1510591E-08
   35.34000     -6.9982832E-08
   35.40000     -6.8315870E-08
   35.46000     -6.6555515E-08
   35.52000     -6.4747255E-08
   35.58000     -6.2918765E-08
   35.64000     -6.1069215E-08
   35.70000     -5.9169832E-08
   35.76000     -5.7176006E-08
   35.82000     -5.5046893E-08
   35.88000     -5.2765564E-08
   35.94000     -5.0352398E-08
   36.00000     -4.7866440E-08
   36.06000     -4.5393758E-08
   36.12000     -4.3026265E-08
   36.18000     -4.0838131E-08
   36.24000     -3.8867643E-08
   36.30000     -3.7110645E-08
   36.36000     -3.5527680E-08
   36.42000     -3.4062115E-08
   36.48000     -3.2663031E-08
   36.54000     -3.1305191E-08
   36.60000     -2.9999708E-08
   36.66000     -2.8792625E-08
   36.72000     -2.7752641E-08
   36.78000     -2.6952652E-08
   36.84000     -2.6451197E-08
   36.90000     -2.6279199E-08
   36.96000     -2.6434858E-08
   37.02000     -2.6886607E-08
   37.08000     -2.7581530E-08
   37.14000     -2.8455549E-08
   37.20000     -2.9442086E-08
   37.26000     -3.0477533E-08
   37.32000     -3.1503689E-08
   37.38000     -3.2468687E-08
   37.44000     -3.3328266E-08
   37.50000     -3.4048405E-08
   37.56000     -3.4608881E-08
   37.62000     -3.5006057E-08
   37.68000     -3.5252722E-08
   37.74000     -3.5373631E-08
   37.80000     -3.5397040E-08
   37.86000     -3.5344570E-08
   37.92000     -3.5222833E-08
   37.98000     -3.5020204E-08
   38.04000     -3.4710460E-08
   38.10000     -3.4262449E-08
   38.16000     -3.3652675E-08
   38.22000     -3.2876471E-08
   38.28000     -3.1953679E-08
   38.34000     -3.0926714E-08
   38.40000     -2.9851495E-08
   38.46000     -2.8784180E-08
   38.52000     -2.7768168E-08
   38.58000     -2.6825715E-08
   38.64000     -2.5957078E-08
   38.70000     -2.5147502E-08
   38.76000     -2.4379583E-08
   38.82000     -2.3646475E-08
   38.88000     -2.2960730E-08
   38.94000     -2.2354815E-08
   39.00000     -2.1872223E-08
   39.06000     -2.1551667E-08
   39.12000     -2.1409893E-08
   39.18000     -2.1429791E-08
   39.24000     -2.1559190E-08
   39.30000     -2.1722219E-08
   39.36000     -2.1840613E-08
   39.42000     -2.1858511E-08
   39.48000     -2.1762594E-08
   39.54000     -2.1590443E-08
   39.60000     -2.1423679E-08
   39.66000     -2.1367150E-08
   39.72000     -2.1520250E-08
   39.78000     -2.1948971E-08
   39.84000     -2.2667541E-08
   39.90000     -2.3635600E-08
   39.96000     -2.4772024E-08
   40.02000     -2.5981116E-08
   40.08000     -2.7182615E-08
   40.14000     -2.8335506E-08
   40.20000     -2.9447508E-08
   40.26000     -3.0567044E-08
   40.32000     -3.1760731E-08
   40.38000     -3.3084646E-08
   40.44000     -3.4560109E-08
   40.50000     -3.6163016E-08
   40.56000     -3.7830912E-08
   40.62000     -3.9485389E-08
   40.68000     -4.1061849E-08
   40.74000     -4.2535756E-08
   40.80000     -4.3935842E-08
   40.86000     -4.5339185E-08
   40.92000     -4.6849340E-08
   40.98000     -4.8564598E-08
   41.04000     -5.0546724E-08
   41.10000     -5.2800658E-08
   41.16000     -5.5271794E-08
   41.22000     -5.7862017E-08
   41.28000     -6.0459229E-08
   41.34000     -6.2970777E-08
   41.40000     -6.5349795E-08
   41.46000     -6.7605818E-08
   41.52000     -6.9796336E-08
   41.58000     -7.2002372E-08
   41.64000     -7.4296445E-08
   41.70000     -7.6714024E-08
   41.76000     -7.9237864E-08
   41.82000     -8.1800479E-08
   41.88000     -8.4303515E-08
   41.94000     -8.6647148E-08
   42.00000     -8.8759506E-08
   42.06000     -9.0616382E-08
   42.12000     -9.2245038E-08
   42.18000     -9.3711719E-08
   42.24000     -9.5097704E-08
   42.30000     -9.6472483E-08
   42.36000     -9.7873148E-08
   42.42000     -9.9296180E-08
   42.48000     -1.0070318E-07
   42.54000     -1.0203711E-07
   42.60000     -1.0324226E-07
   42.66000     -1.0428051E-07
   42.72000     -1.0513870E-07
   42.78000     -1.0582604E-07
   42.84000     -1.0636407E-07
   42.90000     -1.0677463E-07
   42.96000     -1.0707061E-07
   43.02000     -1.0725256E-07
   43.08000     -1.0731094E-07
   43.14000     -1.0723132E-07
   43.20000     -1.0699930E-07
   43.26000     -1.0660244E-07
   43.32000     -1.0602920E-07
   43.38000     -1.0526637E-07
   43.44000     -1.0429790E-07
   43.50000     -1.0310706E-07
   43.56000     -1.0168262E-07
   43.62000     -1.0002704E-07
   43.68000     -9.8163589E-08
   43.74000     -9.6138741E-08
   43.80000     -9.4017473E-08
   43.86000     -9.1871307E-08
   43.92000     -8.9761869E-08
   43.98000     -8.7724828E-08
   44.04000     -8.5759943E-08
   44.10000     -8.3831402E-08
   44.16000     -8.1879726E-08
   44.22000     -7.9842280E-08
   44.28000     -7.7676148E-08
   44.34000     -7.5375510E-08
   44.40000     -7.2977258E-08
   44.46000     -7.0552055E-08
   44.52000     -6.8183589E-08
   44.58000     -6.5942807E-08
   44.64000     -6.3866075E-08
   44.70000     -6.1945485E-08
   44.76000     -6.0134880E-08
   44.82000     -5.8370020E-08
   44.88000     -5.6595848E-08
   44.94000     -5.4790917E-08
   45.00000     -5.2979697E-08
   45.06000     -5.1227641E-08
   45.12000     -4.9620049E-08
   45.18000     -4.8231975E-08
   45.24000     -4.7100063E-08
   45.30000     -4.6206967E-08
   45.36000     -4.5484676E-08
   45.42000     -4.4836387E-08
   45.48000     -4.4170068E-08
   45.54000     -4.3432518E-08
   45.60000     -4.2632614E-08
   45.66000     -4.1845901E-08
   45.72000     -4.1198675E-08
   45.78000     -4.0836284E-08
   45.84000     -4.0885229E-08
   45.90000     -4.1420545E-08
   45.96000     -4.2448484E-08
   46.02000     -4.3909878E-08
   46.08000     -4.5703299E-08
   46.14000     -4.7721024E-08
   46.20000     -4.9886857E-08
   46.26000     -5.2184475E-08
   46.32000     -5.4668316E-08
   46.38000     -5.7455061E-08
   46.44000     -6.0700366E-08
   46.50000     -6.4570223E-08
   46.56000     -6.9217670E-08
   46.62000     -7.4772949E-08
   46.68000     -8.1350485E-08
   46.74000     -8.9069644E-08
   46.80000     -9.8082666E-08
   46.86000     -1.0860062E-07
   46.92000     -1.2091054E-07
   46.98000     -1.3538018E-07
   47.04000     -1.5245173E-07
   47.10000     -1.7263008E-07
   47.16000     -1.9647243E-07
   47.22000     -2.2458602E-07
   47.28000     -2.5763717E-07
   47.34000     -2.9637170E-07
   47.40000     -3.4164282E-07
   47.46000     -3.9444174E-07
   47.52000     -4.5592586E-07
   47.58000     -5.2744150E-07
   47.64000     -6.1054118E-07
   47.70000     -7.0699639E-07
   47.76000     -8.1880961E-07
   47.82000     -9.4822889E-07
   47.88000     -1.0977669E-06
   47.94000     -1.2702262E-06
   48.00000     -1.4687297E-06
   48.06000     -1.6967534E-06
   48.12000     -1.9581603E-06
   48.18000     -2.2572328E-06
   48.24000     -2.5987051E-06
   48.30000     -2.9877963E-06
   48.36000     -3.4302454E-06
   48.42000     -3.9323531E-06
   48.48000     -4.5010238E-06
   48.54000     -5.1438096E-06
   48.60000     -5.8689466E-06
   48.66000     -6.6853881E-06
   48.72000     -7.6028246E-06
   48.78000     -8.6316959E-06
   48.84000     -9.7831980E-06
   48.90000     -1.1069284E-05
   48.96000     -1.2502674E-05
   49.02000     -1.4096851E-05
   49.08000     -1.5866095E-05
   49.14000     -1.7825470E-05
   49.20000     -1.9990850E-05
   49.26000     -2.2378899E-05
   49.32000     -2.5007055E-05
   49.38000     -2.7893464E-05
   49.44000     -3.1056912E-05
   49.50000     -3.4516732E-05
   49.56000     -3.8292685E-05
   49.62000     -4.2404852E-05
   49.68000     -4.6873505E-05
   49.74000     -5.1719013E-05
   49.80000     -5.6961700E-05
   49.86000     -6.2621730E-05
   49.92000     -6.8718946E-05
   49.98000     -7.5272736E-05
   50.04000     -8.2301827E-05
   50.10000     -8.9824076E-05
   50.16000     -9.7856268E-05
   50.22000     -1.0641383E-04
   50.28000     -1.1551067E-04
   50.34000     -1.2515885E-04
   50.40000     -1.3536843E-04
   50.46000     -1.4614726E-04
   50.52000     -1.5750070E-04
   50.58000     -1.6943154E-04
   50.64000     -1.8193976E-04
   50.70000     -1.9502231E-04
   50.76000     -2.0867297E-04
   50.82000     -2.2288212E-04
   50.88000     -2.3763675E-04
   50.94000     -2.5292017E-04
   51.00000     -2.6871209E-04
   51.06000     -2.8498849E-04
   51.12000     -3.0172183E-04
   51.18000     -3.1888078E-04
   51.24000     -3.3643059E-04
   51.30000     -3.5433294E-04
   51.36000     -3.7254629E-04
   51.42000     -3.9102591E-04
   51.48000     -4.0972407E-04
   51.54000     -4.2859055E-04
   51.60000     -4.4757276E-04
   51.66000     -4.6661642E-04
   51.72000     -4.8566560E-04
   51.78000     -5.0466356E-04
   51.84000     -5.2355271E-04
   51.90000     -5.4227549E-04
   51.96000     -5.6077458E-04
   52.02000     -5.7899347E-04
   52.08000     -5.9687713E-04
   52.14000     -6.1437220E-04
   52.20000     -6.3142780E-04
   52.26000     -6.4799597E-04
   52.32000     -6.6403218E-04
   52.38000     -6.7949574E-04
   52.44000     -6.9435034E-04
   52.50000     -7.0856424E-04
   52.56000     -7.2211091E-04
   52.62000     -7.3496916E-04
   52.68000     -7.4712321E-04
   52.74000     -7.5856328E-04
   52.80000     -7.6928537E-04
   52.86000     -7.7929150E-04
   52.92000     -7.8858959E-04
   52.98000     -7.9719321E-04
   53.04000     -8.0512185E-04
   53.10000     -8.1240025E-04
   53.16000     -8.1905845E-04
   53.22000     -8.2513131E-04
   53.28000     -8.3065801E-04
   53.34000     -8.3568192E-04
   53.40000     -8.4024970E-04
   53.46000     -8.4441103E-04
   53.52000     -8.4821769E-04
   53.58000     -8.5172313E-04
   53.64000     -8.5498160E-04
   53.70000     -8.5804774E-04
   53.76000     -8.6097571E-04
   53.82000     -8.6381857E-04
   53.88000     -8.6662767E-04
   53.94000     -8.6945185E-04
   54.00000     -8.7233697E-04
   54.06000     -8.7532518E-04
   54.12000     -8.7845483E-04
   54.18000     -8.8175939E-04
   54.24000     -8.8526710E-04
   54.30000     -8.8900118E-04
   54.36000     -8.9297921E-04
   54.42000     -8.9721300E-04
   54.48000     -9.0170844E-04
   54.54000     -9.0646523E-04
   54.60000     -9.1147720E-04
   54.66000     -9.1673201E-04
   54.72000     -9.2221180E-04
   54.78000     -9.2789321E-04
   54.84000     -9.3374820E-04
   54.90000     -9.3974412E-04
   54.96000     -9.4584411E-04
   55.02000     -9.5200754E-04
   55.08000     -9.5819065E-04
   55.14000     -9.6434692E-04
   55.20000     -9.7042823E-04
   55.26000     -9.7638520E-04
   55.32000     -9.8216778E-04
   55.38000     -9.8772615E-04
   55.44000     -9.9301117E-04
   55.50000     -9.9797512E-04
   55.56000     -1.0025722E-03