 -0.750000000       0.00000000    
 -0.689999998       0.00000000    
 -0.629999995       0.00000000    
 -0.569999993       0.00000000    
 -0.509999990       0.00000000    
 -0.449999988       0.00000000    
 -0.389999986       0.00000000    
 -0.330000013       0.00000000    
 -0.270000011       0.00000000    
 -0.209999993       0.00000000    
 -0.150000006       0.00000000    
  -9.00000036E-02   0.00000000    
  -2.99999993E-02   4.20057138E-36
   2.99999993E-02   6.73909706E-35
   9.00000036E-02   5.45301222E-34
  0.150000006       2.96620626E-33
  0.209999993       1.22687073E-32
  0.270000011       4.11959019E-32
  0.330000013       1.16847677E-31
  0.389999986       2.85835228E-31
  0.449999988       6.02587745E-31
  0.509999990       1.05206632E-30
  0.569999993       1.28095425E-30
  0.629999995      -1.25267790E-31
  0.689999998      -7.18986888E-30
  0.750000000      -2.88802704E-29
  0.810000002      -7.99415904E-29
  0.870000005      -1.71886371E-28
  0.930000007      -2.76368973E-28
  0.990000010      -2.40802536E-28
   1.04999995       3.30370749E-28
   1.11000001       2.10610474E-27
   1.16999996       5.66273555E-27
   1.23000002       1.02908523E-26
   1.28999996       1.18477217E-26
   1.35000002       7.36808989E-28
   1.40999997      -3.67020648E-26
   1.47000003      -1.08125479E-25
   1.52999997      -1.92640930E-25
   1.59000003      -2.11373702E-25
   1.64999998      -1.59935108E-26
   1.71000004       5.58241956E-25
   1.76999998       1.52710238E-24
   1.83000004       2.48590601E-24
   1.88999999       2.37071773E-24
   1.95000005      -4.32170298E-25
   2.00999999      -7.22704348E-24
   2.06999993      -1.72259706E-23
   2.13000011      -2.53846730E-23
   2.19000006      -2.14776848E-23
   2.25000000       7.18410499E-24
   2.30999994       6.76073423E-23
   2.36999989       1.48665293E-22
   2.43000007       2.10248710E-22
   2.49000001       1.84054704E-22
   2.54999995      -4.46666376E-24
   2.60999990      -3.91512324E-22
   2.67000008      -9.20084547E-22
   2.73000002      -1.39991554E-21
   2.78999996      -1.50965521E-21
   2.84999990      -8.58741511E-22
   2.91000009       8.87368301E-22
   2.97000003       3.81865749E-21
   3.02999997       7.52397508E-21
   3.08999991       1.07824584E-20
   3.15000010       1.13196912E-20
   3.21000004       5.94023843E-21
   3.26999998      -8.47085373E-21
   3.32999992      -3.26763161E-20
   3.39000010      -6.17936488E-20
   3.45000005      -8.24728862E-20
   3.50999999      -7.33502085E-20
   3.56999993      -1.18480601E-20
   3.63000011       1.11619403E-19
   3.69000006       2.75638914E-19
   3.75000000       4.15439469E-19
   3.80999994       4.29177646E-19
   3.86999989       2.12864604E-19
   3.93000007      -2.77991803E-19
   3.99000001      -9.60503826E-19
   4.05000019      -1.58783419E-18
   4.11000013      -1.78535975E-18
   4.17000008      -1.18184164E-18
   4.23000002       3.85040245E-19
   4.28999996       2.66306993E-18
   4.34999990       4.89269019E-18
   4.40999985       5.93442326E-18
   4.46999979       4.65702892E-18
   4.53000021       5.08080337E-19
   4.59000015      -5.93996537E-18
   4.65000010      -1.27493803E-17
   4.71000004      -1.69248747E-17
   4.76999998      -1.53411299E-17
   4.82999992      -6.10216556E-18
   4.88999987       1.01070337E-17
   4.94999981       2.92485374E-17
   5.01000023       4.42524158E-17
   5.07000017       4.66940974E-17
   5.13000011       2.97073182E-17
   5.19000006      -8.44007700E-18
   5.25000000      -6.11530392E-17
   5.30999994      -1.12166273E-16
   5.36999989      -1.37692299E-16
   5.42999983      -1.13243263E-16
   5.48999977      -2.47990898E-17
   5.55000019       1.18615450E-16
   5.61000013       2.76782283E-16
   5.67000008       3.81793272E-16
   5.73000002       3.58167988E-16
   5.78999996       1.57638893E-16
   5.84999990      -2.03188910E-16
   5.90999985      -6.22014463E-16
   5.96999979      -9.26283997E-16
   6.03000021      -9.31941224E-16
   6.09000015      -5.30448507E-16
   6.15000010       2.32799144E-16
   6.21000004       1.13335592E-15
   6.26999998       1.82465360E-15
   6.32999992       1.96837582E-15
   6.38999987       1.38770361E-15
   6.44999981       1.70597399E-16
   6.51000023      -1.33454329E-15
   6.57000017      -2.63823002E-15
   6.63000011      -3.29164881E-15
   6.69000006      -3.04441895E-15
   6.75000000      -1.90801054E-15
   6.80999994      -1.13409612E-16
   6.86999989       1.98460307E-15
   6.92999983       3.98148345E-15
   6.98999977       5.43906664E-15
   7.05000019       5.88221607E-15
   7.11000013       4.86369961E-15
   7.17000008       2.15495410E-15
   7.23000002      -1.98913723E-15
   7.28999996      -6.66243040E-15
   7.34999990      -1.04332775E-14
   7.40999985      -1.18313333E-14
   7.46999979      -1.00234482E-14
   7.53000021      -5.30625357E-15
   7.59000015       9.48514588E-16
   7.65000010       6.97829999E-15
   7.71000004       1.15958810E-14
   7.76999998       1.47887108E-14
   7.82999992       1.73989156E-14
   7.88999987       1.98801767E-14
   7.94999981       2.08661857E-14
   8.01000023       1.67288008E-14
   8.06999969       3.02778386E-15
   8.13000011      -2.22884269E-14
   8.18999958      -5.54069696E-14
   8.25000000      -8.51909282E-14
   8.31000042      -9.56159793E-14
   8.36999989      -7.22394014E-14
   8.43000031      -1.04645728E-14
   8.48999977       7.83737089E-14
   8.55000019       1.67007535E-13
   8.60999966       2.19978292E-13
   8.67000008       2.07168836E-13
   8.72999954       1.17887362E-13
   8.78999996      -3.09054201E-14
   8.85000038      -1.96806764E-13
   8.90999985      -3.24952630E-13
   8.97000027      -3.67311325E-13
   9.02999973      -3.00782701E-13
   9.09000015      -1.36809861E-13
   9.14999962       8.13444906E-14
   9.21000004       2.92435401E-13
   9.27000046       4.36637109E-13
   9.32999992       4.73278643E-13
   9.39000034       3.91172256E-13
   9.44999981       2.09394486E-13
   9.51000023      -2.98722296E-14
   9.56999969      -2.72675274E-13
   9.63000011      -4.65104680E-13
   9.68999958      -5.63436667E-13
   9.75000000      -5.42052622E-13
   9.81000042      -3.99044350E-13
   9.86999989      -1.58667472E-13
   9.93000031       1.31129184E-13
   9.98999977       4.07608843E-13
   10.0500002       6.07989570E-13
   10.1099997       6.86245060E-13
   10.1700001       6.25863890E-13
   10.2299995       4.42968362E-13
   10.2900000       1.78068389E-13
   10.3500004      -1.19613209E-13
   10.4099998      -4.07017112E-13
   10.4700003      -6.53161173E-13
   10.5299997      -8.33179717E-13
   10.5900002      -9.15646682E-13
   10.6499996      -8.54590758E-13
   10.7100000      -5.97537644E-13
   10.7700005      -1.13058183E-13
   10.8299999       5.71244007E-13
   10.8900003       1.33994335E-12
   10.9499998       1.99155839E-12
   11.0100002       2.28204912E-12
   11.0699997       2.00234534E-12
   11.1300001       1.06332380E-12
   11.1899996      -4.47113646E-13
   11.2500000      -2.26260178E-12
   11.3100004      -3.99815944E-12
   11.3699999      -5.24984613E-12
   11.4300003      -5.69408366E-12
   11.4899998      -5.14657891E-12
   11.5500002      -3.56125372E-12
   11.6099997      -9.81742574E-13
   11.6700001       2.51381836E-12
   11.7299995       6.82469576E-12
   11.7900000       1.17628260E-11
   11.8500004       1.69153649E-11
   11.9099998       2.14805708E-11
   11.9700003       2.41507942E-11
   12.0299997       2.31156448E-11
   12.0900002       1.62276668E-11
   12.1499996       1.32268729E-12
   12.2100000      -2.33630858E-11
   12.2700005      -5.87683791E-11
   12.3299999      -1.04667032E-10
   12.3900003      -1.59481858E-10
   12.4499998      -2.20284693E-10
   12.5100002      -2.82979556E-10
   12.5699997      -3.42640472E-10
   12.6300001      -3.93964250E-10
   12.6899996      -4.31792463E-10
   12.7500000      -4.51651605E-10
   12.8100004      -4.50248339E-10
   12.8699999      -4.25848995E-10
   12.9300003      -3.78474946E-10
   12.9899998      -3.09868076E-10
   13.0500002      -2.23225022E-10
   13.1099997      -1.22749713E-10
   13.1700001      -1.31148772E-11
   13.2299995       1.01060188E-10
   13.2900000       2.15628224E-10
   13.3500004       3.27183669E-10
   13.4099998       4.33186126E-10
   13.4700003       5.31975630E-10
   13.5299997       6.22728202E-10
   13.5900002       7.05386582E-10
   13.6499996       7.80577714E-10
   13.7100000       8.49514237E-10
   13.7700005       9.13872200E-10
   13.8299999       9.75653447E-10
   13.8900003       1.03705555E-09
   13.9499998       1.10038123E-09
   14.0100002       1.16801413E-09
   14.0699997       1.24246202E-09
   14.1300001       1.32644440E-09
   14.1899996       1.42296708E-09
   14.2500000       1.53531277E-09
   14.3100004       1.66687675E-09
   14.3699999       1.82079429E-09
   14.4300003       1.99934247E-09
   14.4899998       2.20315499E-09
   14.5500002       2.43034770E-09
   14.6099997       2.67571054E-09
   14.6700001       2.93016056E-09
   14.7299995       3.18065752E-09
   14.7900000       3.41074147E-09
   14.8500004       3.60175534E-09
   14.9099998       3.73469522E-09
   14.9700003       3.79247433E-09
   15.0299997       3.76227227E-09
   15.0900002       3.63756225E-09
   15.1499996       3.41942763E-09
   15.2100000       3.11689541E-09
   15.2700005       2.74619349E-09
   15.3299999       2.32906983E-09
   15.3900003       1.89049243E-09
   15.4499998       1.45615497E-09
   15.5100002       1.05020703E-09
   15.5699997       6.93505031E-10
   15.6300001       4.02520184E-10
   15.6899996       1.88875082E-10
   15.7500000       5.93741653E-11
   15.8100004       1.63604668E-11
   15.8699999       5.82510012E-11
   15.9300003       1.80142096E-10
   15.9899998       3.74407699E-10
   16.0499992       6.31230235E-10
   16.1100006       9.39021194E-10
   16.1700001       1.28472943E-09
   16.2299995       1.65409297E-09
   16.2900009       2.03195283E-09
   16.3500004       2.40276399E-09
   16.4099998       2.75138134E-09
   16.4699993       3.06408166E-09
   16.5300007       3.32963301E-09
   16.5900002       3.54011176E-09
   16.6499996       3.69118247E-09
   16.7099991       3.78167408E-09
   16.7700005       3.81251430E-09
   16.8299999       3.78532405E-09
   16.8899994       3.70113828E-09
   16.9500008       3.55972585E-09
   17.0100002       3.35984152E-09
   17.0699997       3.10044013E-09
   17.1299992       2.78255508E-09
   17.1900005       2.41127385E-09
   17.2500000       1.99711403E-09
   17.3099995       1.55621360E-09
   17.3700008       1.10903020E-09
   17.4300003       6.77669365E-10
   17.4899998       2.82382395E-10
   17.5499992      -6.19358106E-11
   17.6100006      -3.48356261E-10
   17.6700001      -5.78939119E-10
   17.7299995      -7.63881958E-10
   17.7900009      -9.18999155E-10
   17.8500004      -1.06216336E-09
   17.9099998      -1.20958088E-09
   17.9699993      -1.37275113E-09
   18.0300007      -1.55669977E-09
   18.0900002      -1.75966175E-09
   18.1499996      -1.97395655E-09
   18.2099991      -2.18748997E-09
   18.2700005      -2.38522091E-09
   18.3299999      -2.55009458E-09
   18.3899994      -2.66330580E-09
   18.4500008      -2.70418399E-09
   18.5100002      -2.65033773E-09
   18.5699997      -2.47878429E-09
   18.6299992      -2.16857599E-09
   18.6900005      -1.70491354E-09
   18.7500000      -1.08411913E-09
   18.8099995      -3.18293530E-10
   18.8700008       5.61730329E-10
   18.9300003       1.50630530E-09
   18.9899998       2.45029996E-09
   19.0499992       3.31952665E-09
   19.1100006       4.03913791E-09
   19.1700001       4.54237270E-09
   19.2299995       4.77800466E-09
   19.2900009       4.71526906E-09
   19.3500004       4.34577396E-09
   19.4099998       3.68265085E-09
   19.4699993       2.75771272E-09
   19.5300007       1.61757552E-09
   19.5900002       3.19528570E-10
   19.6499996      -1.07241194E-09
   19.7099991      -2.49117793E-09
   19.7700005      -3.87015087E-09
   19.8299999      -5.14657739E-09
   19.8899994      -6.26486907E-09
   19.9500008      -7.17960580E-09
   20.0100002      -7.85801468E-09
   20.0699997      -8.28173086E-09
   20.1299992      -8.44770209E-09
   20.1900005      -8.36810266E-09
   20.2500000      -8.06902101E-09
   20.3099995      -7.58759988E-09
   20.3700008      -6.96740532E-09
   20.4300003      -6.25209839E-09
   20.4899998      -5.47810197E-09
   20.5499992      -4.66763606E-09
   20.6100006      -3.82394116E-09
   20.6700001      -2.93047631E-09
   20.7299995      -1.95514338E-09
   20.7900009      -8.59350924E-10
   20.8500004       3.89735605E-10
   20.9099998       1.80657911E-09
   20.9699993       3.37758643E-09
   21.0300007       5.05718134E-09
   21.0900002       6.77112633E-09
   21.1499996       8.42673131E-09
   21.2099991       9.92772087E-09
   21.2700005       1.11901866E-08
   21.3299999       1.21557155E-08
   21.3899994       1.27984459E-08
   21.4500008       1.31244677E-08
   21.5100002       1.31640947E-08
   21.5699997       1.29595028E-08
   21.6299992       1.25514923E-08
   21.6900005       1.19692478E-08
   21.7500000       1.12259544E-08
   21.8099995       1.03211741E-08
   21.8700008       9.24874755E-09
   21.9300003       8.00717448E-09
   21.9899998       6.60867361E-09
   22.0499992       5.08360953E-09
   22.1100006       3.47858364E-09
   22.1700001       1.84872151E-09
   22.2299995       2.46804938E-10
   22.2900009      -1.28685540E-09
   22.3500004      -2.73000311E-09
   22.4099998      -4.07713108E-09
   22.4699993      -5.33133271E-09
   22.5300007      -6.49185905E-09
   22.5900002      -7.54167218E-09
   22.6499996      -8.43958414E-09
   22.7099991      -9.12034803E-09
   22.7700005      -9.50359791E-09
   22.8299999      -9.50979739E-09
   22.8899994      -9.07911435E-09
   22.9500008      -8.18816748E-09
   23.0100002      -6.86011425E-09
   23.0699997      -5.16535037E-09
   23.1299992      -3.21249538E-09
   23.1900005      -1.13181586E-09
   23.2500000       9.45006184E-10
   23.3099995       2.90409052E-09
   23.3700008       4.66328309E-09
   23.4300003       6.17794482E-09
   23.4899998       7.43786854E-09
   23.5499992       8.45687342E-09
   23.6100006       9.25848820E-09
   23.6700001       9.86206850E-09
   23.7299995       1.02733777E-08
   23.7900009       1.04821440E-08
   23.8500004       1.04669304E-08
   23.9099998       1.02052491E-08
   23.9699993       9.68527658E-09
   24.0300007       8.91498164E-09
   24.0900002       7.92532528E-09
   24.1499996       6.76599710E-09
   24.2099991       5.49456924E-09
   24.2700005       4.16204182E-09
   24.3299999       2.79909340E-09
   24.3899994       1.40742962E-09
   24.4500008      -4.06279489E-11
   24.5100002      -1.59344871E-09
   24.5699997      -3.30416738E-09
   24.6299992      -5.21175325E-09
   24.6900005      -7.32454142E-09
   24.7500000      -9.61130819E-09
   24.8099995      -1.20029648E-08
   24.8700008      -1.44048551E-08
   24.9300003      -1.67164007E-08
   24.9899998      -1.88525444E-08
   25.0499992      -2.07608277E-08
   25.1100006      -2.24292478E-08
   25.1700001      -2.38829774E-08
   25.2299995      -2.51714720E-08
   25.2900009      -2.63504081E-08
   25.3500004      -2.74643579E-08
   25.4099998      -2.85354407E-08
   25.4699993      -2.95609635E-08
   25.5300007      -3.05197041E-08
   25.5900002      -3.13835464E-08
   25.6499996      -3.21294564E-08
   25.7099991      -3.27470566E-08
   25.7700005      -3.32390684E-08
   25.8299999      -3.36149704E-08
   25.8899994      -3.38810331E-08
   25.9500008      -3.40316184E-08
   26.0100002      -3.40459430E-08
   26.0699997      -3.38927357E-08
   26.1299992      -3.35418875E-08
   26.1900005      -3.29792122E-08
   26.2500000      -3.22191056E-08
   26.3099995      -3.13098525E-08
   26.3700008      -3.03287742E-08
   26.4300003      -2.93675466E-08
   26.4899998      -2.85116890E-08
   26.5499992      -2.78202510E-08
   26.6100006      -2.73123479E-08
   26.6700001      -2.69652425E-08
   26.7299995      -2.67251572E-08
   26.7900009      -2.65278928E-08
   26.8500004      -2.63229563E-08
   26.9099998      -2.60935469E-08
   26.9699993      -2.58659671E-08
   27.0300007      -2.57054129E-08
   27.0900002      -2.56995918E-08
   27.1499996      -2.59355009E-08
   27.2099991      -2.64767976E-08
   27.2700005      -2.73486815E-08
   27.3299999      -2.85344104E-08
   27.3899994      -2.99836316E-08
   27.4500008      -3.16289572E-08
   27.5100002      -3.34048877E-08
   27.5699997      -3.52630281E-08
   27.6299992      -3.71791948E-08
   27.6900005      -3.91510824E-08
   27.7500000      -4.11881125E-08
   27.8099995      -4.32975220E-08
   27.8700008      -4.54714844E-08
   27.9300003      -4.76791975E-08
   27.9899998      -4.98661805E-08
   28.0499992      -5.19603454E-08
   28.1100006      -5.38826157E-08
   28.1700001      -5.55586546E-08
   28.2299995      -5.69285667E-08
   28.2900009      -5.79523949E-08
   28.3500004      -5.86109721E-08
   28.4099998      -5.89029980E-08
   28.4699993      -5.88401221E-08
   28.5300007      -5.84419304E-08
   28.5900002      -5.77323540E-08
   28.6499996      -5.67379921E-08
   28.7099991      -5.54882966E-08
   28.7700005      -5.40165068E-08
   28.8299999      -5.23602210E-08
   28.8899994      -5.05603914E-08
   28.9500008      -4.86582294E-08
   29.0100002      -4.66903671E-08
   29.0699997      -4.46835635E-08
   29.1299992      -4.26508038E-08
   29.1900005      -4.05905176E-08
   29.2500000      -3.84899401E-08
   29.3099995      -3.63321320E-08
   29.3700008      -3.41050281E-08
   29.4300003      -3.18098827E-08
   29.4899998      -2.94665288E-08
   29.5499992      -2.71136038E-08
   29.6100006      -2.48034144E-08
   29.6700001      -2.25924754E-08
   29.7299995      -2.05302424E-08
   29.7900009      -1.86490432E-08
   29.8500004      -1.69581753E-08
   29.9099998      -1.54441580E-08
   29.9699993      -1.40773411E-08
   30.0300007      -1.28231923E-08
   30.0900002      -1.16547945E-08
   30.1499996      -1.05624354E-08
   30.2099991      -9.55683088E-09
   30.2700005      -8.66466277E-09
   30.3299999      -7.91791521E-09
   30.3899994      -7.34092831E-09
   30.4500008      -6.94014002E-09
   30.5100002      -6.70051437E-09
   30.5699997      -6.59006050E-09
   30.6299992      -6.57060895E-09
   30.6900005      -6.61051214E-09
   30.7500000      -6.69416478E-09
   30.8099995      -6.82454049E-09
   30.8700008      -7.01772240E-09
   30.9300003      -7.29161487E-09
   30.9899998      -7.65338193E-09
   31.0499992      -8.09090395E-09
   31.1100006      -8.57230020E-09
   31.1700001      -9.05488040E-09
   31.2299995      -9.50143519E-09
   31.2900009      -9.89881954E-09
   31.3500004      -1.02722026E-08
   31.4099998      -1.06889617E-08
   31.4699993      -1.12488845E-08
   31.5300007      -1.20616965E-08
   31.5900002      -1.32173756E-08
   31.6499996      -1.47579087E-08
   31.7099991      -1.66596408E-08
   31.7700005      -1.88327984E-08
   31.8299999      -2.11397317E-08
   31.8899994      -2.34275692E-08
   31.9500008      -2.55661536E-08
   32.0099983      -2.74802527E-08
   32.0699997      -2.91664950E-08
   32.1300011      -3.06899750E-08
   32.1899986      -3.21615587E-08
   32.2500000      -3.37026229E-08
   32.3100014      -3.54074992E-08
   32.3699989      -3.73146136E-08
   32.4300003      -3.93945072E-08
   32.4900017      -4.15579144E-08
   32.5499992      -4.36812080E-08
   32.6100006      -4.56411051E-08
   32.6699982      -4.73481663E-08
   32.7299995      -4.87685980E-08
   32.7900009      -4.99280546E-08
   32.8499985      -5.08966203E-08
   32.9099998      -5.17604981E-08
   32.9700012      -5.25900496E-08
   33.0299988      -5.34151567E-08
   33.0900002      -5.42162226E-08
   33.1500015      -5.49337393E-08
   33.2099991      -5.54930537E-08
   33.2700005      -5.58356383E-08
   33.3300018      -5.59460425E-08
   33.3899994      -5.58649518E-08
   33.4500008      -5.56835573E-08
   33.5099983      -5.55206583E-08
   33.5699997      -5.54896928E-08
   33.6300011      -5.56664510E-08
   33.6899986      -5.60679503E-08
   33.7500000      -5.66494478E-08
   33.8100014      -5.73205945E-08
   33.8699989      -5.79754271E-08
   33.9300003      -5.85265028E-08
   33.9900017      -5.89321303E-08
   34.0499992      -5.92079203E-08
   34.1100006      -5.94190972E-08
   34.1699982      -5.96560668E-08
   34.2299995      -6.00009926E-08
   34.2900009      -6.04959638E-08
   34.3499985      -6.11226838E-08
   34.4099998      -6.18002503E-08
   34.4700012      -6.24020231E-08
   34.5299988      -6.27871799E-08
   34.5900002      -6.28380121E-08
   34.6500015      -6.24922976E-08
   34.7099991      -6.17615044E-08
   34.7700005      -6.07294552E-08
   34.8300018      -5.95318568E-08
   34.8899994      -5.83228044E-08
   34.9500008      -5.72380152E-08
   35.0099983      -5.63655291E-08
   35.0699997      -5.57321016E-08
   35.1300011      -5.53083837E-08
   35.1899986      -5.50301422E-08
   35.2500000      -5.48279466E-08
   35.3100014      -5.46553380E-08
   35.3699989      -5.45066783E-08
   35.4300003      -5.44194627E-08
   35.4900017      -5.44611396E-08
   35.5499992      -5.47052679E-08
   35.6100006      -5.52049251E-08
   35.6699982      -5.59717250E-08
   35.7299995      -5.69668366E-08
   35.7900009      -5.81065045E-08
   35.8499985      -5.92803602E-08
   35.9099998      -6.03769905E-08
   35.9700012      -6.13093505E-08
   36.0299988      -6.20326617E-08
   36.0900002      -6.25497449E-08
   36.1500015      -6.29025010E-08
   36.2099991      -6.31524273E-08
   36.2700005      -6.33565804E-08
   36.3300018      -6.35467288E-08
   36.3899994      -6.37188222E-08
   36.4500008      -6.38361684E-08
   36.5099983      -6.38452917E-08
   36.5699997      -6.36990336E-08
   36.6300011      -6.33786001E-08
   36.6899986      -6.29064232E-08
   36.7500000      -6.23446610E-08
   36.8100014      -6.17789766E-08
   36.8699989      -6.12922406E-08
   36.9300003      -6.09364363E-08
   36.9900017      -6.07118764E-08
   37.0499992      -6.05607653E-08
   37.1100006      -6.03776087E-08
   37.1699982      -6.00340613E-08
   37.2299995      -5.94110894E-08
   37.2900009      -5.84297020E-08
   37.3499985      -5.70713716E-08
   37.4099998      -5.53827419E-08
   37.4700012      -5.34634914E-08
   37.5299988      -5.14408747E-08
   37.5900002      -4.94382597E-08
   37.6500015      -4.75462372E-08
   37.7099991      -4.58040788E-08
   37.7700005      -4.41962058E-08
   37.8300018      -4.26638884E-08
   37.8899994      -4.11281817E-08
   37.9500008      -3.95168982E-08
   38.0099983      -3.77875295E-08
   38.0699997      -3.59395642E-08
   38.1300011      -3.40130768E-08
   38.1899986      -3.20749720E-08
   38.2500000      -3.01979561E-08
   38.3100014      -2.84393735E-08
   38.3699989      -2.68266618E-08
   38.4300003      -2.53535646E-08
   38.4900017      -2.39874449E-08
   38.5499992      -2.26844588E-08
   38.6100006      -2.14070166E-08
   38.6699982      -2.01375894E-08
   38.7299995      -1.88844993E-08
   38.7900009      -1.76779977E-08
   38.8499985      -1.65580900E-08
   38.9099998      -1.55579727E-08
   38.9700012      -1.46884744E-08
   39.0299988      -1.39286369E-08
   39.0900002      -1.32260105E-08
   39.1500015      -1.25073800E-08
   39.2099991      -1.16973213E-08
   39.2700005      -1.07392593E-08
   39.3300018      -9.61249569E-09
   39.3899994      -8.33972269E-09
   39.4500008      -6.98250924E-09
   39.5099983      -5.62627500E-09
   39.5699997      -4.35971570E-09
   39.6300011      -3.25527472E-09
   39.6899986      -2.35645259E-09
   39.7500000      -1.67493541E-09
   39.8100014      -1.19694621E-09
   39.8699989      -8.95259034E-10
   39.9300003      -7.41958495E-10
   39.9900017      -7.17523874E-10
   40.0499992      -8.13747736E-10
   40.1100006      -1.03050035E-09
   40.1699982      -1.36859213E-09
   40.2299995      -1.82225990E-09
   40.2900009      -2.37477349E-09
   40.3499985      -2.99930436E-09
   40.4099998      -3.66496899E-09
   40.4700012      -4.34563008E-09
   40.5299988      -5.02762232E-09
   40.5900002      -5.71277914E-09
   40.6500015      -6.41507958E-09
   40.7099991      -7.15214732E-09
   40.7700005      -7.93533239E-09
   40.8300018      -8.76292106E-09
   40.8899994      -9.61964997E-09
   40.9500008      -1.04827498E-08
   41.0099983      -1.13316476E-08
   41.0699997      -1.21567600E-08
   41.1300011      -1.29633122E-08
   41.1899986      -1.37684024E-08
   41.2500000      -1.45925307E-08
   41.3100014      -1.54490394E-08
   41.3699989      -1.63356333E-08
   41.4300003      -1.72312049E-08
   41.4900017      -1.80993602E-08
   41.5499992      -1.88978078E-08
   41.6100006      -1.95909777E-08
   41.6699982      -2.01620320E-08
   41.7299995      -2.06202415E-08
   41.7900009      -2.10005418E-08
   41.8499985      -2.13543530E-08
   41.9099998      -2.17337259E-08
   41.9700012      -2.21737295E-08
   42.0299988      -2.26794903E-08
   42.0900002      -2.32232722E-08
   42.1500015      -2.37536035E-08
   42.2099991      -2.42139411E-08
   42.2700005      -2.45644216E-08
   42.3300018      -2.47989043E-08
   42.3899994      -2.49511896E-08
   42.4500008      -2.50882977E-08
   42.5099983      -2.52933390E-08
   42.5699997      -2.56438195E-08
   42.6300011      -2.61923319E-08
   42.6899986      -2.69551741E-08
   42.7500000      -2.79115451E-08
   42.8100014      -2.90127087E-08
   42.8699989      -3.01977607E-08
   42.9300003      -3.14111084E-08
   42.9900017      -3.26165157E-08
   43.0499992      -3.38037545E-08
   43.1100006      -3.49861295E-08
   43.1699982      -3.61900412E-08
   43.2299995      -3.74402020E-08
   43.2900009      -3.87457462E-08
   43.3499985      -4.00921536E-08
   43.4099998      -4.14419965E-08
   43.4700012      -4.27445741E-08
   43.5299988      -4.39513883E-08
   43.5900002      -4.50324755E-08
   43.6500015      -4.59882017E-08
   43.7099991      -4.68523105E-08
   43.7700005      -4.76846580E-08
   43.8300018      -4.85551617E-08
   43.8899994      -4.95232619E-08
   43.9500008      -5.06189686E-08
   44.0099983      -5.18314671E-08
   44.0699997      -5.31092823E-08
   44.1300011      -5.43724603E-08
   44.1899986      -5.55334054E-08
   44.2500000      -5.65200082E-08
   44.3100014      -5.72939385E-08
   44.3699989      -5.78586032E-08
   44.4300003      -5.82548445E-08
   44.4900017      -5.85462772E-08
   44.5499992      -5.87993725E-08
   44.6100006      -5.90644831E-08
   44.6699982      -5.93632414E-08
   44.7299995      -5.96854193E-08
   44.7900009      -5.99954646E-08
   44.8499985      -6.02460659E-08
   44.9099998      -6.03942922E-08
   44.9700012      -6.04150472E-08
   45.0299988      -6.03075208E-08
   45.0900002      -6.00926882E-08
   45.1500015      -5.98028436E-08
   45.2099991      -5.94673750E-08
   45.2700005      -5.91002447E-08
   45.3300018      -5.86941589E-08
   45.3899994      -5.82236446E-08
   45.4500008      -5.76558890E-08
   45.5099983      -5.69649252E-08
   45.5699997      -5.61440316E-08
   45.6300011      -5.52118138E-08
   45.6899986      -5.42104495E-08
   45.7500000      -5.31969420E-08
   45.8100014      -5.22304582E-08
   45.8699989      -5.13593506E-08
   45.9300003      -5.06110709E-08
   45.9900017      -4.99871042E-08
   46.0499992      -4.94639636E-08
   46.1100006      -4.89999188E-08
   46.1699982      -4.85459957E-08
   46.2299995      -4.80586948E-08
   46.2900009      -4.75110049E-08
   46.3499985      -4.68987871E-08
   46.4099998      -4.62406149E-08
   46.4700012      -4.55714151E-08
   46.5299988      -4.49320190E-08
   46.5900002      -4.43580390E-08
   46.6500015      -4.38713137E-08
   46.7099991      -4.34759393E-08
   46.7700005      -4.31595133E-08
   46.8300018      -4.28985345E-08
   46.8899994      -4.26662972E-08
   46.9500008      -4.24412150E-08
   47.0099983      -4.22135145E-08
   47.0699997      -4.19884891E-08
   47.1300011      -4.17851496E-08
   47.1899986      -4.16302512E-08
   47.2500000      -4.15492742E-08
   47.3100014      -4.15573744E-08
   47.3699989      -4.16539443E-08
   47.4300003      -4.18234904E-08
   47.4900017      -4.20433786E-08
   47.5499992      -4.22960404E-08
   47.6100006      -4.25813482E-08
   47.6699982      -4.29243201E-08
   47.7299995      -4.33751879E-08
   47.7900009      -4.40014212E-08
   47.8499985      -4.48744828E-08
   47.9099998      -4.60557601E-08
   47.9700012      -4.75865427E-08
   48.0299988      -4.94854682E-08
   48.0900002      -5.17549914E-08
   48.1500015      -5.43956595E-08
   48.2099991      -5.74249341E-08
   48.2700005      -6.08956867E-08
   48.3300018      -6.49092726E-08
   48.3899994      -6.96194320E-08
   48.4500008      -7.52260050E-08
   48.5099983      -8.19611685E-08
   48.5699997      -9.00737405E-08
   48.6300011      -9.98182728E-08
   48.6899986      -1.11453843E-07
   48.7500000      -1.25254275E-07
   48.8100014      -1.41527266E-07
   48.8699989      -1.60637512E-07
   48.9300003      -1.83028590E-07
   48.9900017      -2.09239843E-07
   49.0499992      -2.39917028E-07
   49.1100006      -2.75817172E-07
   49.1699982      -3.17809821E-07
   49.2299995      -3.66876577E-07
   49.2900009      -4.24112670E-07
   49.3499985      -4.90733328E-07
   49.4099998      -5.68087728E-07
   49.4700012      -6.57682335E-07
   49.5299988      -7.61211425E-07
   49.5900002      -8.80589937E-07
   49.6500015      -1.01798366E-06
   49.7099991      -1.17583158E-06
   49.7700005      -1.35686105E-06
   49.8300018      -1.56409908E-06
   49.8899994      -1.80088466E-06
   49.9500008      -2.07088624E-06
   50.0099983      -2.37812606E-06
   50.0699997      -2.72700800E-06
   50.1300011      -3.12234738E-06
   50.1899986      -3.56939995E-06
   50.2500000      -4.07388825E-06
   50.3100014      -4.64202776E-06
   50.3699989      -5.28055261E-06
   50.4300003      -5.99673558E-06
   50.4900017      -6.79840514E-06
   50.5499992      -7.69395592E-06
   50.6100006      -8.69234736E-06