  -2.400000      0.0000000E+00
  -2.340000      0.0000000E+00
  -2.280000      0.0000000E+00
  -2.220000      0.0000000E+00
  -2.160000      0.0000000E+00
  -2.100000      0.0000000E+00
  -2.040000      0.0000000E+00
  -1.980000      0.0000000E+00
  -1.920000      0.0000000E+00
  -1.860000      0.0000000E+00
  -1.800000      0.0000000E+00
  -1.740000      0.0000000E+00
  -1.680000      1.5323398E-34
  -1.620000      2.7091598E-33
  -1.560000      2.3833972E-32
  -1.500000      1.3744596E-31
  -1.440000      5.7351053E-31
  -1.380000      1.7837482E-30
  -1.320000      3.9747519E-30
  -1.260000      4.7961486E-30
  -1.200000     -6.6574079E-30
  -1.140000     -5.9083703E-29
  -1.080000     -2.0137432E-28
  -1.020000     -4.6848150E-28
 -0.9600000     -7.6153023E-28
 -0.9000000     -6.1105193E-28
 -0.8400000      1.0868184E-27
 -0.7800000      6.0021056E-27
 -0.7200000      1.5287533E-26
 -0.6600000      2.6793044E-26
 -0.6000000      3.0856559E-26
 -0.5400000      7.3710447E-27
 -0.4800000     -6.9943865E-26
 -0.4200000     -2.1495806E-25
 -0.3600000     -3.9487759E-25
 -0.3000000     -4.9536856E-25
 -0.2400000     -3.2309891E-25
 -0.1800000      3.0520099E-25
 -0.1200000      1.3701591E-24
 -5.9999999E-02  2.4355516E-24
  0.0000000E+00  2.6359054E-24
  5.9999999E-02  1.1627288E-24
  0.1200000     -1.6354119E-24
  0.1800000     -3.0079438E-24
  0.2400000      2.2487214E-24
  0.3000000      1.8758066E-23
  0.3600000      4.3381881E-23
  0.4200000      5.5973102E-23
  0.4800000      1.5290753E-23
  0.5400000     -1.2835707E-22
  0.6000000     -3.9403264E-22
  0.6600000     -7.0858652E-22
  0.7200000     -8.5254210E-22
  0.7800000     -4.7139349E-22
  0.8400000      7.8322175E-22
  0.9000000      2.9613005E-21
  0.9600000      5.4557824E-21
   1.020000      6.8008181E-21
   1.080000      4.9368021E-21
   1.140000     -1.8338921E-21
   1.200000     -1.3317979E-20
   1.260000     -2.5988890E-20
   1.320000     -3.2770502E-20
   1.380000     -2.5175693E-20
   1.440000      1.9503287E-21
   1.500000      4.4566394E-20
   1.560000      8.5840578E-20
   1.620000      9.8979715E-20
   1.680000      5.8903454E-20
   1.740000     -3.9470752E-20
   1.800000     -1.6468565E-19
   1.860000     -2.4645934E-19
   1.920000     -1.9827482E-19
   1.980000      3.4754930E-20
   2.040000      4.1872736E-19
   2.100000      7.9565728E-19
   2.160000      9.0490891E-19
   2.220000      4.8047479E-19
   2.280000     -5.9169496E-19
   2.340000     -2.1147230E-18
   2.400000     -3.5085987E-18
   2.460000     -3.9093606E-18
   2.520000     -2.4749852E-18
   2.580000      1.1557750E-18
   2.640000      6.4087274E-18
   2.700000      1.1557309E-17
   2.760000      1.3979268E-17
   2.820000      1.1012090E-17
   2.880000      1.2978508E-18
   2.940000     -1.3807816E-17
   3.000000     -2.9472313E-17
   3.060000     -3.8053501E-17
   3.120000     -3.1666456E-17
   3.180000     -6.3314811E-18
   3.240000      3.3711756E-17
   3.300000      7.3883673E-17
   3.360000      9.1815102E-17
   3.420000      6.5754016E-17
   3.480000     -1.2743612E-17
   3.540000     -1.2680504E-16
   3.600000     -2.3020807E-16
   3.660000     -2.5788270E-16
   3.720000     -1.5250901E-16
   3.780000      9.9713718E-17
   3.840000      4.3974973E-16
   3.900000      7.3235236E-16
   3.960000      8.0257976E-16
   4.020000      5.1006704E-16
   4.080000     -1.6308197E-16
   4.140000     -1.0526637E-15
   4.200000     -1.8243288E-15
   4.260000     -2.0781045E-15
   4.320000     -1.5238147E-15
   4.380000     -1.5946813E-16
   4.440000      1.6400828E-15
   4.500000      3.1985908E-15
   4.560000      3.7869789E-15
   4.620000      2.9636626E-15
   4.680000      8.5342789E-16
   4.740000     -1.7957922E-15
   4.800000     -3.8601523E-15
   4.860000     -4.3300011E-15
   4.920000     -2.8385840E-15
   4.980000      3.8688888E-17
   5.040000      2.9148390E-15
   5.100000      4.1646387E-15
   5.160000      2.7262806E-15
   5.220000     -1.2347244E-15
   5.280000     -6.1516272E-15
   5.340000     -9.5334617E-15
   5.400000     -8.9658166E-15
   5.460000     -3.2576936E-15
   5.520000      6.7385249E-15
   5.580000      1.8007917E-14
   5.640000      2.6088706E-14
   5.700000      2.6480623E-14
   5.760000      1.6380902E-14
   5.820000     -3.7527058E-15
   5.880000     -2.9366734E-14
   5.940000     -5.2221899E-14
   6.000000     -6.2369333E-14
   6.060000     -5.1571848E-14
   6.120000     -1.7362192E-14
   6.180000      3.3791583E-14
   6.240000      8.6079960E-14
   6.300000      1.1807170E-13
   6.360000      1.1042309E-13
   6.420000      5.5327484E-14
   6.480000     -3.6310564E-14
   6.540000     -1.3426296E-13
   6.600000     -1.9729490E-13
   6.660000     -1.8900540E-13
   6.720000     -9.5650952E-14
   6.780000      6.1986772E-14
   6.840000      2.2961678E-13
   6.900000      3.3563470E-13
   6.960000      3.1819336E-13
   7.020000      1.5321278E-13
   7.080000     -1.2840651E-13
   7.140000     -4.4281104E-13
   7.200000     -6.7566319E-13
   7.260000     -7.1818343E-13
   7.320000     -5.0461133E-13
   7.380000     -3.8678411E-14
   7.440000      5.9877895E-13
   7.500000      1.2621538E-12
   7.560000      1.7687546E-12
   7.620000      1.9349359E-12
   7.680000      1.6147677E-12
   7.740000      7.3752349E-13
   7.800000     -6.5905023E-13
   7.860000     -2.4048292E-12
   7.920000     -4.1915846E-12
   7.980000     -5.5962275E-12
   8.040000     -6.1408673E-12
   8.100000     -5.3885858E-12
   8.160000     -3.0612947E-12
   8.220000      8.4514497E-13
   8.280000      5.9781529E-12
   8.340000      1.1603729E-11
   8.400000      1.6654761E-11
   8.460000      1.9854316E-11
   8.520000      1.9905451E-11
   8.580000      1.5732514E-11
   8.640000      6.7533396E-12
   8.700000     -6.8481657E-12
   8.760000     -2.3896139E-11
   8.820000     -4.2110440E-11
   8.880000     -5.8186008E-11
   8.940000     -6.8130050E-11
   9.000000     -6.7878925E-11
   9.060000     -5.4142291E-11
   9.120000     -2.5337401E-11
   9.180000      1.7588889E-11
   9.240000      7.0670136E-11
   9.300000      1.2693703E-10
   9.360000      1.7701655E-10
   9.420000      2.1026696E-10
   9.480000      2.1629554E-10
   9.540000      1.8664681E-10
   9.600000      1.1644583E-10
   9.660000      5.8181272E-12
   9.720000     -1.3904650E-10
   9.780000     -3.0529615E-10
   9.840000     -4.7340093E-10
   9.900000     -6.1785504E-10
   9.960000     -7.0873107E-10
   10.02000     -7.1415335E-10
   10.08000     -6.0362065E-10
   10.14000     -3.5190750E-10
   10.20000      5.6926745E-11
   10.26000      6.2603356E-10
   10.32000      1.3434153E-09
   10.38000      2.1812365E-09
   10.44000      3.0971004E-09
   10.50000      4.0372754E-09
   10.56000      4.9415569E-09
   10.62000      5.7491798E-09
   10.68000      6.4050432E-09
   10.74000      6.8654611E-09
   10.80000      7.1027131E-09
   10.86000      7.1078579E-09
   10.92000      6.8914860E-09
   10.98000      6.4823902E-09
   11.04000      5.9243876E-09
   11.10000      5.2717573E-09
   11.16000      4.5838644E-09
   11.22000      3.9195878E-09
   11.28000      3.3321035E-09
   11.34000      2.8644767E-09
   11.40000      2.5464053E-09
   11.46000      2.3923588E-09
   11.52000      2.4012476E-09
   11.58000      2.5576399E-09
   11.64000      2.8343652E-09
   11.70000      3.1961511E-09
   11.76000      3.6037593E-09
   11.82000      4.0179837E-09
   11.88000      4.4029353E-09
   11.94000      4.7282240E-09
   12.00000      4.9699529E-09
   12.06000      5.1107345E-09
   12.12000      5.1391589E-09
   12.18000      5.0491584E-09
   12.24000      4.8396092E-09
   12.30000      4.5142814E-09
   12.36000      4.0820165E-09
   12.42000      3.5568770E-09
   12.48000      2.9579668E-09
   12.54000      2.3087137E-09
   12.60000      1.6355364E-09
   12.66000      9.6597019E-10
   12.72000      3.2643901E-10
   12.78000     -2.6007610E-10
   12.84000     -7.7619289E-10
   12.90000     -1.2118365E-09
   12.96000     -1.5652545E-09
   13.02000     -1.8431360E-09
   13.08000     -2.0597055E-09
   13.14000     -2.2347590E-09
   13.20000     -2.3907523E-09
   13.26000     -2.5492084E-09
   13.32000     -2.7268963E-09
   13.38000     -2.9323837E-09
   13.44000     -3.1636567E-09
   13.50000     -3.4074445E-09
   13.56000     -3.6406733E-09
   13.62000     -3.8340713E-09
   13.68000     -3.9574557E-09
   13.74000     -3.9857579E-09
   13.80000     -3.9045687E-09
   13.86000     -3.7140004E-09
   13.92000     -3.4300325E-09
   13.98000     -3.0830902E-09
   14.04000     -2.7142719E-09
   14.10000     -2.3701199E-09
   14.16000     -2.0970217E-09
   14.22000     -1.9361852E-09
   14.28000     -1.9197581E-09
   14.34000     -2.0682620E-09
   14.40000     -2.3892319E-09
   14.46000     -2.8768974E-09
   14.52000     -3.5128300E-09
   14.58000     -4.2676436E-09
   14.64000     -5.1038413E-09
   14.70000     -5.9797678E-09
   14.76000     -6.8542900E-09
   14.82000     -7.6915194E-09
   14.88000     -8.4647134E-09
   14.94000     -9.1585584E-09
   15.00000     -9.7694226E-09
   15.06000     -1.0303626E-08
   15.12000     -1.0774264E-08
   15.18000     -1.1197375E-08
   15.24000     -1.1588235E-08
   15.30000     -1.1958337E-08
   15.36000     -1.2313357E-08
   15.42000     -1.2652124E-08
   15.48000     -1.2966610E-08
   15.54000     -1.3242981E-08
   15.60000     -1.3463766E-08
   15.66000     -1.3611131E-08
   15.72000     -1.3670864E-08
   15.78000     -1.3636289E-08
   15.84000     -1.3510890E-08
   15.90000     -1.3308516E-08
   15.96000     -1.3050466E-08
   16.02000     -1.2759781E-08
   16.08000     -1.2454185E-08
   16.14000     -1.2139920E-08
   16.20000     -1.1808838E-08
   16.26000     -1.1440316E-08
   16.32000     -1.1007977E-08
   16.38000     -1.0489407E-08
   16.44000     -9.8757296E-09
   16.50000     -9.1775663E-09
   16.56000     -8.4249434E-09
   16.62000     -7.6607263E-09
   16.68000     -6.9295911E-09
   16.74000     -6.2663603E-09
   16.80000     -5.6880665E-09
   16.86000     -5.1928999E-09
   16.92000     -4.7667106E-09
   16.98000     -4.3946846E-09
   17.04000     -4.0735180E-09
   17.10000     -3.8187302E-09
   17.16000     -3.6632344E-09
   17.22000     -3.6464238E-09
   17.28000     -3.7967882E-09
   17.34000     -4.1140193E-09
   17.40000     -4.5574065E-09
   17.46000     -5.0456750E-09
   17.52000     -5.4696714E-09
   17.58000     -5.7148246E-09
   17.64000     -5.6867435E-09
   17.70000     -5.3320268E-09
   17.76000     -4.6478736E-09
   17.82000     -3.6778542E-09
   17.88000     -2.4958917E-09
   17.94000     -1.1842782E-09
   18.00000      1.8680145E-10
   18.06000      1.5719177E-09
   18.12000      2.9522143E-09
   18.18000      4.3276303E-09
   18.24000      5.7042300E-09
   18.30000      7.0828277E-09
   18.36000      8.4540099E-09
   18.42000      9.8016120E-09
   18.48000      1.1112842E-08
   18.54000      1.2390153E-08
   18.60000      1.3658910E-08
   18.66000      1.4966245E-08
   18.72000      1.6369810E-08
   18.78000      1.7919168E-08
   18.84000      1.9635662E-08
   18.90000      2.1497593E-08
   18.96000      2.3436131E-08
   19.02000      2.5343736E-08
   19.08000      2.7092883E-08
   19.14000      2.8559532E-08
   19.20000      2.9644534E-08
   19.26000      3.0287310E-08
   19.32000      3.0469128E-08
   19.38000      3.0206685E-08
   19.44000      2.9539722E-08
   19.50000      2.8517332E-08
   19.56000      2.7187172E-08
   19.62000      2.5589689E-08
   19.68000      2.3757307E-08
   19.74000      2.1716776E-08
   19.80000      1.9492417E-08
   19.86000      1.7108642E-08
   19.92000      1.4591304E-08
   19.98000      1.1968654E-08
   20.04000      9.2729664E-09
   20.10000      6.5434480E-09
   20.16000      3.8298453E-09
   20.22000      1.1950271E-09
   20.28000     -1.2856642E-09
   20.34000     -3.5298657E-09
   20.40000     -5.4583933E-09
   20.46000     -7.0081043E-09
   20.52000     -8.1437541E-09
   20.58000     -8.8648608E-09
   20.64000     -9.2048067E-09
   20.70000     -9.2218579E-09
   20.76000     -8.9845980E-09
   20.82000     -8.5563023E-09
   20.88000     -7.9832505E-09
   20.94000     -7.2905193E-09
   21.00000     -6.4860912E-09
   21.06000     -5.5710530E-09
   21.12000     -4.5515200E-09
   21.18000     -3.4475689E-09
   21.24000     -2.2959119E-09
   21.30000     -1.1457693E-09
   21.36000     -5.0168633E-11
   21.42000      9.4337937E-10
   21.48000      1.7989246E-09
   21.54000      2.4926605E-09
   21.60000      3.0084801E-09
   21.66000      3.3312695E-09
   21.72000      3.4417325E-09
   21.78000      3.3158425E-09
   21.84000      2.9299074E-09
   21.90000      2.2696953E-09
   21.96000      1.3401835E-09
   22.02000      1.7204366E-10
   22.08000     -1.1778896E-09
   22.14000     -2.6327800E-09
   22.20000     -4.1069654E-09
   22.26000     -5.5190892E-09
   22.32000     -6.8039090E-09
   22.38000     -7.9203737E-09
   22.44000     -8.8549887E-09
   22.50000     -9.6207833E-09
   22.56000     -1.0252964E-08
   22.62000     -1.0802427E-08
   22.68000     -1.1328057E-08
   22.74000     -1.1888366E-08
   22.80000     -1.2533128E-08
   22.86000     -1.3295855E-08
   22.92000     -1.4188403E-08
   22.98000     -1.5199136E-08
   23.04000     -1.6295665E-08
   23.10000     -1.7432162E-08
   23.16000     -1.8559851E-08
   23.22000     -1.9638012E-08
   23.28000     -2.0642219E-08
   23.34000     -2.1567040E-08
   23.40000     -2.2422048E-08
   23.46000     -2.3222277E-08
   23.52000     -2.3976355E-08
   23.58000     -2.4676684E-08
   23.64000     -2.5295487E-08
   23.70000     -2.5788520E-08
   23.76000     -2.6105333E-08
   23.82000     -2.6202377E-08
   23.88000     -2.6054078E-08
   23.94000     -2.5657714E-08
   24.00000     -2.5030417E-08
   24.06000     -2.4199750E-08
   24.12000     -2.3191904E-08
   24.18000     -2.2022480E-08
   24.24000     -2.0693635E-08
   24.30000     -1.9198641E-08
   24.36000     -1.7531770E-08
   24.42000     -1.5699024E-08
   24.48000     -1.3724773E-08
   24.54000     -1.1650894E-08
   24.60000     -9.5279358E-09
   24.66000     -7.4011197E-09
   24.72000     -5.2962084E-09
   24.78000     -3.2107015E-09
   24.84000     -1.1141201E-09
   24.90000      1.0420091E-09
   24.96000      3.3073448E-09
   25.02000      5.7145728E-09
   25.08000      8.2660438E-09
   25.14000      1.0929852E-08
   25.20000      1.3646797E-08
   25.26000      1.6345888E-08
   25.32000      1.8963028E-08
   25.38000      2.1456499E-08
   25.44000      2.3814019E-08
   25.50000      2.6049353E-08
   25.56000      2.8190232E-08
   25.62000      3.0262576E-08
   25.68000      3.2277057E-08
   25.74000      3.4223071E-08
   25.80000      3.6071945E-08
   25.86000      3.7787796E-08
   25.92000      3.9341316E-08
   25.98000      4.0720959E-08
   26.04000      4.1937206E-08
   26.10000      4.3018325E-08
   26.16000      4.3999695E-08
   26.22000      4.4910937E-08
   26.28000      4.5766011E-08
   26.34000      4.6560096E-08
   26.40000      4.7274309E-08
   26.46000      4.7886296E-08
   26.52000      4.8382450E-08
   26.58000      4.8766736E-08
   26.64000      4.9062454E-08
   26.70000      4.9305754E-08
   26.76000      4.9532733E-08
   26.82000      4.9764548E-08
   26.88000      4.9995819E-08
   26.94000      5.0190803E-08
   27.00000      5.0289358E-08
   27.06000      5.0221338E-08
   27.12000      4.9925301E-08
   27.18000      4.9365507E-08
   27.24000      4.8541821E-08
   27.30000      4.7489060E-08
   27.36000      4.6265953E-08
   27.42000      4.4937270E-08
   27.48000      4.3555101E-08
   27.54000      4.2145647E-08
   27.60000      4.0706141E-08
   27.66000      3.9213031E-08
   27.72000      3.7638610E-08
   27.78000      3.5970132E-08
   27.84000      3.4224318E-08
   27.90000      3.2451545E-08
   27.96000      3.0727470E-08
   28.02000      2.9134412E-08
   28.08000      2.7738608E-08
   28.14000      2.6571193E-08
   28.20000      2.5619759E-08
   28.26000      2.4833584E-08
   28.32000      2.4140718E-08
   28.38000      2.3470786E-08
   28.44000      2.2775126E-08
   28.50000      2.2036897E-08
   28.56000      2.1267622E-08
   28.62000      2.0491836E-08
   28.68000      1.9726230E-08
   28.74000      1.8962020E-08
   28.80000      1.8158245E-08
   28.86000      1.7249626E-08
   28.92000      1.6166959E-08
   28.98000      1.4862878E-08
   29.04000      1.3333310E-08
   29.10000      1.1626025E-08
   29.16000      9.8321635E-09
   29.22000      8.0629761E-09
   29.28000      6.4195986E-09
   29.34000      4.9666204E-09
   29.40000      3.7189007E-09
   29.46000      2.6462426E-09
   29.52000      1.6937082E-09
   29.58000      8.0942458E-10
   29.64000     -3.1142387E-11
   29.70000     -8.1399865E-10
   29.76000     -1.4929052E-09
   29.82000     -2.0106794E-09
   29.88000     -2.3272417E-09
   29.94000     -2.4435731E-09
   30.00000     -2.4123668E-09
   30.06000     -2.3311879E-09
   30.12000     -2.3203877E-09
   30.18000     -2.4933398E-09
   30.24000     -2.9288878E-09
   30.30000     -3.6545145E-09
   30.36000     -4.6444781E-09
   30.42000     -5.8318079E-09
   30.48000     -7.1286825E-09
   30.54000     -8.4478238E-09
   30.60000     -9.7185371E-09
   30.66000     -1.0894081E-08
   30.72000     -1.1950761E-08
   30.78000     -1.2881879E-08
   30.84000     -1.3690641E-08
   30.90000     -1.4385138E-08
   30.96000     -1.4976500E-08
   31.02000     -1.5479330E-08
   31.08000     -1.5912473E-08
   31.14000     -1.6298332E-08
   31.20000     -1.6660188E-08
   31.26000     -1.7018255E-08
   31.32000     -1.7386181E-08
   31.38000     -1.7769615E-08
   31.44000     -1.8167546E-08
   31.50000     -1.8575877E-08
   31.56000     -1.8991464E-08
   31.62000     -1.9414630E-08
   31.68000     -1.9848649E-08
   31.74000     -2.0296140E-08
   31.80000     -2.0753834E-08
   31.86000     -2.1208248E-08
   31.92000     -2.1634913E-08
   31.98000     -2.2002448E-08
   32.04000     -2.2280837E-08
   32.10000     -2.2451076E-08
   32.16000     -2.2512292E-08
   32.22000     -2.2482929E-08
   32.28000     -2.2394664E-08
   32.34000     -2.2280712E-08
   32.40000     -2.2162812E-08
   32.46000     -2.2042162E-08
   32.52000     -2.1898531E-08
   32.58000     -2.1698730E-08
   32.64000     -2.1411880E-08
   32.70000     -2.1025928E-08
   32.76000     -2.0558890E-08
   32.82000     -2.0059948E-08
   32.88000     -1.9599105E-08
   32.94000     -1.9248494E-08
   33.00000     -1.9061709E-08
   33.06000     -1.9058351E-08
   33.12000     -1.9219142E-08
   33.18000     -1.9492983E-08
   33.24000     -1.9812942E-08
   33.30000     -2.0115060E-08
   33.36000     -2.0353413E-08
   33.42000     -2.0506960E-08
   33.48000     -2.0577291E-08
   33.54000     -2.0580066E-08
   33.60000     -2.0534724E-08
   33.66000     -2.0456831E-08
   33.72000     -2.0355371E-08
   33.78000     -2.0234527E-08
   33.84000     -2.0097778E-08
   33.90000     -1.9951562E-08
   33.96000     -1.9806755E-08
   34.02000     -1.9677739E-08
   34.08000     -1.9579993E-08
   34.14000     -1.9527642E-08
   34.20000     -1.9531834E-08
   34.26000     -1.9600300E-08
   34.32000     -1.9737742E-08
   34.38000     -1.9946706E-08
   34.44000     -2.0228805E-08
   34.50000     -2.0586304E-08
   34.56000     -2.1024018E-08
   34.62000     -2.1551099E-08
   34.68000     -2.2181833E-08
   34.74000     -2.2934621E-08
   34.80000     -2.3828685E-08
   34.86000     -2.4879068E-08
   34.92000     -2.6091246E-08
   34.98000     -2.7457249E-08
   35.04000     -2.8954771E-08
   35.10000     -3.0549838E-08
   35.16000     -3.2202205E-08
   35.22000     -3.3871753E-08
   35.28000     -3.5523652E-08
   35.34000     -3.7130683E-08
   35.40000     -3.8672312E-08
   35.46000     -4.0131216E-08
   35.52000     -4.1489091E-08
   35.58000     -4.2723649E-08
   35.64000     -4.3808132E-08
   35.70000     -4.4713715E-08
   35.76000     -4.5414083E-08
   35.82000     -4.5890644E-08
   35.88000     -4.6136865E-08
   35.94000     -4.6160395E-08
   36.00000     -4.5982183E-08
   36.06000     -4.5632845E-08
   36.12000     -4.5146955E-08
   36.18000     -4.4556760E-08
   36.24000     -4.3886953E-08
   36.30000     -4.3151875E-08
   36.36000     -4.2355964E-08
   36.42000     -4.1497017E-08
   36.48000     -4.0570978E-08
   36.54000     -3.9576200E-08
   36.60000     -3.8515598E-08
   36.66000     -3.7396010E-08
   36.72000     -3.6225423E-08
   36.78000     -3.5009780E-08
   36.84000     -3.3751178E-08
   36.90000     -3.2448490E-08
   36.96000     -3.1100189E-08
   37.02000     -2.9707868E-08
   37.08000     -2.8278619E-08
   37.14000     -2.6824949E-08
   37.20000     -2.5362072E-08
   37.26000     -2.3903624E-08
   37.32000     -2.2457629E-08
   37.38000     -2.1024350E-08
   37.44000     -1.9596870E-08
   37.50000     -1.8164144E-08
   37.56000     -1.6715402E-08
   37.62000     -1.5244435E-08
   37.68000     -1.3752479E-08
   37.74000     -1.2249161E-08
   37.80000     -1.0751562E-08
   37.86000     -9.2820338E-09
   37.92000     -7.8654310E-09
   37.98000     -6.5262440E-09
   38.04000     -5.2857327E-09
   38.10000     -4.1589838E-09
   38.16000     -3.1519491E-09
   38.22000     -2.2589393E-09
   38.28000     -1.4614937E-09
   38.34000     -7.2964834E-10
   38.40000     -2.6140000E-11
   38.46000      6.8688349E-10
   38.52000      1.4401795E-09
   38.58000      2.2509181E-09
   38.64000      3.1193366E-09
   38.70000      4.0294390E-09
   38.76000      4.9531907E-09
   38.82000      5.8565144E-09
   38.88000      6.7050898E-09
   38.94000      7.4685955E-09
   39.00000      8.1231661E-09
   39.06000      8.6527789E-09
   39.12000      9.0505292E-09
   39.18000      9.3201242E-09
   39.24000      9.4769810E-09
   39.30000      9.5477048E-09
   39.36000      9.5669357E-09
   39.42000      9.5716182E-09
   39.48000      9.5941459E-09
   39.54000      9.6566399E-09
   39.60000      9.7684154E-09
   39.66000      9.9274189E-09
   39.72000      1.0124655E-08
   39.78000      1.0349350E-08
   39.84000      1.0592449E-08
   39.90000      1.0847069E-08
   39.96000      1.1106242E-08
   40.02000      1.1359652E-08
   40.08000      1.1591483E-08
   40.14000      1.1780668E-08
   40.20000      1.1903375E-08
   40.26000      1.1936287E-08
   40.32000      1.1858886E-08
   40.38000      1.1653728E-08
   40.44000      1.1305145E-08
   40.50000      1.0798054E-08
   40.56000      1.0118741E-08
   40.62000      9.2586072E-09
   40.68000      8.2200238E-09
   40.74000      7.0219164E-09
   40.80000      5.7020673E-09
   40.86000      4.3140154E-09
   40.92000      2.9184366E-09
   40.98000      1.5711662E-09
   41.04000      3.1154007E-10
   41.10000     -8.4516988E-10
   41.16000     -1.9088464E-09
   41.22000     -2.9089982E-09
   41.28000     -3.8846379E-09
   41.34000     -4.8728639E-09
   41.40000     -5.8994547E-09
   41.46000     -6.9737327E-09
   41.52000     -8.0883886E-09
   41.58000     -9.2235064E-09
   41.64000     -1.0353091E-08
   41.70000     -1.1452051E-08
   41.76000     -1.2501745E-08
   41.82000     -1.3492679E-08
   41.88000     -1.4423775E-08
   41.94000     -1.5298603E-08
   42.00000     -1.6120044E-08
   42.06000     -1.6885705E-08
   42.12000     -1.7586411E-08
   42.18000     -1.8209114E-08
   42.24000     -1.8743796E-08
   42.30000     -1.9191711E-08
   42.36000     -1.9571223E-08
   42.42000     -1.9917680E-08
   42.48000     -2.0275939E-08
   42.54000     -2.0687281E-08
   42.60000     -2.1175259E-08
   42.66000     -2.1736223E-08
   42.72000     -2.2338870E-08
   42.78000     -2.2933900E-08
   42.84000     -2.3470639E-08
   42.90000     -2.3914479E-08
   42.96000     -2.4258288E-08
   43.02000     -2.4523189E-08
   43.08000     -2.4748291E-08
   43.14000     -2.4973508E-08
   43.20000     -2.5222450E-08
   43.26000     -2.5492385E-08
   43.32000     -2.5755444E-08
   43.38000     -2.5970579E-08
   43.44000     -2.6101358E-08
   43.50000     -2.6132387E-08
   43.56000     -2.6077736E-08
   43.62000     -2.5978151E-08
   43.68000     -2.5888450E-08
   43.74000     -2.5860331E-08
   43.80000     -2.5927498E-08
   43.86000     -2.6098586E-08
   43.92000     -2.6360027E-08
   43.98000     -2.6686788E-08
   44.04000     -2.7055888E-08
   44.10000     -2.7456842E-08
   44.16000     -2.7894794E-08
   44.22000     -2.8385438E-08
   44.28000     -2.8944291E-08
   44.34000     -2.9575231E-08
   44.40000     -3.0263479E-08
   44.46000     -3.0976306E-08
   44.52000     -3.1671711E-08
   44.58000     -3.2311874E-08
   44.64000     -3.2876329E-08
   44.70000     -3.3369723E-08
   44.76000     -3.3820960E-08
   44.82000     -3.4273892E-08
   44.88000     -3.4772665E-08
   44.94000     -3.5346964E-08
   45.00000     -3.6002156E-08
   45.06000     -3.6717392E-08
   45.12000     -3.7451734E-08
   45.18000     -3.8155605E-08
   45.24000     -3.8783089E-08
   45.30000     -3.9301202E-08
   45.36000     -3.9693511E-08
   45.42000     -3.9958081E-08
   45.48000     -4.0101575E-08
   45.54000     -4.0132086E-08
   45.60000     -4.0052981E-08
   45.66000     -3.9858765E-08
   45.72000     -3.9532843E-08
   45.78000     -3.9046242E-08
   45.84000     -3.8356578E-08
   45.90000     -3.7406995E-08
   45.96000     -3.6125158E-08
   46.02000     -3.4422644E-08
   46.08000     -3.2194489E-08
   46.14000     -2.9318205E-08
   46.20000     -2.5651367E-08
   46.26000     -2.1027068E-08
   46.32000     -1.5247227E-08
   46.38000     -8.0743137E-09
   46.44000      7.7771761E-10
   46.50000      1.1652571E-08
   46.56000      2.4960663E-08
   46.62000      4.1188297E-08
   46.68000      6.0907539E-08
   46.74000      8.4787310E-08
   46.80000      1.1360630E-07
   46.86000      1.4826850E-07
   46.92000      1.8982188E-07
   46.98000      2.3948104E-07
   47.04000      2.9865436E-07
   47.10000      3.6897495E-07
   47.16000      4.5233580E-07
   47.22000      5.5092698E-07
   47.28000      6.6727631E-07
   47.34000      8.0429112E-07
   47.40000      9.6530471E-07
   47.46000      1.1541263E-06
   47.52000      1.3750983E-06
   47.58000      1.6331593E-06
   47.64000      1.9339132E-06
   47.70000      2.2837069E-06
   47.76000      2.6897105E-06
   47.82000      3.1600064E-06
   47.88000      3.7036784E-06
   47.94000      4.3309119E-06
   48.00000      5.0530980E-06
   48.06000      5.8829446E-06
   48.12000      6.8345948E-06
   48.18000      7.9237516E-06
   48.24000      9.1678003E-06
   48.30000      1.0585935E-05
   48.36000      1.2199291E-05
   48.42000      1.4031061E-05
   48.48000      1.6106631E-05
   48.54000      1.8453689E-05
   48.60000      2.1102362E-05
   48.66000      2.4085328E-05
   48.72000      2.7437934E-05
   48.78000      3.1198280E-05
   48.84000      3.5407320E-05
   48.90000      4.0108920E-05
   48.96000      4.5349894E-05
   49.02000      5.1180032E-05
   49.08000      5.7652091E-05
   49.14000      6.4821797E-05
   49.20000      7.2747789E-05
   49.26000      8.1491569E-05
   49.32000      9.1117348E-05
   49.38000      1.0169191E-04
   49.44000      1.1328440E-04
   49.50000      1.2596609E-04
   49.56000      1.3980997E-04
   49.62000      1.5489047E-04
   49.68000      1.7128303E-04
   49.74000      1.8906365E-04
   49.80000      2.0830841E-04
   49.86000      2.2909287E-04
   49.92000      2.5149164E-04
   49.98000      2.7557759E-04
   50.04000      3.0142121E-04
   50.10000      3.2908990E-04
   50.16000      3.5864717E-04
   50.22000      3.9015198E-04
   50.28000      4.2365780E-04
   50.34000      4.5921191E-04
   50.40000      4.9685442E-04
   50.46000      5.3661771E-04
   50.52000      5.7852530E-04
   50.58000      6.2259164E-04
   50.64000      6.6882098E-04
   50.70000      7.1720663E-04
   50.76000      7.6773041E-04
   50.82000      8.2036236E-04
   50.88000      8.7506010E-04
   50.94000      9.3176833E-04
   51.00000      9.9041883E-04
   51.06000      1.0509301E-03
   51.12000      1.1132075E-03
   51.18000      1.1771434E-03
   51.24000      1.2426173E-03
   51.30000      1.3094962E-03
   51.36000      1.3776359E-03
   51.42000      1.4468807E-03
   51.48000      1.5170649E-03
   51.54000      1.5880134E-03
   51.60000      1.6595433E-03
   51.66000      1.7314644E-03
   51.72000      1.8035815E-03
   51.78000      1.8756957E-03
   51.84000      1.9476049E-03
   51.90000      2.0191078E-03
   51.96000      2.0900031E-03
   52.02000      2.1600933E-03
   52.08000      2.2291853E-03
   52.14000      2.2970927E-03
   52.20000      2.3636371E-03
   52.26000      2.4286506E-03
   52.32000      2.4919768E-03
   52.38000      2.5534730E-03
   52.44000      2.6130110E-03
   52.50000      2.6704792E-03
   52.56000      2.7257819E-03
   52.62000      2.7788433E-03
   52.68000      2.8296050E-03
   52.74000      2.8780296E-03
   52.80000      2.9240986E-03
   52.86000      2.9678138E-03
   52.92000      3.0091968E-03
   52.98000      3.0482889E-03
   53.04000      3.0851499E-03
   53.10000      3.1198577E-03
   53.16000      3.1525069E-03
   53.22000      3.1832075E-03
   53.28000      3.2120841E-03
   53.34000      3.2392726E-03
   53.40000      3.2649208E-03
   53.46000      3.2891841E-03
   53.52000      3.3122243E-03
   53.58000      3.3342077E-03
   53.64000      3.3553017E-03
   53.70000      3.3756741E-03
   53.76000      3.3954903E-03
   53.82000      3.4149103E-03
   53.88000      3.4340878E-03
   53.94000      3.4531669E-03
   54.00000      3.4722805E-03
   54.06000      3.4915479E-03
   54.12000      3.5110745E-03
   54.18000      3.5309501E-03
   54.24000      3.5512480E-03
   54.30000      3.5720237E-03
   54.36000      3.5933140E-03
   54.42000      3.6151358E-03
   54.48000      3.6374866E-03
   54.54000      3.6603450E-03
   54.60000      3.6836707E-03
   54.66000      3.7074054E-03
   54.72000      3.7314752E-03
   54.78000      3.7557879E-03
   54.84000      3.7802369E-03
   54.90000      3.8047028E-03
   54.96000      3.8290543E-03
   55.02000      3.8531499E-03
   55.08000      3.8768407E-03
   55.14000      3.8999722E-03
   55.20000      3.9223861E-03
   55.26000      3.9439220E-03
   55.32000      3.9644209E-03
   55.38000      3.9837253E-03
   55.44000      4.0016840E-03
   55.50000      4.0181512E-03
   55.56000      4.0329904E-03