  -2.400000      0.0000000E+00
  -2.340000      0.0000000E+00
  -2.280000      0.0000000E+00
  -2.220000      0.0000000E+00
  -2.160000      0.0000000E+00
  -2.100000      0.0000000E+00
  -2.040000      0.0000000E+00
  -1.980000      0.0000000E+00
  -1.920000      0.0000000E+00
  -1.860000      0.0000000E+00
  -1.800000      0.0000000E+00
  -1.740000      0.0000000E+00
  -1.680000      4.0068383E-36
  -1.620000      7.2049539E-35
  -1.560000      6.5980411E-34
  -1.500000      4.0753173E-33
  -1.440000      1.8999883E-32
  -1.380000      7.0500197E-32
  -1.320000      2.1302539E-31
  -1.260000      5.2211298E-31
  -1.200000      9.8573909E-31
  -1.140000      1.1258712E-30
  -1.080000     -8.7947506E-31
  -1.020000     -9.5932557E-30
 -0.9600000     -3.3242207E-29
 -0.9000000     -8.0628251E-29
 -0.8400000     -1.4635612E-28
 -0.7800000     -1.7392104E-28
 -0.7200000      5.8156524E-30
 -0.6600000      7.2772313E-28
 -0.6000000      2.4273425E-27
 -0.5400000      5.2507252E-27
 -0.4800000      8.1160298E-27
 -0.4200000      7.2723084E-27
 -0.3600000     -4.8242026E-27
 -0.3000000     -3.8235151E-26
 -0.2400000     -9.8691688E-26
 -0.1800000     -1.7261923E-25
 -0.1200000     -2.0595219E-25
 -5.9999999E-02 -8.8397565E-26
  0.0000000E+00  3.3175171E-25
  5.9999999E-02  1.1672824E-24
  0.1200000      2.3194775E-24
  0.1800000      3.2325234E-24
  0.2400000      2.6922582E-24
  0.3000000     -1.0764054E-24
  0.3600000     -9.6559328E-24
  0.4200000     -2.2752080E-23
  0.4800000     -3.5769418E-23
  0.5400000     -3.7778656E-23
  0.6000000     -1.2182600E-23
  0.6600000      5.6999037E-23
  0.7200000      1.7150201E-22
  0.7800000      3.0018460E-22
  0.8400000      3.6435918E-22
  0.9000000      2.4254863E-22
  0.9600000     -1.8862766E-22
   1.020000     -9.7030770E-22
   1.080000     -1.9497200E-21
   1.140000     -2.6886975E-21
   1.200000     -2.4687910E-21
   1.260000     -4.7638106E-22
   1.320000      3.7835116E-21
   1.380000      9.8869449E-21
   1.440000      1.5893605E-20
   1.500000      1.8114843E-20
   1.560000      1.1731165E-20
   1.620000     -7.3222521E-21
   1.680000     -3.9193407E-20
   1.740000     -7.6496965E-20
   1.800000     -1.0215197E-19
   1.860000     -9.1384762E-20
   1.920000     -2.0269453E-20
   1.980000      1.1910160E-19
   2.040000      3.0101705E-19
   2.100000      4.5529562E-19
   2.160000      4.7516579E-19
   2.220000      2.5294340E-19
   2.280000     -2.5828423E-19
   2.340000     -9.7608439E-19
   2.400000     -1.6494286E-18
   2.460000     -1.8909585E-18
   2.520000     -1.3070437E-18
   2.580000      2.8960382E-19
   2.640000      2.6572164E-18
   2.700000      5.0121119E-18
   2.760000      6.1494902E-18
   2.820000      4.8556805E-18
   2.880000      5.3601087E-19
   2.940000     -6.1745133E-18
   3.000000     -1.3150742E-17
   3.060000     -1.7160148E-17
   3.120000     -1.4964778E-17
   3.180000     -4.8761073E-18
   3.240000      1.1828180E-17
   3.300000      3.0345065E-17
   3.360000      4.3177855E-17
   3.420000      4.2413755E-17
   3.480000      2.2909411E-17
   3.540000     -1.4618310E-17
   3.600000     -6.1758224E-17
   3.660000     -1.0282045E-16
   3.720000     -1.1808756E-16
   3.780000     -8.9900193E-17
   3.840000     -1.0730837E-17
   3.900000      1.0881853E-16
   3.960000      2.3557177E-16
   4.020000      3.1717848E-16
   4.080000      2.9656487E-16
   4.140000      1.3662972E-16
   4.200000     -1.5209435E-16
   4.260000     -4.9423801E-16
   4.320000     -7.5762412E-16
   4.380000     -7.9410186E-16
   4.440000     -5.0526076E-16
   4.500000      9.2570682E-17
   4.560000      8.3903320E-16
   4.620000      1.4630543E-15
   4.680000      1.6789927E-15
   4.740000      1.3112705E-15
   4.800000      3.8988966E-16
   4.860000     -8.3558651E-16
   4.920000     -1.9794603E-15
   4.980000     -2.6655439E-15
   5.040000     -2.6640186E-15
   5.100000     -1.9528495E-15
   5.160000     -6.8326993E-16
   5.220000      9.1028153E-16
   5.280000      2.5816177E-15
   5.340000      4.0731045E-15
   5.400000      5.0601058E-15
   5.460000      5.1217944E-15
   5.520000      3.8298857E-15
   5.580000      9.7486758E-16
   5.640000     -3.1680093E-15
   5.700000     -7.7111457E-15
   5.760000     -1.1311923E-14
   5.820000     -1.2610313E-14
   5.880000     -1.0755091E-14
   5.940000     -5.7366107E-15
   6.000000      1.6595201E-15
   6.060000      1.0213698E-14
   6.120000      1.8644432E-14
   6.180000      2.5655994E-14
   6.240000      2.9590449E-14
   6.300000      2.8044148E-14
   6.360000      1.8097518E-14
   6.420000     -2.3537817E-15
   6.480000     -3.2357031E-14
   6.540000     -6.5833508E-14
   6.600000     -9.1296660E-14
   6.660000     -9.4610219E-14
   6.720000     -6.4684830E-14
   6.780000     -1.8529470E-16
   6.840000      8.5995650E-14
   6.900000      1.6760539E-13
   6.960000      2.1244413E-13
   7.020000      1.9448482E-13
   7.080000      1.0609955E-13
   7.140000     -3.5177485E-14
   7.200000     -1.8929004E-13
   7.260000     -3.0587444E-13
   7.320000     -3.4193216E-13
   7.380000     -2.7808455E-13
   7.440000     -1.2674090E-13
   7.500000      7.1267096E-14
   7.560000      2.6022836E-13
   7.620000      3.8776434E-13
   7.680000      4.2061615E-13
   7.740000      3.5252430E-13
   7.800000      2.0257057E-13
   7.860000      6.4397416E-15
   7.920000     -1.9460991E-13
   7.980000     -3.6262529E-13
   8.040000     -4.6770883E-13
   8.100000     -4.8957453E-13
   8.160000     -4.1843585E-13
   8.220000     -2.5717747E-13
   8.280000     -2.4566629E-14
   8.340000      2.4297694E-13
   8.400000      4.9419187E-13
   8.460000      6.7192318E-13
   8.520000      7.2671616E-13
   8.580000      6.3080232E-13
   8.640000      3.8744843E-13
   8.700000      3.2403730E-14
   8.760000     -3.7249582E-13
   8.820000     -7.5058601E-13
   8.880000     -1.0227008E-12
   8.940000     -1.1183890E-12
   9.000000     -9.8650677E-13
   9.060000     -6.0710492E-13
   9.120000     -5.1040024E-15
   9.180000      7.3772721E-13
   9.240000      1.4800711E-12
   9.300000      2.0361211E-12
   9.360000      2.2123538E-12
   9.420000      1.8608212E-12
   9.480000      9.3381563E-13
   9.540000     -4.8048512E-13
   9.600000     -2.1582664E-12
   9.660000     -3.7806854E-12
   9.720000     -5.0027001E-12
   9.780000     -5.5250808E-12
   9.840000     -5.1426454E-12
   9.900000     -3.7535799E-12
   9.960000     -1.3361717E-12
   10.02000      2.0794805E-12
   10.08000      6.4077342E-12
   10.14000      1.1444192E-11
   10.20000      1.6743357E-11
   10.26000      2.1472938E-11
   10.32000      2.4308311E-11
   10.38000      2.3435571E-11
   10.44000      1.6708742E-11
   10.50000      1.9610800E-12
   10.56000     -2.2580325E-11
   10.62000     -5.7864668E-11
   10.68000     -1.0366947E-10
   10.74000     -1.5841109E-10
   10.80000     -2.1914973E-10
   10.86000     -2.8178279E-10
   10.92000     -3.4139000E-10
   10.98000     -3.9268230E-10
   11.04000     -4.3050882E-10
   11.10000     -4.5037721E-10
   11.16000     -4.4894016E-10
   11.22000     -4.2438811E-10
   11.28000     -3.7667996E-10
   11.34000     -3.0755298E-10
   11.40000     -2.2028668E-10
   11.46000     -1.1924993E-10
   11.52000     -9.3161121E-12
   11.58000      1.0473447E-10
   11.64000      2.1870687E-10
   11.70000      3.2929964E-10
   11.76000      4.3421128E-10
   11.82000      5.3208316E-10
   11.88000      6.2235284E-10
   11.94000      7.0509093E-10
   12.00000      7.8087031E-10
   12.06000      8.5068264E-10
   12.12000      9.1589053E-10
   12.18000      9.7819275E-10
   12.24000      1.0395893E-09
   12.30000      1.1023448E-09
   12.36000      1.1689641E-09
   12.42000      1.2421896E-09
   12.48000      1.3250183E-09
   12.54000      1.4207122E-09
   12.60000      1.5327486E-09
   12.66000      1.6646424E-09
   12.72000      1.8195783E-09
   12.78000      1.9998205E-09
   12.84000      2.2059268E-09
   12.90000      2.4358626E-09
   12.96000      2.6841875E-09
   13.02000      2.9415141E-09
   13.08000      3.1944536E-09
   13.14000      3.4261964E-09
   13.20000      3.6177812E-09
   13.26000      3.7499737E-09
   13.32000      3.8055341E-09
   13.38000      3.7715528E-09
   13.44000      3.6414680E-09
   13.50000      3.4163992E-09
   13.56000      3.1055309E-09
   13.62000      2.7254423E-09
   13.68000      2.2984790E-09
   13.74000      1.8504503E-09
   13.80000      1.4080500E-09
   13.86000      9.9642139E-10
   13.92000      6.3721090E-10
   13.98000      3.4730457E-10
   14.04000      1.3827489E-10
   14.10000      1.6431736E-11
   14.16000     -1.6702410E-11
   14.22000      3.6313220E-11
   14.28000      1.6961049E-10
   14.34000      3.7473338E-10
   14.40000      6.4123407E-10
   14.46000      9.5711550E-10
   14.52000      1.3091408E-09
   14.58000      1.6830819E-09
   14.64000      2.0640225E-09
   14.70000      2.4368274E-09
   14.76000      2.7868465E-09
   14.82000      3.1008118E-09
   14.88000      3.3677672E-09
   14.94000      3.5797860E-09
   15.00000      3.7322336E-09
   15.06000      3.8234282E-09
   15.12000      3.8537440E-09
   15.18000      3.8243981E-09
   15.24000      3.7363228E-09
   15.30000      3.5895373E-09
   15.36000      3.3833285E-09
   15.42000      3.1172978E-09
   15.48000      2.7930442E-09
   15.54000      2.4159756E-09
   15.60000      1.9966209E-09
   15.66000      1.5508645E-09
   15.72000      1.0987714E-09
   15.78000      6.6207007E-10
   15.84000      2.6077307E-10
   15.90000     -9.0271443E-11
   15.96000     -3.8400472E-10
   16.02000     -6.2223338E-10
   16.08000     -8.1482826E-10
   16.14000     -9.7722341E-10
   16.20000     -1.1268496E-09
   16.26000     -1.2794011E-09
   16.32000     -1.4458189E-09
   16.38000     -1.6305889E-09
   16.44000     -1.8315169E-09
   16.50000     -2.0406814E-09
   16.56000     -2.2459610E-09
   16.62000     -2.4324762E-09
   16.68000     -2.5834797E-09
   16.74000     -2.6806055E-09
   16.80000     -2.7038058E-09
   16.86000     -2.6315825E-09
   16.92000     -2.4421773E-09
   16.98000     -2.1161355E-09
   17.04000     -1.6401920E-09
   17.10000     -1.0118777E-09
   17.16000     -2.4379249E-10
   17.22000      6.3368755E-10
   17.28000      1.5723093E-09
   17.34000      2.5089597E-09
   17.40000      3.3715679E-09
   17.46000      4.0869388E-09
   17.52000      4.5890776E-09
   17.58000      4.8264859E-09
   17.64000      4.7672262E-09
   17.70000      4.4011954E-09
   17.76000      3.7397090E-09
   17.82000      2.8130507E-09
   17.88000      1.6668456E-09
   17.94000      3.5801848E-10
   18.00000     -1.0491911E-09
   18.06000     -2.4870064E-09
   18.12000     -3.8877235E-09
   18.18000     -5.1872195E-09
   18.24000     -6.3283250E-09
   18.30000     -7.2639268E-09
   18.36000     -7.9596081E-09
   18.42000     -8.3956477E-09
   18.48000     -8.5681968E-09
   18.54000     -8.4894047E-09
   18.60000     -8.1861646E-09
   18.66000     -7.6971149E-09
   18.72000     -7.0676580E-09
   18.78000     -6.3432015E-09
   18.84000     -5.5614557E-09
   18.90000     -4.7452926E-09
   18.96000     -3.8980263E-09
   19.02000     -3.0028313E-09
   19.08000     -2.0272151E-09
   19.14000     -9.3222063E-10
   19.20000      3.1535086E-10
   19.26000      1.7304604E-09
   19.32000      3.3002612E-09
   19.38000      4.9801341E-09
   19.44000      6.6967760E-09
   19.50000      8.3580556E-09
   19.56000      9.8675601E-09
   19.62000      1.1140448E-08
   19.68000      1.2116760E-08
   19.74000      1.2768924E-08
   19.80000      1.3101679E-08
   19.86000      1.3144778E-08
   19.92000      1.2940765E-08
   19.98000      1.2531573E-08
   20.04000      1.1947892E-08
   20.10000      1.1204321E-08
   20.16000      1.0301417E-08
   20.22000      9.2334718E-09
   20.28000      7.9989961E-09
   20.34000      6.6099868E-09
   20.40000      5.0965401E-09
   20.46000      3.5049950E-09
   20.52000      1.8901567E-09
   20.58000      3.0431305E-10
   20.64000     -1.2129366E-09
   20.70000     -2.6401641E-09
   20.76000     -3.9725832E-09
   20.82000     -5.2136722E-09
   20.88000     -6.3626411E-09
   20.94000     -7.4021149E-09
   21.00000     -8.2905993E-09
   21.06000     -8.9629202E-09
   21.12000     -9.3393835E-09
   21.18000     -9.3416439E-09
   21.24000     -8.9112380E-09
   21.30000     -8.0258502E-09
   21.36000     -6.7090085E-09
   21.42000     -5.0306030E-09
   21.48000     -3.0980012E-09
   21.54000     -1.0397796E-09
   21.60000      1.0141454E-09
   21.66000      2.9514593E-09
   21.72000      4.6912363E-09
   21.78000      6.1896968E-09
   21.84000      7.4371189E-09
   21.90000      8.4474090E-09
   21.96000      9.2437435E-09
   22.02000      9.8446957E-09
   22.08000      1.0254923E-08
   22.14000      1.0462972E-08
   22.20000      1.0446418E-08
   22.26000      1.0182238E-08
   22.32000      9.6586055E-09
   22.38000      8.8839247E-09
   22.44000      7.8897680E-09
   22.50000      6.7263395E-09
   22.56000      5.4514260E-09
   22.62000      4.1159254E-09
   22.68000      2.7502429E-09
   22.74000      1.3558659E-09
   22.80000     -9.4854465E-11
   22.86000     -1.6499540E-09
   22.92000     -3.3620342E-09
   22.98000     -5.2695524E-09
   23.04000     -7.3805890E-09
   23.10000     -9.6640820E-09
   23.16000     -1.2051541E-08
   23.22000     -1.4449249E-08
   23.28000     -1.6757722E-08
   23.34000     -1.8892967E-08
   23.40000     -2.0803377E-08
   23.46000     -2.2477472E-08
   23.52000     -2.3940556E-08
   23.58000     -2.5241803E-08
   23.64000     -2.6436281E-08
   23.70000     -2.7567721E-08
   23.76000     -2.8657373E-08
   23.82000     -2.9701788E-08
   23.88000     -3.0679196E-08
   23.94000     -3.1561129E-08
   24.00000     -3.2324312E-08
   24.06000     -3.2958042E-08
   24.12000     -3.3464531E-08
   24.18000     -3.3852491E-08
   24.24000     -3.4127279E-08
   24.30000     -3.4282316E-08
   24.36000     -3.4296125E-08
   24.42000     -3.4137226E-08
   24.48000     -3.3775908E-08
   24.54000     -3.3199079E-08
   24.60000     -3.2422715E-08
   24.66000     -3.1496889E-08
   24.72000     -3.0500484E-08
   24.78000     -2.9526177E-08
   24.84000     -2.8659727E-08
   24.90000     -2.7959757E-08
   24.96000     -2.7444607E-08
   25.02000     -2.7090787E-08
   25.08000     -2.6844138E-08
   25.14000     -2.6640524E-08
   25.20000     -2.6429841E-08
   25.26000     -2.6195691E-08
   25.32000     -2.5964491E-08
   25.38000     -2.5801041E-08
   25.44000     -2.5792076E-08
   25.50000     -2.6023148E-08
   25.56000     -2.6556233E-08
   25.62000     -2.7414892E-08
   25.68000     -2.8581152E-08
   25.74000     -3.0004148E-08
   25.80000     -3.1616917E-08
   25.86000     -3.3355310E-08
   25.92000     -3.5172938E-08
   25.98000     -3.7047812E-08
   26.04000     -3.8979461E-08
   26.10000     -4.0978392E-08
   26.16000     -4.3052076E-08
   26.22000     -4.5192280E-08
   26.28000     -4.7367660E-08
   26.34000     -4.9523521E-08
   26.40000     -5.1588291E-08
   26.46000     -5.3484175E-08
   26.52000     -5.5138770E-08
   26.58000     -5.6494319E-08
   26.64000     -5.7512793E-08
   26.70000     -5.8176290E-08
   26.76000     -5.8483881E-08
   26.82000     -5.8446670E-08
   26.88000     -5.8083010E-08
   26.94000     -5.7415239E-08
   27.00000     -5.6468373E-08
   27.06000     -5.5270394E-08
   27.12000     -5.3853082E-08
   27.18000     -5.2252336E-08
   27.24000     -5.0506980E-08
   27.30000     -4.8655760E-08
   27.36000     -4.6732904E-08
   27.42000     -4.4763475E-08
   27.48000     -4.2759936E-08
   27.54000     -4.0721485E-08
   27.60000     -3.8636969E-08
   27.66000     -3.6491169E-08
   27.72000     -3.4273157E-08
   27.78000     -3.1984460E-08
   27.84000     -2.9644536E-08
   27.90000     -2.7291595E-08
   27.96000     -2.4978034E-08
   28.02000     -2.2761290E-08
   28.08000     -2.0692370E-08
   28.14000     -1.8805341E-08
   28.20000     -1.7110940E-08
   28.26000     -1.5596518E-08
   28.32000     -1.4232649E-08
   28.38000     -1.2984561E-08
   28.44000     -1.1824799E-08
   28.50000     -1.0742877E-08
   28.56000     -9.7485291E-09
   28.62000     -8.8673158E-09
   28.68000     -8.1301508E-09
   28.74000     -7.5606215E-09
   28.80000     -7.1648909E-09
   28.86000     -6.9280746E-09
   28.92000     -6.8184476E-09
   28.98000     -6.7978476E-09
   29.04000     -6.8341590E-09
   29.10000     -6.9109687E-09
   29.16000     -7.0305446E-09
   29.22000     -7.2088984E-09
   29.28000     -7.4647923E-09
   29.34000     -7.8070492E-09
   29.40000     -8.2254514E-09
   29.46000     -8.6895602E-09
   29.52000     -9.1571204E-09
   29.58000     -9.5902353E-09
   29.64000     -9.9742765E-09
   29.70000     -1.0332741E-08
   29.76000     -1.0731755E-08
   29.82000     -1.1270678E-08
   29.88000     -1.2059719E-08
   29.94000     -1.3190092E-08
   30.00000     -1.4705446E-08
   30.06000     -1.6583844E-08
   30.12000     -1.8736952E-08
   30.18000     -2.1028047E-08
   30.24000     -2.3304546E-08
   30.30000     -2.5436025E-08
   30.36000     -2.7346623E-08
   30.42000     -2.9032217E-08
   30.48000     -3.0557214E-08
   30.54000     -3.2031881E-08
   30.60000     -3.3576910E-08
   30.66000     -3.5285748E-08
   30.72000     -3.7195690E-08
   30.78000     -3.9276113E-08
   30.84000     -4.1436948E-08
   30.90000     -4.3554433E-08
   30.96000     -4.5506010E-08
   31.02000     -4.7203521E-08
   31.08000     -4.8614574E-08
   31.14000     -4.9765799E-08
   31.20000     -5.0727596E-08
   31.26000     -5.1585872E-08
   31.32000     -5.2410503E-08
   31.38000     -5.3231176E-08
   31.44000     -5.4028735E-08
   31.50000     -5.4744756E-08
   31.56000     -5.5306014E-08
   31.62000     -5.5655310E-08
   31.68000     -5.5777928E-08
   31.74000     -5.5714388E-08
   31.80000     -5.5554754E-08
   31.86000     -5.5415889E-08
   31.92000     -5.5408893E-08
   31.98000     -5.5607295E-08
   32.04000     -5.6026508E-08
   32.10000     -5.6621229E-08
   32.16000     -5.7301712E-08
   32.22000     -5.7963614E-08
   32.28000     -5.8521579E-08
   32.34000     -5.8935818E-08
   32.40000     -5.9223069E-08
   32.46000     -5.9448617E-08
   32.52000     -5.9701925E-08
   32.58000     -6.0063648E-08
   32.64000     -6.0574294E-08
   32.70000     -6.1214386E-08
   32.76000     -6.1902391E-08
   32.82000     -6.2511489E-08
   32.88000     -6.2900853E-08
   32.94000     -6.2952736E-08
   33.00000     -6.2604769E-08
   33.06000     -6.1868406E-08
   33.12000     -6.0827851E-08
   33.18000     -5.9619872E-08
   33.24000     -5.8400168E-08
   33.30000     -5.7306245E-08
   33.36000     -5.6427556E-08
   33.42000     -5.5791361E-08
   33.48000     -5.5367749E-08
   33.54000     -5.5091089E-08
   33.60000     -5.4890144E-08
   33.66000     -5.4716871E-08
   33.72000     -5.4564573E-08
   33.78000     -5.4470384E-08
   33.84000     -5.4501928E-08
   33.90000     -5.4733334E-08
   33.96000     -5.5218482E-08
   34.02000     -5.5969984E-08
   34.08000     -5.6950217E-08
   34.14000     -5.8076836E-08
   34.20000     -5.9240993E-08
   34.26000     -6.0332802E-08
   34.32000     -6.1266562E-08
   34.38000     -6.1998477E-08
   34.44000     -6.2531733E-08
   34.50000     -6.2907674E-08
   34.56000     -6.3186015E-08
   34.62000     -6.3420757E-08
   34.68000     -6.3639732E-08
   34.74000     -6.3834776E-08
   34.80000     -6.3966034E-08
   34.86000     -6.3978860E-08
   34.92000     -6.3827358E-08
   34.98000     -6.3496117E-08
   35.04000     -6.3012038E-08
   35.10000     -6.2441373E-08
   35.16000     -6.1872363E-08
   35.22000     -6.1388384E-08
   35.28000     -6.1040112E-08
   35.34000     -6.0825613E-08
   35.40000     -6.0684776E-08
   35.46000     -6.0510381E-08
   35.52000     -6.0173043E-08
   35.58000     -5.9553262E-08
   35.64000     -5.8571732E-08
   35.70000     -5.7209657E-08
   35.76000     -5.5513510E-08
   35.82000     -5.3583047E-08
   35.88000     -5.1546046E-08
   35.94000     -4.9526790E-08
   36.00000     -4.7616961E-08
   36.06000     -4.5856840E-08
   36.12000     -4.4231552E-08
   36.18000     -4.2682704E-08
   36.24000     -4.1131354E-08
   36.30000     -3.9505032E-08
   36.36000     -3.7760692E-08
   36.42000     -3.5897006E-08
   36.48000     -3.3953071E-08
   36.54000     -3.1994801E-08
   36.60000     -3.0094181E-08
   36.66000     -2.8308385E-08
   36.72000     -2.6665431E-08
   36.78000     -2.5160414E-08
   36.84000     -2.3762734E-08
   36.90000     -2.2431033E-08
   36.96000     -2.1130282E-08
   37.02000     -1.9845135E-08
   37.08000     -1.8585176E-08
   37.14000     -1.7380586E-08
   37.20000     -1.6269849E-08
   37.26000     -1.5283582E-08
   37.32000     -1.4429749E-08
   37.38000     -1.3685177E-08
   37.44000     -1.2996459E-08
   37.50000     -1.2290686E-08
   37.56000     -1.1493418E-08
   37.62000     -1.0548962E-08
   37.68000     -9.4369081E-09
   37.74000     -8.1797404E-09
   37.80000     -6.8388744E-09
   37.86000     -5.5001625E-09
   37.92000     -4.2533594E-09
   37.98000     -3.1720024E-09
   38.04000     -2.2998417E-09
   38.10000     -1.6473992E-09
   38.16000     -1.1985087E-09
   38.22000     -9.2324232E-10
   38.28000     -7.9179235E-10
   38.34000     -7.8424112E-10
   38.40000     -8.9336150E-10
   38.46000     -1.1206202E-09
   38.52000     -1.4681671E-09
   38.58000     -1.9308628E-09
   38.64000     -2.4919942E-09
   38.70000     -3.1245546E-09
   38.76000     -3.7975654E-09
   38.82000     -4.4847850E-09
   38.88000     -5.1721041E-09
   38.94000     -5.8603891E-09
   39.00000     -6.5623800E-09
   39.06000     -7.2948185E-09
   39.12000     -8.0691338E-09
   39.18000     -8.8848031E-09
   39.24000     -9.7284234E-09
   39.30000     -1.0578966E-08
   39.36000     -1.1416838E-08
   39.42000     -1.2232548E-08
   39.48000     -1.3030868E-08
   39.54000     -1.3828406E-08
   39.60000     -1.4645412E-08
   39.66000     -1.5495120E-08
   39.72000     -1.6374997E-08
   39.78000     -1.7263449E-08
   39.84000     -1.8123544E-08
   39.90000     -1.8912807E-08
   39.96000     -1.9596147E-08
   40.02000     -2.0157783E-08
   40.08000     -2.0608169E-08
   40.14000     -2.0983030E-08
   40.20000     -2.1333896E-08
   40.26000     -2.1712363E-08
   40.32000     -2.2152831E-08
   40.38000     -2.2659858E-08
   40.44000     -2.3205327E-08
   40.50000     -2.3737430E-08
   40.56000     -2.4199185E-08
   40.62000     -2.4550202E-08
   40.68000     -2.4783873E-08
   40.74000     -2.4933730E-08
   40.80000     -2.5066704E-08
   40.86000     -2.5265805E-08
   40.92000     -2.5608351E-08
   40.98000     -2.6146804E-08
   41.04000     -2.6897785E-08
   41.10000     -2.7841594E-08
   41.16000     -2.8931304E-08
   41.22000     -3.0107959E-08
   41.28000     -3.1317192E-08
   41.34000     -3.2522703E-08
   41.40000     -3.3712972E-08
   41.46000     -3.4899610E-08
   41.52000     -3.6107878E-08
   41.58000     -3.7362490E-08
   41.64000     -3.8673551E-08
   41.70000     -4.0027629E-08
   41.76000     -4.1387633E-08
   41.82000     -4.2702130E-08
   41.88000     -4.3921219E-08
   41.94000     -4.5013696E-08
   42.00000     -4.5979466E-08
   42.06000     -4.6852570E-08
   42.12000     -4.7693334E-08
   42.18000     -4.8571589E-08
   42.24000     -4.9545864E-08
   42.30000     -5.0644783E-08
   42.36000     -5.1856432E-08
   42.42000     -5.3129174E-08
   42.48000     -5.4383982E-08
   42.54000     -5.5534855E-08
   42.60000     -5.6511308E-08
   42.66000     -5.7276267E-08
   42.72000     -5.7833997E-08
   42.78000     -5.8226057E-08
   42.84000     -5.8516889E-08
   42.90000     -5.8773843E-08
   42.96000     -5.9047888E-08
   43.02000     -5.9360701E-08
   43.08000     -5.9701470E-08
   43.14000     -6.0033585E-08
   43.20000     -6.0308579E-08
   43.26000     -6.0482407E-08
   43.32000     -6.0528890E-08
   43.38000     -6.0446084E-08
   43.44000     -6.0253662E-08
   43.50000     -5.9982796E-08
   43.56000     -5.9662348E-08
   43.62000     -5.9306700E-08
   43.68000     -5.8909961E-08
   43.74000     -5.8448563E-08
   43.80000     -5.7891324E-08
   43.86000     -5.7212990E-08
   43.92000     -5.6406311E-08
   43.98000     -5.5488414E-08
   44.04000     -5.4499683E-08
   44.10000     -5.3495707E-08
   44.16000     -5.2535139E-08
   44.22000     -5.1666799E-08
   44.28000     -5.0919269E-08
   44.34000     -5.0295366E-08
   44.40000     -4.9772581E-08
   44.46000     -4.9309516E-08
   44.52000     -4.8856830E-08
   44.58000     -4.8370133E-08
   44.64000     -4.7821292E-08
   44.70000     -4.7205141E-08
   44.76000     -4.6539558E-08
   44.82000     -4.5859291E-08
   44.88000     -4.5205539E-08
   44.94000     -4.4614747E-08
   45.00000     -4.4109786E-08
   45.06000     -4.3695646E-08
   45.12000     -4.3360266E-08
   45.18000     -4.3079773E-08
   45.24000     -4.2826489E-08
   45.30000     -4.2577707E-08
   45.36000     -4.2322956E-08
   45.42000     -4.2067629E-08
   45.48000     -4.1831662E-08
   45.54000     -4.1643215E-08
   45.60000     -4.1529105E-08
   45.66000     -4.1505480E-08
   45.72000     -4.1572349E-08
   45.78000     -4.1714717E-08
   45.84000     -4.1910447E-08
   45.90000     -4.2142386E-08
   45.96000     -4.2410349E-08
   46.02000     -4.2738581E-08
   46.08000     -4.3175831E-08
   46.14000     -4.3787892E-08
   46.20000     -4.4645041E-08
   46.26000     -4.5808559E-08
   46.32000     -4.7320736E-08
   46.38000     -4.9201976E-08
   46.44000     -5.1456645E-08
   46.50000     -5.4086758E-08
   46.56000     -5.7110519E-08
   46.62000     -6.0580703E-08
   46.68000     -6.4597877E-08
   46.74000     -6.9314439E-08
   46.80000     -7.4928714E-08
   46.86000     -8.1671615E-08
   46.92000     -8.9791328E-08
   46.98000     -9.9542390E-08
   47.04000     -1.1118410E-07
   47.10000     -1.2499014E-07
   47.16000     -1.4126732E-07
   47.22000     -1.6037933E-07
   47.28000     -1.8276934E-07
   47.34000     -2.0897784E-07
   47.40000     -2.3965333E-07
   47.46000     -2.7555615E-07
   47.52000     -3.1755795E-07
   47.58000     -3.6664045E-07
   47.64000     -4.2389652E-07
   47.70000     -4.9053807E-07
   47.76000     -5.6791157E-07
   47.82000     -6.5752243E-07
   47.88000     -7.6106500E-07
   47.94000     -8.8045482E-07
   48.00000     -1.0178574E-06
   48.06000     -1.1757107E-06
   48.12000     -1.3567426E-06
   48.18000     -1.5639812E-06
   48.24000     -1.8007679E-06
   48.30000     -2.0707744E-06
   48.36000     -2.3780228E-06
   48.42000     -2.7269159E-06
   48.48000     -3.1222658E-06
   48.54000     -3.5693256E-06
   48.60000     -4.0738187E-06
   48.66000     -4.6419632E-06
   48.72000     -5.2804944E-06
   48.78000     -5.9966869E-06
   48.84000     -6.7983674E-06
   48.90000     -7.6939268E-06
   48.96000     -8.6923237E-06
   49.02000     -9.8030896E-06
   49.08000     -1.1036321E-05
   49.14000     -1.2402680E-05
   49.20000     -1.3913379E-05
   49.26000     -1.5580172E-05
   49.32000     -1.7415321E-05
   49.38000     -1.9431576E-05
   49.44000     -2.1642132E-05
   49.50000     -2.4060580E-05
   49.56000     -2.6700838E-05
   49.62000     -2.9577097E-05
   49.68000     -3.2703741E-05
   49.74000     -3.6095258E-05
   49.80000     -3.9766164E-05
   49.86000     -4.3730881E-05
   49.92000     -4.8003632E-05
   49.98000     -5.2598309E-05
   50.04000     -5.7528352E-05
   50.10000     -6.2806605E-05
   50.16000     -6.8445181E-05
   50.22000     -7.4455274E-05
   50.28000     -8.0847029E-05
   50.34000     -8.7629371E-05
   50.40000     -9.4809824E-05
   50.46000     -1.0239439E-04
   50.52000     -1.1038739E-04
   50.58000     -1.1879133E-04
   50.64000     -1.2760676E-04
   50.70000     -1.3683210E-04
   50.76000     -1.4646363E-04
   50.82000     -1.5649520E-04
   50.88000     -1.6691833E-04
   50.94000     -1.7772199E-04
   51.00000     -1.8889261E-04
   51.06000     -2.0041398E-04
   51.12000     -2.1226727E-04
   51.18000     -2.2443115E-04
   51.24000     -2.3688165E-04
   51.30000     -2.4959241E-04
   51.36000     -2.6253477E-04
   51.42000     -2.7567786E-04
   51.48000     -2.8898867E-04
   51.54000     -3.0243245E-04
   51.60000     -3.1597263E-04
   51.66000     -3.2957125E-04
   51.72000     -3.4318928E-04
   51.78000     -3.5678674E-04
   51.84000     -3.7032316E-04
   51.90000     -3.8375793E-04
   51.96000     -3.9705049E-04
   52.02000     -4.1016075E-04
   52.08000     -4.2304950E-04
   52.14000     -4.3567872E-04
   52.20000     -4.4801191E-04
   52.26000     -4.6001453E-04
   52.32000     -4.7165429E-04
   52.38000     -4.8290155E-04
   52.44000     -4.9372949E-04
   52.50000     -5.0411426E-04
   52.56000     -5.1403552E-04
   52.62000     -5.2347651E-04
   52.68000     -5.3242437E-04
   52.74000     -5.4087007E-04
   52.80000     -5.4880872E-04
   52.86000     -5.5623951E-04
   52.92000     -5.6316546E-04
   52.98000     -5.6959386E-04
   53.04000     -5.7553576E-04
   53.10000     -5.8100623E-04
   53.16000     -5.8602408E-04
   53.22000     -5.9061137E-04
   53.28000     -5.9479341E-04
   53.34000     -5.9859816E-04
   53.40000     -6.0205610E-04
   53.46000     -6.0519978E-04
   53.52000     -6.0806354E-04
   53.58000     -6.1068311E-04
   53.64000     -6.1309501E-04
   53.70000     -6.1533641E-04
   53.76000     -6.1744422E-04
   53.82000     -6.1945466E-04
   53.88000     -6.2140316E-04
   53.94000     -6.2332372E-04
   54.00000     -6.2524877E-04
   54.06000     -6.2720856E-04
   54.12000     -6.2923104E-04
   54.18000     -6.3134125E-04
   54.24000     -6.3356082E-04
   54.30000     -6.3590839E-04
   54.36000     -6.3839857E-04
   54.42000     -6.4104266E-04
   54.48000     -6.4384792E-04
   54.54000     -6.4681808E-04
   54.60000     -6.4995285E-04
   54.66000     -6.5324840E-04
   54.72000     -6.5669679E-04
   54.78000     -6.6028698E-04
   54.84000     -6.6400436E-04
   54.90000     -6.6783145E-04
   54.96000     -6.7174825E-04
   55.02000     -6.7573221E-04
   55.08000     -6.7975896E-04
   55.14000     -6.8380201E-04
   55.20000     -6.8783358E-04
   55.26000     -6.9182483E-04
   55.32000     -6.9574622E-04
   55.38000     -6.9956837E-04
   55.44000     -7.0326234E-04
   55.50000     -7.0679962E-04
   55.56000     -7.1015296E-04