 -0.750000000       0.00000000    
 -0.689999998       0.00000000    
 -0.629999995       0.00000000    
 -0.569999993       0.00000000    
 -0.509999990       0.00000000    
 -0.449999988       0.00000000    
 -0.389999986       0.00000000    
 -0.330000013       0.00000000    
 -0.270000011       0.00000000    
 -0.209999993       0.00000000    
 -0.150000006       0.00000000    
  -9.00000036E-02   0.00000000    
  -2.99999993E-02   1.57795079E-34
   2.99999993E-02   2.74149031E-33
   9.00000036E-02   2.36419744E-32
  0.150000006       1.33179313E-31
  0.209999993       5.39660852E-31
  0.270000011       1.61084611E-30
  0.330000013       3.33269312E-30
  0.389999986       3.01763224E-30
  0.449999988      -1.01135614E-29
  0.509999990      -6.20914518E-29
  0.569999993      -1.92246796E-28
  0.629999995      -4.14392524E-28
  0.689999998      -6.01557044E-28
  0.750000000      -2.84731264E-28
  0.810000002       1.51794711E-27
  0.870000005       6.08616550E-27
  0.930000007       1.38199386E-26
  0.990000010       2.16997516E-26
   1.04999995       2.00995626E-26
   1.11000001      -8.08001567E-27
   1.16999996      -8.06591355E-26
   1.23000002      -1.97122880E-25
   1.28999996      -3.10315348E-25
   1.35000002      -3.08363065E-25
   1.40999997      -4.41104641E-26
   1.47000003       5.52142434E-25
   1.52999997       1.28977861E-24
   1.59000003       1.58600071E-24
   1.64999998       6.28583992E-25
   1.71000004      -1.91451828E-24
   1.76999998      -4.67138540E-24
   1.83000004      -3.53165454E-24
   1.88999999       7.66048468E-24
   1.95000005       3.28590260E-23
   2.00999999       6.55020745E-23
   2.06999993       7.92468650E-23
   2.13000011       2.60131869E-23
   2.19000006      -1.47036339E-22
   2.25000000      -4.53714927E-22
   2.30999994      -8.05812302E-22
   2.36999989      -9.64191691E-22
   2.43000007      -5.61227152E-22
   2.49000001       7.48535800E-22
   2.54999995       3.00040158E-21
   2.60999990       5.58517277E-21
   2.67000008       7.07823782E-21
   2.73000002       5.50267241E-21
   2.78999996      -7.95572105E-22
   2.84999990      -1.17821054E-20
   2.91000009      -2.44469450E-20
   2.97000003      -3.25438832E-20
   3.02999997      -2.82903137E-20
   3.08999991      -6.27565936E-21
   3.15000010       3.15252942E-20
   3.21000004       7.22699042E-20
   3.26999998       9.36890805E-20
   3.32999992       7.27646939E-20
   3.39000010       5.40771294E-22
   3.45000005      -1.02969763E-19
   3.50999999      -1.83875762E-19
   3.56999993      -1.69408670E-19
   3.63000011      -5.75158309E-21
   3.69000006       2.91762112E-19
   3.75000000       6.01339781E-19
   3.80999994       7.02983941E-19
   3.86999989       3.55942383E-19
   3.93000007      -5.60185167E-19
   3.99000001      -1.88870170E-18
   4.05000019      -3.10882640E-18
   4.11000013      -3.41142850E-18
   4.17000008      -1.98843073E-18
   4.23000002       1.50644789E-18
   4.28999996       6.48704525E-18
   4.34999990       1.12093528E-17
   4.40999985       1.30519969E-17
   4.46999979       9.43184587E-18
   4.53000021      -7.87899873E-19
   4.59000015      -1.58855917E-17
   4.65000010      -3.06306106E-17
   4.71000004      -3.71795517E-17
   4.76999998      -2.79028469E-17
   4.82999992       3.25618743E-19
   4.88999987       4.19343678E-17
   4.94999981       8.09639884E-17
   5.01000023       9.42551926E-17
   5.07000017       6.04617610E-17
   5.13000011      -2.69724870E-17
   5.19000006      -1.48056714E-16
   5.25000000      -2.53056916E-16
   5.30999994      -2.74252910E-16
   5.36999989      -1.53855078E-16
   5.42999983       1.19313630E-16
   5.48999977       4.80457522E-16
   5.55000019       7.86563742E-16
   5.61000013       8.55187810E-16
   5.67000008       5.41640300E-16
   5.73000002      -1.70493333E-16
   5.78999996      -1.10849381E-15
   5.84999990      -1.92350658E-15
   5.90999985      -2.19858201E-15
   5.96999979      -1.62942606E-15
   6.03000021      -2.08556518E-16
   6.09000015       1.68153140E-15
   6.15000010       3.34225945E-15
   6.21000004       4.01038210E-15
   6.26999998       3.20655461E-15
   6.32999992       1.02768072E-15
   6.38999987      -1.78018310E-15
   6.44999981      -4.05633956E-15
   6.51000023      -4.71513341E-15
   6.57000017      -3.29451813E-15
   6.63000011      -2.96185214E-16
   6.69000006       2.89562215E-15
   6.75000000       4.55502640E-15
   6.80999994       3.42976494E-15
   6.86999989      -5.21058458E-16
   6.92999983      -5.83692945E-15
   6.98999977      -9.92886007E-15
   7.05000019      -1.00594302E-14
   7.11000013      -4.60057475E-15
   7.17000008       5.92042445E-15
   7.23000002       1.84578627E-14
   7.28999996       2.80477681E-14
   7.34999990       2.93486549E-14
   7.40999985       1.87647681E-14
   7.46999979      -3.49748798E-15
   7.53000021      -3.22575828E-14
   7.59000015      -5.78417319E-14
   7.65000010      -6.86207615E-14
   7.71000004      -5.53011040E-14
   7.76999998      -1.57496730E-14
   7.82999992       4.16352337E-14
   7.88999987       9.81251958E-14
   7.94999981       1.29658464E-13
   8.01000023       1.15955883E-13
   8.06999969       5.07916903E-14
   8.13000011      -5.11267495E-14
   8.18999958      -1.54988571E-13
   8.25000000      -2.16228944E-13
   8.31000042      -1.98065441E-13
   8.36999989      -8.98201665E-14
   8.43000031       8.22554915E-14
   8.48999977       2.58194209E-13
   8.55000019       3.62891222E-13
   8.60999966       3.34649978E-13
   8.67000008       1.53084847E-13
   8.72999954      -1.45270216E-13
   8.78999996      -4.71293631E-13
   8.85000038      -7.07654042E-13
   8.90999985      -7.45541053E-13
   8.97000027      -5.21450179E-13
   9.02999973      -4.21876008E-14
   9.09000015       6.08857962E-13
   9.14999962       1.28454116E-12
   9.21000004       1.80118594E-12
   9.27000046       1.97384708E-12
   9.32999992       1.65452385E-12
   9.39000034       7.70145287E-13
   9.44999981      -6.42841249E-13
   9.51000023      -2.41318966E-12
   9.56999969      -4.22861312E-12
   9.63000011      -5.65983762E-12
   9.68999958      -6.22244487E-12
   9.75000000      -5.47442430E-12
   9.81000042      -3.13486845E-12
   9.86999989       8.01191036E-13
   9.93000031       5.98061704E-12
   9.98999977       1.16671152E-11
   10.0500002       1.67875679E-11
   10.1099997       2.00525447E-11
   10.1700001       2.01449638E-11
   10.2299995       1.59645092E-11
   10.2900000       6.90833545E-12
   10.3500004      -6.84454620E-12
   10.4099998      -2.40975712E-11
   10.4700003      -4.25227631E-11
   10.5299997      -5.87505739E-11
   10.5900002      -6.87281482E-11
   10.6499996      -6.83600745E-11
   10.7100000      -5.43685444E-11
   10.7700005      -2.52268779E-11
   10.8299999       1.80375714E-11
   10.8900003       7.13835033E-11
   10.9499998       1.27799299E-10
   11.0100002       1.77912282E-10
   11.0699997       2.11111073E-10
   11.1300001       2.17034030E-10
   11.1899996       1.87227595E-10
   11.2500000       1.16777116E-10
   11.3100004       5.74309393E-12
   11.3699999      -1.39734696E-10
   11.4300003      -3.06792286E-10
   11.4899998      -4.75795903E-10
   11.5500002      -6.21049934E-10
   11.6099997      -7.12393089E-10
   11.6700001      -7.17735760E-10
   11.7299995      -6.06438677E-10
   11.7900000      -3.53242796E-10
   11.8500004       5.77323085E-11
   11.9099998       6.29520436E-10
   11.9700003       1.34998746E-09
   12.0299997       2.19115925E-09
   12.0900002       3.11048165E-09
   12.1499996       4.05401668E-09
   12.2100000       4.96127717E-09
   12.2700005       5.77115022E-09
   12.3299999       6.42818021E-09
   12.3900003       6.88841340E-09
   12.4499998       7.12404358E-09
   12.5100002       7.12627202E-09
   12.5699997       6.90605262E-09
   12.6300001       6.49268372E-09
   12.6899996       5.93051963E-09
   12.7500000       5.27430011E-09
   12.8100004       4.58371430E-09
   12.8699999       3.91781541E-09
   12.9300003       3.32982597E-09
   12.9899998       2.86276691E-09
   13.0500002       2.54622323E-09
   13.1099997       2.39447595E-09
   13.1700001       2.40615883E-09
   13.2299995       2.56547161E-09
   13.2900000       2.84481705E-09
   13.3500004       3.20850746E-09
   13.4099998       3.61697960E-09
   13.4700003       4.03085920E-09
   13.5299997       4.41425607E-09
   13.5900002       4.73690553E-09
   13.6499996       4.97508390E-09
   13.7100000       5.11156406E-09
   13.7700005       5.13504794E-09
   13.8299999       5.03955988E-09
   13.8900003       4.82410600E-09
   13.9499998       4.49268356E-09
   14.0100002       4.05447276E-09
   14.0699997       3.52394602E-09
   14.1300001       2.92060731E-09
   14.1899996       2.26818675E-09
   14.2500000       1.59325597E-09
   14.3100004       9.23357002E-10
   14.3699999       2.84816726E-10
   14.4300003      -2.99534370E-10
   14.4899998      -8.12497125E-10
   14.5500002      -1.24423272E-09
   14.6099997      -1.59332103E-09
   14.6700001      -1.86690796E-09
   14.7299995      -2.07977457E-09
   14.7900000      -2.25229191E-09
   14.8500004      -2.40739628E-09
   14.9099998      -2.56690713E-09
   14.9700003      -2.74767720E-09
   15.0299997      -2.95818681E-09
   15.0900002      -3.19624083E-09
   15.1499996      -3.44834761E-09
   15.2100000      -3.69115338E-09
   15.2700005      -3.89495414E-09
   15.3299999      -4.02886080E-09
   15.3900003      -4.06676026E-09
   15.4499998      -3.99291844E-09
   15.5100002      -3.80604570E-09
   15.5699997      -3.52093354E-09
   15.6300001      -3.16732596E-09
   15.6899996      -2.78632428E-09
   15.7500000      -2.42516784E-09
   15.8100004      -2.13148943E-09
   15.8699999      -1.94804661E-09
   15.9300003      -1.90860439E-09
   15.9899998      -2.03520090E-09
   16.0499992      -2.33670727E-09
   16.1100006      -2.80847412E-09
   16.1700001      -3.43294415E-09
   16.2299995      -4.18126689E-09
   16.2900009      -5.01602893E-09
   16.3500004      -5.89509996E-09
   16.4099998      -6.77631062E-09
   16.4699993      -7.62230901E-09
   16.5300007      -8.40473646E-09
   16.5900002      -9.10685571E-09
   16.6499996      -9.72409531E-09
   16.7099991      -1.02624735E-08
   16.7700005      -1.07353717E-08
   16.8299999      -1.11594760E-08
   16.8899994      -1.15507657E-08
   16.9500008      -1.19212444E-08
   17.0100002      -1.22767734E-08
   17.0699997      -1.26161162E-08
   17.1299992      -1.29311237E-08
   17.1900005      -1.32080000E-08
   17.2500000      -1.34296014E-08
   17.3099995      -1.35786848E-08
   17.3700008      -1.36417091E-08
   17.4300003      -1.36124809E-08
   17.4899998      -1.34945735E-08
   17.5499992      -1.33014391E-08
   17.6100006      -1.30536115E-08
   17.6700001      -1.27732367E-08
   17.7299995      -1.24772663E-08
   17.7900009      -1.21714772E-08
   17.8500004      -1.18475656E-08
   17.9099998      -1.14849161E-08
   17.9699993      -1.10571019E-08
   18.0300007      -1.05414415E-08
   18.0900002      -9.92853977E-09
   18.1499996      -9.22841092E-09
   18.2099991      -8.47065973E-09
   18.2700005      -7.69820563E-09
   18.3299999      -6.95640567E-09
   18.3899994      -6.28136032E-09
   18.4500008      -5.69172132E-09
   18.5100002      -5.18727816E-09
   18.5699997      -4.75508610E-09
   18.6299992      -4.38090364E-09
   18.6900005      -4.06131484E-09
   18.7500000      -3.81119669E-09
   18.8099995      -3.66255226E-09
   18.8700008      -3.65387698E-09
   18.9300003      -3.81296594E-09
   18.9899998      -4.13906687E-09
   19.0499992      -4.59120297E-09
   19.1100006      -5.08787723E-09
   19.1700001      -5.51964785E-09
   19.2299995      -5.77155923E-09
   19.2900009      -5.74880676E-09
   19.3500004      -5.39766898E-09
   19.4099998      -4.71522776E-09
   19.4699993      -3.74519216E-09
   19.5300007      -2.56182497E-09
   19.5900002      -1.24784993E-09
   19.6499996       1.26151478E-10
   19.7099991       1.51446355E-09
   19.7700005       2.89805291E-09
   19.8299999       4.27671232E-09
   19.8899994       5.65629277E-09
   19.9500008       7.03725700E-09
   20.0100002       8.40972714E-09
   20.0699997       9.75707604E-09
   20.1299992       1.10662377E-08
   20.1900005       1.23397648E-08
   20.2500000       1.36036000E-08
   20.3099995       1.49059023E-08
   20.3700008       1.63056324E-08
   20.4300003       1.78536528E-08
   20.4899998       1.95723029E-08
   20.5499992       2.14403251E-08
   20.6100006       2.33886333E-08
   20.6700001       2.53087862E-08
   20.7299995       2.70718790E-08
   20.7900009       2.85522219E-08
   20.8500004       2.96490175E-08
   20.9099998       3.03002743E-08
   20.9699993       3.04862589E-08
   21.0300007       3.02232692E-08
   21.0900002       2.95513374E-08
   21.1499996       2.85205370E-08
   21.2099991       2.71800804E-08
   21.2700005       2.55722625E-08
   21.3299999       2.37312374E-08
   21.3899994       2.16850022E-08
   21.4500008       1.94583833E-08
   21.5100002       1.70755570E-08
   21.5699997       1.45616523E-08
   21.6299992       1.19440484E-08
   21.6900005       9.25430310E-09
   21.7500000       6.53115473E-09
   21.8099995       3.82399401E-09
   21.8700008       1.19519428E-09
   21.9300003      -1.28069899E-09
   21.9899998      -3.52233798E-09
   22.0499992      -5.45142509E-09
   22.1100006      -7.00511471E-09
   22.1700001      -8.14754930E-09
   22.2299995      -8.87675267E-09
   22.2900009      -9.22415921E-09
   22.3500004      -9.24629262E-09
   22.4099998      -9.01078678E-09
   22.4699993      -8.58101501E-09
   22.5300007      -8.00419997E-09
   22.5900002      -7.30667393E-09
   22.6499996      -6.49740528E-09
   22.7099991      -5.57784974E-09
   22.7700005      -4.55393012E-09
   22.8299999      -3.44534423E-09
   22.8899994      -2.28871677E-09
   22.9500008      -1.13377052E-09
   23.0100002      -3.45843493E-11
   23.0699997       9.60092228E-10
   23.1299992       1.81338200E-09
   23.1900005       2.50125631E-09
   23.2500000       3.00820102E-09
   23.3099995       3.32031225E-09
   23.3700008       3.41972894E-09
   23.4300003       3.28368888E-09
   23.4899998       2.88934943E-09
   23.5499992       2.22287766E-09
   23.6100006       1.28931055E-09
   23.6700001       1.19193447E-10
   23.7299995      -1.23085131E-09
   23.7900009      -2.68425615E-09
   23.8500004      -4.15567758E-09
   23.9099998      -5.56407453E-09
   23.9699993      -6.84439794E-09
   24.0300007      -7.95553312E-09
   24.0900002      -8.88362628E-09
   24.1499996      -9.64119362E-09
   24.2099991      -1.02630953E-08
   24.2700005      -1.08004059E-08
   24.3299999      -1.13128991E-08
   24.3899994      -1.18605810E-08
   24.4500008      -1.24948638E-08
   24.5100002      -1.32504248E-08
   24.5699997      -1.41393226E-08
   24.6299992      -1.51490447E-08
   24.6900005      -1.62456057E-08
   24.7500000      -1.73815309E-08
   24.8099995      -1.85070217E-08
   24.8700008      -1.95813197E-08
   24.9300003      -2.05808313E-08
   24.9899998      -2.15013358E-08
   25.0499992      -2.23533885E-08
   25.1100006      -2.31523654E-08
   25.1700001      -2.39065479E-08
   25.2299995      -2.46075746E-08
   25.2900009      -2.52268819E-08
   25.3500004      -2.57196895E-08
   25.4099998      -2.60352966E-08
   25.4699993      -2.61300617E-08
   25.5300007      -2.59782773E-08
   25.5900002      -2.55770107E-08
   25.6499996      -2.49432102E-08
   25.7099991      -2.41044784E-08
   25.7700005      -2.30874058E-08
   25.8299999      -2.19083063E-08
   25.8899994      -2.05701252E-08
   25.9500008      -1.90667144E-08
   26.0100002      -1.73924928E-08
   26.0699997      -1.55531676E-08
   26.1299992      -1.35725795E-08
   26.1900005      -1.14921592E-08
   26.2500000      -9.36239797E-09
   26.3099995      -7.22900495E-09
   26.3700008      -5.11874054E-09
   26.4300003      -3.03038461E-09
   26.4899998      -9.34665900E-10
   26.5499992       1.21613419E-09
   26.6100006       3.47167894E-09
   26.6700001       5.86554938E-09
   26.7299995       8.40176284E-09
   26.7900009       1.10504921E-08
   26.8500004       1.37544847E-08
   26.9099998       1.64440248E-08
   26.9699993       1.90553031E-08
   27.0300007       2.15458940E-08
   27.0900002       2.39022100E-08
   27.1499996       2.61366804E-08
   27.2099991       2.82762667E-08
   27.2700005       3.03469001E-08
   27.3299999       3.23599245E-08
   27.3899994       3.43055575E-08
   27.4500008       3.61555230E-08
   27.5100002       3.78735230E-08
   27.5699997       3.94290289E-08
   27.6299992       4.08088958E-08
   27.6900005       4.20222435E-08
   27.7500000       4.30968896E-08
   27.8099995       4.40689476E-08
   27.8700008       4.49698376E-08
   27.9300003       4.58158773E-08
   27.9899998       4.66043844E-08
   28.0499992       4.73176414E-08
   28.1100006       4.79330460E-08
   28.1700001       4.84352363E-08
   28.2299995       4.88254273E-08
   28.2900009       4.91240293E-08
   28.3500004       4.93651022E-08
   28.4099998       4.95841981E-08
   28.4699993       4.98036385E-08
   28.5300007       5.00203967E-08
   28.5900002       5.02013187E-08
   28.6499996       5.02879445E-08
   28.7099991       5.02102893E-08
   28.7700005       4.99055659E-08
   28.8299999       4.93360162E-08
   28.8899994       4.84999205E-08
   28.9500008       4.74318398E-08
   29.0100002       4.61918042E-08
   29.0699997       4.48468782E-08
   29.1299992       4.34513971E-08
   29.1900005       4.20328092E-08
   29.2500000       4.05881302E-08
   29.3099995       3.90924484E-08
   29.3700008       3.75163403E-08
   29.4300003       3.58458614E-08
   29.4899998       3.40974893E-08
   29.5499992       3.23221805E-08
   29.6100006       3.05963859E-08
   29.6700001       2.90027717E-08
   29.7299995       2.76070775E-08
   29.7900009       2.64392614E-08
   29.8500004       2.54855763E-08
   29.9099998       2.46944847E-08
   29.9699993       2.39942235E-08
   30.0300007       2.33156587E-08
   30.0900002       2.26120775E-08
   30.1499996       2.18687095E-08
   30.2099991       2.10986659E-08
   30.2700005       2.03272332E-08
   30.3299999       1.95709973E-08
   30.3899994       1.88205025E-08
   30.4500008       1.80339974E-08
   30.5100002       1.71456467E-08
   30.5699997       1.60860552E-08
   30.6299992       1.48078296E-08
   30.6900005       1.33066340E-08
   30.7500000       1.16293366E-08
   30.8099995       9.86544180E-09
   30.8700008       8.12409340E-09
   30.9300003       6.50447873E-09
   30.9899998       5.07005637E-09
   31.0499992       3.83576815E-09
   31.1100006       2.77260193E-09
   31.1700001       1.82735171E-09
   31.2299995       9.49675560E-10
   31.2900009       1.15825592E-10
   31.3500004      -6.60253130E-10
   31.4099998      -1.33283962E-09
   31.4699993      -1.84517546E-09
   31.5300007      -2.15710649E-09
   31.5900002      -2.26904340E-09
   31.6499996      -2.23300911E-09
   31.7099991      -2.14633955E-09
   31.7700005      -2.12994289E-09
   31.8299999      -2.29846897E-09
   31.8899994      -2.73228817E-09
   31.9500008      -3.46003182E-09
   32.0099983      -4.45625137E-09
   32.0699997      -5.65330582E-09
   32.1300011      -6.96203140E-09
   32.1899986      -8.29365732E-09
   32.2500000      -9.57635304E-09
   32.3100014      -1.07629043E-08
   32.3699989      -1.18298269E-08
   32.4300003      -1.27711139E-08
   32.4900017      -1.35908103E-08
   32.5499992      -1.42976582E-08
   32.6100006      -1.49030139E-08
   32.6699982      -1.54211968E-08
   32.7299995      -1.58703006E-08
   32.7900009      -1.62717235E-08
   32.8499985      -1.66477356E-08
   32.9099998      -1.70177952E-08
   32.9700012      -1.73951769E-08
   33.0299988      -1.77854922E-08
   33.0900002      -1.81878477E-08
   33.1500015      -1.85981666E-08
   33.2099991      -1.90130791E-08
   33.2700005      -1.94324787E-08
   33.3300018      -1.98592716E-08
   33.3899994      -2.02960955E-08
   33.4500008      -2.07403374E-08
   33.5099983      -2.11798152E-08
   33.5699997      -2.15916671E-08
   33.6300011      -2.19459348E-08
   33.6899986      -2.22133600E-08
   33.7500000      -2.23748149E-08
   33.8100014      -2.24286065E-08
   33.8699989      -2.23921326E-08
   33.9300003      -2.22963674E-08
   33.9900017      -2.21745324E-08
   34.0499992      -2.20490559E-08
   34.1100006      -2.19221405E-08
   34.1699982      -2.17743565E-08
   34.2299995      -2.15727667E-08
   34.2900009      -2.12861799E-08
   34.3499985      -2.09020037E-08
   34.4099998      -2.04379624E-08
   34.4700012      -1.99434869E-08
   34.5299988      -1.94893435E-08
   34.5900002      -1.91485281E-08
   34.6500015      -1.89750473E-08
   34.7099991      -1.89880307E-08
   34.7700005      -1.91667784E-08
   34.8300018      -1.94581613E-08
   34.8899994      -1.97932195E-08
   34.9500008      -2.01066008E-08
   35.0099983      -2.03520436E-08
   35.0699997      -2.05092281E-08
   35.1300011      -2.05812380E-08
   35.1899986      -2.05854409E-08
   35.2500000      -2.05427213E-08
   35.3100014      -2.04695354E-08
   35.3699989      -2.03752197E-08
   35.4300003      -2.02640784E-08
   35.4900017      -2.01398063E-08
   35.5499992      -2.00093027E-08
   35.6100006      -1.98839434E-08
   35.6699982      -1.97781311E-08
   35.7299995      -1.97063095E-08
   35.7900009      -1.96801864E-08
   35.8499985      -1.97074108E-08
   35.9099998      -1.97919654E-08
   35.9700012      -1.99356993E-08
   36.0299988      -2.01401740E-08
   36.0900002      -2.04082085E-08
   36.1500015      -2.07450199E-08
   36.2099991      -2.11590567E-08
   36.2700005      -2.16625367E-08
   36.3300018      -2.22713652E-08
   36.3899994      -2.30038761E-08
   36.4500008      -2.38779894E-08
   36.5099983      -2.49070489E-08
   36.5699997      -2.60953339E-08
   36.6300011      -2.74346945E-08
   36.6899986      -2.89037025E-08
   36.7500000      -3.04698915E-08
   36.8100014      -3.20945439E-08
   36.8699989      -3.37385195E-08
   36.9300003      -3.53671652E-08
   36.9900017      -3.69528017E-08
   37.0499992      -3.84742265E-08
   37.1100006      -3.99138216E-08
   37.1699982      -4.12537489E-08
   37.2299995      -4.24729620E-08
   37.2900009      -4.35462866E-08
   37.3499985      -4.44461250E-08
   37.4099998      -4.51463116E-08
   37.4700012      -4.56270151E-08
   37.5299988      -4.58792400E-08
   37.5900002      -4.59075515E-08
   37.6500015      -4.57300757E-08
   37.7099991      -4.53755433E-08
   37.7700005      -4.48779716E-08
   37.8300018      -4.42702976E-08
   37.8899994      -4.35788188E-08
   37.9500008      -4.28200160E-08
   38.0099983      -4.20006394E-08
   38.0699997      -4.11208205E-08
   38.1300011      -4.01786266E-08
   38.1899986      -3.91741359E-08
   38.2500000      -3.81113239E-08
   38.3100014      -3.69972710E-08
   38.3699989      -3.58394736E-08
   38.4300003      -3.46429694E-08
   38.4900017      -3.34090871E-08
   38.5499992      -3.21364446E-08
   38.6100006      -3.08238768E-08
   38.6699982      -2.94735951E-08
   38.7299995      -2.80929555E-08
   38.7900009      -2.66937938E-08
   38.8499985      -2.52895234E-08
   38.9099998      -2.38912055E-08
   38.9700012      -2.25042918E-08
   39.0299988      -2.11272777E-08
   39.0900002      -1.97527577E-08
   39.1500015      -1.83703701E-08
   39.2099991      -1.69705867E-08
   39.2700005      -1.55481015E-08
   39.3300018      -1.41041010E-08
   39.3899994      -1.26470159E-08
   39.4500008      -1.11919967E-08
   39.5099983      -9.75945369E-09
   39.5699997      -8.37304892E-09
   39.6300011      -7.05724013E-09
   39.6899986      -5.83433390E-09
   39.7500000      -4.72104622E-09
   39.8100014      -3.72483999E-09
   39.8699989      -2.84084023E-09
   39.9300003      -2.05047135E-09
   39.9900017      -1.32291134E-09
   40.0499992      -6.19804263E-10
   40.1100006       9.74533509E-11
   40.1699982       8.59637750E-10
   40.2299995       1.68317782E-09
   40.2900009       2.56714450E-09
   40.3499985       3.49448115E-09
   40.4099998       4.43667902E-09
   40.4700012       5.35998179E-09
   40.5299988       6.23104235E-09
   40.5900002       7.02074887E-09
   40.6500015       7.70620190E-09
   40.7099991       8.27175306E-09
   40.7700005       8.71016415E-09
   40.8300018       9.02420183E-09
   40.8899994       9.22793575E-09
   40.9500008       9.34641875E-09
   41.0099983       9.41267508E-09
   41.0699997       9.46211642E-09
   41.1300011       9.52584145E-09
   41.1899986       9.62512203E-09
   41.2500000       9.76904246E-09
   41.3100014       9.95596139E-09
   41.3699989       1.01777715E-08
   41.4300003       1.04247153E-08
   41.4900017       1.06885256E-08
   41.5499992       1.09626699E-08
   41.6100006       1.12401395E-08
   41.6699982       1.15104672E-08
   41.7299995       1.17578924E-08
   41.7900009       1.19617782E-08
   41.8499985       1.20990036E-08
   41.9099998       1.21469270E-08
   41.9700012       1.20853381E-08
   42.0299988       1.18966161E-08
   42.0900002       1.15646470E-08
   42.1500015       1.10740688E-08
   42.2099991       1.04114770E-08
   42.2700005       9.56922630E-09
   42.3300018       8.55088711E-09
   42.3899994       7.37605221E-09
   42.4500008       6.08190343E-09
   42.5099983       4.71982942E-09
   42.5699997       3.34723360E-09
   42.6300011       2.01655981E-09
   42.6899986       7.64783403E-10
   42.7500000      -3.93427513E-10
   42.8100014      -1.46685364E-09
   42.8699989      -2.48298160E-09
   42.9300003      -3.47895623E-09
   42.9900017      -4.49093696E-09
   43.0499992      -5.54477486E-09
   43.1100006      -6.65027011E-09
   43.1699982      -7.80012055E-09
   43.2299995      -8.97335450E-09
   43.2900009      -1.01419042E-08
   43.3499985      -1.12782201E-08
   43.4099998      -1.23616752E-08
   43.4700012      -1.33818947E-08
   43.5299988      -1.43381049E-08
   43.5900002      -1.52349546E-08
   43.6500015      -1.60765907E-08
   43.7099991      -1.68615593E-08
   43.7700005      -1.75810833E-08
   43.8300018      -1.82220159E-08
   43.8899994      -1.87738962E-08
   43.9500008      -1.92374259E-08
   44.0099983      -1.96305336E-08
   44.0699997      -1.99885388E-08
   44.1300011      -2.03569090E-08
   44.1899986      -2.07782165E-08
   44.2500000      -2.12776676E-08
   44.3100014      -2.18529621E-08
   44.3699989      -2.24731203E-08
   44.4300003      -2.30877255E-08
   44.4900017      -2.36438122E-08
   44.5499992      -2.41042173E-08
   44.6100006      -2.44601566E-08
   44.6699982      -2.47328433E-08
   44.7299995      -2.49632492E-08
   44.7900009      -2.51940691E-08
   44.8499985      -2.54512713E-08
   44.9099998      -2.57329464E-08
   44.9700012      -2.60101238E-08
   45.0299988      -2.62392952E-08
   45.0900002      -2.63814464E-08
   45.1500015      -2.64197144E-08
   45.2099991      -2.63684523E-08
   45.2700005      -2.62701612E-08
   45.3300018      -2.61818194E-08
   45.3899994      -2.61563979E-08
   45.4500008      -2.62270348E-08
   45.5099983      -2.63999933E-08
   45.5699997      -2.66584390E-08
   45.6300011      -2.69746163E-08
   45.6899986      -2.73246705E-08
   45.7500000      -2.76995511E-08
   45.8100014      -2.81075963E-08
   45.8699989      -2.85681114E-08
   45.9300003      -2.90991924E-08
   45.9900017      -2.97054363E-08
   46.0499992      -3.03710799E-08
   46.1100006      -3.10617381E-08
   46.1699982      -3.17343130E-08
   46.2299995      -3.23512666E-08
   46.2900009      -3.28937837E-08
   46.3499985      -3.33686714E-08
   46.4099998      -3.38064474E-08
   46.4700012      -3.42512649E-08
   46.5299988      -3.47462787E-08
   46.5900002      -3.53195304E-08
   46.6500015      -3.59749599E-08
   46.7099991      -3.66910591E-08
   46.7700005      -3.74270357E-08
   46.8300018      -3.81336918E-08
   46.8899994      -3.87652506E-08
   46.9500008      -3.92883557E-08
   47.0099983      -3.96859399E-08
   47.0699997      -3.99556477E-08
   47.1300011      -4.01042648E-08
   47.1899986      -4.01404421E-08
   47.2500000      -4.00679951E-08
   47.3100014      -3.98812183E-08
   47.3699989      -3.95624156E-08
   47.4300003      -3.90810868E-08
   47.4900017      -3.83937042E-08
   47.5499992      -3.74433711E-08
   47.6100006      -3.61589478E-08
   47.6699982      -3.44538265E-08
   47.7299995      -3.22244844E-08
   47.7900009      -2.93487332E-08
   47.8499985      -2.56832262E-08
   47.9099998      -2.10596234E-08
   47.9700012      -1.52788733E-08
   48.0299988      -8.10360490E-09
   48.0900002       7.50947027E-10
   48.1500015       1.16268088E-08
   48.2099991       2.49332324E-08
   48.2700005       4.11564720E-08
   48.3300018       6.08696311E-08
   48.3899994       8.47432062E-08
   48.4500008       1.13557277E-07
   48.5099983       1.48216444E-07
   48.5699997       1.89768329E-07
   48.6300011       2.39426583E-07
   48.6899986       2.98598337E-07
   48.7500000       3.68915892E-07
   48.8100014       4.52272076E-07
   48.8699989       5.50857862E-07
   48.9300003       6.67202016E-07
   48.9900017       8.04213357E-07
   49.0499992       9.65226150E-07
   49.1100006       1.15404998E-06
   49.1699982       1.37502684E-06
   49.2299995       1.63309437E-06
   49.2900009       1.93385677E-06
   49.3499985       2.28365980E-06
   49.4099998       2.68967369E-06
   49.4700012       3.15998022E-06
   49.5299988       3.70366274E-06
   49.5900002       4.33090690E-06
   49.6500015       5.05310209E-06
   49.7099991       5.88295734E-06
   49.7700005       6.83461440E-06
   49.8300018       7.92377705E-06
   49.8899994       9.16783029E-06
   49.9500008       1.05859699E-05
   50.0099983       1.21993298E-05
   50.0699997       1.40311049E-05
   50.1300011       1.61066819E-05
   50.1899986       1.84537475E-05
   50.2500000       2.11024308E-05
   50.3100014       2.40854097E-05
   50.3699989       2.74380254E-05
   50.4300003       3.11983822E-05
   50.4900017       3.54074364E-05
   50.5499992       4.01090474E-05
   50.6100006       4.53500288E-05