  -2.400000      0.0000000E+00
  -2.340000      0.0000000E+00
  -2.280000      0.0000000E+00
  -2.220000      0.0000000E+00
  -2.160000      0.0000000E+00
  -2.100000      0.0000000E+00
  -2.040000      0.0000000E+00
  -1.980000     -8.1879805E-23
  -1.920000     -8.3060591E-22
  -1.860000     -4.0876798E-21
  -1.800000     -1.2439147E-20
  -1.740000     -2.3570587E-20
  -1.680000     -1.6742614E-20
  -1.620000      6.2027890E-20
  -1.560000      2.9490405E-19
  -1.500000      7.4200676E-19
  -1.440000      1.3429531E-18
  -1.380000      1.8043311E-18
  -1.320000      1.5155321E-18
  -1.260000     -5.0904137E-19
  -1.200000     -5.6796988E-18
  -1.140000     -1.5700308E-17
  -1.080000     -3.1614727E-17
  -1.020000     -5.1012205E-17
 -0.9600000     -6.2994628E-17
 -0.9000000     -4.3029886E-17
 -0.8400000      4.6074400E-17
 -0.7800000      2.3783920E-16
 -0.7200000      5.2422790E-16
 -0.6600000      8.0369350E-16
 -0.6000000      8.4625246E-16
 -0.5400000      3.2892931E-16
 -0.4800000     -1.0069288E-15
 -0.4200000     -3.0761651E-15
 -0.3600000     -5.1548261E-15
 -0.3000000     -5.8003342E-15
 -0.2400000     -3.2637511E-15
 -0.1800000      3.4782214E-15
 -0.1200000      1.3341348E-14
 -5.9999999E-02  2.2194818E-14
  0.0000000E+00  2.3462721E-14
  5.9999999E-02  1.1009799E-14
  0.1200000     -1.6180997E-14
  0.1800000     -4.9790131E-14
  0.2400000     -7.1870427E-14
  0.3000000     -6.1272602E-14
  0.3600000     -6.2987648E-15
  0.4200000      8.1834001E-14
  0.4800000      1.6388646E-13
  0.5400000      1.8404509E-13
  0.6000000      9.8603343E-14
  0.6600000     -8.9322586E-14
  0.7200000     -3.0990626E-13
  0.7800000     -4.4180715E-13
  0.8400000     -3.6761615E-13
  0.9000000     -4.9593654E-14
  0.9600000      4.1594530E-13
   1.020000      8.0911130E-13
   1.080000      8.7860052E-13
   1.140000      4.8492758E-13
   1.200000     -2.7928378E-13
   1.260000     -1.0751660E-12
   1.320000     -1.4509937E-12
   1.380000     -1.0834683E-12
   1.440000     -8.2071267E-15
   1.500000      1.3052935E-12
   1.560000      2.1214022E-12
   1.620000      1.8097777E-12
   1.680000      2.4829843E-13
   1.740000     -1.9745815E-12
   1.800000     -3.7241690E-12
   1.860000     -3.8378918E-12
   1.920000     -1.7769105E-12
   1.980000      1.9306566E-12
   2.040000      5.7441525E-12
   2.100000      7.7263126E-12
   2.160000      6.4856003E-12
   2.220000      1.9933079E-12
   2.280000     -4.1784375E-12
   2.340000     -9.4088921E-12
   2.400000     -1.1193839E-11
   2.460000     -8.4021713E-12
   2.520000     -1.9898714E-12
   2.580000      5.2584846E-12
   2.640000      9.9416265E-12
   2.700000      9.6995996E-12
   2.760000      4.5282012E-12
   2.820000     -2.9532559E-12
   2.880000     -8.5361553E-12
   2.940000     -8.3940519E-12
   3.000000     -1.1250942E-12
   3.060000      1.1126692E-11
   3.120000      2.3118771E-11
   3.180000      2.8486132E-11
   3.240000      2.2480993E-11
   3.300000      4.2953718E-12
   3.360000     -2.2099119E-11
   3.420000     -4.9037354E-11
   3.480000     -6.7759083E-11
   3.540000     -7.1420689E-11
   3.600000     -5.7248015E-11
   3.660000     -2.6996677E-11
   3.720000      1.4266489E-11
   3.780000      6.0212654E-11
   3.840000      1.0488778E-10
   3.900000      1.4295511E-10
   3.960000      1.6836313E-10
   4.020000      1.7220435E-10
   4.080000      1.4113774E-10
   4.140000      5.7696809E-11
   4.200000     -9.6912339E-11
   4.260000     -3.3798694E-10
   4.320000     -6.7189138E-10
   4.380000     -1.0918442E-09
   4.440000     -1.5764829E-09
   4.500000     -2.0919040E-09
   4.560000     -2.5967584E-09
   4.620000     -3.0490286E-09
   4.680000     -3.4126231E-09
   4.740000     -3.6620651E-09
   4.800000     -3.7842920E-09
   4.860000     -3.7776409E-09
   4.920000     -3.6491528E-09
   4.980000     -3.4118894E-09
   5.040000     -3.0838081E-09
   5.100000     -2.6887794E-09
   5.160000     -2.2589708E-09
   5.220000     -1.8366287E-09
   5.280000     -1.4729752E-09
   5.340000     -1.2227557E-09
   5.400000     -1.1347945E-09
   5.460000     -1.2409170E-09
   5.520000     -1.5468750E-09
   5.580000     -2.0287283E-09
   5.640000     -2.6364413E-09
   5.700000     -3.3039029E-09
   5.760000     -3.9622536E-09
   5.820000     -4.5523314E-09
   5.880000     -5.0326636E-09
   5.940000     -5.3814406E-09
   6.000000     -5.5933831E-09
   6.060000     -5.6742744E-09
   6.120000     -5.6363842E-09
   6.180000     -5.4969265E-09
   6.240000     -5.2796141E-09
   6.300000     -5.0173004E-09
   6.360000     -4.7526232E-09
   6.420000     -4.5341264E-09
   6.480000     -4.4073536E-09
   6.540000     -4.4030739E-09
   6.600000     -4.5268291E-09
   6.660000     -4.7543098E-09
   6.720000     -5.0353228E-09
   6.780000     -5.3058899E-09
   6.840000     -5.5047504E-09
   6.900000     -5.5886962E-09
   6.960000     -5.5416360E-09
   7.020000     -5.3748677E-09
   7.080000     -5.1195044E-09
   7.140000     -4.8147917E-09
   7.200000     -4.4970356E-09
   7.260000     -4.1928243E-09
   7.320000     -3.9178842E-09
   7.380000     -3.6804577E-09
   7.440000     -3.4864445E-09
   7.500000     -3.3433070E-09
   7.560000     -3.2606176E-09
   7.620000     -3.2467931E-09
   7.680000     -3.3033574E-09
   7.740000     -3.4194221E-09
   7.800000     -3.5694683E-09
   7.860000     -3.7166161E-09
   7.920000     -3.8214614E-09
   7.980000     -3.8539980E-09
   8.040000     -3.8042103E-09
   8.100000     -3.6867798E-09
   8.160000     -3.5372916E-09
   8.220000     -3.4006888E-09
   8.280000     -3.3158909E-09
   8.340000     -3.3019760E-09
   8.400000     -3.3504324E-09
   8.460000     -3.4253549E-09
   8.520000     -3.4705487E-09
   8.580000     -3.4206893E-09
   8.640000     -3.2134515E-09
   8.700000     -2.8003666E-09
   8.760000     -2.1550788E-09
   8.820000     -1.2780882E-09
   8.880000     -1.9711210E-10
   8.940000      1.0374960E-09
   9.000000      2.3617945E-09
   9.060000      3.7098289E-09
   9.120000      5.0246949E-09
   9.180000      6.2661343E-09
   9.240000      7.4130369E-09
   9.300000      8.4611154E-09
   9.360000      9.4174268E-09
   9.420000      1.0293824E-08
   9.480000      1.1100915E-08
   9.540000      1.1843427E-08
   9.600000      1.2517575E-08
   9.660000      1.3110959E-08
   9.720000      1.3605368E-08
   9.780000      1.3982085E-08
   9.840000      1.4228216E-08
   9.900000      1.4341797E-08
   9.960000      1.4333765E-08
   10.02000      1.4226160E-08
   10.08000      1.4047599E-08
   10.14000      1.3828043E-08
   10.20000      1.3594639E-08
   10.26000      1.3369415E-08
   10.32000      1.3168536E-08
   10.38000      1.3002486E-08
   10.44000      1.2876759E-08
   10.50000      1.2792900E-08
   10.56000      1.2749600E-08
   10.62000      1.2743057E-08
   10.68000      1.2765772E-08
   10.74000      1.2803864E-08
   10.80000      1.2834529E-08
   10.86000      1.2826328E-08
   10.92000      1.2744353E-08
   10.98000      1.2559827E-08
   11.04000      1.2260645E-08
   11.10000      1.1857767E-08
   11.16000      1.1383581E-08
   11.22000      1.0882044E-08
   11.28000      1.0394460E-08
   11.34000      9.9468309E-09
   11.40000      9.5435198E-09
   11.46000      9.1686205E-09
   11.52000      8.7927940E-09
   11.58000      8.3817984E-09
   11.64000      7.9037559E-09
   11.70000      7.3343167E-09
   11.76000      6.6603980E-09
   11.82000      5.8830882E-09
   11.88000      5.0190549E-09
   11.94000      4.0988191E-09
   12.00000      3.1607792E-09
   12.06000      2.2418689E-09
   12.12000      1.3680082E-09
   12.18000      5.4844151E-10
   12.24000     -2.2314488E-10
   12.30000     -9.6068109E-10
   12.36000     -1.6739954E-09
   12.42000     -2.3582003E-09
   12.48000     -2.9888088E-09
   12.54000     -3.5250156E-09
   12.60000     -3.9202979E-09
   12.66000     -4.1364077E-09
   12.72000     -4.1551314E-09
   12.78000     -3.9828159E-09
   12.84000     -3.6455881E-09
   12.90000     -3.1774579E-09
   12.96000     -2.6071061E-09
   13.02000     -1.9501001E-09
   13.08000     -1.2106902E-09
   13.14000     -3.9227205E-10
   13.20000      4.8916499E-10
   13.26000      1.3959978E-09
   13.32000      2.2692679E-09
   13.38000      3.0381218E-09
   13.44000      3.6335752E-09
   13.50000      4.0004209E-09
   13.56000      4.1034620E-09
   13.62000      3.9282368E-09
   13.68000      3.4790062E-09
   13.74000      2.7764109E-09
   13.80000      1.8546906E-09
   13.86000      7.5645168E-10
   13.92000     -4.7627796E-10
   13.98000     -1.8127435E-09
   14.04000     -3.2408127E-09
   14.10000     -4.7657647E-09
   14.16000     -6.3991115E-09
   14.22000     -8.1416891E-09
   14.28000     -9.9691420E-09
   14.34000     -1.1827298E-08
   14.40000     -1.3640192E-08
   14.46000     -1.5327418E-08
   14.52000     -1.6823716E-08
   14.58000     -1.8093855E-08
   14.64000     -1.9138893E-08
   14.70000     -1.9993520E-08
   14.76000     -2.0716403E-08
   14.82000     -2.1376195E-08
   14.88000     -2.2036081E-08
   14.94000     -2.2740540E-08
   15.00000     -2.3508260E-08
   15.06000     -2.4334108E-08
   15.12000     -2.5199636E-08
   15.18000     -2.6087553E-08
   15.24000     -2.6993233E-08
   15.30000     -2.7927944E-08
   15.36000     -2.8913240E-08
   15.42000     -2.9970966E-08
   15.48000     -3.1115174E-08
   15.54000     -3.2349689E-08
   15.60000     -3.3670243E-08
   15.66000     -3.5066918E-08
   15.72000     -3.6523517E-08
   15.78000     -3.8014502E-08
   15.84000     -3.9503998E-08
   15.90000     -4.0951036E-08
   15.96000     -4.2320938E-08
   16.02000     -4.3597250E-08
   16.08000     -4.4786535E-08
   16.14000     -4.5911701E-08
   16.20000     -4.6996398E-08
   16.26000     -4.8048634E-08
   16.32000     -4.9052286E-08
   16.38000     -4.9970335E-08
   16.44000     -5.0757013E-08
   16.50000     -5.1371995E-08
   16.56000     -5.1790785E-08
   16.62000     -5.2009192E-08
   16.68000     -5.2043479E-08
   16.74000     -5.1928108E-08
   16.80000     -5.1710945E-08
   16.86000     -5.1444413E-08
   16.92000     -5.1172368E-08
   16.98000     -5.0916206E-08
   17.04000     -5.0666557E-08
   17.10000     -5.0386092E-08
   17.16000     -5.0023559E-08
   17.22000     -4.9533021E-08
   17.28000     -4.8889323E-08
   17.34000     -4.8093369E-08
   17.40000     -4.7167092E-08
   17.46000     -4.6143221E-08
   17.52000     -4.5056211E-08
   17.58000     -4.3937121E-08
   17.64000     -4.2810843E-08
   17.70000     -4.1692527E-08
   17.76000     -4.0582410E-08
   17.82000     -3.9462332E-08
   17.88000     -3.8298815E-08
   17.94000     -3.7054672E-08
   18.00000     -3.5705611E-08
   18.06000     -3.4253972E-08
   18.12000     -3.2732487E-08
   18.18000     -3.1196091E-08
   18.24000     -2.9706190E-08
   18.30000     -2.8314844E-08
   18.36000     -2.7054838E-08
   18.42000     -2.5936922E-08
   18.48000     -2.4951929E-08
   18.54000     -2.4074909E-08
   18.60000     -2.3270559E-08
   18.66000     -2.2501027E-08
   18.72000     -2.1736620E-08
   18.78000     -2.0966995E-08
   18.84000     -2.0208139E-08
   18.90000     -1.9500778E-08
   18.96000     -1.8899755E-08
   19.02000     -1.8458529E-08
   19.08000     -1.8215182E-08
   19.14000     -1.8184814E-08
   19.20000     -1.8359259E-08
   19.26000     -1.8711606E-08
   19.32000     -1.9202053E-08
   19.38000     -1.9783263E-08
   19.44000     -2.0405368E-08
   19.50000     -2.1021293E-08
   19.56000     -2.1592180E-08
   19.62000     -2.2091562E-08
   19.68000     -2.2507253E-08
   19.74000     -2.2841228E-08
   19.80000     -2.3108958E-08
   19.86000     -2.3338979E-08
   19.92000     -2.3571623E-08
   19.98000     -2.3854451E-08
   20.04000     -2.4233179E-08
   20.10000     -2.4740215E-08
   20.16000     -2.5386086E-08
   20.22000     -2.6158610E-08
   20.28000     -2.7030451E-08
   20.34000     -2.7970030E-08
   20.40000     -2.8948023E-08
   20.46000     -2.9934686E-08
   20.52000     -3.0890085E-08
   20.58000     -3.1755480E-08
   20.64000     -3.2454672E-08
   20.70000     -3.2908297E-08
   20.76000     -3.3055596E-08
   20.82000     -3.2872986E-08
   20.88000     -3.2380296E-08
   20.94000     -3.1632801E-08
   21.00000     -3.0704545E-08
   21.06000     -2.9671567E-08
   21.12000     -2.8600770E-08
   21.18000     -2.7544573E-08
   21.24000     -2.6537659E-08
   21.30000     -2.5593042E-08
   21.36000     -2.4698503E-08
   21.42000     -2.3817501E-08
   21.48000     -2.2897975E-08
   21.54000     -2.1888013E-08
   21.60000     -2.0752877E-08
   21.66000     -1.9486317E-08
   21.72000     -1.8112013E-08
   21.78000     -1.6675761E-08
   21.84000     -1.5232695E-08
   21.90000     -1.3834365E-08
   21.96000     -1.2518719E-08
   22.02000     -1.1304198E-08
   22.08000     -1.0188563E-08
   22.14000     -9.1533101E-09
   22.20000     -8.1736644E-09
   22.26000     -7.2317192E-09
   22.32000     -6.3274186E-09
   22.38000     -5.4816178E-09
   22.44000     -4.7287680E-09
   22.50000     -4.1024353E-09
   22.56000     -3.6211445E-09
   22.62000     -3.2817253E-09
   22.68000     -3.0623895E-09
   22.74000     -2.9317113E-09
   22.80000     -2.8570182E-09
   22.86000     -2.8082132E-09
   22.92000     -2.7584868E-09
   22.98000     -2.6869020E-09
   23.04000     -2.5861377E-09
   23.10000     -2.4727682E-09
   23.16000     -2.3921864E-09
   23.22000     -2.4105848E-09
   23.28000     -2.5932585E-09
   23.34000     -2.9776628E-09
   23.40000     -3.5546384E-09
   23.46000     -4.2680162E-09
   23.52000     -5.0330566E-09
   23.58000     -5.7642042E-09
   23.64000     -6.3988561E-09
   23.70000     -6.9082979E-09
   23.76000     -7.2958510E-09
   23.82000     -7.5890707E-09
   23.88000     -7.8331253E-09
   23.94000     -8.0869977E-09
   24.00000     -8.4182119E-09
   24.06000     -8.8905718E-09
   24.12000     -9.5444879E-09
   24.18000     -1.0376885E-08
   24.24000     -1.1331744E-08
   24.30000     -1.2309143E-08
   24.36000     -1.3191751E-08
   24.42000     -1.3878550E-08
   24.48000     -1.4311899E-08
   24.54000     -1.4488005E-08
   24.60000     -1.4449637E-08
   24.66000     -1.4267758E-08
   24.72000     -1.4021516E-08
   24.78000     -1.3782995E-08
   24.84000     -1.3607764E-08
   24.90000     -1.3528791E-08
   24.96000     -1.3551882E-08
   25.02000     -1.3654017E-08
   25.08000     -1.3788314E-08
   25.14000     -1.3898041E-08
   25.20000     -1.3937069E-08
   25.26000     -1.3888831E-08
   25.32000     -1.3774069E-08
   25.38000     -1.3641751E-08
   25.44000     -1.3545693E-08
   25.50000     -1.3517461E-08
   25.56000     -1.3548903E-08
   25.62000     -1.3593474E-08
   25.68000     -1.3586098E-08
   25.74000     -1.3472031E-08
   25.80000     -1.3230877E-08
   25.86000     -1.2885132E-08
   25.92000     -1.2490965E-08
   25.98000     -1.2117600E-08
   26.04000     -1.1825825E-08
   26.10000     -1.1653933E-08
   26.16000     -1.1613332E-08
   26.22000     -1.1690441E-08
   26.28000     -1.1850198E-08
   26.34000     -1.2039617E-08
   26.40000     -1.2194172E-08
   26.46000     -1.2251214E-08
   26.52000     -1.2170886E-08
   26.58000     -1.1958301E-08
   26.64000     -1.1675731E-08
   26.70000     -1.1434769E-08
   26.76000     -1.1366519E-08
   26.82000     -1.1579051E-08
   26.88000     -1.2119073E-08
   26.94000     -1.2954503E-08
   27.00000     -1.3985863E-08
   27.06000     -1.5081815E-08
   27.12000     -1.6124389E-08
   27.18000     -1.7046903E-08
   27.24000     -1.7852711E-08
   27.30000     -1.8611855E-08
   27.36000     -1.9440492E-08
   27.42000     -2.0471521E-08
   27.48000     -2.1824150E-08
   27.54000     -2.3577782E-08
   27.60000     -2.5753863E-08
   27.66000     -2.8308927E-08
   27.72000     -3.1141717E-08
   27.78000     -3.4115352E-08
   27.84000     -3.7091223E-08
   27.90000     -3.9966384E-08
   27.96000     -4.2703125E-08
   28.02000     -4.5340382E-08
   28.08000     -4.7981835E-08
   28.14000     -5.0763287E-08
   28.20000     -5.3809380E-08
   28.26000     -5.7193557E-08
   28.32000     -6.0914189E-08
   28.38000     -6.4894351E-08
   28.44000     -6.9004415E-08
   28.50000     -7.3098896E-08
   28.56000     -7.7054644E-08
   28.62000     -8.0797903E-08
   28.68000     -8.4313299E-08
   28.74000     -8.7634533E-08
   28.80000     -9.0823249E-08
   28.86000     -9.3944195E-08
   28.92000     -9.7043326E-08
   28.98000     -1.0013249E-07
   29.04000     -1.0318129E-07
   29.10000     -1.0611747E-07
   29.16000     -1.0883780E-07
   29.22000     -1.1123091E-07
   29.28000     -1.1320904E-07
   29.34000     -1.1473922E-07
   29.40000     -1.1586010E-07
   29.46000     -1.1667298E-07
   29.52000     -1.1730583E-07
   29.58000     -1.1786278E-07
   29.64000     -1.1838042E-07
   29.70000     -1.1881112E-07
   29.76000     -1.1904112E-07
   29.82000     -1.1893430E-07
   29.88000     -1.1838127E-07
   29.94000     -1.1733288E-07
   30.00000     -1.1580791E-07
   30.06000     -1.1387871E-07
   30.12000     -1.1164682E-07
   30.18000     -1.0922015E-07
   30.24000     -1.0669566E-07
   30.30000     -1.0414479E-07
   30.36000     -1.0159872E-07
   30.42000     -9.9035837E-08
   30.48000     -9.6380333E-08
   30.54000     -9.3520107E-08
   30.60000     -9.0344159E-08
   30.66000     -8.6787210E-08
   30.72000     -8.2862179E-08
   30.78000     -7.8664250E-08
   30.84000     -7.4343326E-08
   30.90000     -7.0057197E-08
   30.96000     -6.5926137E-08
   31.02000     -6.2007274E-08
   31.08000     -5.8295647E-08
   31.14000     -5.4745737E-08
   31.20000     -5.1300315E-08
   31.26000     -4.7914209E-08
   31.32000     -4.4567226E-08
   31.38000     -4.1267093E-08
   31.44000     -3.8046458E-08
   31.50000     -3.4956976E-08
   31.56000     -3.2061283E-08
   31.62000     -2.9422633E-08
   31.68000     -2.7092964E-08
   31.74000     -2.5102105E-08
   31.80000     -2.3451873E-08
   31.86000     -2.2117950E-08
   31.92000     -2.1059952E-08
   31.98000     -2.0237286E-08
   32.04000     -1.9625903E-08
   32.10000     -1.9229969E-08
   32.16000     -1.9083169E-08
   32.22000     -1.9237556E-08
   32.28000     -1.9742759E-08
   32.34000     -2.0623665E-08
   32.40000     -2.1866700E-08
   32.46000     -2.3421970E-08
   32.52000     -2.5220800E-08
   32.58000     -2.7200022E-08
   32.64000     -2.9320391E-08
   32.70000     -3.1570323E-08
   32.76000     -3.3955256E-08
   32.82000     -3.6482003E-08
   32.88000     -3.9149697E-08
   32.94000     -4.1953140E-08
   33.00000     -4.4894172E-08
   33.06000     -4.7989790E-08
   33.12000     -5.1267243E-08
   33.18000     -5.4745666E-08
   33.24000     -5.8414063E-08
   33.30000     -6.2219577E-08
   33.36000     -6.6074577E-08
   33.42000     -6.9879768E-08
   33.48000     -7.3551696E-08
   33.54000     -7.7041420E-08
   33.60000     -8.0338204E-08
   33.66000     -8.3460847E-08
   33.72000     -8.6444615E-08
   33.78000     -8.9329376E-08
   33.84000     -9.2149243E-08
   33.90000     -9.4920260E-08
   33.96000     -9.7624991E-08
   34.02000     -1.0019917E-07
   34.08000     -1.0253017E-07
   34.14000     -1.0447492E-07
   34.20000     -1.0589560E-07
   34.26000     -1.0670072E-07
   34.32000     -1.0687397E-07
   34.38000     -1.0647737E-07
   34.44000     -1.0562692E-07
   34.50000     -1.0445115E-07
   34.56000     -1.0304930E-07
   34.62000     -1.0146405E-07
   34.68000     -9.9675539E-08
   34.74000     -9.7614844E-08
   34.80000     -9.5189534E-08
   34.86000     -9.2313037E-08
   34.92000     -8.8930570E-08
   34.98000     -8.5036532E-08
   35.04000     -8.0679968E-08
   35.10000     -7.5956478E-08
   35.16000     -7.0988257E-08
   35.22000     -6.5897027E-08
   35.28000     -6.0777772E-08
   35.34000     -5.5680637E-08
   35.40000     -5.0606424E-08
   35.46000     -4.5516966E-08
   35.52000     -4.0357637E-08
   35.58000     -3.5085982E-08
   35.64000     -2.9698494E-08
   35.70000     -2.4246663E-08
   35.76000     -1.8835388E-08
   35.82000     -1.3601446E-08
   35.88000     -8.6772438E-09
   35.94000     -4.1521422E-09
   36.00000     -4.6607274E-11
   36.06000      3.6895687E-09
   36.12000      7.1537460E-09
   36.18000      1.0451687E-08
   36.24000      1.3660108E-08
   36.30000      1.6805098E-08
   36.36000      1.9861963E-08
   36.42000      2.2771593E-08
   36.48000      2.5462564E-08
   36.54000      2.7869547E-08
   36.60000      2.9944655E-08
   36.66000      3.1664015E-08
   36.72000      3.3032784E-08
   36.78000      3.4088369E-08
   36.84000      3.4897489E-08
   36.90000      3.5542396E-08
   36.96000      3.6096665E-08
   37.02000      3.6598234E-08
   37.08000      3.7031359E-08
   37.14000      3.7326974E-08
   37.20000      3.7382485E-08
   37.26000      3.7092992E-08
   37.32000      3.6380985E-08
   37.38000      3.5213834E-08
   37.44000      3.3605257E-08
   37.50000      3.1604344E-08
   37.56000      2.9279038E-08
   37.62000      2.6700000E-08
   37.68000      2.3927337E-08
   37.74000      2.1000428E-08
   37.80000      1.7931276E-08
   37.86000      1.4703430E-08
   37.92000      1.1279035E-08
   37.98000      7.6144584E-09
   38.04000      3.6808785E-09
   38.10000     -5.1713672E-10
   38.16000     -4.9322657E-09
   38.22000     -9.4782360E-09
   38.28000     -1.4045710E-08
   38.34000     -1.8524993E-08
   38.40000     -2.2828699E-08
   38.46000     -2.6908408E-08
   38.52000     -3.0761296E-08
   38.58000     -3.4424954E-08
   38.64000     -3.7960703E-08
   38.70000     -4.1428375E-08
   38.76000     -4.4858915E-08
   38.82000     -4.8233559E-08
   38.88000     -5.1478203E-08
   38.94000     -5.4477123E-08
   39.00000     -5.7103179E-08
   39.06000     -5.9254393E-08
   39.12000     -6.0883956E-08
   39.18000     -6.2013115E-08
   39.24000     -6.2723700E-08
   39.30000     -6.3134237E-08
   39.36000     -6.3368958E-08
   39.42000     -6.3528915E-08
   39.48000     -6.3672012E-08
   39.54000     -6.3805068E-08
   39.60000     -6.3888635E-08
   39.66000     -6.3853349E-08
   39.72000     -6.3624782E-08
   39.78000     -6.3151084E-08
   39.84000     -6.2425059E-08
   39.90000     -6.1492450E-08
   39.96000     -6.0441963E-08
   40.02000     -5.9379570E-08
   40.08000     -5.8396033E-08
   40.14000     -5.7540106E-08
   40.20000     -5.6807007E-08
   40.26000     -5.6145566E-08
   40.32000     -5.5479919E-08
   40.38000     -5.4737036E-08
   40.44000     -5.3870920E-08
   40.50000     -5.2876750E-08
   40.56000     -5.1792323E-08
   40.62000     -5.0687465E-08
   40.68000     -4.9644481E-08
   40.74000     -4.8734787E-08
   40.80000     -4.7997684E-08
   40.86000     -4.7427434E-08
   40.92000     -4.6972769E-08
   40.98000     -4.6549260E-08
   41.04000     -4.6061079E-08
   41.10000     -4.5425594E-08
   41.16000     -4.4593978E-08
   41.22000     -4.3562544E-08
   41.28000     -4.2372385E-08
   41.34000     -4.1097781E-08
   41.40000     -3.9826311E-08
   41.46000     -3.8635772E-08
   41.52000     -3.7574399E-08
   41.58000     -3.6650530E-08
   41.64000     -3.5835189E-08
   41.70000     -3.5076141E-08
   41.76000     -3.4317306E-08
   41.82000     -3.3515338E-08
   41.88000     -3.2648021E-08
   41.94000     -3.1714105E-08
   42.00000     -3.0729318E-08
   42.06000     -2.9723628E-08
   42.12000     -2.8741244E-08
   42.18000     -2.7839571E-08
   42.24000     -2.7081505E-08
   42.30000     -2.6519070E-08
   42.36000     -2.6173632E-08
   42.42000     -2.6023224E-08
   42.48000     -2.6006388E-08
   42.54000     -2.6043880E-08
   42.60000     -2.6069360E-08
   42.66000     -2.6054677E-08
   42.72000     -2.6018162E-08
   42.78000     -2.6013991E-08
   42.84000     -2.6110534E-08
   42.90000     -2.6369515E-08
   42.96000     -2.6833895E-08
   43.02000     -2.7524418E-08
   43.08000     -2.8439022E-08
   43.14000     -2.9550229E-08
   43.20000     -3.0801541E-08
   43.26000     -3.2109664E-08
   43.32000     -3.3379333E-08
   43.38000     -3.4530590E-08
   43.44000     -3.5528522E-08
   43.50000     -3.6400085E-08
   43.56000     -3.7226020E-08
   43.62000     -3.8107210E-08
   43.68000     -3.9118312E-08
   43.74000     -4.0268770E-08
   43.80000     -4.1488981E-08
   43.86000     -4.2647695E-08
   43.92000     -4.3592632E-08
   43.98000     -4.4196788E-08
   44.04000     -4.4392308E-08
   44.10000     -4.4181366E-08
   44.16000     -4.3624805E-08
   44.22000     -4.2817540E-08
   44.28000     -4.1862094E-08
   44.34000     -4.0847866E-08
   44.40000     -3.9837786E-08
   44.46000     -3.8860332E-08
   44.52000     -3.7905334E-08
   44.58000     -3.6925670E-08
   44.64000     -3.5849382E-08
   44.70000     -3.4604742E-08
   44.76000     -3.3153910E-08
   44.82000     -3.1523076E-08
   44.88000     -2.9813627E-08
   44.94000     -2.8184489E-08
   45.00000     -2.6808355E-08
   45.06000     -2.5818146E-08
   45.12000     -2.5266806E-08
   45.18000     -2.5118277E-08
   45.24000     -2.5272856E-08
   45.30000     -2.5613479E-08
   45.36000     -2.6050410E-08
   45.42000     -2.6545036E-08
   45.48000     -2.7106665E-08
   45.54000     -2.7771035E-08
   45.60000     -2.8576917E-08
   45.66000     -2.9553835E-08
   45.72000     -3.0722759E-08
   45.78000     -3.2101216E-08
   45.84000     -3.3701539E-08
   45.90000     -3.5517981E-08
   45.96000     -3.7509757E-08
   46.02000     -3.9594173E-08
   46.08000     -4.1661135E-08
   46.14000     -4.3607912E-08
   46.20000     -4.5378879E-08
   46.26000     -4.6988653E-08
   46.32000     -4.8513314E-08
   46.38000     -5.0051217E-08
   46.44000     -5.1671783E-08
   46.50000     -5.3378240E-08
   46.56000     -5.5102763E-08
   46.62000     -5.6734969E-08
   46.68000     -5.8167061E-08
   46.74000     -5.9331892E-08
   46.80000     -6.0216941E-08
   46.86000     -6.0853154E-08
   46.92000     -6.1291367E-08
   46.98000     -6.1583030E-08
   47.04000     -6.1774188E-08
   47.10000     -6.1909134E-08
   47.16000     -6.2032086E-08
   47.22000     -6.2177250E-08
   47.28000     -6.2348569E-08
   47.34000     -6.2500959E-08
   47.40000     -6.2538128E-08
   47.46000     -6.2334294E-08
   47.52000     -6.1773747E-08
   47.58000     -6.0791244E-08
   47.64000     -5.9394790E-08
   47.70000     -5.7661289E-08
   47.76000     -5.5708863E-08
   47.82000     -5.3659402E-08
   47.88000     -5.1607010E-08
   47.94000     -4.9601692E-08
   48.00000     -4.7648829E-08
   48.06000     -4.5718735E-08
   48.12000     -4.3759755E-08
   48.18000     -4.1711758E-08
   48.24000     -3.9520508E-08
   48.30000     -3.7154255E-08
   48.36000     -3.4620882E-08
   48.42000     -3.1979756E-08
   48.48000     -2.9340107E-08
   48.54000     -2.6840787E-08
   48.60000     -2.4613582E-08
   48.66000     -2.2741503E-08
   48.72000     -2.1228932E-08
   48.78000     -1.9998591E-08
   48.84000     -1.8920138E-08
   48.90000     -1.7861026E-08
   48.96000     -1.6739152E-08
   49.02000     -1.5554884E-08
   49.08000     -1.4389077E-08
   49.14000     -1.3369245E-08
   49.20000     -1.2619982E-08
   49.26000     -1.2218806E-08
   49.32000     -1.2173419E-08
   49.38000     -1.2424826E-08
   49.44000     -1.2870685E-08
   49.50000     -1.3399081E-08
   49.56000     -1.3924596E-08
   49.62000     -1.4421615E-08
   49.68000     -1.4949974E-08
   49.74000     -1.5665572E-08
   49.80000     -1.6807705E-08
   49.86000     -1.8660069E-08
   49.92000     -2.1493856E-08
   49.98000     -2.5513021E-08
   50.04000     -3.0825547E-08
   50.10000     -3.7455798E-08
   50.16000     -4.5395382E-08
   50.22000     -5.4672721E-08
   50.28000     -6.5414611E-08
   50.34000     -7.7879498E-08
   50.40000     -9.2457029E-08
   50.46000     -1.0964307E-07
   50.52000     -1.3000533E-07
   50.58000     -1.5415343E-07
   50.64000     -1.8272125E-07
   50.70000     -2.1636480E-07
   50.76000     -2.5577756E-07
   50.82000     -3.0172433E-07
   50.88000     -3.5509024E-07
   50.94000     -4.1693770E-07
   51.00000     -4.8855742E-07
   51.06000     -5.7150237E-07
   51.12000     -6.6759941E-07
   51.18000     -7.7894424E-07
   51.24000     -9.0788916E-07
   51.30000     -1.0570357E-06
   51.36000     -1.2292404E-06
   51.42000     -1.4276388E-06
   51.48000     -1.6556882E-06
   51.54000     -1.9172330E-06
   51.60000     -2.2165830E-06
   51.66000     -2.5585971E-06
   51.72000     -2.9487492E-06
   51.78000     -3.3931619E-06
   51.84000     -3.8986095E-06
   51.90000     -4.4725030E-06
   51.96000     -5.1228835E-06
   52.02000     -5.8584487E-06
   52.08000     -6.6886155E-06
   52.14000     -7.6235970E-06
   52.20000     -8.6744831E-06
   52.26000     -9.8532946E-06
   52.32000     -1.1173013E-05
   52.38000     -1.2647607E-05
   52.44000     -1.4292066E-05
   52.50000     -1.6122443E-05
   52.56000     -1.8155883E-05
   52.62000     -2.0410635E-05
   52.68000     -2.2906026E-05
   52.74000     -2.5662403E-05
   52.80000     -2.8701066E-05
   52.86000     -3.2044249E-05
   52.92000     -3.5715111E-05
   52.98000     -3.9737730E-05
   53.04000     -4.4137054E-05
   53.10000     -4.8938840E-05
   53.16000     -5.4169530E-05
   53.22000     -5.9856091E-05
   53.28000     -6.6025874E-05
   53.34000     -7.2706483E-05
   53.40000     -7.9925630E-05
   53.46000     -8.7710963E-05
   53.52000     -9.6089854E-05
   53.58000     -1.0508918E-04
   53.64000     -1.1473506E-04
   53.70000     -1.2505264E-04
   53.76000     -1.3606588E-04
   53.82000     -1.4779734E-04
   53.88000     -1.6026794E-04
   53.94000     -1.7349661E-04
   54.00000     -1.8749999E-04
   54.06000     -2.0229204E-04
   54.12000     -2.1788380E-04
   54.18000     -2.3428324E-04
   54.24000     -2.5149487E-04
   54.30000     -2.6951957E-04
   54.36000     -2.8835432E-04
   54.42000     -3.0799196E-04
   54.48000     -3.2842107E-04
   54.54000     -3.4962574E-04
   54.60000     -3.7158534E-04
   54.66000     -3.9427460E-04
   54.72000     -4.1766334E-04
   54.78000     -4.4171663E-04
   54.84000     -4.6639467E-04
   54.90000     -4.9165287E-04
   54.96000     -5.1744172E-04
   55.02000     -5.4370728E-04
   55.08000     -5.7039096E-04
   55.14000     -5.9742993E-04
   55.20000     -6.2475755E-04
   55.26000     -6.5230380E-04
   55.32000     -6.7999563E-04
   55.38000     -7.0775708E-04
   55.44000     -7.3550997E-04
   55.50000     -7.6317432E-04
   55.56000     -7.9066842E-04