  -2.400000      0.0000000E+00
  -2.340000      0.0000000E+00
  -2.280000      0.0000000E+00
  -2.220000      0.0000000E+00
  -2.160000      0.0000000E+00
  -2.100000      0.0000000E+00
  -2.040000      0.0000000E+00
  -1.980000      2.0583581E-22
  -1.920000      2.1541324E-21
  -1.860000      1.1447075E-20
  -1.800000      4.0187152E-20
  -1.740000      1.0024554E-19
  -1.680000      1.7055426E-19
  -1.620000      1.2835130E-19
  -1.560000     -3.1891659E-19
  -1.500000     -1.5748381E-18
  -1.440000     -3.7861897E-18
  -1.380000     -6.1245061E-18
  -1.320000     -6.1218181E-18
  -1.260000      1.7405181E-21
  -1.200000      1.5128670E-17
  -1.140000      3.7570848E-17
  -1.080000      5.8592048E-17
  -1.020000      6.4906798E-17
 -0.9600000      4.7124334E-17
 -0.9000000      7.9663399E-18
 -0.8400000     -4.2094229E-17
 -0.7800000     -1.0939335E-16
 -0.7200000     -2.4754371E-16
 -0.6600000     -5.5010258E-16
 -0.6000000     -1.0550225E-15
 -0.5400000     -1.5613489E-15
 -0.4800000     -1.4701085E-15
 -0.4200000      1.2971481E-16
 -0.3600000      3.9246886E-15
 -0.3000000      9.4294029E-15
 -0.2400000      1.4109282E-14
 -0.1800000      1.3443153E-14
 -0.1200000      2.7260246E-15
 -5.9999999E-02 -1.9413783E-14
  0.0000000E+00 -4.7249490E-14
  5.9999999E-02 -6.6695645E-14
  0.1200000     -5.9282975E-14
  0.1800000     -1.1931271E-14
  0.2400000      7.0872873E-14
  0.3000000      1.5967250E-13
  0.3600000      2.0526995E-13
  0.4200000      1.5982735E-13
  0.4800000      7.7423953E-15
  0.5400000     -2.0951359E-13
  0.6000000     -3.9381725E-13
  0.6600000     -4.2709296E-13
  0.7200000     -2.3601260E-13
  0.7800000      1.4549446E-13
  0.8400000      5.5683003E-13
  0.9000000      7.6321024E-13
  0.9600000      5.7327862E-13
   1.020000     -2.8980107E-14
   1.080000     -8.1549605E-13
   1.140000     -1.3719996E-12
   1.200000     -1.2871790E-12
   1.260000     -3.9785466E-13
   1.320000      1.0415741E-12
   1.380000      2.3879987E-12
   1.440000      2.8724477E-12
   1.500000      2.0016541E-12
   1.560000     -1.0213420E-13
   1.620000     -2.6329173E-12
   1.680000     -4.4007211E-12
   1.740000     -4.4021948E-12
   1.800000     -2.3905170E-12
   1.860000      8.7515574E-13
   1.920000      3.8923482E-12
   1.980000      5.1227547E-12
   2.040000      3.8171645E-12
   2.100000      5.1816434E-13
   2.160000     -3.0794553E-12
   2.220000     -4.9171600E-12
   2.280000     -3.6613993E-12
   2.340000      4.6074066E-13
   2.400000      5.5588052E-12
   2.460000      8.8503259E-12
   2.520000      8.0015699E-12
   2.580000      2.4074709E-12
   2.640000     -6.2453614E-12
   2.700000     -1.4481145E-11
   2.760000     -1.8447686E-11
   2.820000     -1.5628216E-11
   2.880000     -6.0638213E-12
   2.940000      7.5010744E-12
   3.000000      2.0644509E-11
   3.060000      2.9007709E-11
   3.120000      2.9956534E-11
   3.180000      2.3416599E-11
   3.240000      1.1550625E-11
   3.300000     -2.4725636E-12
   3.360000     -1.5917111E-11
   3.420000     -2.7343390E-11
   3.480000     -3.6450166E-11
   3.540000     -4.3043766E-11
   3.600000     -4.5818942E-11
   3.660000     -4.1819787E-11
   3.720000     -2.7159075E-11
   3.780000      1.0610272E-12
   3.840000      4.2346147E-11
   3.900000      9.0991839E-11
   3.960000      1.3576880E-10
   4.020000      1.6145803E-10
   4.080000      1.5187269E-10
   4.140000      9.3489126E-11
   4.200000     -2.1310103E-11
   4.260000     -1.9212314E-10
   4.320000     -4.0986098E-10
   4.380000     -6.5747108E-10
   4.440000     -9.1180785E-10
   4.500000     -1.1463527E-09
   4.560000     -1.3344409E-09
   4.620000     -1.4525389E-09
   4.680000     -1.4829820E-09
   4.740000     -1.4155980E-09
   4.800000     -1.2479249E-09
   4.860000     -9.8424480E-10
   4.920000     -6.3416494E-10
   4.980000     -2.1164223E-10
   5.040000      2.6499397E-10
   5.100000      7.7223750E-10
   5.160000      1.2808190E-09
   5.220000      1.7566464E-09
   5.280000      2.1641320E-09
   5.340000      2.4716622E-09
   5.400000      2.6577414E-09
   5.460000      2.7156488E-09
   5.520000      2.6547573E-09
   5.580000      2.4979134E-09
   5.640000      2.2759425E-09
   5.700000      2.0215638E-09
   5.760000      1.7651602E-09
   5.820000      1.5337673E-09
   5.880000      1.3528798E-09
   5.940000      1.2490841E-09
   6.000000      1.2509875E-09
   6.060000      1.3867701E-09
   6.120000      1.6785313E-09
   6.180000      2.1355178E-09
   6.240000      2.7492608E-09
   6.300000      3.4930860E-09
   6.360000      4.3266044E-09
   6.420000      5.2036024E-09
   6.480000      6.0803136E-09
   6.540000      6.9211019E-09
   6.600000      7.7000522E-09
   6.660000      8.3990264E-09
   6.720000      9.0043129E-09
   6.780000      9.5044115E-09
   6.840000      9.8905346E-09
   6.900000      1.0159870E-08
   6.960000      1.0320172E-08
   7.020000      1.0393544E-08
   7.080000      1.0417409E-08
   7.140000      1.0441450E-08
   7.200000      1.0520350E-08
   7.260000      1.0703376E-08
   7.320000      1.1023008E-08
   7.380000      1.1485707E-08
   7.440000      1.2068141E-08
   7.500000      1.2721224E-08
   7.560000      1.3382034E-08
   7.620000      1.3990761E-08
   7.680000      1.4507377E-08
   7.740000      1.4922096E-08
   7.800000      1.5255527E-08
   7.860000      1.5548066E-08
   7.920000      1.5842181E-08
   7.980000      1.6163977E-08
   8.040000      1.6510603E-08
   8.100000      1.6847927E-08
   8.160000      1.7119095E-08
   8.220000      1.7260954E-08
   8.280000      1.7222916E-08
   8.340000      1.6982280E-08
   8.400000      1.6551569E-08
   8.460000      1.5976214E-08
   8.520000      1.5324336E-08
   8.580000      1.4672758E-08
   8.640000      1.4094313E-08
   8.700000      1.3650044E-08
   8.760000      1.3387025E-08
   8.820000      1.3339660E-08
   8.880000      1.3531074E-08
   8.940000      1.3972382E-08
   9.000000      1.4660335E-08
   9.060000      1.5576108E-08
   9.120000      1.6688070E-08
   9.180000      1.7958943E-08
   9.240000      1.9354381E-08
   9.300000      2.0848375E-08
   9.360000      2.2422247E-08
   9.420000      2.4057879E-08
   9.480000      2.5729571E-08
   9.540000      2.7399723E-08
   9.600000      2.9020793E-08
   9.660000      3.0541475E-08
   9.720000      3.1912172E-08
   9.780000      3.3085808E-08
   9.840000      3.4014217E-08
   9.900000      3.4644877E-08
   9.960000      3.4923804E-08
   10.02000      3.4807073E-08
   10.08000      3.4277523E-08
   10.14000      3.3358830E-08
   10.20000      3.2119235E-08
   10.26000      3.0661894E-08
   10.32000      2.9104999E-08
   10.38000      2.7559041E-08
   10.44000      2.6108342E-08
   10.50000      2.4800878E-08
   10.56000      2.3646642E-08
   10.62000      2.2623096E-08
   10.68000      2.1686308E-08
   10.74000      2.0786779E-08
   10.80000      1.9887896E-08
   10.86000      1.8982506E-08
   10.92000      1.8101371E-08
   10.98000      1.7308691E-08
   11.04000      1.6684528E-08
   11.10000      1.6299985E-08
   11.16000      1.6194662E-08
   11.22000      1.6364869E-08
   11.28000      1.6766098E-08
   11.34000      1.7327054E-08
   11.40000      1.7968759E-08
   11.46000      1.8622098E-08
   11.52000      1.9239772E-08
   11.58000      1.9801359E-08
   11.64000      2.0311706E-08
   11.70000      2.0793410E-08
   11.76000      2.1274726E-08
   11.82000      2.1776014E-08
   11.88000      2.2299389E-08
   11.94000      2.2826061E-08
   12.00000      2.3322592E-08
   12.06000      2.3752584E-08
   12.12000      2.4086964E-08
   12.18000      2.4306940E-08
   12.24000      2.4398666E-08
   12.30000      2.4344583E-08
   12.36000      2.4119091E-08
   12.42000      2.3693506E-08
   12.48000      2.3048907E-08
   12.54000      2.2189802E-08
   12.60000      2.1150752E-08
   12.66000      1.9992479E-08
   12.72000      1.8790516E-08
   12.78000      1.7623222E-08
   12.84000      1.6564451E-08
   12.90000      1.5680946E-08
   12.96000      1.5029835E-08
   13.02000      1.4651603E-08
   13.08000      1.4558561E-08
   13.14000      1.4724758E-08
   13.20000      1.5085572E-08
   13.26000      1.5551436E-08
   13.32000      1.6032486E-08
   13.38000      1.6464199E-08
   13.44000      1.6822977E-08
   13.50000      1.7125684E-08
   13.56000      1.7415331E-08
   13.62000      1.7740907E-08
   13.68000      1.8140065E-08
   13.74000      1.8629233E-08
   13.80000      1.9200666E-08
   13.86000      1.9823318E-08
   13.92000      2.0445558E-08
   13.98000      2.1000485E-08
   14.04000      2.1415756E-08
   14.10000      2.1628097E-08
   14.16000      2.1598931E-08
   14.22000      2.1325080E-08
   14.28000      2.0839590E-08
   14.34000      2.0202132E-08
   14.40000      1.9483437E-08
   14.46000      1.8750438E-08
   14.52000      1.8056930E-08
   14.58000      1.7440296E-08
   14.64000      1.6920964E-08
   14.70000      1.6501101E-08
   14.76000      1.6161657E-08
   14.82000      1.5860660E-08
   14.88000      1.5536836E-08
   14.94000      1.5120460E-08
   15.00000      1.4548993E-08
   15.06000      1.3781764E-08
   15.12000      1.2808079E-08
   15.18000      1.1646775E-08
   15.24000      1.0339638E-08
   15.30000      8.9434335E-09
   15.36000      7.5240028E-09
   15.42000      6.1522458E-09
   15.48000      4.8990003E-09
   15.54000      3.8260541E-09
   15.60000      2.9739611E-09
   15.66000      2.3512963E-09
   15.72000      1.9314406E-09
   15.78000      1.6603079E-09
   15.84000      1.4732042E-09
   15.90000      1.3143923E-09
   15.96000      1.1519204E-09
   16.02000      9.8318531E-10
   16.08000      8.3139379E-10
   16.14000      7.3643314E-10
   16.20000      7.4394130E-10
   16.26000      8.9449981E-10
   16.32000      1.2132058E-09
   16.38000      1.7002789E-09
   16.44000      2.3253286E-09
   16.50000      3.0291243E-09
   16.56000      3.7349048E-09
   16.62000      4.3665955E-09
   16.68000      4.8666497E-09
   16.74000      5.2052473E-09
   16.80000      5.3769047E-09
   16.86000      5.3878275E-09
   16.92000      5.2428621E-09
   16.98000      4.9406395E-09
   17.04000      4.4792712E-09
   17.10000      3.8670005E-09
   17.16000      3.1282947E-09
   17.22000      2.2989737E-09
   17.28000      1.4121733E-09
   17.34000      4.8428933E-10
   17.40000     -4.8904442E-10
   17.46000     -1.5235203E-09
   17.52000     -2.6295381E-09
   17.58000     -3.8004844E-09
   17.64000     -5.0154165E-09
   17.70000     -6.2559735E-09
   17.76000     -7.5271140E-09
   17.82000     -8.8674854E-09
   17.88000     -1.0340765E-08
   17.94000     -1.2010650E-08
   18.00000     -1.3911904E-08
   18.06000     -1.6031926E-08
   18.12000     -1.8310820E-08
   18.18000     -2.0657593E-08
   18.24000     -2.2972765E-08
   18.30000     -2.5167225E-08
   18.36000     -2.7172529E-08
   18.42000     -2.8944315E-08
   18.48000     -3.0463124E-08
   18.54000     -3.1734867E-08
   18.60000     -3.2789135E-08
   18.66000     -3.3671679E-08
   18.72000     -3.4430002E-08
   18.78000     -3.5095823E-08
   18.84000     -3.5672102E-08
   18.90000     -3.6131130E-08
   18.96000     -3.6425185E-08
   19.02000     -3.6504733E-08
   19.08000     -3.6336086E-08
   19.14000     -3.5911619E-08
   19.20000     -3.5250466E-08
   19.26000     -3.4392084E-08
   19.32000     -3.3386936E-08
   19.38000     -3.2287645E-08
   19.44000     -3.1141948E-08
   19.50000     -2.9987635E-08
   19.56000     -2.8849920E-08
   19.62000     -2.7741873E-08
   19.68000     -2.6667871E-08
   19.74000     -2.5628061E-08
   19.80000     -2.4620816E-08
   19.86000     -2.3641141E-08
   19.92000     -2.2676167E-08
   19.98000     -2.1701823E-08
   20.04000     -2.0684968E-08
   20.10000     -1.9591925E-08
   20.16000     -1.8399508E-08
   20.22000     -1.7102387E-08
   20.28000     -1.5712686E-08
   20.34000     -1.4253390E-08
   20.40000     -1.2751798E-08
   20.46000     -1.1239126E-08
   20.52000     -9.7567652E-09
   20.58000     -8.3627354E-09
   20.64000     -7.1291710E-09
   20.70000     -6.1263434E-09
   20.76000     -5.3983382E-09
   20.82000     -4.9435065E-09
   20.88000     -4.7126494E-09
   20.94000     -4.6287232E-09
   21.00000     -4.6188915E-09
   21.06000     -4.6416155E-09
   21.12000     -4.6940030E-09
   21.18000     -4.7965374E-09
   21.24000     -4.9660076E-09
   21.30000     -5.1940527E-09
   21.36000     -5.4441194E-09
   21.42000     -5.6671841E-09
   21.48000     -5.8247842E-09
   21.54000     -5.9042287E-09
   21.60000     -5.9171583E-09
   21.66000     -5.8839236E-09
   21.72000     -5.8148704E-09
   21.78000     -5.7003429E-09
   21.84000     -5.5145275E-09
   21.90000     -5.2293418E-09
   21.96000     -4.8292503E-09
   22.02000     -4.3188129E-09
   22.08000     -3.7201833E-09
   22.14000     -3.0635778E-09
   22.20000     -2.3765532E-09
   22.26000     -1.6771026E-09
   22.32000     -9.7268982E-10
   22.38000     -2.6441513E-10
   22.44000      4.4633916E-10
   22.50000      1.1522484E-09
   22.56000      1.8387221E-09
   22.62000      2.4889262E-09
   22.68000      3.0943008E-09
   22.74000      3.6660897E-09
   22.80000      4.2410928E-09
   22.86000      4.8761035E-09
   22.92000      5.6307092E-09
   22.98000      6.5448109E-09
   23.04000      7.6211979E-09
   23.10000      8.8216696E-09
   23.16000      1.0078221E-08
   23.22000      1.1312849E-08
   23.28000      1.2455865E-08
   23.34000      1.3455382E-08
   23.40000      1.4277772E-08
   23.46000      1.4904758E-08
   23.52000      1.5333395E-08
   23.58000      1.5580133E-08
   23.64000      1.5684032E-08
   23.70000      1.5702209E-08
   23.76000      1.5694960E-08
   23.82000      1.5705762E-08
   23.88000      1.5746688E-08
   23.94000      1.5798005E-08
   24.00000      1.5822728E-08
   24.06000      1.5787837E-08
   24.12000      1.5680218E-08
   24.18000      1.5509547E-08
   24.24000      1.5299634E-08
   24.30000      1.5077006E-08
   24.36000      1.4866210E-08
   24.42000      1.4694732E-08
   24.48000      1.4601976E-08
   24.54000      1.4642576E-08
   24.60000      1.4877620E-08
   24.66000      1.5355928E-08
   24.72000      1.6095086E-08
   24.78000      1.7073308E-08
   24.84000      1.8237216E-08
   24.90000      1.9521325E-08
   24.96000      2.0868498E-08
   25.02000      2.2240812E-08
   25.08000      2.3616760E-08
   25.14000      2.4979018E-08
   25.20000      2.6301857E-08
   25.26000      2.7546394E-08
   25.32000      2.8666195E-08
   25.38000      2.9619411E-08
   25.44000      3.0380200E-08
   25.50000      3.0943283E-08
   25.56000      3.1319814E-08
   25.62000      3.1527296E-08
   25.68000      3.1579166E-08
   25.74000      3.1479271E-08
   25.80000      3.1223799E-08
   25.86000      3.0809694E-08
   25.92000      3.0245562E-08
   25.98000      2.9559656E-08
   26.04000      2.8800454E-08
   26.10000      2.8028161E-08
   26.16000      2.7299590E-08
   26.22000      2.6652252E-08
   26.28000      2.6094661E-08
   26.34000      2.5607457E-08
   26.40000      2.5155066E-08
   26.46000      2.4702347E-08
   26.52000      2.4228147E-08
   26.58000      2.3729365E-08
   26.64000      2.3214584E-08
   26.70000      2.2692111E-08
   26.76000      2.2160378E-08
   26.82000      2.1606857E-08
   26.88000      2.1016291E-08
   26.94000      2.0383244E-08
   27.00000      1.9721385E-08
   27.06000      1.9063780E-08
   27.12000      1.8453559E-08
   27.18000      1.7929390E-08
   27.24000      1.7512328E-08
   27.30000      1.7199165E-08
   27.36000      1.6963831E-08
   27.42000      1.6765101E-08
   27.48000      1.6557477E-08
   27.54000      1.6302510E-08
   27.60000      1.5978603E-08
   27.66000      1.5587668E-08
   27.72000      1.5156722E-08
   27.78000      1.4732880E-08
   27.84000      1.4371801E-08
   27.90000      1.4122376E-08
   27.96000      1.4012497E-08
   28.02000      1.4040741E-08
   28.08000      1.4176435E-08
   28.14000      1.4367080E-08
   28.20000      1.4549802E-08
   28.26000      1.4663312E-08
   28.32000      1.4658429E-08
   28.38000      1.4506706E-08
   28.44000      1.4206766E-08
   28.50000      1.3786631E-08
   28.56000      1.3299564E-08
   28.62000      1.2812173E-08
   28.68000      1.2387013E-08
   28.74000      1.2065596E-08
   28.80000      1.1858760E-08
   28.86000      1.1748476E-08
   28.92000      1.1699532E-08
   28.98000      1.1674595E-08
   29.04000      1.1645115E-08
   29.10000      1.1593985E-08
   29.16000      1.1511366E-08
   29.22000      1.1389012E-08
   29.28000      1.1217946E-08
   29.34000      1.0990457E-08
   29.40000      1.0703107E-08
   29.46000      1.0356314E-08
   29.52000      9.9490611E-09
   29.58000      9.4720622E-09
   29.64000      8.9054168E-09
   29.70000      8.2248413E-09
   29.76000      7.4149771E-09
   29.82000      6.4825927E-09
   29.88000      5.4611586E-09
   29.94000      4.4026289E-09
   30.00000      3.3597807E-09
   30.06000      2.3684854E-09
   30.12000      1.4394901E-09
   30.18000      5.6362831E-10
   30.24000     -2.7371766E-10
   30.30000     -1.0783215E-09
   30.36000     -1.8414403E-09
   30.42000     -2.5449383E-09
   30.48000     -3.1720679E-09
   30.54000     -3.7155206E-09
   30.60000     -4.1772821E-09
   30.66000     -4.5617541E-09
   30.72000     -4.8694657E-09
   30.78000     -5.0991202E-09
   30.84000     -5.2598406E-09
   30.90000     -5.3870886E-09
   30.96000     -5.5504650E-09
   31.02000     -5.8437579E-09
   31.08000     -6.3565571E-09
   31.14000     -7.1378592E-09
   31.20000     -8.1685867E-09
   31.26000     -9.3577608E-09
   31.32000     -1.0566813E-08
   31.38000     -1.1653523E-08
   31.44000     -1.2517799E-08
   31.50000     -1.3130790E-08
   31.56000     -1.3536384E-08
   31.62000     -1.3826140E-08
   31.68000     -1.4099181E-08
   31.74000     -1.4423393E-08
   31.80000     -1.4811961E-08
   31.86000     -1.5222035E-08
   31.92000     -1.5573537E-08
   31.98000     -1.5779396E-08
   32.04000     -1.5775852E-08
   32.10000     -1.5542847E-08
   32.16000     -1.5109046E-08
   32.22000     -1.4541582E-08
   32.28000     -1.3925135E-08
   32.34000     -1.3337571E-08
   32.40000     -1.2829184E-08
   32.46000     -1.2410711E-08
   32.52000     -1.2052490E-08
   32.58000     -1.1694477E-08
   32.64000     -1.1264651E-08
   32.70000     -1.0701444E-08
   32.76000     -9.9742570E-09
   32.82000     -9.0953005E-09
   32.88000     -8.1172518E-09
   32.94000     -7.1151285E-09
   33.00000     -6.1569545E-09
   33.06000     -5.2736384E-09
   33.12000     -4.4409787E-09
   33.18000     -3.5833863E-09
   33.24000     -2.6004381E-09
   33.30000     -1.4071654E-09
   33.36000      2.7917318E-11
   33.42000      1.6630377E-09
   33.48000      3.3903067E-09
   33.54000      5.0672893E-09
   33.60000      6.5607941E-09
   33.66000      7.7866709E-09
   33.72000      8.7323118E-09
   33.78000      9.4562234E-09
   33.84000      1.0067497E-08
   33.90000      1.0693635E-08
   33.96000      1.1446777E-08
   34.02000      1.2396625E-08
   34.08000      1.3555160E-08
   34.14000      1.4875202E-08
   34.20000      1.6262391E-08
   34.26000      1.7597889E-08
   34.32000      1.8766894E-08
   34.38000      1.9685926E-08
   34.44000      2.0321435E-08
   34.50000      2.0694046E-08
   34.56000      2.0867027E-08
   34.62000      2.0923048E-08
   34.68000      2.0937533E-08
   34.74000      2.0958161E-08
   34.80000      2.0997540E-08
   34.86000      2.1040405E-08
   34.92000      2.1060952E-08
   34.98000      2.1041823E-08
   35.04000      2.0986120E-08
   35.10000      2.0917190E-08
   35.16000      2.0866443E-08
   35.22000      2.0854891E-08
   35.28000      2.0877120E-08
   35.34000      2.0895778E-08
   35.40000      2.0850775E-08
   35.46000      2.0681064E-08
   35.52000      2.0350988E-08
   35.58000      1.9869969E-08
   35.64000      1.9295875E-08
   35.70000      1.8718671E-08
   35.76000      1.8229645E-08
   35.82000      1.7888683E-08
   35.88000      1.7703673E-08
   35.94000      1.7630949E-08
   36.00000      1.7595816E-08
   36.06000      1.7522940E-08
   36.12000      1.7362657E-08
   36.18000      1.7103444E-08
   36.24000      1.6769476E-08
   36.30000      1.6410365E-08
   36.36000      1.6091867E-08
   36.42000      1.5891395E-08
   36.48000      1.5894390E-08
   36.54000      1.6183703E-08
   36.60000      1.6817783E-08
   36.66000      1.7802968E-08
   36.72000      1.9073806E-08
   36.78000      2.0495907E-08
   36.84000      2.1896509E-08
   36.90000      2.3113202E-08
   36.96000      2.4040316E-08
   37.02000      2.4652444E-08
   37.08000      2.4995893E-08
   37.14000      2.5155146E-08
   37.20000      2.5212655E-08
   37.26000      2.5220713E-08
   37.32000      2.5194227E-08
   37.38000      2.5120332E-08
   37.44000      2.4972991E-08
   37.50000      2.4721885E-08
   37.56000      2.4332783E-08
   37.62000      2.3764716E-08
   37.68000      2.2972173E-08
   37.74000      2.1916508E-08
   37.80000      2.0583599E-08
   37.86000      1.8999177E-08
   37.92000      1.7233031E-08
   37.98000      1.5388133E-08
   38.04000      1.3577701E-08
   38.10000      1.1898565E-08
   38.16000      1.0410730E-08
   38.22000      9.1303498E-09
   38.28000      8.0379641E-09
   38.34000      7.0978450E-09
   38.40000      6.2797914E-09
   38.46000      5.5736185E-09
   38.52000      4.9897459E-09
   38.58000      4.5457864E-09
   38.64000      4.2461572E-09
   38.70000      4.0657069E-09
   38.76000      3.9466768E-09
   38.82000      3.8114694E-09
   38.88000      3.5854126E-09
   38.94000      3.2187848E-09
   39.00000      2.6986047E-09
   39.06000      2.0469177E-09
   39.12000      1.3092382E-09
   39.18000      5.3997595E-10
   39.24000     -2.1021822E-10
   39.30000     -9.0464297E-10
   39.36000     -1.5302702E-09
   39.42000     -2.1072823E-09
   39.48000     -2.6942442E-09
   39.54000     -3.3820620E-09
   39.60000     -4.2727488E-09
   39.66000     -5.4471485E-09
   39.72000     -6.9343038E-09
   39.78000     -8.6977776E-09
   39.84000     -1.0647920E-08
   39.90000     -1.2676402E-08
   39.96000     -1.4697544E-08
   40.02000     -1.6677092E-08
   40.08000     -1.8635545E-08
   40.14000     -2.0626254E-08
   40.20000     -2.2700652E-08
   40.26000     -2.4877934E-08
   40.32000     -2.7132305E-08
   40.38000     -2.9401225E-08
   40.44000     -3.1608419E-08
   40.50000     -3.3690657E-08
   40.56000     -3.5617902E-08
   40.62000     -3.7401030E-08
   40.68000     -3.9086192E-08
   40.74000     -4.0738861E-08
   40.80000     -4.2422624E-08
   40.86000     -4.4178730E-08
   40.92000     -4.6012048E-08
   40.98000     -4.7887287E-08
   41.04000     -4.9736403E-08
   41.10000     -5.1474764E-08
   41.16000     -5.3021228E-08
   41.22000     -5.4317027E-08
   41.28000     -5.5339491E-08
   41.34000     -5.6108359E-08
   41.40000     -5.6683280E-08
   41.46000     -5.7151603E-08
   41.52000     -5.7607032E-08
   41.58000     -5.8123007E-08
   41.64000     -5.8728897E-08
   41.70000     -5.9399397E-08
   41.76000     -6.0064586E-08
   41.82000     -6.0640048E-08
   41.88000     -6.1066125E-08
   41.94000     -6.1338916E-08
   42.00000     -6.1517930E-08
   42.06000     -6.1705308E-08
   42.12000     -6.2005597E-08
   42.18000     -6.2484183E-08
   42.24000     -6.3142473E-08
   42.30000     -6.3918819E-08
   42.36000     -6.4711585E-08
   42.42000     -6.5411783E-08
   42.48000     -6.5931594E-08
   42.54000     -6.6220224E-08
   42.60000     -6.6266345E-08
   42.66000     -6.6090735E-08
   42.72000     -6.5733758E-08
   42.78000     -6.5240478E-08
   42.84000     -6.4645747E-08
   42.90000     -6.3962908E-08
   42.96000     -6.3181112E-08
   43.02000     -6.2274935E-08
   43.08000     -6.1224668E-08
   43.14000     -6.0038630E-08
   43.20000     -5.8765295E-08
   43.26000     -5.7486137E-08
   43.32000     -5.6289529E-08
   43.38000     -5.5236764E-08
   43.44000     -5.4336216E-08
   43.50000     -5.3538209E-08
   43.56000     -5.2752458E-08
   43.62000     -5.1878782E-08
   43.68000     -5.0836789E-08
   43.74000     -4.9583129E-08
   43.80000     -4.8113577E-08
   43.86000     -4.6454751E-08
   43.92000     -4.4652708E-08
   43.98000     -4.2762363E-08
   44.04000     -4.0836991E-08
   44.10000     -3.8915264E-08
   44.16000     -3.7006622E-08
   44.22000     -3.5080760E-08
   44.28000     -3.3069615E-08
   44.34000     -3.0886415E-08
   44.40000     -2.8457967E-08
   44.46000     -2.5758059E-08
   44.52000     -2.2827503E-08
   44.58000     -1.9771626E-08
   44.64000     -1.6736230E-08
   44.70000     -1.3872199E-08
   44.76000     -1.1302010E-08
   44.82000     -9.0979153E-09
   44.88000     -7.2745840E-09
   44.94000     -5.7935794E-09
   45.00000     -4.5757336E-09
   45.06000     -3.5192578E-09
   45.12000     -2.5228899E-09
   45.18000     -1.5119052E-09
   45.24000     -4.6088269E-10
   45.30000      5.9575372E-10
   45.36000      1.5726078E-09
   45.42000      2.3614848E-09
   45.48000      2.8693017E-09
   45.54000      3.0501246E-09
   45.60000      2.9172886E-09
   45.66000      2.5306179E-09
   45.72000      1.9656898E-09
   45.78000      1.2803758E-09
   45.84000      4.9418175E-10
   45.90000     -4.1152262E-10
   45.96000     -1.4749869E-09
   46.02000     -2.7279312E-09
   46.08000     -4.1741277E-09
   46.14000     -5.7806577E-09
   46.20000     -7.4826882E-09
   46.26000     -9.1971168E-09
   46.32000     -1.0838786E-08
   46.38000     -1.2334818E-08
   46.44000     -1.3635502E-08
   46.50000     -1.4721771E-08
   46.56000     -1.5608972E-08
   46.62000     -1.6345384E-08
   46.68000     -1.7003696E-08
   46.74000     -1.7665398E-08
   46.80000     -1.8401263E-08
   46.86000     -1.9253985E-08
   46.92000     -2.0229749E-08
   46.98000     -2.1302816E-08
   47.04000     -2.2432253E-08
   47.10000     -2.3584390E-08
   47.16000     -2.4751444E-08
   47.22000     -2.5957597E-08
   47.28000     -2.7248728E-08
   47.34000     -2.8669366E-08
   47.40000     -3.0236784E-08
   47.46000     -3.1924152E-08
   47.52000     -3.3661177E-08
   47.58000     -3.5352638E-08
   47.64000     -3.6906691E-08
   47.70000     -3.8260371E-08
   47.76000     -3.9391839E-08
   47.82000     -4.0316483E-08
   47.88000     -4.1072472E-08
   47.94000     -4.1705860E-08
   48.00000     -4.2262663E-08
   48.06000     -4.2788376E-08
   48.12000     -4.3328590E-08
   48.18000     -4.3923350E-08
   48.24000     -4.4593509E-08
   48.30000     -4.5325976E-08
   48.36000     -4.6069122E-08
   48.42000     -4.6746461E-08
   48.48000     -4.7285841E-08
   48.54000     -4.7650641E-08
   48.60000     -4.7855686E-08
   48.66000     -4.7957617E-08
   48.72000     -4.8023587E-08
   48.78000     -4.8094702E-08
   48.84000     -4.8163542E-08
   48.90000     -4.8176705E-08
   48.96000     -4.8058517E-08
   49.02000     -4.7740684E-08
   49.08000     -4.7180890E-08
   49.14000     -4.6361784E-08
   49.20000     -4.5273918E-08
   49.26000     -4.3894179E-08
   49.32000     -4.2171049E-08
   49.38000     -4.0021266E-08
   49.44000     -3.7335056E-08
   49.50000     -3.3983859E-08
   49.56000     -2.9826520E-08
   49.62000     -2.4713749E-08
   49.68000     -1.8492310E-08
   49.74000     -1.1008670E-08
   49.80000     -2.1083848E-09
   49.86000      8.3736493E-09
   49.92000      2.0634280E-08
   49.98000      3.4931642E-08
   50.04000      5.1616226E-08
   50.10000      7.1156194E-08
   50.16000      9.4152945E-08
   50.22000      1.2134713E-07
   50.28000      1.5361843E-07
   50.34000      1.9198342E-07
   50.40000      2.3759628E-07
   50.46000      2.9175726E-07
   50.52000      3.5593456E-07
   50.58000      4.3180250E-07
   50.64000      5.2129474E-07
   50.70000      6.2666345E-07
   50.76000      7.5053504E-07
   50.82000      8.9595380E-07
   50.88000      1.0664147E-06
   50.94000      1.2658969E-06
   51.00000      1.4989072E-06
   51.06000      1.7705449E-06
   51.12000      2.0865832E-06
   51.18000      2.4535557E-06
   51.24000      2.8788459E-06
   51.30000      3.3707731E-06
   51.36000      3.9386846E-06
   51.42000      4.5930601E-06
   51.48000      5.3456333E-06
   51.54000      6.2095132E-06
   51.60000      7.1993040E-06
   51.66000      8.3312143E-06
   51.72000      9.6231743E-06
   51.78000      1.1094962E-05
   51.84000      1.2768351E-05
   51.90000      1.4667280E-05
   51.96000      1.6818030E-05
   52.02000      1.9249366E-05
   52.08000      2.1992681E-05
   52.14000      2.5082109E-05
   52.20000      2.8554648E-05
   52.26000      3.2450298E-05
   52.32000      3.6812195E-05
   52.38000      4.1686766E-05
   52.44000      4.7123805E-05
   52.50000      5.3176576E-05
   52.56000      5.9901871E-05
   52.62000      6.7360037E-05
   52.68000      7.5615062E-05
   52.74000      8.4734558E-05
   52.80000      9.4789699E-05
   52.86000      1.0585511E-04
   52.92000      1.1800878E-04
   52.98000      1.3133178E-04
   53.04000      1.4590821E-04
   53.10000      1.6182491E-04
   53.16000      1.7917127E-04
   53.22000      1.9803894E-04
   53.28000      2.1852135E-04
   53.34000      2.4071327E-04
   53.40000      2.6471031E-04
   53.46000      2.9060832E-04
   53.52000      3.1850295E-04
   53.58000      3.4848883E-04
   53.64000      3.8065901E-04
   53.70000      4.1510427E-04
   53.76000      4.5191203E-04
   53.82000      4.9116585E-04
   53.88000      5.3294440E-04
   53.94000      5.7732069E-04
   54.00000      6.2436145E-04
   54.06000      6.7412580E-04
   54.12000      7.2666444E-04
   54.18000      7.8201870E-04
   54.24000      8.4021990E-04
   54.30000      9.0128835E-04
   54.36000      9.6523267E-04
   54.42000      1.0320492E-03
   54.48000      1.1017207E-03
   54.54000      1.1742165E-03
   54.60000      1.2494910E-03
   54.66000      1.3274838E-03
   54.72000      1.4081196E-03
   54.78000      1.4913076E-03
   54.84000      1.5769415E-03
   54.90000      1.6648992E-03
   54.96000      1.7550434E-03
   55.02000      1.8472211E-03
   55.08000      1.9412647E-03
   55.14000      2.0369927E-03
   55.20000      2.1342097E-03
   55.26000      2.2327076E-03
   55.32000      2.3322655E-03
   55.38000      2.4326518E-03
   55.44000      2.5336244E-03
   55.50000      2.6349335E-03
   55.56000      2.7363214E-03