 -0.750000000       0.00000000    
 -0.689999998       0.00000000    
 -0.629999995       0.00000000    
 -0.569999993       0.00000000    
 -0.509999990       0.00000000    
 -0.449999988       0.00000000    
 -0.389999986       0.00000000    
 -0.330000013       3.53751483E-23
 -0.270000011       3.95356840E-22
 -0.209999993       2.96665055E-21
 -0.150000006       1.70122941E-20
  -9.00000036E-02   7.26197563E-20
  -2.99999993E-02   2.28057029E-19
   2.99999993E-02   5.13870136E-19
   9.00000036E-02   7.28582441E-19
  0.150000006       1.05109789E-19
  0.209999993      -2.80777629E-18
  0.270000011      -9.33588796E-18
  0.330000013      -1.83880100E-17
  0.389999986      -2.34090128E-17
  0.449999988      -1.14164548E-17
  0.509999990       3.19370464E-17
  0.569999993       1.09795329E-16
  0.629999995       1.99170043E-16
  0.689999998       2.45618988E-16
  0.750000000       1.78977824E-16
  0.810000002      -5.09772122E-17
  0.870000005      -4.38532621E-16
  0.930000007      -9.12022715E-16
  0.990000010      -1.35533858E-15
   1.04999995      -1.62627054E-15
   1.11000001      -1.51863775E-15
   1.16999996      -6.68353570E-16
   1.23000002       1.47086848E-15
   1.28999996       5.35378397E-15
   1.35000002       1.06280349E-14
   1.40999997       1.52074466E-14
   1.47000003       1.48985777E-14
   1.52999997       4.61225110E-15
   1.59000003      -1.83282192E-14
   1.64999998      -4.97495620E-14
   1.71000004      -7.58606367E-14
   1.76999998      -7.57568650E-14
   1.83000004      -3.11415932E-14
   1.88999999       5.91786142E-14
   1.95000005       1.67734939E-13
   2.00999999       2.39955001E-13
   2.06999993       2.15167538E-13
   2.13000011       6.27193745E-14
   2.19000006      -1.84105769E-13
   2.25000000      -4.20516080E-13
   2.30999994      -5.05997045E-13
   2.36999989      -3.38228957E-13
   2.43000007       6.80974984E-14
   2.49000001       5.47345210E-13
   2.54999995       8.32833639E-13
   2.60999990       6.88573005E-13
   2.67000008       6.66987556E-14
   2.73000002      -8.01049765E-13
   2.78999996      -1.45675919E-12
   2.84999990      -1.42601436E-12
   2.91000009      -5.00179433E-13
   2.97000003       1.06131748E-12
   3.02999997       2.55327031E-12
   3.08999991       3.11625400E-12
   3.15000010       2.19027509E-12
   3.21000004      -9.86571732E-14
   3.26999998      -2.85891514E-12
   3.32999992      -4.76998952E-12
   3.39000010      -4.72392394E-12
   3.45000005      -2.46301677E-12
   3.50999999       1.14641749E-12
   3.56999993       4.41678248E-12
   3.63000011       5.63822903E-12
   3.69000006       4.00311381E-12
   3.75000000       1.62556681E-13
   3.80999994      -3.94102242E-12
   3.86999989      -5.96921557E-12
   3.93000007      -4.41752277E-12
   3.99000001       4.42136372E-13
   4.05000019       6.44653081E-12
   4.11000013       1.04151644E-11
   4.17000008       9.67248764E-12
   4.23000002       3.50595486E-12
   4.28999996      -6.18876781E-12
   4.34999990      -1.54804156E-11
   4.40999985      -2.00218418E-11
   4.46999979      -1.70151150E-11
   4.53000021      -6.60479440E-12
   4.59000015       7.99090221E-12
   4.65000010       2.17222212E-11
   4.71000004       2.97762787E-11
   4.76999998       2.95149113E-11
   4.82999992       2.13805709E-11
   4.88999987       8.37824341E-12
   4.94999981      -5.54244628E-12
   5.01000023      -1.73235506E-11
   5.07000017      -2.58721169E-11
   5.13000011      -3.18140410E-11
   5.19000006      -3.61106214E-11
   5.25000000      -3.83837406E-11
   5.30999994      -3.60215434E-11
   5.36999989      -2.47862529E-11
   5.42999983      -8.87579452E-13
   5.48999977       3.62928784E-11
   5.55000019       8.20388757E-11
   5.61000013       1.25735450E-10
   5.67000008       1.52297439E-10
   5.73000002       1.45209719E-10
   5.78999996       9.02578082E-11
   5.84999990      -2.10830312E-11
   5.90999985      -1.89360541E-10
   5.96999979      -4.06295109E-10
   6.03000021      -6.55352717E-10
   6.09000015      -9.13548293E-10
   6.15000010      -1.15421039E-09
   6.21000004      -1.35033773E-09
   6.26999998      -1.47800827E-09
   6.32999992      -1.51915791E-09
   6.38999987      -1.46311285E-09
   6.44999981      -1.30663780E-09
   6.51000023      -1.05284981E-09
   6.57000017      -7.09850068E-10
   6.63000011      -2.90007990E-10
   6.69000006       1.89641469E-10
   6.75000000       7.06281256E-10
   6.80999994       1.23063215E-09
   6.86999989       1.72805659E-09
   6.92999983       2.16218154E-09
   6.98999977       2.50058108E-09
   7.05000019       2.72086398E-09
   7.11000013       2.81498624E-09
   7.17000008       2.79011081E-09
   7.23000002       2.66574274E-09
   7.28999996       2.46847920E-09
   7.34999990       2.22675611E-09
   7.40999985       1.96782324E-09
   7.46999979       1.71786940E-09
   7.53000021       1.50438018E-09
   7.59000015       1.35840494E-09
   7.65000010       1.31424416E-09
   7.71000004       1.40531997E-09
   7.76999998       1.65709002E-09
   7.82999992       2.07971040E-09
   7.88999987       2.66372435E-09
   7.94999981       3.38095640E-09
   8.01000023       4.19051149E-09
   8.06999969       5.04749220E-09
   8.13000011       5.91093219E-09
   8.18999958       6.74810741E-09
   8.25000000       7.53443796E-09
   8.31000042       8.25047497E-09
   8.36999989       8.87878837E-09
   8.43000031       9.40323908E-09
   8.48999977       9.81149739E-09
   8.55000019       1.00997362E-08
   8.60999966       1.02772191E-08
   8.67000008       1.03685887E-08
   8.72999954       1.04126689E-08
   8.78999996       1.04578399E-08
   8.85000038       1.05548574E-08
   8.90999985       1.07482565E-08
   8.97000027       1.10676197E-08
   9.02999973       1.15202914E-08
   9.09000015       1.20876749E-08
   9.14999962       1.27272743E-08
   9.21000004       1.33816336E-08
   9.27000046       1.39929917E-08
   9.32999992       1.45196655E-08
   9.39000034       1.49483199E-08
   9.44999981       1.52968074E-08
   9.51000023       1.56053606E-08
   9.56999969       1.59185785E-08
   9.63000011       1.62648242E-08
   9.68999958       1.66411258E-08
   9.75000000       1.70098300E-08
   9.81000042       1.73085688E-08
   9.86999989       1.74698052E-08
   9.93000031       1.74425150E-08
   9.98999977       1.72081300E-08
   10.0500002       1.67856129E-08
   10.1099997       1.62252896E-08
   10.1700001       1.55953579E-08
   10.2299995       1.49673447E-08
   10.2900000       1.44058658E-08
   10.3500004       1.39649226E-08
   10.4099998       1.36891432E-08
   10.4700003       1.36160567E-08
   10.5299997       1.37757024E-08
   10.5900002       1.41865959E-08
   10.6499996       1.48503858E-08
   10.7100000       1.57493325E-08
   10.7700005       1.68497447E-08
   10.8299999       1.81111233E-08
   10.8900003       1.94969427E-08
   10.9499998       2.09814885E-08
   11.0100002       2.25489387E-08
   11.0699997       2.41852529E-08
   11.1300001       2.58676707E-08
   11.1899996       2.75580270E-08
   11.2500000       2.92036564E-08
   11.3100004       3.07449355E-08
   11.3699999       3.21244116E-08
   11.4300003       3.32919718E-08
   11.4899998       3.42037545E-08
   11.5500002       3.48175426E-08
   11.6099997       3.50905154E-08
   11.6700001       3.49844207E-08
   11.7299995       3.44785818E-08
   11.7900000       3.35854864E-08
   11.8500004       3.23607061E-08
   11.9099998       3.09003845E-08
   11.9700003       2.93250384E-08
   12.0299997       2.77544387E-08
   12.0900002       2.62823701E-08
   12.1499996       2.49597250E-08
   12.2100000       2.37907631E-08
   12.2700005       2.27424302E-08
   12.3299999       2.17627480E-08
   12.3900003       2.08023696E-08
   12.4499998       1.98335268E-08
   12.5100002       1.88618401E-08
   12.5699997       1.79282580E-08
   12.6300001       1.71006143E-08
   12.6899996       1.64567862E-08
   12.7500000       1.60639324E-08
   12.8100004       1.59597171E-08
   12.8699999       1.61411275E-08
   12.9300003       1.65642717E-08
   12.9899998       1.71551058E-08
   13.0500002       1.78276380E-08
   13.1099997       1.85041173E-08
   13.1700001       1.91314005E-08
   13.2299995       1.96891108E-08
   13.2900000       2.01877111E-08
   13.3500004       2.06576409E-08
   13.4099998       2.11333884E-08
   13.4700003       2.16380567E-08
   13.5299997       2.21737295E-08
   13.5900002       2.27206485E-08
   13.6499996       2.32443735E-08
   13.7100000       2.37065958E-08
   13.7700005       2.40739890E-08
   13.8299999       2.43212188E-08
   13.8900003       2.44281519E-08
   13.9499998       2.43749927E-08
   14.0100002       2.41403448E-08
   14.0699997       2.37048834E-08
   14.1300001       2.30594353E-08
   14.1899996       2.22131362E-08
   14.2500000       2.11971916E-08
   14.3100004       2.00626502E-08
   14.3699999       1.88741449E-08
   14.4300003       1.77032966E-08
   14.4899998       1.66239946E-08
   14.5500002       1.57086166E-08
   14.6099997       1.50221346E-08
   14.6700001       1.46118904E-08
   14.7299995       1.44947725E-08
   14.7900000       1.46474752E-08
   14.8500004       1.50065773E-08
   14.9099998       1.54817847E-08
   14.9700003       1.59794826E-08
   15.0299997       1.64282614E-08
   15.0900002       1.67966085E-08
   15.1499996       1.70964025E-08
   15.2100000       1.73720967E-08
   15.2700005       1.76810317E-08
   15.3299999       1.80725888E-08
   15.3900003       1.85724467E-08
   15.4499998       1.91748502E-08
   15.5100002       1.98427337E-08
   15.5699997       2.05141628E-08
   15.6300001       2.11133795E-08
   15.6899996       2.15647642E-08
   15.7500000       2.18074483E-08
   15.8100004       2.18073843E-08
   15.8699999       2.15636398E-08
   15.9300003       2.11070184E-08
   15.9899998       2.04917541E-08
   16.0499992       1.97833696E-08
   16.1100006       1.90466380E-08
   16.1700001       1.83365376E-08
   16.2299995       1.76928587E-08
   16.2900009       1.71372943E-08
   16.3500004       1.66716756E-08
   16.4099998       1.62769513E-08
   16.4699993       1.59141038E-08
   16.5300007       1.55285544E-08
   16.5900002       1.50587152E-08
   16.6499996       1.44473944E-08
   16.7099991       1.36532270E-08
   16.7700005       1.26590685E-08
   16.8299999       1.14754561E-08
   16.8899994       1.01391384E-08
   16.9500008       8.70802808E-09
   17.0100002       7.25411198E-09
   17.0699997       5.85516213E-09
   17.1299992       4.58531568E-09
   17.1900005       3.50471541E-09
   17.2500000       2.64953037E-09
   17.3099995       2.02504191E-09
   17.3700008       1.60490088E-09
   17.4300003       1.33829103E-09
   17.4899998       1.16395471E-09
   17.5499992       1.02709929E-09
   17.6100006       8.93772112E-10
   17.6700001       7.58189345E-10
   17.7299995       6.41308506E-10
   17.7900009       5.82111359E-10
   17.8500004       6.25071273E-10
   17.9099998       8.07453771E-10
   17.9699993       1.14899890E-09
   18.0300007       1.64535707E-09
   18.0900002       2.26612618E-09
   18.1499996       2.95825053E-09
   18.2099991       3.65494168E-09
   18.2700005       4.28854685E-09
   18.3299999       4.80360596E-09
   18.3899994       5.16526510E-09
   18.4500008       5.35971711E-09
   18.5100002       5.38721823E-09
   18.5699997       5.25239452E-09
   18.6299992       4.95809349E-09
   18.6900005       4.50646898E-09
   18.7500000       3.90565180E-09
   18.8099995       3.17583670E-09
   18.8700008       2.34838238E-09
   18.9300003       1.45627832E-09
   18.9899998       5.21008958E-10
   19.0499992      -4.55399496E-10
   19.1100006      -1.48686041E-09
   19.1700001      -2.58958566E-09
   19.2299995      -3.76737397E-09
   19.2900009      -5.00692598E-09
   19.3500004      -6.28835783E-09
   19.4099998      -7.60557217E-09
   19.4699993      -8.98310226E-09
   19.5300007      -1.04763371E-08
   19.5900002      -1.21513501E-08
   19.6499996      -1.40531329E-08
   19.7099991      -1.61788893E-08
   19.7700005      -1.84706703E-08
   19.8299999      -2.08307362E-08
   19.8899994      -2.31504629E-08
   19.9500008      -2.53375561E-08
   20.0100002      -2.73299925E-08
   20.0699997      -2.90951405E-08
   20.1299992      -3.06215284E-08
   20.1900005      -3.19126201E-08
   20.2500000      -3.29862715E-08
   20.3099995      -3.38757395E-08
   20.3700008      -3.46247511E-08
   20.4300003      -3.52729863E-08
   20.4899998      -3.58369832E-08
   20.5499992      -3.62974717E-08
   20.6100006      -3.66027955E-08
   20.6700001      -3.66893929E-08
   20.7299995      -3.65098352E-08
   20.7900009      -3.60540930E-08
   20.8500004      -3.53534233E-08
   20.9099998      -3.44665132E-08
   20.9699993      -3.34572476E-08
   21.0300007      -3.23765939E-08
   21.0900002      -3.12565582E-08
   21.1499996      -3.01156788E-08
   21.2099991      -2.89687954E-08
   21.2700005      -2.78330976E-08
   21.3299999      -2.67268998E-08
   21.3899994      -2.56632742E-08
   21.4500008      -2.46437164E-08
   21.5100002      -2.36560087E-08
   21.5699997      -2.26770425E-08
   21.6299992      -2.16785185E-08
   21.6900005      -2.06327790E-08
   21.7500000      -1.95171719E-08
   21.8099995      -1.83167970E-08
   21.8700008      -1.70260410E-08
   21.9300003      -1.56492224E-08
   21.9899998      -1.42006771E-08
   22.0499992      -1.27049953E-08
   22.1100006      -1.11981295E-08
   22.1700001      -9.72890213E-09
   22.2299995      -8.35841796E-09
   22.2900009      -7.15385307E-09
   22.3500004      -6.17497431E-09
   22.4099998      -5.45649126E-09
   22.4699993      -4.99427255E-09
   22.5300007      -4.74437334E-09
   22.5900002      -4.63862593E-09
   22.6499996      -4.61130778E-09
   22.7099991      -4.62371608E-09
   22.7700005      -4.67307171E-09
   22.8299999      -4.78047069E-09
   22.8899994      -4.96501062E-09
   22.9500008      -5.21998045E-09
   23.0100002      -5.50596191E-09
   23.0699997      -5.76514170E-09
   23.1299992      -5.94768146E-09
   23.1900005      -6.03340045E-09
   23.2500000      -6.03529760E-09
   23.3099995      -5.98328276E-09
   23.3700008      -5.89911187E-09
   23.4300003      -5.77865267E-09
   23.4899998      -5.59227509E-09
   23.5499992      -5.30226885E-09
   23.6100006      -4.88572205E-09
   23.6700001      -4.34870673E-09
   23.7299995      -3.72396203E-09
   23.7900009      -3.05477310E-09
   23.8500004      -2.37557640E-09
   23.9099998      -1.70054959E-09
   23.9699993      -1.02546571E-09
   24.0300007      -3.39796913E-10
   24.0900002       3.59475311E-10
   24.1499996       1.06092757E-09
   24.2099991       1.74257775E-09
   24.2700005       2.38431697E-09
   24.3299999       2.98220493E-09
   24.3899994       3.55714502E-09
   24.4500008       4.15321821E-09
   24.5100002       4.82566032E-09
   24.5699997       5.62305846E-09
   24.6299992       6.57081056E-09
   24.6900005       7.66219799E-09
   24.7500000       8.85986751E-09
   24.8099995       1.01057758E-08
   24.8700008       1.13342962E-08
   24.9300003       1.24829969E-08
   24.9899998       1.34986236E-08
   25.0499992       1.43398147E-08
   25.1100006       1.49801398E-08
   25.1700001       1.54134110E-08
   25.2299995       1.56592392E-08
   25.2900009       1.57635487E-08
   25.3500004       1.57895297E-08
   25.4099998       1.57995874E-08
   25.4699993       1.58351980E-08
   25.5300007       1.59045506E-08
   25.5900002       1.59847158E-08
   25.6499996       1.60373244E-08
   25.7099991       1.60289950E-08
   25.7700005       1.59456004E-08
   25.8299999       1.57941251E-08
   25.8899994       1.55943916E-08
   25.9500008       1.53693467E-08
   26.0100002       1.51422697E-08
   26.0699997       1.49428381E-08
   26.1299992       1.48158161E-08
   26.1900005       1.48227155E-08
   26.2500000       1.50306434E-08
   26.3099995       1.54913700E-08
   26.3700008       1.62212359E-08
   26.4300003       1.71935763E-08
   26.4899998       1.83486275E-08
   26.5499992       1.96158609E-08
   26.6100006       2.09366195E-08
   26.6700001       2.22753300E-08
   26.7299995       2.36149766E-08
   26.7900009       2.49420609E-08
   26.8500004       2.62318753E-08
   26.9099998       2.74436491E-08
   26.9699993       2.85282091E-08
   27.0300007       2.94429512E-08
   27.0900002       3.01649656E-08
   27.1499996       3.06948067E-08
   27.2099991       3.10493711E-08
   27.2700005       3.12484865E-08
   27.3299999       3.13028607E-08
   27.3899994       3.12097477E-08
   27.4500008       3.09582688E-08
   27.5100002       3.05413259E-08
   27.5699997       2.99680352E-08
   27.6299992       2.92704740E-08
   27.6900005       2.85011605E-08
   27.7500000       2.77217982E-08
   27.8099995       2.69875162E-08
   27.8700008       2.63329092E-08
   27.9300003       2.57654538E-08
   27.9899998       2.52687098E-08
   28.0499992       2.48133638E-08
   28.1100006       2.43706335E-08
   28.1700001       2.39217748E-08
   28.2299995       2.34598581E-08
   28.2900009       2.29844197E-08
   28.3500004       2.24935235E-08
   28.4099998       2.19789094E-08
   28.4699993       2.14277200E-08
   28.5300007       2.08300595E-08
   28.5900002       2.01880503E-08
   28.6499996       1.95210941E-08
   28.7099991       1.88640819E-08
   28.7700005       1.82589481E-08
   28.8299999       1.77428632E-08
   28.8899994       1.73373635E-08
   28.9500008       1.70417511E-08
   29.0100002       1.68323080E-08
   29.0699997       1.66674692E-08
   29.1299992       1.64979994E-08
   29.1900005       1.62802927E-08
   29.2500000       1.59896540E-08
   29.3099995       1.56293698E-08
   29.3700008       1.52317092E-08
   29.4300003       1.48494079E-08
   29.4899998       1.45399914E-08
   29.5499992       1.43485437E-08
   29.6100006       1.42951864E-08
   29.6700001       1.43710768E-08
   29.7299995       1.45425618E-08
   29.7900009       1.47598884E-08
   29.8500004       1.49664370E-08
   29.9099998       1.51066146E-08
   29.9699993       1.51331339E-08
   30.0300007       1.50151198E-08
   30.0900002       1.47464787E-08
   30.1499996       1.43511505E-08
   30.2099991       1.38808032E-08
   30.2700005       1.34029250E-08
   30.3299999       1.29821647E-08
   30.3899994       1.26620643E-08
   30.4500008       1.24549500E-08
   30.5100002       1.23438566E-08
   30.5699997       1.22942136E-08
   30.6299992       1.22684920E-08
   30.6900005       1.22366659E-08
   30.7500000       1.21791714E-08
   30.8099995       1.20840422E-08
   30.8700008       1.19427845E-08
   30.9300003       1.17486643E-08
   30.9899998       1.14976562E-08
   31.0499992       1.11892566E-08
   31.1100006       1.08243174E-08
   31.1700001       1.03997397E-08
   31.2299995       9.90342564E-09
   31.2900009       9.31410593E-09
   31.3500004       8.60842331E-09
   31.4099998       7.77306042E-09
   31.4699993       6.81579326E-09
   31.5300007       5.76890047E-09
   31.5900002       4.68199701E-09
   31.6499996       3.60706620E-09
   31.7099991       2.58275334E-09
   31.7700005       1.62546221E-09
   31.8299999       7.31033289E-10
   31.8899994      -1.15006761E-10
   31.9500008      -9.24838817E-10
   32.0099983      -1.70011294E-09
   32.0699997      -2.43135112E-09
   32.1300011      -3.10333470E-09
   32.1899986      -3.70162190E-09
   32.2500000      -4.21583746E-09
   32.3100014      -4.63907845E-09
   32.3699989      -4.96687402E-09
   32.4300003      -5.20039700E-09
   32.4900017      -5.35566791E-09
   32.5499992      -5.47477752E-09
   32.6100006      -5.63069547E-09
   32.6699982      -5.91763349E-09
   32.7299995      -6.42528164E-09
   32.7900009      -7.20464266E-09
   32.8499985      -8.24024671E-09
   32.9099998      -9.44361567E-09
   32.9700012      -1.06746576E-08
   33.0299988      -1.17850014E-08
   33.0900002      -1.26663791E-08
   33.1500015      -1.32840681E-08
   33.2099991      -1.36816336E-08
   33.2700005      -1.39559209E-08
   33.3300018      -1.42138381E-08
   33.3899994      -1.45293146E-08
   33.4500008      -1.49170223E-08
   33.5099983      -1.53310324E-08
   33.5699997      -1.56859912E-08
   33.6300011      -1.58903291E-08
   33.6899986      -1.58784648E-08
   33.7500000      -1.56314020E-08
   33.8100014      -1.51807136E-08
   33.8699989      -1.45968651E-08
   33.9300003      -1.39671146E-08
   33.9900017      -1.33703209E-08
   34.0499992      -1.28557192E-08
   34.1100006      -1.24310233E-08
   34.1699982      -1.20625208E-08
   34.2299995      -1.16868133E-08
   34.2900009      -1.12310214E-08
   34.3499985      -1.06360121E-08
   34.4099998      -9.87597382E-09
   34.4700012      -8.96799612E-09
   34.5299988      -7.96747468E-09
   34.5900002      -6.94922830E-09
   34.6500015      -5.97936367E-09
   34.7099991      -5.08735409E-09
   34.7700005      -4.24946656E-09
   34.8300018      -3.39193940E-09
   34.8899994      -2.41535258E-09
   34.9500008      -1.23284205E-09
   35.0099983       1.92017388E-10
   35.0699997       1.82311399E-09
   35.1300011       3.55554408E-09
   35.1899986       5.24506838E-09
   35.2500000       6.75273926E-09
   35.3100014       7.98815147E-09
   35.3699989       8.93580498E-09
   35.4300003       9.65636993E-09
   35.4900017       1.02644693E-08
   35.5499992       1.08926050E-08
   35.6100006       1.16539249E-08
   35.6699982       1.26144988E-08
   35.7299995       1.37806353E-08
   35.7900009       1.51014667E-08
   35.8499985       1.64835630E-08
   35.9099998       1.78130826E-08
   35.9700012       1.89809271E-08
   36.0299988       1.99062598E-08
   36.0900002       2.05535322E-08
   36.1500015       2.09384172E-08
   36.2099991       2.11200053E-08
   36.2700005       2.11806199E-08
   36.3300018       2.11993481E-08
   36.3899994       2.12286348E-08
   36.4500008       2.12828919E-08
   36.5099983       2.13434603E-08
   36.5699997       2.13771507E-08
   36.6300011       2.13593747E-08
   36.6899986       2.12905853E-08
   36.7500000       2.11978790E-08
   36.8100014       2.11208757E-08
   36.8699989       2.10887467E-08
   36.9300003       2.10999982E-08
   36.9900017       2.11156284E-08
   37.0499992       2.10704165E-08
   37.1100006       2.08985238E-08
   37.1699982       2.05627213E-08
   37.2299995       2.00743120E-08
   37.2900009       1.94942000E-08
   37.3499985       1.89136848E-08
   37.4099998       1.84223445E-08
   37.4700012       1.80762765E-08
   37.5299988       1.78799713E-08
   37.5900002       1.77888797E-08
   37.6500015       1.77304038E-08
   37.7099991       1.76330186E-08
   37.7700005       1.74506845E-08
   37.8300018       1.71739689E-08
   37.8899994       1.68273537E-08
   37.9500008       1.64594560E-08
   38.0099983       1.61342921E-08
   38.0699997       1.59271742E-08
   38.1300011       1.59215112E-08
   38.1899986       1.61989178E-08
   38.2500000       1.68182268E-08
   38.3100014       1.77880342E-08
   38.3699989       1.90460412E-08
   38.4300003       2.04600230E-08
   38.4900017       2.18567564E-08
   38.5499992       2.30706565E-08
   38.6100006       2.39919942E-08
   38.6699982       2.45930813E-08
   38.7299995       2.49214374E-08
   38.7900009       2.50657131E-08
   38.8499985       2.51130547E-08
   38.9099998       2.51183625E-08
   38.9700012       2.50960959E-08
   39.0299988       2.50311061E-08
   39.0900002       2.48954297E-08
   39.1500015       2.46584442E-08
   39.2099991       2.42865532E-08
   39.2700005       2.37384334E-08
   39.3300018       2.29659012E-08
   39.3899994       2.19260983E-08
   39.4500008       2.06017248E-08
   39.5099983       1.90188505E-08
   39.5699997       1.72514252E-08
   39.6300011       1.54079771E-08
   39.6899986       1.36051037E-08
   39.7500000       1.19386883E-08
   39.8100014       1.04643076E-08
   39.8699989       9.19348508E-09
   39.9300003       8.10523471E-09
   39.9900017       7.16630755E-09
   40.0499992       6.35088382E-09
   40.1100006       5.65153480E-09
   40.1699982       5.07747000E-09
   40.2299995       4.64163508E-09
   40.2900009       4.34325020E-09
   40.3499985       4.15466817E-09
   40.4099998       4.01965483E-09
   40.4700012       3.86485599E-09
   40.5299988       3.61978758E-09
   40.5900002       3.23660299E-09
   40.6500015       2.70151634E-09
   40.7099991       2.03448880E-09
   40.7700005       1.27952127E-09
   40.8300018       4.90987084E-10
   40.8899994      -2.79523321E-10
   40.9500008      -9.94653138E-10
   41.0099983      -1.64191971E-09
   41.0699997      -2.24311680E-09
   41.1300011      -2.85845814E-09
   41.1899986      -3.57936347E-09
   41.2500000      -4.50668747E-09
   41.3100014      -5.71878855E-09
   41.3699989      -7.24182270E-09
   41.4300003      -9.03704134E-09
   41.4900017      -1.10136718E-08
   41.5499992      -1.30635751E-08
   41.6100006      -1.51023070E-08
   41.6699982      -1.70973919E-08
   41.7299995      -1.90710523E-08
   41.7900009      -2.10776960E-08
   41.8499985      -2.31687469E-08
   41.9099998      -2.53622154E-08
   41.9700012      -2.76302767E-08
   42.0299988      -2.99081435E-08
   42.0900002      -3.21178817E-08
   42.1500015      -3.41957858E-08
   42.2099991      -3.61127874E-08
   42.2700005      -3.78818434E-08
   42.3300018      -3.95515158E-08
   42.3899994      -4.11890575E-08
   42.4500008      -4.28585487E-08
   42.5099983      -4.46004655E-08
   42.5699997      -4.64183074E-08
   42.6300011      -4.82758118E-08
   42.6899986      -5.01050259E-08
   42.7500000      -5.18222407E-08
   42.8100014      -5.33471614E-08
   42.8699989      -5.46207986E-08
   42.9300003      -5.56189690E-08
   42.9900017      -5.63594682E-08
   43.0499992      -5.69009266E-08
   43.1100006      -5.73314587E-08
   43.1699982      -5.77468811E-08
   43.2299995      -5.82225823E-08
   43.2900009      -5.87883271E-08
   43.3499985      -5.94175056E-08
   43.4099998      -6.00386585E-08
   43.4700012      -6.05675581E-08
   43.5299988      -6.09473290E-08
   43.5900002      -6.11782767E-08
   43.6500015      -6.13228082E-08
   43.7099991      -6.14824458E-08
   43.7700005      -6.17574827E-08
   43.8300018      -6.22079526E-08
   43.8899994      -6.28322212E-08
   43.9500008      -6.35700204E-08
   44.0099983      -6.43247091E-08
   44.0699997      -6.49928893E-08
   44.1300011      -6.54897505E-08
   44.1899986      -6.57638211E-08
   44.2500000      -6.58009114E-08
   44.3100014      -6.56194175E-08
   44.3699989      -6.52594494E-08
   44.4300003      -6.47673843E-08
   44.4900017      -6.41788560E-08
   44.5499992      -6.35057944E-08
   44.6100006      -6.27340384E-08
   44.6699982      -6.18351521E-08
   44.7299995      -6.07889632E-08
   44.7900009      -5.96064922E-08
   44.8499985      -5.83403512E-08
   44.9099998      -5.70749492E-08
   44.9700012      -5.58988695E-08
   45.0299988      -5.48714887E-08
   45.0900002      -5.39992904E-08
   45.1500015      -5.32324229E-08
   45.2099991      -5.24818979E-08
   45.2700005      -5.16484100E-08
   45.3300018      -5.06500122E-08
   45.3899994      -4.94393007E-08
   45.4500008      -4.80074931E-08
   45.5099983      -4.63788972E-08
   45.5699997      -4.46007391E-08
   45.6300011      -4.27314006E-08
   45.6899986      -4.08271319E-08
   45.7500000      -3.89270269E-08
   45.8100014      -3.70385429E-08
   45.8699989      -3.51292258E-08
   45.9300003      -3.31309806E-08
   45.9900017      -3.09595052E-08
   46.0499992      -2.85445427E-08
   46.1100006      -2.58605013E-08
   46.1699982      -2.29452866E-08
   46.2299995      -1.98994066E-08
   46.2900009      -1.68653234E-08
   46.3499985      -1.39946543E-08
   46.4099998      -1.14144569E-08
   46.4700012      -9.20238108E-09
   46.5299988      -7.37566497E-09
   46.5900002      -5.89408078E-09
   46.6500015      -4.67398875E-09
   46.7099991      -3.61001806E-09
   46.7700005      -2.60093214E-09
   46.8300018      -1.57543600E-09
   46.8899994      -5.12056342E-10
   46.9500008       5.53628754E-10
   47.0099983       1.53897262E-09
   47.0699997       2.34044650E-09
   47.1300011       2.86790947E-09
   47.1899986       3.07407122E-09
   47.2500000       2.96699953E-09
   47.3100014       2.60044097E-09
   47.3699989       2.04670614E-09
   47.4300003       1.36490907E-09
   47.4900017       5.79137460E-10
   47.5499992      -3.24286265E-10
   47.6100006      -1.38091416E-09
   47.6699982      -2.62274513E-09
   47.7299995      -4.05566869E-09
   47.7900009      -5.64900970E-09
   47.8499985      -7.33942507E-09
   47.9099998      -9.04480579E-09
   47.9700012      -1.06811440E-08
   48.0299988      -1.21768808E-08
   48.0900002      -1.34829392E-08
   48.1500015      -1.45793013E-08
   48.2099991      -1.54788591E-08
   48.2700005      -1.62273643E-08
   48.3300018      -1.68966867E-08
   48.3899994      -1.75699242E-08
   48.4500008      -1.83206925E-08
   48.5099983      -1.91934344E-08
   48.5699997      -2.01932178E-08
   48.6300011      -2.12906137E-08
   48.6899986      -2.24407515E-08
   48.7500000      -2.36084770E-08
   48.8100014      -2.47879441E-08
   48.8699989      -2.60070845E-08
   48.9300003      -2.73143481E-08
   48.9900017      -2.87536537E-08
   49.0499992      -3.03391552E-08
   49.1100006      -3.20414522E-08
   49.1699982      -3.37912915E-08
   49.2299995      -3.54985836E-08
   49.2900009      -3.70777471E-08
   49.3499985      -3.84686736E-08
   49.4099998      -3.96460038E-08
   49.4700012      -4.06161966E-08
   49.5299988      -4.14076666E-08
   49.5900002      -4.20610746E-08
   49.6500015      -4.26239666E-08
   49.7099991      -4.31485319E-08
   49.7700005      -4.36876597E-08
   49.8300018      -4.42851231E-08
   49.8899994      -4.49608351E-08
   49.9500008      -4.56982292E-08
   50.0099983      -4.64430059E-08
   50.0699997      -4.71184833E-08
   50.1300011      -4.76538951E-08
   50.1899986      -4.80132520E-08
   50.2500000      -4.82099800E-08
   50.3100014      -4.82983644E-08
   50.3699989      -4.83449050E-08
   50.4300003      -4.83934990E-08
   50.4900017      -4.84420219E-08
   50.5499992      -4.84413540E-08
   50.6100006      -4.83156342E-08