 -0.750000000       0.00000000    
 -0.689999998       0.00000000    
 -0.629999995       0.00000000    
 -0.569999993       0.00000000    
 -0.509999990       0.00000000    
 -0.449999988       0.00000000    
 -0.389999986       0.00000000    
 -0.330000013      -3.74024653E-22
 -0.270000011      -3.65101003E-21
 -0.209999993      -1.64852540E-20
 -0.150000006      -4.11766018E-20
  -9.00000036E-02  -3.89334980E-20
  -2.99999993E-02   1.22642864E-19
   2.99999993E-02   6.33409263E-19
   9.00000036E-02   1.44090923E-18
  0.150000006       1.68876935E-18
  0.209999993      -5.36653688E-19
  0.270000011      -7.01224497E-18
  0.330000013      -1.61017042E-17
  0.389999986      -1.92162824E-17
  0.449999988      -2.14198378E-18
  0.509999990       4.34341091E-17
  0.569999993       1.00164948E-16
  0.629999995       1.12796413E-16
  0.689999998       8.40703444E-18
  0.750000000      -2.38045984E-16
  0.810000002      -5.20559450E-16
  0.870000005      -5.77222460E-16
  0.930000007      -1.07471322E-16
  0.990000010       9.60835953E-16
   1.04999995       2.19452366E-15
   1.11000001       2.63059634E-15
   1.16999996       1.22209247E-15
   1.23000002      -2.31088503E-15
   1.28999996      -6.70149174E-15
   1.35000002      -9.14542235E-15
   1.40999997      -6.57201344E-15
   1.47000003       2.13611503E-15
   1.52999997       1.42289135E-14
   1.59000003       2.31230305E-14
   1.64999998       2.12901325E-14
   1.71000004       5.13633495E-15
   1.76999998      -2.08381574E-14
   1.83000004      -4.38567538E-14
   1.88999999      -4.82820808E-14
   1.95000005      -2.48849115E-14
   2.00999999       2.10064781E-14
   2.06999993       6.82316278E-14
   2.13000011       8.82735522E-14
   2.19000006       6.08188968E-14
   2.25000000      -1.14548636E-14
   2.30999994      -9.81535342E-14
   2.36999989      -1.51805624E-13
   2.43000007      -1.31190292E-13
   2.49000001      -2.67382789E-14
   2.54999995       1.25941846E-13
   2.60999990       2.54532533E-13
   2.67000008       2.80624509E-13
   2.73000002       1.60836690E-13
   2.78999996      -8.11137859E-14
   2.84999990      -3.50368009E-13
   2.91000009      -5.13539298E-13
   2.97000003      -4.59546301E-13
   3.02999997      -1.63388847E-13
   3.08999991       2.80327546E-13
   3.15000010       6.79615977E-13
   3.21000004       8.24841606E-13
   3.26999998       5.96381234E-13
   3.32999992       4.73431210E-14
   3.39000010      -5.90735577E-13
   3.45000005      -9.99976794E-13
   3.50999999      -9.35264561E-13
   3.56999993      -3.73617451E-13
   3.63000011       4.34067333E-13
   3.69000006       1.05811789E-12
   3.75000000       1.10512391E-12
   3.80999994       4.50640610E-13
   3.86999989      -6.41681966E-13
   3.93000007      -1.60257777E-12
   3.99000001      -1.82732800E-12
   4.05000019      -1.00997303E-12
   4.11000013       6.36461966E-13
   4.17000008       2.41191897E-12
   4.23000002       3.42890408E-12
   4.28999996       3.04993574E-12
   4.34999990       1.24434577E-12
   4.40999985      -1.33208787E-12
   4.46999979      -3.60163570E-12
   4.53000021      -4.56509179E-12
   4.59000015      -3.79943603E-12
   4.65000010      -1.69850256E-12
   4.71000004       6.83927687E-13
   4.76999998       2.13829236E-12
   4.82999992       1.92380747E-12
   4.88999987       2.11074783E-13
   4.94999981      -1.89419444E-12
   5.01000023      -2.80221202E-12
   5.07000017      -1.20248538E-12
   5.13000011       3.18243934E-12
   5.19000006       9.20326489E-12
   5.25000000       1.44793266E-11
   5.30999994       1.61830861E-11
   5.36999989       1.21645628E-11
   5.42999983       1.99653120E-12
   5.48999977      -1.24947474E-11
   5.55000019      -2.74906313E-11
   5.61000013      -3.82257177E-11
   5.67000008      -4.05002872E-11
   5.73000002      -3.21282861E-11
   5.78999996      -1.37682825E-11
   5.84999990       1.12181332E-11
   5.90999985       3.78822876E-11
   5.96999979       6.14045897E-11
   6.03000021       7.87909460E-11
   6.09000015       8.99217645E-11
   6.15000010       9.75675374E-11
   6.21000004       1.06377934E-10
   6.26999998       1.21236313E-10
   6.32999992       1.45586460E-10
   6.38999987       1.80300122E-10
   6.44999981       2.23388863E-10
   6.51000023       2.70493405E-10
   6.57000017       3.15778154E-10
   6.63000011       3.52746971E-10
   6.69000006       3.74633990E-10
   6.75000000       3.74338338E-10
   6.80999994       3.44219681E-10
   6.86999989       2.76271589E-10
   6.92999983       1.63117755E-10
   6.98999977      -8.01039058E-14
   7.05000019      -2.13221024E-10
   7.11000013      -4.69220107E-10
   7.17000008      -7.53287765E-10
   7.23000002      -1.04418862E-09
   7.28999996      -1.31747091E-09
   7.34999990      -1.54989477E-09
   7.40999985      -1.72377035E-09
   7.46999979      -1.82989646E-09
   7.53000021      -1.86829840E-09
   7.59000015      -1.84679383E-09
   7.65000010      -1.77821757E-09
   7.71000004      -1.67755909E-09
   7.76999998      -1.56014290E-09
   7.82999992      -1.44139423E-09
   7.88999987      -1.33790801E-09
   7.94999981      -1.26884792E-09
   8.01000023      -1.25641741E-09
   8.06999969      -1.32439937E-09
   8.13000011      -1.49451451E-09
   8.18999958      -1.78132609E-09
   8.25000000      -2.18724505E-09
   8.31000042      -2.69946154E-09
   8.36999989      -3.29016059E-09
   8.43000031      -3.92025967E-09
   8.48999977      -4.54564075E-09
   8.55000019      -5.12395548E-09
   8.60999966      -5.62011726E-09
   8.67000008      -6.00942363E-09
   8.72999954      -6.27851104E-09
   8.78999996      -6.42522435E-09
   8.85000038      -6.45852927E-09
   8.90999985      -6.39878461E-09
   8.97000027      -6.27763042E-09
   9.02999973      -6.13614581E-09
   9.09000015      -6.02027894E-09
   9.14999962      -5.97371042E-09
   9.21000004      -6.02958883E-09
   9.27000046      -6.20336227E-09
   9.32999992      -6.48872911E-09
   9.39000034      -6.85786761E-09
   9.44999981      -7.26594118E-09
   9.51000023      -7.65899610E-09
   9.56999969      -7.98379851E-09
   9.63000011      -8.19785484E-09
   9.68999958      -8.27762481E-09
   9.75000000      -8.22300361E-09
   9.81000042      -8.05665579E-09
   9.86999989      -7.81812659E-09
   9.93000031      -7.55425944E-09
   9.98999977      -7.30890992E-09
   10.0500002      -7.11515069E-09
   10.1099997      -6.99208380E-09
   10.1700001      -6.94632840E-09
   10.2299995      -6.97632352E-09
   10.2900000      -7.07677117E-09
   10.3500004      -7.24111437E-09
   10.4099998      -7.46146966E-09
   10.4700003      -7.72693820E-09
   10.5299997      -8.02191380E-09
   10.5900002      -8.32576941E-09
   10.6499996      -8.61441762E-09
   10.7100000      -8.86345575E-09
   10.7700005      -9.05212882E-09
   10.8299999      -9.16723319E-09
   10.8900003      -9.20606347E-09
   10.9499998      -9.17754850E-09
   11.0100002      -9.10087561E-09
   11.0699997      -9.00150532E-09
   11.1300001      -8.90536622E-09
   11.1899996      -8.83292994E-09
   11.2500000      -8.79515838E-09
   11.3100004      -8.79265905E-09
   11.3699999      -8.81800055E-09
   11.4300003      -8.85980533E-09
   11.4899998      -8.90661322E-09
   11.5500002      -8.94903263E-09
   11.6099997      -8.97993857E-09
   11.6700001      -8.99365471E-09
   11.7299995      -8.98540353E-09
   11.7900000      -8.95172292E-09
   11.8500004      -8.89142715E-09
   11.9099998      -8.80591067E-09
   11.9700003      -8.69770744E-09
   12.0299997      -8.56717453E-09
   12.0900002      -8.40843306E-09
   12.1499996      -8.20642931E-09
   12.2100000      -7.93677213E-09
   12.2700005      -7.56890817E-09
   12.3299999      -7.07182801E-09
   12.3900003      -6.42053655E-09
   12.4499998      -5.60132474E-09
   12.5100002      -4.61444660E-09
   12.5699997      -3.47367024E-09
   12.6300001      -2.20301288E-09
   12.6899996      -8.31524627E-10
   12.7500000       6.12680517E-10
   12.8100004       2.10772710E-09
   12.8699999       3.64117891E-09
   12.9300003       5.20998666E-09
   12.9899998       6.81682399E-09
   13.0500002       8.46360226E-09
   13.1099997       1.01440776E-08
   13.1700001       1.18379919E-08
   13.2299995       1.35088234E-08
   13.2900000       1.51060586E-08
   13.3500004       1.65714820E-08
   13.4099998       1.78478405E-08
   13.4700003       1.88877465E-08
   13.5299997       1.96608170E-08
   13.5900002       2.01574757E-08
   13.6499996       2.03886454E-08
   13.7100000       2.03813819E-08
   13.7700005       2.01717896E-08
   13.8299999       1.97975130E-08
   13.8900003       1.92924574E-08
   13.9499998       1.86854976E-08
   14.0100002       1.80030231E-08
   14.0699997       1.72729440E-08
   14.1300001       1.65268901E-08
   14.1899996       1.57983031E-08
   14.2500000       1.51166528E-08
   14.3100004       1.45008325E-08
   14.3699999       1.39556198E-08
   14.4300003       1.34737705E-08
   14.4899998       1.30431506E-08
   14.5500002       1.26554562E-08
   14.6099997       1.23122526E-08
   14.6700001       1.20256471E-08
   14.7299995       1.18137802E-08
   14.7900000       1.16936860E-08
   14.8500004       1.16747154E-08
   14.9099998       1.17546737E-08
   14.9700003       1.19192842E-08
   15.0299997       1.21445503E-08
   15.0900002       1.24013448E-08
   15.1499996       1.26614870E-08
   15.2100000       1.29041053E-08
   15.2700005       1.31203626E-08
   15.3299999       1.33145033E-08
   15.3900003       1.35003368E-08
   15.4499998       1.36945699E-08
   15.5100002       1.39103067E-08
   15.5699997       1.41541632E-08
   15.6300001       1.44282595E-08
   15.6899996       1.47351482E-08
   15.7500000       1.50816462E-08
   15.8100004       1.54781858E-08
   15.8699999       1.59333116E-08
   15.9300003       1.64462861E-08
   15.9899998       1.70022130E-08
   16.0499992       1.75726278E-08
   16.1100006       1.81211863E-08
   16.1700001       1.86114821E-08
   16.2299995       1.90134486E-08
   16.2900009       1.93066256E-08
   16.3500004       1.94808045E-08
   16.4099998       1.95356140E-08
   16.4699993       1.94798240E-08
   16.5300007       1.93295424E-08
   16.5900002       1.91039327E-08
   16.6499996       1.88182820E-08
   16.7099991       1.84766016E-08
   16.7700005       1.80674729E-08
   16.8299999       1.75661228E-08
   16.8899994       1.69426997E-08
   16.9500008       1.61733524E-08
   17.0100002       1.52490554E-08
   17.0699997       1.41782959E-08
   17.1299992       1.29830902E-08
   17.1900005       1.16910455E-08
   17.2500000       1.03276578E-08
   17.3099995       8.91185703E-09
   17.3700008       7.45518580E-09
   17.4300003       5.96289018E-09
   17.4899998       4.43480008E-09
   17.5499992       2.86520274E-09
   17.6100006       1.24272770E-09
   17.6700001      -4.48024978E-10
   17.7299995      -2.22234586E-09
   17.7900009      -4.08993506E-09
   17.8500004      -6.05068395E-09
   17.9099998      -8.09404366E-09
   17.9699993      -1.02023137E-08
   18.0300007      -1.23558133E-08
   18.0900002      -1.45367753E-08
   18.1499996      -1.67298371E-08
   18.2099991      -1.89196001E-08
   18.2700005      -2.10879989E-08
   18.3299999      -2.32145823E-08
   18.3899994      -2.52807890E-08
   18.4500008      -2.72761760E-08
   18.5100002      -2.92027398E-08
   18.5699997      -3.10740838E-08
   18.6299992      -3.29092984E-08
   18.6900005      -3.47245894E-08
   18.7500000      -3.65271475E-08
   18.8099995      -3.83141341E-08
   18.8700008      -4.00765003E-08
   18.9300003      -4.18046326E-08
   18.9899998      -4.34923386E-08
   19.0499992      -4.51375399E-08
   19.1100006      -4.67403396E-08
   19.1700001      -4.83003646E-08
   19.2299995      -4.98145987E-08
   19.2900009      -5.12755420E-08
   19.3500004      -5.26692538E-08
   19.4099998      -5.39736895E-08
   19.4699993      -5.51593118E-08
   19.5300007      -5.61939224E-08
   19.5900002      -5.70514658E-08
   19.6499996      -5.77214081E-08
   19.7099991      -5.82132706E-08
   19.7700005      -5.85526010E-08
   19.8299999      -5.87692028E-08
   19.8899994      -5.88829394E-08
   19.9500008      -5.88943401E-08
   20.0100002      -5.87845683E-08
   20.0699997      -5.85241580E-08
   20.1299992      -5.80856501E-08
   20.1900005      -5.74542582E-08
   20.2500000      -5.66330804E-08
   20.3099995      -5.56429782E-08
   20.3700008      -5.45190630E-08
   20.4300003      -5.33055875E-08
   20.4899998      -5.20493941E-08
   20.5499992      -5.07918294E-08
   20.6100006      -4.95603452E-08
   20.6700001      -4.83627787E-08
   20.7299995      -4.71876938E-08
   20.7900009      -4.60114826E-08
   20.8500004      -4.48093793E-08
   20.9099998      -4.35648815E-08
   20.9699993      -4.22732285E-08
   21.0300007      -4.09380263E-08
   21.0900002      -3.95643376E-08
   21.1499996      -3.81528622E-08
   21.2099991      -3.66983350E-08
   21.2700005      -3.51921514E-08
   21.3299999      -3.36270638E-08
   21.3899994      -3.20020810E-08
   21.4500008      -3.03269374E-08
   21.5100002      -2.86262054E-08
   21.5699997      -2.69419917E-08
   21.6299992      -2.53324899E-08
   21.6900005      -2.38636169E-08
   21.7500000      -2.25938468E-08
   21.8099995      -2.15568168E-08
   21.8700008      -2.07492032E-08
   21.9300003      -2.01302779E-08
   21.9899998      -1.96342942E-08
   22.0499992      -1.91908480E-08
   22.1100006      -1.87448883E-08
   22.1700001      -1.82693789E-08
   22.2299995      -1.77679471E-08
   22.2900009      -1.72692118E-08
   22.3500004      -1.68163883E-08
   22.4099998      -1.64550276E-08
   22.4699993      -1.62205502E-08
   22.5300007      -1.61272329E-08
   22.5900002      -1.61614064E-08
   22.6499996      -1.62820708E-08
   22.7099991      -1.64301639E-08
   22.7700005      -1.65437939E-08
   22.8299999      -1.65733969E-08
   22.8899994      -1.64906915E-08
   22.9500008      -1.62888494E-08
   23.0100002      -1.59764042E-08
   23.0699997      -1.55701692E-08
   23.1299992      -1.50913788E-08
   23.1900005      -1.45653782E-08
   23.2500000      -1.40217358E-08
   23.3099995      -1.34915483E-08
   23.3700008      -1.30015430E-08
   23.4300003      -1.25679502E-08
   23.4899998      -1.21938886E-08
   23.5499992      -1.18716654E-08
   23.6100006      -1.15878320E-08
   23.6700001      -1.13271854E-08
   23.7299995      -1.10735137E-08
   23.7900009      -1.08082396E-08
   23.8500004      -1.05103721E-08
   23.9099998      -1.01602993E-08
   23.9699993      -9.74661063E-09
   24.0300007      -9.27210930E-09
   24.0900002      -8.75489992E-09
   24.1499996      -8.22322033E-09
   24.2099991      -7.70635911E-09
   24.2700005      -7.22598381E-09
   24.3299999      -6.79129464E-09
   24.3899994      -6.39886588E-09
   24.4500008      -6.03586070E-09
   24.5100002      -5.68479130E-09
   24.5699997      -5.32870725E-09
   24.6299992      -4.95620966E-09
   24.6900005      -4.56534099E-09
   24.7500000      -4.16475654E-09
   24.8099995      -3.77098441E-09
   24.8700008      -3.40234507E-09
   24.9300003      -3.07219628E-09
   24.9899998      -2.78470602E-09
   25.0499992      -2.53467114E-09
   25.1100006      -2.31016317E-09
   25.1700001      -2.09526485E-09
   25.2299995      -1.87124916E-09
   25.2900009      -1.61720382E-09
   25.3500004      -1.31276556E-09
   25.4099998      -9.44353484E-10
   25.4699993      -5.12711706E-10
   25.5300007      -3.67584158E-11
   25.5900002       4.50402493E-10
   25.6499996       9.12796172E-10
   25.7099991       1.32441724E-09
   25.7700005       1.67608949E-09
   25.8299999       1.97244798E-09
   25.8899994       2.22168040E-09
   25.9500008       2.42530884E-09
   26.0100002       2.57449861E-09
   26.0699997       2.65388600E-09
   26.1299992       2.64815880E-09
   26.1900005       2.54523758E-09
   26.2500000       2.33387576E-09
   26.3099995       1.99932382E-09
   26.3700008       1.52322710E-09
   26.4300003       8.90745089E-10
   26.4899998       1.01411546E-10
   26.5499992      -8.24064150E-10
   26.6100006      -1.84705740E-09
   26.6700001      -2.92337754E-09
   26.7299995      -4.01685440E-09
   26.7900009      -5.10505194E-09
   26.8500004      -6.17360030E-09
   26.9099998      -7.20398008E-09
   26.9699993      -8.16428258E-09
   27.0300007      -9.01006381E-09
   27.0900002      -9.69478098E-09
   27.1499996      -1.01825108E-08
   27.2099991      -1.04547224E-08
   27.2700005      -1.05082085E-08
   27.3299999      -1.03482405E-08
   27.3899994      -9.98396033E-09
   27.4500008      -9.42986045E-09
   27.5100002      -8.71086847E-09
   27.5699997      -7.86452858E-09
   27.6299992      -6.93552682E-09
   27.6900005      -5.96387917E-09
   27.7500000      -4.97354735E-09
   27.8099995      -3.96852551E-09
   27.8700008      -2.93833580E-09
   27.9300003      -1.86838389E-09
   27.9899998      -7.47888917E-10
   28.0499992       4.28946462E-10
   28.1100006       1.66685998E-09
   28.1700001       2.97275693E-09
   28.2299995       4.35346292E-09
   28.2900009       5.80831783E-09
   28.3500004       7.32179162E-09
   28.4099998       8.86192808E-09
   28.4699993       1.03864517E-08
   28.5300007       1.18530066E-08
   28.5900002       1.32275932E-08
   28.6499996       1.44873837E-08
   28.7099991       1.56186939E-08
   28.7700005       1.66140097E-08
   28.8299999       1.74711179E-08
   28.8899994       1.81938340E-08
   28.9500008       1.87910274E-08
   29.0100002       1.92714680E-08
   29.0699997       1.96360244E-08
   29.1299992       1.98724859E-08
   29.1900005       1.99579127E-08
   29.2500000       1.98687964E-08
   29.3099995       1.95932763E-08
   29.3700008       1.91371914E-08
   29.4300003       1.85192324E-08
   29.4899998       1.77576656E-08
   29.5499992       1.68570811E-08
   29.6100006       1.58038471E-08
   29.6700001       1.45729411E-08
   29.7299995       1.31409967E-08
   29.7900009       1.14962928E-08
   29.8500004       9.63895985E-09
   29.9099998       7.57225749E-09
   29.9699993       5.29250643E-09
   30.0300007       2.78652457E-09
   30.0900002       3.99733927E-11
   30.1499996      -2.94816038E-09
   30.2099991      -6.15487750E-09
   30.2700005      -9.53455359E-09
   30.3299999      -1.30332696E-08
   30.3899994      -1.66086735E-08
   30.4500008      -2.02442010E-08
   30.5100002      -2.39497098E-08
   30.5699997      -2.77484649E-08
   30.6299992      -3.16579545E-08
   30.6900005      -3.56748053E-08
   30.7500000      -3.97706685E-08
   30.8099995      -4.38994086E-08
   30.8700008      -4.80099622E-08
   30.9300003      -5.20575476E-08
   30.9899998      -5.60086200E-08
   31.0499992      -5.98397278E-08
   31.1100006      -6.35339603E-08
   31.1700001      -6.70790925E-08
   31.2299995      -7.04690208E-08
   31.2900009      -7.37067225E-08
   31.3500004      -7.68052502E-08
   31.4099998      -7.97836037E-08
   31.4699993      -8.26575643E-08
   31.5300007      -8.54285744E-08
   31.5900002      -8.80756090E-08
   31.6499996      -9.05542024E-08
   31.7099991      -9.28038588E-08
   31.7700005      -9.47613970E-08
   31.8299999      -9.63748761E-08
   31.8899994      -9.76128618E-08
   31.9500008      -9.84655415E-08
   32.0099983      -9.89386919E-08
   32.0699997      -9.90444846E-08
   32.1300011      -9.87946436E-08
   32.1899986      -9.81994361E-08
   32.2500000      -9.72723839E-08
   32.3100014      -9.60365867E-08
   32.3699989      -9.45275147E-08
   32.4300003      -9.27891222E-08
   32.4900017      -9.08640132E-08
   32.5499992      -8.87824214E-08
   32.6100006      -8.65556942E-08
   32.6699982      -8.41773158E-08
   32.7299995      -8.16305530E-08
   32.7900009      -7.88983598E-08
   32.8499985      -7.59707675E-08
   32.9099998      -7.28477758E-08
   32.9700012      -6.95394107E-08
   33.0299988      -6.60660007E-08
   33.0900002      -6.24608774E-08
   33.1500015      -5.87737077E-08
   33.2099991      -5.50706361E-08
   33.2700005      -5.14272038E-08
   33.3300018      -4.79145861E-08
   33.3899994      -4.45841053E-08
   33.4500008      -4.14576320E-08
   33.5099983      -3.85291514E-08
   33.5699997      -3.57768108E-08
   33.6300011      -3.31788286E-08
   33.6899986      -3.07244434E-08
   33.7500000      -2.84145205E-08
   33.8100014      -2.62534172E-08
   33.8699989      -2.42395952E-08
   33.9300003      -2.23633307E-08
   33.9900017      -2.06149036E-08
   34.0499992      -1.89989535E-08
   34.1100006      -1.75453110E-08
   34.1699982      -1.63075224E-08
   34.2299995      -1.53471582E-08
   34.2900009      -1.47107579E-08
   34.3499985      -1.44112882E-08
   34.4099998      -1.44240859E-08
   34.4700012      -1.46992640E-08
   34.5299988      -1.51835877E-08
   34.5900002      -1.58401772E-08
   34.6500015      -1.66567791E-08
   34.7099991      -1.76408630E-08
   34.7700005      -1.88074942E-08
   34.8300018      -2.01689225E-08
   34.8899994      -2.17317631E-08
   34.9500008      -2.35010589E-08
   35.0099983      -2.54853045E-08
   35.0699997      -2.76960535E-08
   35.1300011      -3.01402672E-08
   35.1899986      -3.28094210E-08
   35.2500000      -3.56725067E-08
   35.3100014      -3.86781522E-08
   35.3699989      -4.17655386E-08
   35.4300003      -4.48784547E-08
   35.4900017      -4.79753020E-08
   35.5499992      -5.10307636E-08
   35.6100006      -5.40304335E-08
   35.6699982      -5.69634935E-08
   35.7299995      -5.98188379E-08
   35.7900009      -6.25864587E-08
   35.8499985      -6.52616734E-08
   35.9099998      -6.78477008E-08
   35.9700012      -7.03533942E-08
   36.0299988      -7.27867189E-08
   36.0900002      -7.51477174E-08
   36.1500015      -7.74252769E-08
   36.2099991      -7.95995945E-08
   36.2700005      -8.16487358E-08
   36.3300018      -8.35549372E-08
   36.3899994      -8.53067093E-08
   36.4500008      -8.68952057E-08
   36.5099983      -8.83069688E-08
   36.5699997      -8.95172434E-08
   36.6300011      -9.04882640E-08
   36.6899986      -9.11748685E-08
   36.7500000      -9.15362293E-08
   36.8100014      -9.15498006E-08
   36.8699989      -9.12215725E-08
   36.9300003      -9.05877400E-08
   36.9900017      -8.97057504E-08
   37.0499992      -8.86368809E-08
   37.1100006      -8.74264785E-08
   37.1699982      -8.60895355E-08
   37.2299995      -8.46073789E-08
   37.2900009      -8.29368147E-08
   37.3499985      -8.10275367E-08
   37.4099998      -7.88407419E-08
   37.4700012      -7.63618289E-08
   37.5299988      -7.36040278E-08
   37.5900002      -7.06037184E-08
   37.6500015      -6.74112144E-08
   37.7099991      -6.40803819E-08
   37.7700005      -6.06589055E-08
   37.8300018      -5.71794239E-08
   37.8899994      -5.36526699E-08
   37.9500008      -5.00651076E-08
   38.0099983      -4.63847982E-08
   38.0699997      -4.25765769E-08
   38.1300011      -3.86229573E-08
   38.1899986      -3.45421185E-08
   38.2500000      -3.03933909E-08
   38.3100014      -2.62653241E-08
   38.3699989      -2.22498873E-08
   38.4300003      -1.84140188E-08
   38.4900017      -1.47815733E-08
   38.5499992      -1.13336558E-08
   38.6100006      -8.02578537E-09
   38.6699982      -4.81226747E-09
   38.7299995      -1.66583103E-09
   38.7900009       1.41504708E-09
   38.8499985       4.41100800E-09
   38.9099998       7.29267446E-09
   38.9700012       1.00301705E-08
   39.0299988       1.25974147E-08
   39.0900002       1.49721675E-08
   39.1500015       1.71355232E-08
   39.2099991       1.90736653E-08
   39.2700005       2.07815773E-08
   39.3300018       2.22657555E-08
   39.3899994       2.35428033E-08
   39.4500008       2.46330920E-08
   39.5099983       2.55516088E-08
   39.5699997       2.62999169E-08
   39.6300011       2.68627431E-08
   39.6899986       2.72107119E-08
   39.7500000       2.73083725E-08
   39.8100014       2.71247664E-08
   39.8699989       2.66429900E-08
   39.9300003       2.58653596E-08
   39.9900017       2.48122465E-08
   40.0499992       2.35148292E-08
   40.1100006       2.20045919E-08
   40.1699982       2.03040305E-08
   40.2299995       1.84225755E-08
   40.2900009       1.63592553E-08
   40.3499985       1.41103111E-08
   40.4099998       1.16778738E-08
   40.4700012       9.07615760E-09
   40.5299988       6.33397068E-09
   40.5900002       3.49458862E-09
   40.6500015       6.14436613E-10
   40.7099991      -2.23963514E-09
   40.7700005      -4.99648323E-09
   40.8300018      -7.59179031E-09
   40.8899994      -9.98251082E-09
   40.9500008      -1.21588819E-08
   41.0099983      -1.41468144E-08
   41.0699997      -1.59969549E-08
   41.1300011      -1.77636856E-08
   41.1899986      -1.94837764E-08
   41.2500000      -2.11655866E-08
   41.3100014      -2.27944170E-08
   41.3699989      -2.43505625E-08
   41.4300003      -2.58296335E-08
   41.4900017      -2.72537672E-08
   41.5499992      -2.86680280E-08
   41.6100006      -3.01245713E-08
   41.6699982      -3.16630242E-08
   41.7299995      -3.32960504E-08
   41.7900009      -3.50049980E-08
   41.8499985      -3.67455968E-08
   41.9099998      -3.84601364E-08
   41.9700012      -4.00922247E-08
   42.0299988      -4.16007424E-08
   42.0900002      -4.29700968E-08
   42.1500015      -4.42136603E-08
   42.2099991      -4.53679547E-08
   42.2700005      -4.64778438E-08
   42.3300018      -4.75773483E-08
   42.3899994      -4.86736482E-08
   42.4500008      -4.97416792E-08
   42.5099983      -5.07322468E-08
   42.5699997      -5.15903693E-08
   42.6300011      -5.22759152E-08
   42.6899986      -5.27782547E-08
   42.7500000      -5.31199404E-08
   42.8100014      -5.33495133E-08
   42.8699989      -5.35269891E-08
   42.9300003      -5.37068914E-08
   42.9900017      -5.39233369E-08
   43.0499992      -5.41806031E-08
   43.1100006      -5.44517818E-08
   43.1699982      -5.46863994E-08
   43.2299995      -5.48250654E-08
   43.2900009      -5.48160308E-08
   43.3499985      -5.46269945E-08
   43.4099998      -5.42474012E-08
   43.4700012      -5.36813580E-08
   43.5299988      -5.29364428E-08
   43.5900002      -5.20156966E-08
   43.6500015      -5.09173113E-08
   43.7099991      -4.96410593E-08
   43.7700005      -4.81961209E-08
   43.8300018      -4.66047290E-08
   43.8899994      -4.48999948E-08
   43.9500008      -4.31206608E-08
   44.0099983      -4.13073877E-08
   44.0699997      -3.95023250E-08
   44.1300011      -3.77494231E-08
   44.1899986      -3.60908317E-08
   44.2500000      -3.45570612E-08
   44.3100014      -3.31543859E-08
   44.3699989      -3.18572120E-08
   44.4300003      -3.06125898E-08
   44.4900017      -2.93579845E-08
   44.5499992      -2.80455801E-08
   44.6100006      -2.66622742E-08
   44.6699982      -2.52363641E-08
   44.7299995      -2.38287861E-08
   44.7900009      -2.25140706E-08
   44.8499985      -2.13594742E-08
   44.9099998      -2.04093347E-08
   44.9700012      -1.96772802E-08
   45.0299988      -1.91455314E-08
   45.0900002      -1.87695388E-08
   45.1500015      -1.84872757E-08
   45.2099991      -1.82330453E-08
   45.2700005      -1.79541857E-08
   45.3300018      -1.76264798E-08
   45.3899994      -1.72624244E-08
   45.4500008      -1.69079435E-08
   45.5099983      -1.66274781E-08
   45.5699997      -1.64823462E-08
   45.6300011      -1.65102012E-08
   45.6899986      -1.67126082E-08
   45.7500000      -1.70543206E-08
   45.8100014      -1.74734343E-08
   45.8699989      -1.78983797E-08
   45.9300003      -1.82664941E-08
   45.9900017      -1.85393407E-08
   46.0499992      -1.87113116E-08
   46.1100006      -1.88100149E-08
   46.1699982      -1.88889206E-08
   46.2299995      -1.90146210E-08
   46.2900009      -1.92520737E-08
   46.3499985      -1.96510594E-08
   46.4099998      -2.02360226E-08
   46.4700012      -2.10005577E-08
   46.5299988      -2.19073666E-08
   46.5900002      -2.28947634E-08
   46.6500015      -2.38901521E-08
   46.7099991      -2.48288377E-08
   46.7700005      -2.56732289E-08
   46.8300018      -2.64251270E-08
   46.8899994      -2.71247664E-08
   46.9500008      -2.78352292E-08
   47.0099983      -2.86179418E-08
   47.0699997      -2.95098808E-08
   47.1300011      -3.05127585E-08
   47.1899986      -3.15985034E-08
   47.2500000      -3.27269589E-08
   47.3100014      -3.38659767E-08
   47.3699989      -3.50040210E-08
   47.4300003      -3.61506167E-08
   47.4900017      -3.73267497E-08
   47.5499992      -3.85516650E-08
   47.6100006      -3.98323010E-08
   47.6699982      -4.11582413E-08
   47.7299995      -4.25017070E-08
   47.7900009      -4.38208154E-08
   47.8499985      -4.50652209E-08
   47.9099998      -4.61846987E-08
   47.9700012      -4.71406487E-08
   48.0299988      -4.79184656E-08
   48.0900002      -4.85362115E-08
   48.1500015      -4.90447007E-08
   48.2099991      -4.95165580E-08
   48.2700005      -5.00262693E-08
   48.3300018      -5.06274134E-08
   48.3899994      -5.13349256E-08
   48.4500008      -5.21188319E-08
   48.5099983      -5.29118296E-08
   48.5699997      -5.36283018E-08
   48.6300011      -5.41881953E-08
   48.6899986      -5.45374590E-08
   48.7500000      -5.46578391E-08
   48.8100014      -5.45631806E-08
   48.8699989      -5.42848930E-08
   48.9300003      -5.38541727E-08
   48.9900017      -5.32897424E-08
   49.0499992      -5.25965973E-08
   49.1100006      -5.17748902E-08
   49.1699982      -5.08322415E-08
   49.2299995      -4.97909340E-08
   49.2900009      -4.86849352E-08
   49.3499985      -4.75481485E-08
   49.4099998      -4.64007499E-08
   49.4700012      -4.52412579E-08
   49.5299988      -4.40483134E-08
   49.5900002      -4.27904396E-08
   49.6500015      -4.14385077E-08
   49.7099991      -3.99759159E-08
   49.7700005      -3.84042735E-08
   49.8300018      -3.67451776E-08
   49.8899994      -3.50389584E-08
   49.9500008      -3.33398766E-08
   50.0099983      -3.17063886E-08
   50.0699997      -3.01871026E-08
   50.1300011      -2.88064612E-08
   50.1899986      -2.75569576E-08
   50.2500000      -2.64028674E-08
   50.3100014      -2.52950318E-08
   50.3699989      -2.41898075E-08
   50.4300003      -2.30627570E-08
   50.4900017      -2.19110881E-08
   50.5499992      -2.07457944E-08
   50.6100006      -1.95804351E-08