 -0.750000000       0.00000000    
 -0.689999998       0.00000000    
 -0.629999995       0.00000000    
 -0.569999993       0.00000000    
 -0.509999990       0.00000000    
 -0.449999988       0.00000000    
 -0.389999986       0.00000000    
 -0.330000013      -3.94686612E-23
 -0.270000011      -7.73296844E-22
 -0.209999993      -5.93714903E-21
 -0.150000006      -2.62783923E-20
  -9.00000036E-02  -7.47497852E-20
  -2.99999993E-02  -1.29067473E-19
   2.99999993E-02  -4.89358338E-20
   9.00000036E-02   4.89245693E-19
  0.150000006       1.85548419E-18
  0.209999993       3.92181631E-18
  0.270000011       5.20743200E-18
  0.330000013       2.45963747E-18
  0.389999986      -8.08031299E-18
  0.449999988      -2.70545301E-17
  0.509999990      -4.75311314E-17
  0.569999993      -5.39614813E-17
  0.629999995      -2.90554833E-17
  0.689999998       3.20525936E-17
  0.750000000       1.10333910E-16
  0.810000002       1.69823528E-16
  0.870000005       1.89828289E-16
  0.930000007       2.02372940E-16
  0.990000010       2.86443620E-16
   1.04999995       4.75269181E-16
   1.11000001       5.99082528E-16
   1.16999996       1.95700385E-16
   1.23000002      -1.31154402E-15
   1.28999996      -4.06360499E-15
   1.35000002      -7.04395818E-15
   1.40999997      -7.76897179E-15
   1.47000003      -3.10695814E-15
   1.52999997       8.51773198E-15
   1.59000003       2.43626920E-14
   1.64999998       3.60405472E-14
   1.71000004       3.18631670E-14
   1.76999998       3.55423326E-15
   1.83000004      -4.51378301E-14
   1.88999999      -9.35267760E-14
   1.95000005      -1.08848403E-13
   2.00999999      -6.28620691E-14
   2.06999993       4.57504145E-14
   2.13000011       1.76630086E-13
   2.19000006       2.55140527E-13
   2.25000000       2.07175233E-13
   2.30999994       9.25796678E-15
   2.36999989      -2.74352345E-13
   2.43000007      -4.98501956E-13
   2.49000001      -5.00672962E-13
   2.54999995      -1.99833395E-13
   2.60999990       3.22628561E-13
   2.67000008       8.19734200E-13
   2.73000002       9.81615180E-13
   2.78999996       6.11261747E-13
   2.84999990      -2.17633230E-13
   2.91000009      -1.12737391E-12
   2.97000003      -1.58482537E-12
   3.02999997      -1.18908301E-12
   3.08999991       4.41096134E-14
   3.15000010       1.57883114E-12
   3.21000004       2.54681194E-12
   3.26999998       2.18534197E-12
   3.32999992       3.22336016E-13
   3.39000010      -2.36926277E-12
   3.45000005      -4.55033277E-12
   3.50999999      -4.81986629E-12
   3.56999993      -2.48943466E-12
   3.63000011       1.87468899E-12
   3.69000006       6.48907273E-12
   3.75000000       9.05761750E-12
   3.80999994       7.87871504E-12
   3.86999989       2.82895886E-12
   3.93000007      -4.31792883E-12
   3.99000001      -1.05042338E-11
   4.05000019      -1.27460785E-11
   4.11000013      -9.63276247E-12
   4.17000008      -2.21249191E-12
   4.23000002       6.26701902E-12
   4.28999996       1.17678254E-11
   4.34999990       1.14346614E-11
   4.40999985       5.18786576E-12
   4.46999979      -3.92150678E-12
   4.53000021      -1.09195994E-11
   4.59000015      -1.12508882E-11
   4.65000010      -3.20584271E-12
   4.71000004       1.07649922E-11
   4.76999998       2.46199623E-11
   4.82999992       3.10973157E-11
   4.88999987       2.49274820E-11
   4.94999981       5.45272594E-12
   5.01000023      -2.25846286E-11
   5.07000017      -5.05196475E-11
   5.13000011      -6.88988241E-11
   5.19000006      -7.08895165E-11
   5.25000000      -5.44755178E-11
   5.30999994      -2.25736999E-11
   5.36999989       1.87419247E-11
   5.42999983       6.27768323E-11
   5.48999977       1.04027585E-10
   5.55000019       1.38211831E-10
   5.61000013       1.60459701E-10
   5.67000008       1.62675873E-10
   5.73000002       1.31675129E-10
   5.78999996       4.95122207E-11
   5.84999990      -1.03455043E-10
   5.90999985      -3.43407164E-10
   5.96999979      -6.77395195E-10
   6.03000021      -1.09908038E-09
   6.09000015      -1.58739832E-09
   6.15000010      -2.10872586E-09
   6.21000004      -2.62202038E-09
   6.26999998      -3.08550252E-09
   6.32999992      -3.46304851E-09
   6.38999987      -3.72866538E-09
   6.44999981      -3.86814314E-09
   6.51000023      -3.87803256E-09
   6.57000017      -3.76308362E-09
   6.63000011      -3.53383878E-09
   6.69000006      -3.20588955E-09
   6.75000000      -2.80134049E-09
   6.80999994      -2.35162290E-09
   6.86999989      -1.89959004E-09
   6.92999983      -1.49847657E-09
   6.98999977      -1.20619181E-09
   7.05000019      -1.07533338E-09
   7.11000013      -1.14145104E-09
   7.17000008      -1.41343859E-09
   7.23000002      -1.86971882E-09
   7.28999996      -2.46201726E-09
   7.34999990      -3.12574366E-09
   7.40999985      -3.79353082E-09
   7.46999979      -4.40743353E-09
   7.53000021      -4.92615637E-09
   7.59000015      -5.32603472E-09
   7.65000010      -5.59722757E-09
   7.71000004      -5.73844083E-09
   7.76999998      -5.75362735E-09
   7.82999992      -5.65252201E-09
   7.88999987      -5.45436540E-09
   7.94999981      -5.19193133E-09
   8.01000023      -4.91220131E-09
   8.06999969      -4.67111594E-09
   8.13000011      -4.52243931E-09
   8.18999958      -4.50373205E-09
   8.25000000      -4.62440353E-09
   8.31000042      -4.86072160E-09
   8.36999989      -5.16041210E-09
   8.43000031      -5.45591217E-09
   8.48999977      -5.68199532E-09
   8.55000019      -5.79183546E-09
   8.60999966      -5.76635584E-09
   8.67000008      -5.61452840E-09
   8.72999954      -5.36581446E-09
   8.78999996      -5.05863307E-09
   8.85000038      -4.72952388E-09
   8.90999985      -4.40649739E-09
   8.97000027      -4.10773238E-09
   9.02999973      -3.84444476E-09
   9.09000015      -3.62533514E-09
   9.14999962      -3.45987705E-09
   9.21000004      -3.35857986E-09
   9.27000046      -3.32984418E-09
   9.32999992      -3.37458306E-09
   9.39000034      -3.48100593E-09
   9.44999981      -3.62243369E-09
   9.51000023      -3.76036180E-09
   9.56999969      -3.85317556E-09
   9.63000011      -3.86841226E-09
   9.68999958      -3.79429421E-09
   9.75000000      -3.64567176E-09
   9.81000042      -3.46105544E-09
   9.86999989      -3.29077943E-09
   9.93000031      -3.17997717E-09
   9.98999977      -3.15230397E-09
   10.0500002      -3.20006333E-09
   10.1099997      -3.28380634E-09
   10.1700001      -3.34089933E-09
   10.2299995      -3.29968697E-09
   10.2900000      -3.09474624E-09
   10.3500004      -2.67937206E-09
   10.4099998      -2.03303285E-09
   10.4700003      -1.16315668E-09
   10.5299997      -1.01783387E-10
   10.5900002       1.10164955E-09
   10.6499996       2.38958475E-09
   10.7100000       3.70556763E-09
   10.7700005       5.00144592E-09
   10.8299999       6.24134788E-09
   10.8900003       7.40243111E-09
   10.9499998       8.47340242E-09
   11.0100002       9.45203382E-09
   11.0699997       1.03423954E-08
   11.1300001       1.11517195E-08
   11.1899996       1.18866410E-08
   11.2500000       1.25490995E-08
   11.3100004       1.31332536E-08
   11.3699999       1.36251606E-08
   11.4300003       1.40062069E-08
   11.4899998       1.42595740E-08
   11.5500002       1.43772887E-08
   11.6099997       1.43649368E-08
   11.6700001       1.42421470E-08
   11.7299995       1.40389496E-08
   11.7900000       1.37898493E-08
   11.8500004       1.35279459E-08
   11.9099998       1.32807703E-08
   11.9700003       1.30683189E-08
   12.0299997       1.29028681E-08
   12.0900002       1.27899291E-08
   12.1499996       1.27297701E-08
   12.2100000       1.27188500E-08
   12.2700005       1.27503847E-08
   12.3299999       1.28134099E-08
   12.3900003       1.28906432E-08
   12.4499998       1.29567335E-08
   12.5100002       1.29793039E-08
   12.5699997       1.29244322E-08
   12.6300001       1.27658275E-08
   12.6899996       1.24942776E-08
   12.7500000       1.21226522E-08
   12.8100004       1.16832277E-08
   12.8699999       1.12176384E-08
   12.9300003       1.07635101E-08
   12.9899998       1.03433608E-08
   13.0500002       9.95984806E-09
   13.1099997       9.59792157E-09
   13.1700001       9.23120780E-09
   13.2299995       8.82897755E-09
   13.2900000       8.36147596E-09
   13.3500004       7.80376208E-09
   13.4099998       7.13946635E-09
   13.4700003       6.36513198E-09
   13.5299997       5.49378365E-09
   13.5900002       4.55501903E-09
   13.6499996       3.58955887E-09
   13.7100000       2.63888400E-09
   13.7700005       1.73362524E-09
   13.8299999       8.85817419E-10
   13.8900003       8.89089080E-11
   13.9499998      -6.73951783E-10
   14.0100002      -1.41661405E-09
   14.0699997      -2.13724549E-09
   14.1300001      -2.81181944E-09
   14.1899996      -3.39689765E-09
   14.2500000      -3.84106347E-09
   14.3100004      -4.10073397E-09
   14.3699999      -4.15397094E-09
   14.4300003      -4.00638500E-09
   14.4899998      -3.68637476E-09
   14.5500002      -3.23177263E-09
   14.6099997      -2.67431632E-09
   14.6700001      -2.02986361E-09
   14.7299995      -1.29966049E-09
   14.7900000      -4.82255735E-10
   14.8500004       4.10265544E-10
   14.9099998       1.34067424E-09
   14.9700003       2.24618102E-09
   15.0299997       3.04968140E-09
   15.0900002       3.67694275E-09
   15.1499996       4.07149381E-09
   15.2100000       4.20137436E-09
   15.2700005       4.05735179E-09
   15.3299999       3.64676622E-09
   15.3900003       2.98801739E-09
   15.4499998       2.10777440E-09
   15.5100002       1.03911557E-09
   15.5699997      -1.82604917E-10
   15.6300001      -1.52710822E-09
   15.6899996      -2.97661962E-09
   15.7500000      -4.52787852E-09
   15.8100004      -6.18508889E-09
   15.8699999      -7.94549049E-09
   15.9300003      -9.78457493E-09
   15.9899998      -1.16494636E-08
   16.0499992      -1.34652733E-08
   16.1100006      -1.51525992E-08
   16.1700001      -1.66485723E-08
   16.2299995      -1.79226642E-08
   16.2900009      -1.89816785E-08
   16.3500004      -1.98637853E-08
   16.4099998      -2.06256185E-08
   16.4699993      -2.13276845E-08
   16.5300007      -2.20220162E-08
   16.5900002      -2.27441372E-08
   16.6499996      -2.35102249E-08
   16.7099991      -2.43197498E-08
   16.7700005      -2.51629526E-08
   16.8299999      -2.60307225E-08
   16.8899994      -2.69229279E-08
   16.9500008      -2.78513799E-08
   17.0100002      -2.88360997E-08
   17.0699997      -2.98972331E-08
   17.1299992      -3.10473069E-08
   17.1900005      -3.22877618E-08
   17.2500000      -3.36102808E-08
   17.3099995      -3.50001486E-08
   17.3700008      -3.64380455E-08
   17.4300003      -3.78993725E-08
   17.4899998      -3.93535728E-08
   17.5499992      -4.07673220E-08
   17.6100006      -4.21126920E-08
   17.6700001      -4.33768292E-08
   17.7299995      -4.45665371E-08
   17.7900009      -4.57028868E-08
   17.8500004      -4.68068144E-08
   17.9099998      -4.78829207E-08
   17.9699993      -4.89105396E-08
   18.0300007      -4.98473227E-08
   18.0900002      -5.06431697E-08
   18.1499996      -5.12569400E-08
   18.2099991      -5.16678291E-08
   18.2700005      -5.18781000E-08
   18.3299999      -5.19092431E-08
   18.3899994      -5.17962313E-08
   18.4500008      -5.15823579E-08
   18.5100002      -5.13137053E-08
   18.5699997      -5.10306748E-08
   18.6299992      -5.07566966E-08
   18.6900005      -5.04886195E-08
   18.7500000      -5.01953572E-08
   18.8099995      -4.98282589E-08
   18.8700008      -4.93399703E-08
   18.9300003      -4.87027272E-08
   18.9899998      -4.79170623E-08
   19.0499992      -4.70074681E-08
   19.1100006      -4.60093865E-08
   19.1700001      -4.49561384E-08
   19.2299995      -4.38722196E-08
   19.2900009      -4.27733120E-08
   19.3500004      -4.16682475E-08
   19.4099998      -4.05580991E-08
   19.4699993      -3.94324040E-08
   19.5300007      -3.82673591E-08
   19.5900002      -3.70314943E-08
   19.6499996      -3.56994398E-08
   19.7099991      -3.42678348E-08
   19.7700005      -3.27641168E-08
   19.8299999      -3.12422337E-08
   19.8899994      -2.97667579E-08
   19.9500008      -2.83934121E-08
   20.0100002      -2.71552345E-08
   20.0699997      -2.60590234E-08
   20.1299992      -2.50903849E-08
   20.1900005      -2.42220537E-08
   20.2500000      -2.34213537E-08
   20.3099995      -2.26562786E-08
   20.3700008      -2.19021157E-08
   20.4300003      -2.11494680E-08
   20.4899998      -2.04111323E-08
   20.5499992      -1.97232737E-08
   20.6100006      -1.91378629E-08
   20.6700001      -1.87081817E-08
   20.7299995      -1.84733739E-08
   20.7900009      -1.84487501E-08
   20.8500004      -1.86249220E-08
   20.9099998      -1.89738856E-08
   20.9699993      -1.94570724E-08
   21.0300007      -2.00313046E-08
   21.0900002      -2.06518305E-08
   21.1499996      -2.12743423E-08
   21.2099991      -2.18582965E-08
   21.2700005      -2.23718786E-08
   21.3299999      -2.27970833E-08
   21.3899994      -2.31328965E-08
   21.4500008      -2.33957191E-08
   21.5100002      -2.36173445E-08
   21.5699997      -2.38408457E-08
   21.6299992      -2.41141791E-08
   21.6900005      -2.44813769E-08
   21.7500000      -2.49728895E-08
   21.8099995      -2.55986361E-08
   21.8700008      -2.63474629E-08
   21.9300003      -2.71938081E-08
   21.9899998      -2.81075678E-08
   22.0499992      -2.90603719E-08
   22.1100006      -3.00233545E-08
   22.1700001      -3.09576862E-08
   22.2299995      -3.18054916E-08
   22.2900009      -3.24902274E-08
   22.3500004      -3.29306005E-08
   22.4099998      -3.30631202E-08
   22.4699993      -3.28623351E-08
   22.5300007      -3.23483427E-08
   22.5900002      -3.15785478E-08
   22.6499996      -3.06294403E-08
   22.7099991      -2.95782971E-08
   22.7700005      -2.84918293E-08
   22.8299999      -2.74221268E-08
   22.8899994      -2.64049174E-08
   22.9500008      -2.54556980E-08
   23.0100002      -2.45642759E-08
   23.0699997      -2.36931186E-08
   23.1299992      -2.27850023E-08
   23.1900005      -2.17803162E-08
   23.2500000      -2.06377013E-08
   23.3099995      -1.93486933E-08
   23.3700008      -1.79399304E-08
   23.4300003      -1.64632059E-08
   23.4899998      -1.49793635E-08
   23.5499992      -1.35432821E-08
   23.6100006      -1.21942536E-08
   23.6700001      -1.09520597E-08
   23.7299995      -9.81720394E-09
   23.7900009      -8.77454553E-09
   23.8500004      -7.80071030E-09
   23.9099998      -6.87489843E-09
   23.9699993      -5.98990457E-09
   24.0300007      -5.15801801E-09
   24.0900002      -4.40771064E-09
   24.1499996      -3.77180642E-09
   24.2099991      -3.27309424E-09
   24.2700005      -2.91501956E-09
   24.3299999      -2.68163536E-09
   24.3899994      -2.54486987E-09
   24.4500008      -2.47310772E-09
   24.5100002      -2.43614817E-09
   24.5699997      -2.40662490E-09
   24.6299992      -2.36231612E-09
   24.6900005      -2.29325203E-09
   24.7500000      -2.21207985E-09
   24.8099995      -2.16025042E-09
   24.8700008      -2.20179075E-09
   24.9300003      -2.40267872E-09
   24.9899998      -2.80345325E-09
   25.0499992      -3.39877504E-09
   25.1100006      -4.13528856E-09
   25.1700001      -4.92929209E-09
   25.2299995      -5.69487035E-09
   25.2900009      -6.36848307E-09
   25.3500004      -6.92028657E-09
   25.4099998      -7.35200345E-09
   25.4699993      -7.68872788E-09
   25.5300007      -7.97255950E-09
   25.5900002      -8.25990920E-09
   25.6499996      -8.61753158E-09
   25.7099991      -9.11081255E-09
   25.7700005      -9.78332793E-09
   25.8299999      -1.06351195E-08
   25.8899994      -1.16117915E-08
   25.9500008      -1.26131692E-08
   26.0100002      -1.35205447E-08
   26.0699997      -1.42315244E-08
   26.1299992      -1.46877008E-08
   26.1900005      -1.48849280E-08
   26.2500000      -1.48654342E-08
   26.3099995      -1.46992365E-08
   26.3700008      -1.44645877E-08
   26.4300003      -1.42334953E-08
   26.4899998      -1.40625920E-08
   26.5499992      -1.39865142E-08
   26.6100006      -1.40121896E-08
   26.6700001      -1.41162699E-08
   26.7299995      -1.42501113E-08
   26.7900009      -1.43547148E-08
   26.8500004      -1.43823664E-08
   26.9099998      -1.43162016E-08
   26.9699993      -1.41777381E-08
   27.0300007      -1.40171377E-08
   27.0900002      -1.38894505E-08
   27.1499996      -1.38277061E-08
   27.2099991      -1.38258835E-08
   27.2700005      -1.38402187E-08
   27.3299999      -1.38082079E-08
   27.3899994      -1.36761171E-08
   27.4500008      -1.34221088E-08
   27.5100002      -1.30651276E-08
   27.5699997      -1.26572228E-08
   27.6299992      -1.22648407E-08
   27.6900005      -1.19483996E-08
   27.7500000      -1.17479333E-08
   27.8099995      -1.16773533E-08
   27.8700008      -1.17249970E-08
   27.9300003      -1.18566295E-08
   27.9899998      -1.20195045E-08
   28.0499992      -1.21496297E-08
   28.1100006      -1.21856409E-08
   28.1700001      -1.20893686E-08
   28.2299995      -1.18671624E-08
   28.2900009      -1.15813412E-08
   28.3500004      -1.13421850E-08
   28.4099998      -1.12785141E-08
   28.4699993      -1.14957626E-08
   28.5300007      -1.20382859E-08
   28.5900002      -1.28725270E-08
   28.6499996      -1.38990135E-08
   28.7099991      -1.49883483E-08
   28.7700005      -1.60262648E-08
   28.8299999      -1.69504304E-08
   28.8899994      -1.77673876E-08
   28.9500008      -1.85476381E-08
   29.0100002      -1.94047960E-08
   29.0699997      -2.04675974E-08
   29.1299992      -2.18517293E-08
   29.1900005      -2.36353266E-08
   29.2500000      -2.58406683E-08
   29.3099995      -2.84254771E-08
   29.3700008      -3.12881525E-08
   29.4300003      -3.42894673E-08
   29.4899998      -3.72879398E-08
   29.5499992      -4.01795148E-08
   29.6100006      -4.29283737E-08
   29.6700001      -4.55773304E-08
   29.7299995      -4.82332929E-08
   29.7900009      -5.10324831E-08
   29.8500004      -5.40970930E-08
   29.9099998      -5.74974770E-08
   29.9699993      -6.12309563E-08
   30.0300007      -6.52224941E-08
   30.0900002      -6.93455675E-08
   30.1499996      -7.34559649E-08
   30.2099991      -7.74281261E-08
   30.2700005      -8.11833658E-08
   30.3299999      -8.47021013E-08
   30.3899994      -8.80176998E-08
   30.4500008      -9.11956164E-08
   30.5100002      -9.43056548E-08
   30.5699997      -9.73963523E-08
   30.6299992      -1.00477685E-07
   30.6900005      -1.03514715E-07
   30.7500000      -1.06431770E-07
   30.8099995      -1.09126368E-07
   30.8700008      -1.11491708E-07
   30.9300003      -1.13445111E-07
   30.9899998      -1.14955391E-07
   31.0499992      -1.16058501E-07
   31.1100006      -1.16850863E-07
   31.1700001      -1.17457319E-07
   31.2299995      -1.17982943E-07
   31.2900009      -1.18468378E-07
   31.3500004      -1.18869700E-07
   31.4099998      -1.19073647E-07
   31.4699993      -1.18941514E-07
   31.5300007      -1.18361122E-07
   31.5900002      -1.17283683E-07
   31.6499996      -1.15732185E-07
   31.7099991      -1.13784438E-07
   31.7700005      -1.11544779E-07
   31.8299999      -1.09118950E-07
   31.8899994      -1.06598229E-07
   31.9500008      -1.04048823E-07
   32.0099983      -1.01500511E-07
   32.0699997      -9.89344571E-08
   32.1300011      -9.62788249E-08
   32.1899986      -9.34230329E-08
   32.2500000      -9.02535504E-08
   32.3100014      -8.67003536E-08
   32.3699989      -8.27729210E-08
   32.4300003      -7.85668490E-08
   32.4900017      -7.42359987E-08
   32.5499992      -6.99428000E-08
   32.6100006      -6.58099779E-08
   32.6699982      -6.18941201E-08
   32.7299995      -5.81881956E-08
   32.7900009      -5.46452341E-08
   32.8499985      -5.12080369E-08
   32.9099998      -4.78318540E-08
   32.9700012      -4.44955361E-08
   33.0299988      -4.12039469E-08
   33.0900002      -3.79864282E-08
   33.1500015      -3.48933433E-08
   33.2099991      -3.19895825E-08
   33.2700005      -2.93432407E-08
   33.3300018      -2.70109624E-08
   33.3899994      -2.50245034E-08
   33.4500008      -2.33841551E-08
   33.5099983      -2.20621352E-08
   33.5699997      -2.10150120E-08
   33.6300011      -2.02008472E-08
   33.6899986      -1.95954808E-08
   33.7500000      -1.92027763E-08
   33.8100014      -1.90551610E-08
   33.8699989      -1.92031422E-08
   33.9300003      -1.96961683E-08
   33.9900017      -2.05612700E-08
   34.0499992      -2.17886562E-08
   34.1100006      -2.33317898E-08
   34.1699982      -2.51230521E-08
   34.2299995      -2.70977090E-08
   34.2900009      -2.92137763E-08
   34.3499985      -3.14576383E-08
   34.4099998      -3.38343256E-08
   34.4700012      -3.63510892E-08
   34.5299988      -3.90068458E-08
   34.5900002      -4.17947774E-08
   34.6500015      -4.47145716E-08
   34.7099991      -4.77824464E-08
   34.7700005      -5.10276550E-08
   34.8300018      -5.44736842E-08
   34.8899994      -5.81141855E-08
   34.9500008      -6.18988452E-08
   35.0099983      -6.57393429E-08
   35.0699997      -6.95333711E-08
   35.1300011      -7.31941299E-08
   35.1899986      -7.66707657E-08
   35.2500000      -7.99525210E-08
   35.3100014      -8.30594118E-08
   35.3699989      -8.60282583E-08
   35.4300003      -8.89005136E-08
   35.4900017      -9.17121383E-08
   35.5499992      -9.44813223E-08
   35.6100006      -9.71924052E-08
   35.6699982      -9.97812606E-08
   35.7299995      -1.02133207E-07
   35.7900009      -1.04101545E-07
   35.8499985      -1.05545247E-07
   35.9099998      -1.06372106E-07
   35.9700012      -1.06568265E-07
   36.0299988      -1.06199955E-07
   36.0900002      -1.05386505E-07
   36.1500015      -1.04256635E-07
   36.2099991      -1.02906313E-07
   36.2700005      -1.01373125E-07
   36.3300018      -9.96328424E-08
   36.3899994      -9.76147163E-08
   36.4500008      -9.52273354E-08
   36.5099983      -9.23867631E-08
   36.5699997      -8.90408316E-08
   36.6300011      -8.51855262E-08
   36.6899986      -8.08700946E-08
   36.7500000      -7.61892949E-08
   36.8100014      -7.12636563E-08
   36.8699989      -6.62127562E-08
   36.9300003      -6.11291142E-08
   36.9900017      -5.60606210E-08
   37.0499992      -5.10065554E-08
   37.1100006      -4.59282923E-08
   37.1699982      -4.07716172E-08
   37.2299995      -3.54949350E-08
   37.2900009      -3.00957446E-08
   37.3499985      -2.46268002E-08
   37.4099998      -1.91947738E-08
   37.4700012      -1.39387399E-08
   37.5299988      -8.99329144E-09
   37.5900002      -4.44891413E-09
   37.6500015      -3.25559774E-10
   37.7099991       3.42875395E-09
   37.7700005       6.91327262E-09
   37.8300018       1.02346744E-08
   37.8899994       1.34694877E-08
   37.9500008       1.66434493E-08
   38.0099983       1.97325054E-08
   38.0699997       2.26794121E-08
   38.1300011       2.54146766E-08
   38.1899986       2.78731882E-08
   38.2500000       3.00045748E-08
   38.3100014       3.17805657E-08
   38.3699989       3.32022303E-08
   38.4300003       3.43053159E-08
   38.4900017       3.51576830E-08
   38.5499992       3.58439998E-08
   38.6100006       3.64392641E-08
   38.6699982       3.69806159E-08
   38.7299995       3.74501745E-08
   38.7900009       3.77774221E-08
   38.8499985       3.78605023E-08
   38.9099998       3.75968945E-08
   38.9700012       3.69109685E-08
   39.0299988       3.57694603E-08
   39.0900002       3.41829782E-08
   39.1500015       3.21973950E-08
   39.2099991       2.98803293E-08
   39.2700005       2.73061804E-08
   39.3300018       2.45409559E-08
   39.3899994       2.16281961E-08
   39.4500008       1.85791311E-08
   39.5099983       1.53714996E-08
   39.5699997       1.19598687E-08
   39.6300011       8.29569657E-09
   39.6899986       4.35056347E-09
   39.7500000       1.34004835E-10
   39.8100014      -4.30048486E-09
   39.8699989      -8.86265994E-09
   39.9300003      -1.34425768E-08
   39.9900017      -1.79318462E-08
   40.0499992      -2.22438672E-08
   40.1100006      -2.63292517E-08
   40.1699982      -3.01835321E-08
   40.2299995      -3.38443193E-08
   40.2900009      -3.73761964E-08
   40.3499985      -4.08447747E-08
   40.4099998      -4.42864092E-08
   40.4700012      -4.76842672E-08
   40.5299988      -5.09612512E-08
   40.5900002      -5.39950413E-08
   40.6500015      -5.66513094E-08
   40.7099991      -5.88233675E-08
   40.7700005      -6.04635204E-08
   40.8300018      -6.15954363E-08
   40.8899994      -6.23048422E-08
   40.9500008      -6.27140366E-08
   41.0099983      -6.29499155E-08
   41.0699997      -6.31151735E-08
   41.1300011      -6.32685868E-08
   41.1899986      -6.34173176E-08
   41.2500000      -6.35215756E-08
   41.3100014      -6.35107540E-08
   41.3699989      -6.33083985E-08
   41.4300003      -6.28601597E-08
   41.4900017      -6.21565590E-08
   41.5499992      -6.12419839E-08
   41.6100006      -6.02052808E-08
   41.6699982      -5.91540044E-08
   41.7299995      -5.81815236E-08
   41.7900009      -5.73391894E-08
   41.8499985      -5.66238683E-08
   41.9099998      -5.59845574E-08
   41.9700012      -5.53444295E-08
   42.0299988      -5.46293428E-08
   42.0900002      -5.37929488E-08
   42.1500015      -5.28310515E-08
   42.2099991      -5.17823544E-08
   42.2700005      -5.07167464E-08
   42.3300018      -4.97152861E-08
   42.3899994      -4.88473475E-08
   42.4500008      -4.81507421E-08
   42.5099983      -4.76198387E-08
   42.5699997      -4.72049351E-08
   42.6300011      -4.68233274E-08
   42.6899986      -4.63793910E-08
   42.7500000      -4.57886635E-08
   42.8100014      -4.49994779E-08
   42.8699989      -4.40062387E-08
   42.9300003      -4.28505089E-08
   42.9900017      -4.16090984E-08
   43.0499992      -4.03723455E-08
   43.1100006      -3.92190280E-08
   43.1699982      -3.81959495E-08
   43.2299995      -3.73088866E-08
   43.2900009      -3.65273785E-08
   43.3499985      -3.58000598E-08
   43.4099998      -3.50732421E-08
   43.4700012      -3.43051454E-08
   43.5299988      -3.34719985E-08
   43.5900002      -3.25677298E-08
   43.6500015      -3.16021804E-08
   43.7099991      -3.06018286E-08
   43.7700005      -2.96120373E-08
   43.8300018      -2.86956556E-08
   43.8899994      -2.79224501E-08
   43.9500008      -2.73491541E-08
   44.0099983      -2.69974976E-08
   44.0699997      -2.68417679E-08
   44.1300011      -2.68148899E-08
   44.1899986      -2.68327405E-08
   44.2500000      -2.68265037E-08
   44.3100014      -2.67680793E-08
   44.3699989      -2.66774904E-08
   44.4300003      -2.66111613E-08
   44.4900017      -2.66395599E-08
   44.5499992      -2.68261271E-08
   44.6100006      -2.72151919E-08
   44.6699982      -2.78285945E-08
   44.7299995      -2.86652391E-08
   44.7900009      -2.96985885E-08
   44.8499985      -3.08729966E-08
   44.9099998      -3.21055893E-08
   44.9700012      -3.33006476E-08
   45.0299988      -3.43766935E-08
   45.0900002      -3.52968712E-08
   45.1500015      -3.60871439E-08
   45.2099991      -3.68295758E-08
   45.2700005      -3.76290821E-08
   45.3300018      -3.85656698E-08
   45.3899994      -3.96529707E-08
   45.4500008      -4.08221830E-08
   45.5099983      -4.19390602E-08
   45.5699997      -4.28463913E-08
   45.6300011      -4.34133582E-08
   45.6899986      -4.35716636E-08
   45.7500000      -4.33265797E-08
   45.8100014      -4.27434088E-08
   45.8699989      -4.19201527E-08
   45.9300003      -4.09595167E-08
   45.9900017      -3.99487767E-08
   46.0499992      -3.89485244E-08
   46.1100006      -3.79864460E-08
   46.1699982      -3.70533080E-08
   46.2299995      -3.61032306E-08
   46.2900009      -3.50640867E-08
   46.3499985      -3.38621540E-08
   46.4099998      -3.24571126E-08
   46.4700012      -3.08741193E-08
   46.5299988      -2.92160092E-08
   46.5900002      -2.76444965E-08
   46.6500015      -2.63337760E-08
   46.7099991      -2.54147832E-08
   46.7700005      -2.49349554E-08
   46.8300018      -2.48517651E-08
   46.8899994      -2.50617251E-08
   46.9500008      -2.54490047E-08
   47.0099983      -2.59295110E-08
   47.0699997      -2.64713833E-08
   47.1300011      -2.70878804E-08
   47.1899986      -2.78138383E-08
   47.2500000      -2.86833082E-08
   47.3100014      -2.97204501E-08
   47.3699989      -3.09433901E-08
   47.4300003      -3.23703446E-08
   47.4900017      -3.40163098E-08
   47.5499992      -3.58773775E-08
   47.6100006      -3.79118923E-08
   47.6699982      -4.00339033E-08
   47.7299995      -4.21298232E-08
   47.7900009      -4.40954722E-08
   47.8499985      -4.58766216E-08
   47.9099998      -4.74909037E-08
   47.9700012      -4.90170216E-08
   48.0299988      -5.05541564E-08
   48.0900002      -5.21710568E-08
   48.1500015      -5.38700320E-08
   48.2099991      -5.55831114E-08
   48.2700005      -5.72001717E-08
   48.3300018      -5.86127058E-08
   48.3899994      -5.97507608E-08
   48.4500008      -6.05974577E-08
   48.5099983      -6.11799749E-08
   48.5699997      -6.15483913E-08
   48.6300011      -6.17574045E-08
   48.6899986      -6.18588558E-08
   48.7500000      -6.19026110E-08
   48.8100014      -6.19359071E-08
   48.8699989      -6.19932763E-08
   48.9300003      -6.20779161E-08
   48.9900017      -6.21449843E-08
   49.0499992      -6.21000211E-08
   49.1100006      -6.18194278E-08
   49.1699982      -6.11880679E-08
   49.2299995      -6.01388948E-08
   49.2900009      -5.86769353E-08
   49.3499985      -5.68774929E-08
   49.4099998      -5.48600987E-08
   49.4700012      -5.27507709E-08
   49.5299988      -5.06481328E-08
   49.5900002      -4.86046297E-08
   49.6500015      -4.66251606E-08
   49.7099991      -4.46778543E-08
   49.7700005      -4.27094129E-08
   49.8300018      -4.06599163E-08
   49.8899994      -3.84768626E-08
   49.9500008      -3.61301566E-08
   50.0099983      -3.36280159E-08
   50.0699997      -3.10288080E-08
   50.1300011      -2.84404731E-08
   50.1899986      -2.60011674E-08
   50.2500000      -2.38424249E-08
   50.3100014      -2.20465690E-08
   50.3699989      -2.06162802E-08
   50.4300003      -1.94721039E-08
   50.4900017      -1.84823357E-08
   50.5499992      -1.75147115E-08
   50.6100006      -1.64885261E-08