  -2.400000      0.0000000E+00
  -2.340000      0.0000000E+00
  -2.280000      0.0000000E+00
  -2.220000      0.0000000E+00
  -2.160000      0.0000000E+00
  -2.100000      0.0000000E+00
  -2.040000      0.0000000E+00
  -1.980000     -3.5679570E-22
  -1.920000     -3.3997180E-21
  -1.860000     -1.4747335E-20
  -1.800000     -3.3750811E-20
  -1.740000     -1.8046612E-20
  -1.680000      1.5753701E-19
  -1.620000      6.3645075E-19
  -1.560000      1.2526606E-18
  -1.500000      1.0121163E-18
  -1.440000     -1.9401639E-18
  -1.380000     -8.7180610E-18
  -1.320000     -1.6129823E-17
  -1.260000     -1.3677731E-17
  -1.200000      1.3068430E-17
  -1.140000      6.7791091E-17
  -1.080000      1.2190973E-16
  -1.020000      1.0611416E-16
 -0.9600000     -5.7496775E-17
 -0.9000000     -3.7380938E-16
 -0.8400000     -6.8440140E-16
 -0.7800000     -6.6138704E-16
 -0.7200000      2.4917906E-17
 -0.6600000      1.3785240E-15
 -0.6000000      2.7815624E-15
 -0.5400000      3.0447688E-15
 -0.4800000      1.0266681E-15
 -0.4200000     -3.3307995E-15
 -0.3600000     -8.1892890E-15
 -0.3000000     -1.0080867E-14
 -0.2400000     -5.7000892E-15
 -0.1800000      5.3715501E-15
 -0.1200000      1.8708220E-14
 -5.9999999E-02  2.5819736E-14
  0.0000000E+00  1.8440092E-14
  5.9999999E-02 -5.2814507E-15
  0.1200000     -3.6471761E-14
  0.1800000     -5.7090380E-14
  0.2400000     -4.8622927E-14
  0.3000000     -4.5234079E-15
  0.3600000      6.0842715E-14
  0.4200000      1.1402581E-13
  0.4800000      1.1737096E-13
  0.5400000      5.1262014E-14
  0.6000000     -6.8295799E-14
  0.6600000     -1.8892032E-13
  0.7200000     -2.4258641E-13
  0.7800000     -1.8057180E-13
  0.8400000     -5.4830840E-15
  0.9000000      2.1833491E-13
  0.9600000      3.8590390E-13
   1.020000      3.9859045E-13
   1.080000      2.1669409E-13
   1.140000     -1.0860965E-13
   1.200000     -4.4374256E-13
   1.260000     -6.2434443E-13
   1.320000     -5.3202055E-13
   1.380000     -1.6275348E-13
   1.440000      3.4877608E-13
   1.500000      7.7029382E-13
   1.560000      8.7163133E-13
   1.620000      5.4450731E-13
   1.680000     -1.1610038E-13
   1.740000     -8.2150850E-13
   1.800000     -1.2057534E-12
   1.860000     -1.0092096E-12
   1.920000     -2.4189580E-13
   1.980000      7.7040376E-13
   2.040000      1.5088012E-12
   2.100000      1.5176414E-12
   2.160000      6.7375397E-13
   2.220000     -6.8437281E-13
   2.280000     -1.8681708E-12
   2.340000     -2.1697772E-12
   2.400000     -1.2589669E-12
   2.460000      5.7022952E-13
   2.520000      2.4661406E-12
   2.580000      3.4060534E-12
   2.640000      2.7286543E-12
   2.700000      5.3490898E-13
   2.760000     -2.2772793E-12
   2.820000     -4.4004626E-12
   2.880000     -4.7571834E-12
   2.940000     -3.0717527E-12
   3.000000     -6.7910907E-14
   3.060000      2.8356872E-12
   3.120000      4.2058258E-12
   3.180000      3.3260942E-12
   3.240000      6.1552483E-13
   3.300000     -2.4879124E-12
   3.360000     -4.1506976E-12
   3.420000     -3.0081289E-12
   3.480000      1.1110219E-12
   3.540000      6.9263562E-12
   3.600000      1.2050760E-11
   3.660000      1.3834294E-11
   3.720000      1.0407654E-11
   3.780000      1.5427575E-12
   3.840000     -1.1000519E-11
   3.900000     -2.3807480E-11
   3.960000     -3.2759351E-11
   4.020000     -3.4316733E-11
   4.080000     -2.6706368E-11
   4.140000     -1.0575672E-11
   4.200000      1.1165065E-11
   4.260000      3.4312796E-11
   4.320000      5.4843869E-11
   4.380000      7.0363805E-11
   4.440000      8.0992192E-11
   4.500000      8.9342506E-11
   4.560000      9.9601591E-11
   4.620000      1.1605751E-10
   4.680000      1.4161743E-10
   4.740000      1.7681881E-10
   4.800000      2.1959345E-10
   4.860000      2.6571201E-10
   4.920000      3.0957178E-10
   4.980000      3.4490830E-10
   5.040000      3.6514067E-10
   5.100000      3.6334072E-10
   5.160000      3.3210565E-10
   5.220000      2.6377781E-10
   5.280000      1.5138832E-10
   5.340000     -9.5938596E-12
   5.400000     -2.1905092E-10
   5.460000     -4.7026411E-10
   5.520000     -7.4908280E-10
   5.580000     -1.0348706E-09
   5.640000     -1.3033552E-09
   5.700000     -1.5308368E-09
   5.760000     -1.6986584E-09
   5.820000     -1.7966569E-09
   5.880000     -1.8246037E-09
   5.940000     -1.7913299E-09
   6.000000     -1.7120415E-09
   6.060000     -1.6049529E-09
   6.120000     -1.4885262E-09
   6.180000     -1.3802263E-09
   6.240000     -1.2969189E-09
   6.300000     -1.2561815E-09
   6.360000     -1.2772439E-09
   6.420000     -1.3803187E-09
   6.480000     -1.5837496E-09
   6.540000     -1.8994655E-09
   6.600000     -2.3282125E-09
   6.660000     -2.8564360E-09
   6.720000     -3.4562939E-09
   6.780000     -4.0891579E-09
   6.840000     -4.7116551E-09
   6.900000     -5.2823896E-09
   6.960000     -5.7674221E-09
   7.020000     -6.1433925E-09
   7.080000     -6.3983325E-09
   7.140000     -6.5311898E-09
   7.200000     -6.5512440E-09
   7.260000     -6.4780399E-09
   7.320000     -6.3414132E-09
   7.380000     -6.1804530E-09
   7.440000     -6.0401812E-09
   7.500000     -5.9654828E-09
   7.560000     -5.9930367E-09
   7.620000     -6.1431265E-09
   7.680000     -6.4136949E-09
   7.740000     -6.7787176E-09
   7.800000     -7.1919093E-09
   7.860000     -7.5953484E-09
   7.920000     -7.9311997E-09
   7.980000     -8.1537399E-09
   8.040000     -8.2386338E-09
   8.100000     -8.1870279E-09
   8.160000     -8.0234672E-09
   8.220000     -7.7884383E-09
   8.280000     -7.5280360E-09
   8.340000     -7.2840436E-09
   8.400000     -7.0873218E-09
   8.460000     -6.9559287E-09
   8.520000     -6.8973729E-09
   8.580000     -6.9128796E-09
   8.640000     -7.0010673E-09
   8.700000     -7.1592425E-09
   8.760000     -7.3820896E-09
   8.820000     -7.6590494E-09
   8.880000     -7.9723659E-09
   8.940000     -8.2973788E-09
   9.000000     -8.6054950E-09
   9.060000     -8.8690255E-09
   9.120000     -9.0663406E-09
   9.180000     -9.1858272E-09
   9.240000     -9.2276684E-09
   9.300000     -9.2031991E-09
   9.360000     -9.1321457E-09
   9.420000     -9.0384038E-09
   9.480000     -8.9452517E-09
   9.540000     -8.8710328E-09
   9.600000     -8.8263477E-09
   9.660000     -8.8134691E-09
   9.720000     -8.8279517E-09
   9.780000     -8.8615764E-09
   9.840000     -8.9052605E-09
   9.900000     -8.9507317E-09
   9.960000     -8.9906624E-09
   10.02000     -9.0179562E-09
   10.08000     -9.0254026E-09
   10.14000     -9.0065173E-09
   10.20000     -8.9572385E-09
   10.26000     -8.8771763E-09
   10.32000     -8.7688532E-09
   10.38000     -8.6343617E-09
   10.44000     -8.4704279E-09
   10.50000     -8.2641449E-09
   10.56000     -7.9917060E-09
   10.62000     -7.6213107E-09
   10.68000     -7.1195427E-09
   10.74000     -6.4590453E-09
   10.80000     -5.6249081E-09
   10.86000     -4.6178612E-09
   10.92000     -3.4536463E-09
   10.98000     -2.1590658E-09
   11.04000     -7.6592027E-10
   11.10000      6.9571127E-10
   11.16000      2.2032638E-09
   11.22000      3.7450061E-09
   11.28000      5.3196541E-09
   11.34000      6.9319426E-09
   11.40000      8.5851486E-09
   11.46000      1.0272870E-08
   11.52000      1.1972888E-08
   11.58000      1.3645344E-08
   11.64000      1.5235974E-08
   11.70000      1.6683432E-08
   11.76000      1.7928654E-08
   11.82000      1.8923991E-08
   11.88000      1.9640170E-08
   11.94000      2.0069828E-08
   12.00000      2.0226905E-08
   12.06000      2.0142032E-08
   12.12000      1.9855063E-08
   12.18000      1.9407073E-08
   12.24000      1.8834701E-08
   12.30000      1.8168803E-08
   12.36000      1.7437291E-08
   12.42000      1.6669476E-08
   12.48000      1.5898253E-08
   12.54000      1.5157562E-08
   12.60000      1.4475805E-08
   12.66000      1.3868881E-08
   12.72000      1.3337527E-08
   12.78000      1.2871362E-08
   12.84000      1.2458165E-08
   12.90000      1.2093459E-08
   12.96000      1.1785212E-08
   13.02000      1.1551245E-08
   13.08000      1.1411173E-08
   13.14000      1.1377542E-08
   13.20000      1.1450608E-08
   13.26000      1.1618362E-08
   13.32000      1.1860304E-08
   13.38000      1.2152009E-08
   13.44000      1.2468585E-08
   13.50000      1.2787090E-08
   13.56000      1.3089111E-08
   13.62000      1.3364026E-08
   13.68000      1.3611649E-08
   13.74000      1.3842111E-08
   13.80000      1.4071873E-08
   13.86000      1.4317333E-08
   13.92000      1.4589517E-08
   13.98000      1.4892994E-08
   14.04000      1.5229370E-08
   14.10000      1.5602351E-08
   14.16000      1.6019973E-08
   14.22000      1.6491358E-08
   14.28000      1.7019183E-08
   14.34000      1.7592310E-08
   14.40000      1.8183300E-08
   14.46000      1.8752827E-08
   14.52000      1.9258932E-08
   14.58000      1.9666670E-08
   14.64000      1.9954093E-08
   14.70000      2.0113232E-08
   14.76000      2.0147494E-08
   14.82000      2.0067882E-08
   14.88000      1.9889383E-08
   14.94000      1.9627405E-08
   15.00000      1.9293470E-08
   15.06000      1.8890541E-08
   15.12000      1.8409960E-08
   15.18000      1.7832463E-08
   15.24000      1.7134129E-08
   15.30000      1.6295404E-08
   15.36000      1.5309150E-08
   15.42000      1.4183867E-08
   15.48000      1.2940796E-08
   15.54000      1.1606764E-08
   15.60000      1.0206649E-08
   15.66000      8.7587262E-09
   15.72000      7.2737931E-09
   15.78000      5.7565828E-09
   15.84000      4.2071675E-09
   15.90000      2.6211391E-09
   15.96000      9.8923947E-10
   16.02000     -7.0185080E-10
   16.08000     -2.4664564E-09
   16.14000     -4.3152455E-09
   16.20000     -6.2511032E-09
   16.26000     -8.2676834E-09
   16.32000     -1.0351238E-08
   16.38000     -1.2484313E-08
   16.44000     -1.4648880E-08
   16.50000     -1.6827226E-08
   16.56000     -1.9000840E-08
   16.62000     -2.1149367E-08
   16.68000     -2.3251822E-08
   16.74000     -2.5290799E-08
   16.80000     -2.7258006E-08
   16.86000     -2.9157990E-08
   16.92000     -3.1007239E-08
   16.98000     -3.2828183E-08
   17.04000     -3.4640379E-08
   17.10000     -3.6452906E-08
   17.16000     -3.8261454E-08
   17.22000     -4.0051383E-08
   17.28000     -4.1804913E-08
   17.34000     -4.3508891E-08
   17.40000     -4.5159357E-08
   17.46000     -4.6761084E-08
   17.52000     -4.8322505E-08
   17.58000     -4.9848460E-08
   17.64000     -5.1333810E-08
   17.70000     -5.2760438E-08
   17.76000     -5.4098773E-08
   17.82000     -5.5313475E-08
   17.88000     -5.6371633E-08
   17.94000     -5.7250940E-08
   18.00000     -5.7945112E-08
   18.06000     -5.8464490E-08
   18.12000     -5.8831098E-08
   18.18000     -5.9069631E-08
   18.24000     -5.9197415E-08
   18.30000     -5.9217157E-08
   18.36000     -5.9115319E-08
   18.42000     -5.8866892E-08
   18.48000     -5.8444900E-08
   18.54000     -5.7831212E-08
   18.60000     -5.7025019E-08
   18.66000     -5.6046296E-08
   18.72000     -5.4933349E-08
   18.78000     -5.3735313E-08
   18.84000     -5.2501850E-08
   18.90000     -5.1272831E-08
   18.96000     -5.0070994E-08
   19.02000     -4.8899533E-08
   19.08000     -4.7745214E-08
   19.14000     -4.6585708E-08
   19.20000     -4.5398348E-08
   19.26000     -4.4167031E-08
   19.32000     -4.2885045E-08
   19.38000     -4.1553420E-08
   19.44000     -4.0176374E-08
   19.50000     -3.8756365E-08
   19.56000     -3.7291102E-08
   19.62000     -3.5773702E-08
   19.68000     -3.4196049E-08
   19.74000     -3.2554475E-08
   19.80000     -3.0856480E-08
   19.86000     -2.9126527E-08
   19.92000     -2.7408515E-08
   19.98000     -2.5762507E-08
   20.04000     -2.4254714E-08
   20.10000     -2.2942226E-08
   20.16000     -2.1857057E-08
   20.22000     -2.0995595E-08
   20.28000     -2.0318328E-08
   20.34000     -1.9761007E-08
   20.40000     -1.9253605E-08
   20.46000     -1.8740323E-08
   20.52000     -1.8193738E-08
   20.58000     -1.7619071E-08
   20.64000     -1.7048567E-08
   20.70000     -1.6529178E-08
   20.76000     -1.6107833E-08
   20.82000     -1.5818156E-08
   20.88000     -1.5671182E-08
   20.94000     -1.5651681E-08
   21.00000     -1.5720794E-08
   21.06000     -1.5824455E-08
   21.12000     -1.5905430E-08
   21.18000     -1.5915296E-08
   21.24000     -1.5822584E-08
   21.30000     -1.5614962E-08
   21.36000     -1.5296195E-08
   21.42000     -1.4880852E-08
   21.48000     -1.4390039E-08
   21.54000     -1.3849501E-08
   21.60000     -1.3289008E-08
   21.66000     -1.2740614E-08
   21.72000     -1.2234320E-08
   21.78000     -1.1792032E-08
   21.84000     -1.1422607E-08
   21.90000     -1.1120656E-08
   21.96000     -1.0869705E-08
   22.02000     -1.0647756E-08
   22.08000     -1.0432301E-08
   22.14000     -1.0202965E-08
   22.20000     -9.9421920E-09
   22.26000     -9.6360697E-09
   22.32000     -9.2768193E-09
   22.38000     -8.8664427E-09
   22.44000     -8.4189491E-09
   22.50000     -7.9583895E-09
   22.56000     -7.5120541E-09
   22.62000     -7.1012409E-09
   22.68000     -6.7339068E-09
   22.74000     -6.4028942E-09
   22.80000     -6.0905485E-09
   22.86000     -5.7772027E-09
   22.92000     -5.4492646E-09
   22.98000     -5.1033551E-09
   23.04000     -4.7455169E-09
   23.10000     -4.3871613E-09
   23.16000     -4.0405577E-09
   23.22000     -3.7159351E-09
   23.28000     -3.4204160E-09
   23.34000     -3.1575313E-09
   23.40000     -2.9259781E-09
   23.46000     -2.7175240E-09
   23.52000     -2.5155480E-09
   23.58000     -2.2963118E-09
   23.64000     -2.0340467E-09
   23.70000     -1.7087455E-09
   23.76000     -1.3135271E-09
   23.82000     -8.5797469E-10
   23.88000     -3.6551279E-10
   23.94000      1.3414123E-10
   24.00000      6.1383915E-10
   24.06000      1.0550000E-09
   24.12000      1.4484071E-09
   24.18000      1.7905790E-09
   24.24000      2.0788427E-09
   24.30000      2.3083557E-09
   24.36000      2.4722355E-09
   24.42000      2.5633027E-09
   24.48000      2.5747962E-09
   24.54000      2.4986329E-09
   24.60000      2.3224642E-09
   24.66000      2.0286866E-09
   24.72000      1.5979655E-09
   24.78000      1.0168403E-09
   24.84000      2.8565961E-10
   24.90000     -5.7795929E-10
   24.96000     -1.5426901E-09
   25.02000     -2.5722844E-09
   25.08000     -3.6344041E-09
   25.14000     -4.7042752E-09
   25.20000     -5.7614149E-09
   25.26000     -6.7823218E-09
   25.32000     -7.7346405E-09
   25.38000     -8.5771594E-09
   25.44000     -9.2660599E-09
   25.50000     -9.7638804E-09
   25.56000     -1.0046467E-08
   25.62000     -1.0105119E-08
   25.68000     -9.9446087E-09
   25.74000     -9.5798729E-09
   25.80000     -9.0338350E-09
   25.86000     -8.3364444E-09
   25.92000     -7.5231057E-09
   25.98000     -6.6307231E-09
   26.04000     -5.6915939E-09
   26.10000     -4.7275730E-09
   26.16000     -3.7473336E-09
   26.22000     -2.7478397E-09
   26.28000     -1.7186605E-09
   26.34000     -6.4645062E-10
   26.40000      4.8219506E-10
   26.46000      1.6792199E-09
   26.52000      2.9532301E-09
   26.58000      4.3061519E-09
   26.64000      5.7293392E-09
   26.70000      7.2016442E-09
   26.76000      8.6915044E-09
   26.82000      1.0162703E-08
   26.88000      1.1580955E-08
   26.94000      1.2918059E-08
   27.00000      1.4152353E-08
   27.06000      1.5267165E-08
   27.12000      1.6250210E-08
   27.18000      1.7095287E-08
   27.24000      1.7804545E-08
   27.30000      1.8387668E-08
   27.36000      1.8855914E-08
   27.42000      1.9213109E-08
   27.48000      1.9449278E-08
   27.54000      1.9542306E-08
   27.60000      1.9468159E-08
   27.66000      1.9213910E-08
   27.72000      1.8784858E-08
   27.78000      1.8200062E-08
   27.84000      1.7478298E-08
   27.90000      1.6623320E-08
   27.96000      1.5618319E-08
   28.02000      1.4433484E-08
   28.08000      1.3041523E-08
   28.14000      1.1430375E-08
   28.20000      9.6043538E-09
   28.26000      7.5734814E-09
   28.32000      5.3395408E-09
   28.38000      2.8901668E-09
   28.44000      2.0661911E-10
   28.50000     -2.7191343E-09
   28.56000     -5.8697909E-09
   28.62000     -9.2015329E-09
   28.68000     -1.2658708E-08
   28.74000     -1.6196251E-08
   28.80000     -1.9796440E-08
   28.86000     -2.3470024E-08
   28.92000     -2.7241473E-08
   28.98000     -3.1127541E-08
   29.04000     -3.5121495E-08
   29.10000     -3.9190660E-08
   29.16000     -4.3286466E-08
   29.22000     -4.7359141E-08
   29.28000     -5.1368453E-08
   29.34000     -5.5286254E-08
   29.40000     -5.9092716E-08
   29.46000     -6.2771669E-08
   29.52000     -6.6309632E-08
   29.58000     -6.9698920E-08
   29.64000     -7.2941830E-08
   29.70000     -7.6051364E-08
   29.76000     -7.9046231E-08
   29.82000     -8.1940961E-08
   29.88000     -8.4735049E-08
   29.94000     -8.7405681E-08
   30.00000     -8.9907594E-08
   30.06000     -9.2180606E-08
   30.12000     -9.4162594E-08
   30.18000     -9.5803053E-08
   30.24000     -9.7072096E-08
   30.30000     -9.7961369E-08
   30.36000     -9.8477337E-08
   30.42000     -9.8631183E-08
   30.48000     -9.8431507E-08
   30.54000     -9.7884204E-08
   30.60000     -9.6999329E-08
   30.66000     -9.5799692E-08
   30.72000     -9.4324314E-08
   30.78000     -9.2622692E-08
   30.84000     -9.0741587E-08
   30.90000     -8.8711239E-08
   30.96000     -8.6538712E-08
   31.02000     -8.4211635E-08
   31.08000     -8.1709693E-08
   31.14000     -7.9016530E-08
   31.20000     -7.6126106E-08
   31.26000     -7.3042337E-08
   31.32000     -6.9776014E-08
   31.38000     -6.6344811E-08
   31.44000     -6.2778419E-08
   31.50000     -5.9125401E-08
   31.56000     -5.5454734E-08
   31.62000     -5.1847149E-08
   31.68000     -4.8377530E-08
   31.74000     -4.5096385E-08
   31.80000     -4.2020233E-08
   31.86000     -3.9136314E-08
   31.92000     -3.6418758E-08
   31.98000     -3.3846604E-08
   32.04000     -3.1413478E-08
   32.10000     -2.9124505E-08
   32.16000     -2.6984818E-08
   32.22000     -2.4989475E-08
   32.28000     -2.3123663E-08
   32.34000     -2.1374674E-08
   32.40000     -1.9748727E-08
   32.46000     -1.8281286E-08
   32.52000     -1.7032511E-08
   32.58000     -1.6068025E-08
   32.64000     -1.5434091E-08
   32.70000     -1.5139950E-08
   32.76000     -1.5156409E-08
   32.82000     -1.5430745E-08
   32.88000     -1.5909405E-08
   32.94000     -1.6556690E-08
   33.00000     -1.7361298E-08
   33.06000     -1.8330459E-08
   33.12000     -1.9478355E-08
   33.18000     -2.0817286E-08
   33.24000     -2.2356014E-08
   33.30000     -2.4103562E-08
   33.36000     -2.6072389E-08
   33.42000     -2.8275782E-08
   33.48000     -3.0719146E-08
   33.54000     -3.3390041E-08
   33.60000     -3.6253592E-08
   33.66000     -3.9256882E-08
   33.72000     -4.2340385E-08
   33.78000     -4.5450484E-08
   33.84000     -4.8546848E-08
   33.90000     -5.1602520E-08
   33.96000     -5.4599163E-08
   34.02000     -5.7522314E-08
   34.08000     -6.0360179E-08
   34.14000     -6.3105837E-08
   34.20000     -6.5759707E-08
   34.26000     -6.8328880E-08
   34.32000     -7.0822516E-08
   34.38000     -7.3245438E-08
   34.44000     -7.5593547E-08
   34.50000     -7.7853471E-08
   34.56000     -8.0006167E-08
   34.62000     -8.2032152E-08
   34.68000     -8.3915118E-08
   34.74000     -8.5642299E-08
   34.80000     -8.7201570E-08
   34.86000     -8.8576769E-08
   34.92000     -8.9743502E-08
   34.98000     -9.0667761E-08
   35.04000     -9.1309353E-08
   35.10000     -9.1630675E-08
   35.16000     -9.1608975E-08
   35.22000     -9.1247621E-08
   35.28000     -9.0580350E-08
   35.34000     -8.9664319E-08
   35.40000     -8.8562651E-08
   35.46000     -8.7322647E-08
   35.52000     -8.5959137E-08
   35.58000     -8.4450811E-08
   35.64000     -8.2751058E-08
   35.70000     -8.0807844E-08
   35.76000     -7.8583490E-08
   35.82000     -7.6066570E-08
   35.88000     -7.3273419E-08
   35.94000     -7.0242024E-08
   36.00000     -6.7023066E-08
   36.06000     -6.3670960E-08
   36.12000     -6.0234910E-08
   36.18000     -5.6749148E-08
   36.24000     -5.3223925E-08
   36.30000     -4.9641731E-08
   36.36000     -4.5964107E-08
   36.42000     -4.2150141E-08
   36.48000     -3.8180684E-08
   36.54000     -3.4077264E-08
   36.60000     -2.9905259E-08
   36.66000     -2.5758091E-08
   36.72000     -2.1728967E-08
   36.78000     -1.7883142E-08
   36.84000     -1.4243020E-08
   36.90000     -1.0791191E-08
   36.96000     -7.4873832E-09
   37.02000     -4.2895785E-09
   37.08000     -1.1698827E-09
   37.14000      1.8792456E-09
   37.20000      4.8470921E-09
   37.26000      7.7106979E-09
   37.32000      1.0440912E-08
   37.38000      1.3007023E-08
   37.44000      1.5380502E-08
   37.50000      1.7538623E-08
   37.56000      1.9467752E-08
   37.62000      2.1165251E-08
   37.68000      2.2638922E-08
   37.74000      2.3903883E-08
   37.80000      2.4977370E-08
   37.86000      2.5872563E-08
   37.92000      2.6592634E-08
   37.98000      2.7126697E-08
   38.04000      2.7449621E-08
   38.10000      2.7527170E-08
   38.16000      2.7326056E-08
   38.22000      2.6825616E-08
   38.28000      2.6025978E-08
   38.34000      2.4948404E-08
   38.40000      2.3627093E-08
   38.46000      2.2096271E-08
   38.52000      2.0379119E-08
   38.58000      1.8483787E-08
   38.64000      1.6407514E-08
   38.70000      1.4145494E-08
   38.76000      1.1699423E-08
   38.82000      9.0825676E-09
   38.88000      6.3216259E-09
   38.94000      3.4575265E-09
   39.00000      5.4619775E-10
   39.06000     -2.3426705E-09
   39.12000     -5.1324602E-09
   39.18000     -7.7535907E-09
   39.24000     -1.0161067E-08
   39.30000     -1.2347563E-08
   39.36000     -1.4343989E-08
   39.42000     -1.6205091E-08
   39.48000     -1.7985860E-08
   39.54000     -1.9720300E-08
   39.60000     -2.1413189E-08
   39.66000     -2.3048447E-08
   39.72000     -2.4608438E-08
   39.78000     -2.6092994E-08
   39.84000     -2.7527932E-08
   39.90000     -2.8959276E-08
   39.96000     -3.0437125E-08
   40.02000     -3.1997427E-08
   40.08000     -3.3649382E-08
   40.14000     -3.5372334E-08
   40.20000     -3.7121598E-08
   40.26000     -3.8840263E-08
   40.32000     -4.0473612E-08
   40.38000     -4.1982801E-08
   40.44000     -4.3354575E-08
   40.50000     -4.4603738E-08
   40.56000     -4.5766420E-08
   40.62000     -4.6885230E-08
   40.68000     -4.7991140E-08
   40.74000     -4.9089358E-08
   40.80000     -5.0155275E-08
   40.86000     -5.1142418E-08
   40.92000     -5.1999084E-08
   40.98000     -5.2686911E-08
   41.04000     -5.3194405E-08
   41.10000     -5.3541218E-08
   41.16000     -5.3772727E-08
   41.22000     -5.3947204E-08
   41.28000     -5.4119493E-08
   41.34000     -5.4325429E-08
   41.40000     -5.4571188E-08
   41.46000     -5.4830998E-08
   41.52000     -5.5054478E-08
   41.58000     -5.5181577E-08
   41.64000     -5.5159575E-08
   41.70000     -5.4955258E-08
   41.76000     -5.4557624E-08
   41.82000     -5.3971249E-08
   41.88000     -5.3205330E-08
   41.94000     -5.2265339E-08
   42.00000     -5.1151599E-08
   42.06000     -4.9864425E-08
   42.12000     -4.8411344E-08
   42.18000     -4.6811373E-08
   42.24000     -4.5094481E-08
   42.30000     -4.3298019E-08
   42.36000     -4.1463494E-08
   42.42000     -3.9635292E-08
   42.48000     -3.7859479E-08
   42.54000     -3.6179177E-08
   42.60000     -3.4625018E-08
   42.66000     -3.3203609E-08
   42.72000     -3.1890664E-08
   42.78000     -3.0635142E-08
   42.84000     -2.9375501E-08
   42.90000     -2.8062681E-08
   42.96000     -2.6680011E-08
   43.02000     -2.5251451E-08
   43.08000     -2.3835076E-08
   43.14000     -2.2505498E-08
   43.20000     -2.1332829E-08
   43.26000     -2.0365423E-08
   43.32000     -1.9620279E-08
   43.38000     -1.9081337E-08
   43.44000     -1.8704259E-08
   43.50000     -1.8426359E-08
   43.56000     -1.8180739E-08
   43.62000     -1.7912873E-08
   43.68000     -1.7595875E-08
   43.74000     -1.7239289E-08
   43.80000     -1.6887055E-08
   43.86000     -1.6603829E-08
   43.92000     -1.6453580E-08
   43.98000     -1.6477818E-08
   44.04000     -1.6681160E-08
   44.10000     -1.7029025E-08
   44.16000     -1.7457655E-08
   44.22000     -1.7892411E-08
   44.28000     -1.8268089E-08
   44.34000     -1.8545267E-08
   44.40000     -1.8718721E-08
   44.46000     -1.8816843E-08
   44.52000     -1.8893497E-08
   44.58000     -1.9015319E-08
   44.64000     -1.9247645E-08
   44.70000     -1.9641524E-08
   44.76000     -2.0223391E-08
   44.82000     -2.0988605E-08
   44.88000     -2.1900355E-08
   44.94000     -2.2895701E-08
   45.00000     -2.3899466E-08
   45.06000     -2.4843999E-08
   45.12000     -2.5689234E-08
   45.18000     -2.6435405E-08
   45.24000     -2.7122132E-08
   45.30000     -2.7812826E-08
   45.36000     -2.8570245E-08
   45.42000     -2.9433577E-08
   45.48000     -3.0407101E-08
   45.54000     -3.1464676E-08
   45.60000     -3.2566547E-08
   45.66000     -3.3679264E-08
   45.72000     -3.4789132E-08
   45.78000     -3.5904002E-08
   45.84000     -3.7044710E-08
   45.90000     -3.8231775E-08
   45.96000     -3.9473729E-08
   46.02000     -4.0760771E-08
   46.08000     -4.2064322E-08
   46.14000     -4.3341043E-08
   46.20000     -4.4539998E-08
   46.26000     -4.5612243E-08
   46.32000     -4.6522150E-08
   46.38000     -4.7258329E-08
   46.44000     -4.7840619E-08
   46.50000     -4.8319237E-08
   46.56000     -4.8764317E-08
   46.62000     -4.9247411E-08
   46.68000     -4.9820336E-08
   46.74000     -5.0498357E-08
   46.80000     -5.1253856E-08
   46.86000     -5.2023079E-08
   46.92000     -5.2723838E-08
   46.98000     -5.3278050E-08
   47.04000     -5.3631013E-08
   47.10000     -5.3760978E-08
   47.16000     -5.3676438E-08
   47.22000     -5.3403987E-08
   47.28000     -5.2973363E-08
   47.34000     -5.2406754E-08
   47.40000     -5.1716558E-08
   47.46000     -5.0910611E-08
   47.52000     -5.0000093E-08
   47.58000     -4.9004282E-08
   47.64000     -4.7949062E-08
   47.70000     -4.6859906E-08
   47.76000     -4.5753282E-08
   47.82000     -4.4630713E-08
   47.88000     -4.3477989E-08
   47.94000     -4.2269622E-08
   48.00000     -4.0976996E-08
   48.06000     -3.9578392E-08
   48.12000     -3.8068777E-08
   48.18000     -3.6466755E-08
   48.24000     -3.4815553E-08
   48.30000     -3.3175795E-08
   48.36000     -3.1610494E-08
   48.42000     -3.0166991E-08
   48.48000     -2.8863166E-08
   48.54000     -2.7684193E-08
   48.60000     -2.6591449E-08
   48.66000     -2.5538942E-08
   48.72000     -2.4489157E-08
   48.78000     -2.3421443E-08
   48.84000     -2.2331177E-08
   48.90000     -2.1223315E-08
   48.96000     -2.0106063E-08
   49.02000     -1.8988171E-08
   49.08000     -1.7879229E-08
   49.14000     -1.6789736E-08
   49.20000     -1.5728689E-08
   49.26000     -1.4699755E-08
   49.32000     -1.3699674E-08
   49.38000     -1.2721952E-08
   49.44000     -1.1765326E-08
   49.50000     -1.0842888E-08
   49.56000     -9.9870228E-09
   49.62000     -9.2480699E-09
   49.68000     -8.6887262E-09
   49.74000     -8.3783593E-09
   49.80000     -8.3902165E-09
   49.86000     -8.8013676E-09
   49.92000     -9.6931219E-09
   49.98000     -1.1150505E-08
   50.04000     -1.3262348E-08
   50.10000     -1.6125584E-08
   50.16000     -1.9856019E-08
   50.22000     -2.4603686E-08
   50.28000     -3.0566699E-08
   50.34000     -3.7997136E-08
   50.40000     -4.7196426E-08
   50.46000     -5.8504060E-08
   50.52000     -7.2287129E-08
   50.58000     -8.8938044E-08
   50.64000     -1.0888331E-07
   50.70000     -1.3260143E-07
   50.76000     -1.6064536E-07
   50.82000     -1.9366578E-07
   50.88000     -2.3243216E-07
   50.94000     -2.7785046E-07
   51.00000     -3.3097643E-07
   51.06000     -3.9302338E-07
   51.12000     -4.6536729E-07
   51.18000     -5.4955359E-07
   51.24000     -6.4731108E-07
   51.30000     -7.6057609E-07
   51.36000     -8.9152400E-07
   51.42000     -1.0426000E-06
   51.48000     -1.2165468E-06
   51.54000     -1.4164256E-06
   51.60000     -1.6456404E-06
   51.66000     -1.9079716E-06
   51.72000     -2.2076199E-06
   51.78000     -2.5492532E-06
   51.84000     -2.9380469E-06
   51.90000     -3.3797064E-06
   51.96000     -3.8804847E-06
   52.02000     -4.4472063E-06
   52.08000     -5.0873095E-06
   52.14000     -5.8089058E-06
   52.20000     -6.6208372E-06
   52.26000     -7.5327143E-06
   52.32000     -8.5549345E-06
   52.38000     -9.6986805E-06
   52.44000     -1.0975935E-05
   52.50000     -1.2399514E-05
   52.56000     -1.3983104E-05
   52.62000     -1.5741283E-05
   52.68000     -1.7689534E-05
   52.74000     -1.9844210E-05
   52.80000     -2.2222526E-05
   52.86000     -2.4842535E-05
   52.92000     -2.7723145E-05
   52.98000     -3.0884115E-05
   53.04000     -3.4346038E-05
   53.10000     -3.8130231E-05
   53.16000     -4.2258627E-05
   53.22000     -4.6753652E-05
   53.28000     -5.1638122E-05
   53.34000     -5.6935191E-05
   53.40000     -6.2668267E-05
   53.46000     -6.8860900E-05
   53.52000     -7.5536576E-05
   53.58000     -8.2718550E-05
   53.64000     -9.0429632E-05
   53.70000     -9.8692020E-05
   53.76000     -1.0752712E-04
   53.82000     -1.1695539E-04
   53.88000     -1.2699608E-04
   53.94000     -1.3766700E-04
   54.00000     -1.4898417E-04
   54.06000     -1.6096166E-04
   54.12000     -1.7361135E-04
   54.18000     -1.8694281E-04
   54.24000     -2.0096304E-04
   54.30000     -2.1567619E-04
   54.36000     -2.3108328E-04
   54.42000     -2.4718195E-04
   54.48000     -2.6396627E-04
   54.54000     -2.8142676E-04
   54.60000     -2.9955004E-04
   54.66000     -3.1831881E-04
   54.72000     -3.3771174E-04
   54.78000     -3.5770333E-04
   54.84000     -3.7826388E-04
   54.90000     -3.9935933E-04
   54.96000     -4.2095143E-04
   55.02000     -4.4299802E-04
   55.08000     -4.6545285E-04
   55.14000     -4.8826594E-04
   55.20000     -5.1138323E-04
   55.26000     -5.3474715E-04
   55.32000     -5.5829686E-04
   55.38000     -5.8196881E-04
   55.44000     -6.0569699E-04
   55.50000     -6.2941323E-04
   55.56000     -6.5304723E-04