 -0.750000000       0.00000000    
 -0.689999998       0.00000000    
 -0.629999995       0.00000000    
 -0.569999993       0.00000000    
 -0.509999990       0.00000000    
 -0.449999988       0.00000000    
 -0.389999986       6.91135475E-24
 -0.330000013       3.91388321E-23
 -0.270000011      -1.19517186E-22
 -0.209999993      -2.11389116E-21
 -0.150000006      -1.09378488E-20
  -9.00000036E-02  -3.20941425E-20
  -2.99999993E-02  -5.06668934E-20
   2.99999993E-02   1.55533462E-20
   9.00000036E-02   3.53040660E-19
  0.150000006       1.16524106E-18
  0.209999993       2.31598722E-18
  0.270000011       2.72742045E-18
  0.330000013       1.49619474E-22
  0.389999986      -8.79044754E-18
  0.449999988      -2.42635847E-17
  0.509999990      -4.03460388E-17
  0.569999993      -4.12742115E-17
  0.629999995      -4.95868762E-18
  0.689999998       8.34189678E-17
  0.750000000       2.09862643E-16
  0.810000002       3.14040483E-16
  0.870000005       2.94740175E-16
  0.930000007       5.30470364E-17
  0.990000010      -4.31929099E-16
   1.04999995      -1.02947548E-15
   1.11000001      -1.44171233E-15
   1.16999996      -1.29314794E-15
   1.23000002      -3.24130763E-16
   1.28999996       1.38519110E-15
   1.35000002       3.28928389E-15
   1.40999997       4.47215354E-15
   1.47000003       3.99650346E-15
   1.52999997       1.39988013E-15
   1.59000003      -2.89003576E-15
   1.64999998      -7.46979806E-15
   1.71000004      -1.03384462E-14
   1.76999998      -9.66307299E-15
   1.83000004      -4.64927957E-15
   1.88999999       3.85776582E-15
   1.95000005       1.33409824E-14
   2.00999999       2.02392390E-14
   2.06999993       2.10830448E-14
   2.13000011       1.38048752E-14
   2.19000006      -1.17994008E-15
   2.25000000      -2.04966168E-14
   2.30999994      -3.82125768E-14
   2.36999989      -4.72194475E-14
   2.43000007      -4.14309937E-14
   2.49000001      -1.82813596E-14
   2.54999995       1.93185599E-14
   2.60999990       6.25056918E-14
   2.67000008       9.80878383E-14
   2.73000002       1.12136679E-13
   2.78999996       9.45258683E-14
   2.84999990       4.28081270E-14
   2.91000009      -3.60455311E-14
   2.97000003      -1.26655685E-13
   3.02999997      -2.08440727E-13
   3.08999991      -2.59694122E-13
   3.15000010      -2.61317145E-13
   3.21000004      -1.99886060E-13
   3.26999998      -7.06921297E-14
   3.32999992       1.18482725E-13
   3.39000010       3.43213684E-13
   3.45000005       5.60109467E-13
   3.50999999       7.09771922E-13
   3.56999993       7.27798735E-13
   3.63000011       5.63546334E-13
   3.69000006       2.02037036E-13
   3.75000000      -3.19037169E-13
   3.80999994      -9.05616673E-13
   3.86999989      -1.42169111E-12
   3.93000007      -1.72022542E-12
   3.99000001      -1.68245355E-12
   4.05000019      -1.25368910E-12
   4.11000013      -4.64578679E-13
   4.17000008       5.68449638E-13
   4.23000002       1.66316624E-12
   4.28999996       2.60594649E-12
   4.34999990       3.19190399E-12
   4.40999985       3.26259766E-12
   4.46999979       2.73570446E-12
   4.53000021       1.62381556E-12
   4.59000015       4.12067773E-14
   4.65000010      -1.80222417E-12
   4.71000004      -3.62090783E-12
   4.76999998      -5.08821240E-12
   4.82999992      -5.88484079E-12
   4.88999987      -5.75695871E-12
   4.94999981      -4.57591560E-12
   5.01000023      -2.38770635E-12
   5.07000017       5.61543596E-13
   5.13000011       3.83638564E-12
   5.19000006       6.86605764E-12
   5.25000000       9.03958939E-12
   5.30999994       9.82885041E-12
   5.36999989       8.91624535E-12
   5.42999983       6.29758875E-12
   5.48999977       2.33124067E-12
   5.55000019      -2.28709629E-12
   5.61000013      -6.62944222E-12
   5.67000008      -9.70708323E-12
   5.73000002      -1.06770669E-11
   5.78999996      -9.03971776E-12
   5.84999990      -4.78087491E-12
   5.90999985       1.57774575E-12
   5.96999979       9.03609652E-12
   6.03000021       1.62711251E-11
   6.09000015       2.18558539E-11
   6.15000010       2.44947049E-11
   6.21000004       2.32291287E-11
   6.26999998       1.75830288E-11
   6.32999992       7.63916274E-12
   6.38999987      -5.94504827E-12
   6.44999981      -2.19687966E-11
   6.51000023      -3.87613414E-11
   6.57000017      -5.43066668E-11
   6.63000011      -6.64356972E-11
   6.69000006      -7.30923655E-11
   6.75000000      -7.26523286E-11
   6.80999994      -6.42387046E-11
   6.86999989      -4.79567948E-11
   6.92999983      -2.49749544E-11
   6.98999977       2.58395952E-12
   7.05000019       3.19197897E-11
   7.11000013       5.99282984E-11
   7.17000008       8.35746333E-11
   7.23000002       1.00187900E-10
   7.28999996       1.07644602E-10
   7.34999990       1.04462321E-10
   7.40999985       8.98548597E-11
   7.46999979       6.37932901E-11
   7.53000021       2.70767124E-11
   7.59000015      -1.86306439E-11
   7.65000010      -7.08634609E-11
   7.71000004      -1.26569810E-10
   7.76999998      -1.82469664E-10
   7.82999992      -2.35484909E-10
   7.88999987      -2.83127355E-10
   7.94999981      -3.23739424E-10
   8.01000023      -3.56538132E-10
   8.06999969      -3.81489451E-10
   8.13000011      -3.99097533E-10
   8.18999958      -4.10205647E-10
   8.25000000      -4.15867979E-10
   8.31000042      -4.17289869E-10
   8.36999989      -4.15787155E-10
   8.43000031      -4.12708784E-10
   8.48999977      -4.09301981E-10
   8.55000019      -4.06554596E-10
   8.60999966      -4.05082939E-10
   8.67000008      -4.05127543E-10
   8.72999954      -4.06672196E-10
   8.78999996      -4.09645429E-10
   8.85000038      -4.14128232E-10
   8.90999985      -4.20501828E-10
   8.97000027      -4.29511815E-10
   9.02999973      -4.42271220E-10
   9.09000015      -4.60243066E-10
   9.14999962      -4.85218976E-10
   9.21000004      -5.19265353E-10
   9.27000046      -5.64573166E-10
   9.32999992      -6.23159468E-10
   9.39000034      -6.96423474E-10
   9.44999981      -7.84638077E-10
   9.51000023      -8.86509699E-10
   9.56999969      -9.98942262E-10
   9.63000011      -1.11708065E-09
   9.68999958      -1.23462707E-09
   9.75000000      -1.34435685E-09
   9.81000042      -1.43872914E-09
   9.86999989      -1.51051072E-09
   9.93000031      -1.55336000E-09
   9.98999977      -1.56234226E-09
   10.0500002      -1.53433610E-09
   10.1099997      -1.46827694E-09
   10.1700001      -1.36517675E-09
   10.2299995      -1.22789723E-09
   10.2900000      -1.06072562E-09
   10.3500004      -8.68873640E-10
   10.4099998      -6.58057664E-10
   10.4700003      -4.34275754E-10
   10.5299997      -2.03803918E-10
   10.5900002       2.66859538E-11
   10.6499996       2.50059806E-10
   10.7100000       4.58871580E-10
   10.7700005       6.45798526E-10
   10.8299999       8.04285416E-10
   10.8900003       9.29196164E-10
   10.9499998       1.01722586E-09
   11.0100002       1.06689790E-09
   11.0699997       1.07813192E-09
   11.1300001       1.05155473E-09
   11.1899996       9.87852800E-10
   11.2500000       8.87465434E-10
   11.3100004       7.50785545E-10
   11.3699999       5.78807946E-10
   11.4300003       3.73958919E-10
   11.4899998       1.40737727E-10
   11.5500002      -1.14134070E-10
   11.6099997      -3.82163551E-10
   11.6700001      -6.54000520E-10
   11.7299995      -9.20511001E-10
   11.7900000      -1.17368337E-09
   11.8500004      -1.40716805E-09
   11.9099998      -1.61644220E-09
   11.9700003      -1.79873694E-09
   12.0299997      -1.95289296E-09
   12.0900002      -2.07922279E-09
   12.1499996      -2.17933671E-09
   12.2100000      -2.25582308E-09
   12.2700005      -2.31172526E-09
   12.3299999      -2.34989050E-09
   12.3900003      -2.37239361E-09
   12.4499998      -2.38026709E-09
   12.5100002      -2.37368170E-09
   12.5699997      -2.35253195E-09
   12.6300001      -2.31723196E-09
   12.6899996      -2.26944974E-09
   12.7500000      -2.21256746E-09
   12.8100004      -2.15175699E-09
   12.8699999      -2.09367101E-09
   12.9300003      -2.04580730E-09
   12.9899998      -2.01560613E-09
   13.0500002      -2.00938577E-09
   13.1099997      -2.03126316E-09
   13.1700001      -2.08230655E-09
   13.2299995      -2.16017315E-09
   13.2900000      -2.25939600E-09
   13.3500004      -2.37227216E-09
   13.4099998      -2.49007881E-09
   13.4700003      -2.60422106E-09
   13.5299997      -2.70699418E-09
   13.5900002      -2.79188472E-09
   13.6499996      -2.85362289E-09
   13.7100000      -2.88834689E-09
   13.7700005      -2.89416158E-09
   13.8299999      -2.87209567E-09
   13.8900003      -2.82713941E-09
   13.9499998      -2.76885603E-09
   14.0100002      -2.71110667E-09
   14.0699997      -2.67071476E-09
   14.1300001      -2.66526512E-09
   14.1899996      -2.71052092E-09
   14.2500000      -2.81808132E-09
   14.3100004      -2.99379610E-09
   14.3699999      -3.23725047E-09
   14.4300003      -3.54233731E-09
   14.4899998      -3.89870047E-09
   14.5500002      -4.29365166E-09
   14.6099997      -4.71409933E-09
   14.6700001      -5.14809084E-09
   14.7299995      -5.58572921E-09
   14.7900000      -6.01945516E-09
   14.8500004      -6.44388187E-09
   14.9099998      -6.85546420E-09
   14.9700003      -7.25222105E-09
   15.0299997      -7.63358088E-09
   15.0900002      -8.00025379E-09
   15.1499996      -8.35396641E-09
   15.2100000      -8.69695516E-09
   15.2700005      -9.03127617E-09
   15.3299999      -9.35809474E-09
   15.3900003      -9.67715863E-09
   15.4499998      -9.98656535E-09
   15.5100002      -1.02828306E-08
   15.5699997      -1.05612168E-08
   15.6300001      -1.08162643E-08
   15.6899996      -1.10425393E-08
   15.7500000      -1.12355893E-08
   15.8100004      -1.13929559E-08
   15.8699999      -1.15150103E-08
   15.9300003      -1.16052306E-08
   15.9899998      -1.16697159E-08
   16.0499992      -1.17159669E-08
   16.1100006      -1.17512613E-08
   16.1700001      -1.17811156E-08
   16.2299995      -1.18082557E-08
   16.2900009      -1.18322365E-08
   16.3500004      -1.18495880E-08
   16.4099998      -1.18542181E-08
   16.4699993      -1.18378862E-08
   16.5300007      -1.17907497E-08
   16.5900002      -1.17021042E-08
   16.6499996      -1.15614371E-08
   16.7099991      -1.13597292E-08
   16.7700005      -1.10907923E-08
   16.8299999      -1.07523341E-08
   16.8899994      -1.03466258E-08
   16.9500008      -9.88073712E-09
   17.0100002      -9.36647382E-09
   17.0699997      -8.82004780E-09
   17.1299992      -8.26142443E-09
   17.1900005      -7.71317499E-09
   17.2500000      -7.19880866E-09
   17.3099995      -6.74074707E-09
   17.3700008      -6.35835784E-09
   17.4300003      -6.06644157E-09
   17.4899998      -5.87438098E-09
   17.5499992      -5.78583537E-09
   17.6100006      -5.79867754E-09
   17.6700001      -5.90496052E-09
   17.7299995      -6.09097128E-09
   17.7900009      -6.33770192E-09
   17.8500004      -6.62207134E-09
   17.9099998      -6.91894364E-09
   17.9699993      -7.20356219E-09
   18.0300007      -7.45375850E-09
   18.0900002      -7.65139330E-09
   18.1499996      -7.78288012E-09
   18.2099991      -7.83907694E-09
   18.2700005      -7.81502507E-09
   18.3299999      -7.70980346E-09
   18.3899994      -7.52641949E-09
   18.4500008      -7.27137461E-09
   18.5100002      -6.95362745E-09
   18.5699997      -6.58307320E-09
   18.6299992      -6.16901019E-09
   18.6900005      -5.71922643E-09
   18.7500000      -5.23999066E-09
   18.8099995      -4.73674078E-09
   18.8700008      -4.21486401E-09
   18.9300003      -3.67995279E-09
   18.9899998      -3.13734283E-09
   19.0499992      -2.59122146E-09
   19.1100006      -2.04388639E-09
   19.1700001      -1.49562662E-09
   19.2299995      -9.45306389E-10
   19.2900009      -3.91377930E-10
   19.3500004       1.67059311E-10
   19.4099998       7.29373673E-10
   19.4699993       1.29270294E-09
   19.5300007       1.85141846E-09
   19.5900002       2.39691333E-09
   19.6499996       2.91809621E-09
   19.7099991       3.40293527E-09
   19.7700005       3.84098886E-09
   19.8299999       4.22625712E-09
   19.8899994       4.55926052E-09
   19.9500008       4.84738205E-09
   20.0100002       5.10318321E-09
   20.0699997       5.34134248E-09
   20.1299992       5.57550006E-09
   20.1900005       5.81631365E-09
   20.2500000       6.07138428E-09
   20.3099995       6.34680131E-09
   20.3700008       6.64935174E-09
   20.4300003       6.98825309E-09
   20.4899998       7.37556372E-09
   20.5499992       7.82502418E-09
   20.6100006       8.34959391E-09
   20.6700001       8.95827323E-09
   20.7299995       9.65295932E-09
   20.7900009       1.04261266E-08
   20.8500004       1.12600533E-08
   20.9099998       1.21281074E-08
   20.9699993       1.29980506E-08
   21.0300007       1.38367371E-08
   21.0900002       1.46149359E-08
   21.1499996       1.53109045E-08
   21.2099991       1.59117217E-08
   21.2700005       1.64122245E-08
   21.3299999       1.68122511E-08
   21.3899994       1.71134698E-08
   21.4500008       1.73169674E-08
   21.5100002       1.74223533E-08
   21.5699997       1.74284409E-08
   21.6299992       1.73350259E-08
   21.6900005       1.71449521E-08
   21.7500000       1.68655738E-08
   21.8099995       1.65088725E-08
   21.8700008       1.60896505E-08
   21.9300003       1.56219482E-08
   21.9899998       1.51143897E-08
   22.0499992       1.45660293E-08
   22.1100006       1.39644767E-08
   22.1700001       1.32876226E-08
   22.2299995       1.25090835E-08
   22.2900009       1.16059429E-08
   22.3500004       1.05662874E-08
   22.4099998       9.39394251E-09
   22.4699993       8.10881318E-09
   22.5300007       6.74293377E-09
   22.5900002       5.33385469E-09
   22.6499996       3.91773325E-09
   22.7099991       2.52420929E-09
   22.7700005       1.17416366E-09
   22.8299999      -1.19708465E-10
   22.8899994      -1.35037981E-09
   22.9500008      -2.51321874E-09
   23.0100002      -3.60308605E-09
   23.0699997      -4.61268046E-09
   23.1299992      -5.53267876E-09
   23.1900005      -6.35376685E-09
   23.2500000      -7.07005121E-09
   23.3099995      -7.68272912E-09
   23.3700008      -8.20250889E-09
   23.4300003      -8.64954774E-09
   23.4899998      -9.05043862E-09
   23.5499992      -9.43300016E-09
   23.6100006      -9.82052129E-09
   23.6700001      -1.02273816E-08
   23.7299995      -1.06574749E-08
   23.7900009      -1.11057545E-08
   23.8500004      -1.15621734E-08
   23.9099998      -1.20166552E-08
   23.9699993      -1.24635982E-08
   24.0300007      -1.29048452E-08
   24.0900002      -1.33505260E-08
   24.1499996      -1.38177354E-08
   24.2099991      -1.43274193E-08
   24.2700005      -1.49001584E-08
   24.3299999      -1.55518283E-08
   24.3899994      -1.62901141E-08
   24.4500008      -1.71126437E-08
   24.5100002      -1.80070110E-08
   24.5699997      -1.89523224E-08
   24.6299992      -1.99216323E-08
   24.6900005      -2.08845314E-08
   24.7500000      -2.18094467E-08
   24.8099995      -2.26655743E-08
   24.8700008      -2.34245228E-08
   24.9300003      -2.40616274E-08
   24.9899998      -2.45567975E-08
   25.0499992      -2.48946961E-08
   25.1100006      -2.50643417E-08
   25.1700001      -2.50585366E-08
   25.2299995      -2.48737333E-08
   25.2900009      -2.45107028E-08
   25.3500004      -2.39757920E-08
   25.4099998      -2.32820412E-08
   25.4699993      -2.24492176E-08
   25.5300007      -2.15022595E-08
   25.5900002      -2.04683666E-08
   25.6499996      -1.93735996E-08
   25.7099991      -1.82400672E-08
   25.7700005      -1.70843535E-08
   25.8299999      -1.59172711E-08
   25.8899994      -1.47444350E-08
   25.9500008      -1.35672460E-08
   26.0100002      -1.23840511E-08
   26.0699997      -1.11916005E-08
   26.1299992      -9.98694194E-09
   26.1900005      -8.76953532E-09
   26.2500000      -7.54298490E-09
   26.3099995      -6.31569108E-09
   26.3700008      -5.10005504E-09
   26.4300003      -3.91053456E-09
   26.4899998      -2.76140710E-09
   26.5499992      -1.66521597E-09
   26.6100006      -6.32471353E-10
   26.6700001       3.27498473E-10
   26.7299995       1.20519406E-09
   26.7900009       1.98991512E-09
   26.8500004       2.66964739E-09
   26.9099998       3.23204330E-09
   26.9699993       3.66629682E-09
   27.0300007       3.96546351E-09
   27.0900002       4.12864765E-09
   27.1499996       4.16235402E-09
   27.2099991       4.08029788E-09
   27.2700005       3.90118560E-09
   27.3299999       3.64451558E-09
   27.3899994       3.32525896E-09
   27.4500008       2.94894620E-09
   27.5100002       2.50886378E-09
   27.5699997       1.98652983E-09
   27.6299992       1.35552547E-09
   27.6900005       5.87587978E-10
   27.7500000      -3.40836248E-10
   27.8099995      -1.44339374E-09
   27.8700008      -2.72117351E-09
   27.9300003      -4.16294421E-09
   27.9899998      -5.74788839E-09
   28.0499992      -7.45000328E-09
   28.1100006      -9.24313248E-09
   28.1700001      -1.11054765E-08
   28.2299995      -1.30224089E-08
   28.2900009      -1.49866892E-08
   28.3500004      -1.69957293E-08
   28.4099998      -1.90465919E-08
   28.4699993      -2.11303774E-08
   28.5300007      -2.32280950E-08
   28.5900002      -2.53097703E-08
   28.6499996      -2.73373590E-08
   28.7099991      -2.92705646E-08
   28.7700005      -3.10734549E-08
   28.8299999      -3.27196013E-08
   28.8899994      -3.41939987E-08
   28.9500008      -3.54913503E-08
   29.0100002      -3.66114534E-08
   29.0699997      -3.75534057E-08
   29.1299992      -3.83104570E-08
   29.1900005      -3.88671459E-08
   29.2500000      -3.91996373E-08
   29.3099995      -3.92792003E-08
   29.3700008      -3.90779071E-08
   29.4300003      -3.85748073E-08
   29.4899998      -3.77606035E-08
   29.5499992      -3.66392570E-08
   29.6100006      -3.52260265E-08
   29.6700001      -3.35428751E-08
   29.7299995      -3.16130446E-08
   29.7900009      -2.94569666E-08
   29.8500004      -2.70907439E-08
   29.9099998      -2.45271732E-08
   29.9699993      -2.17782681E-08
   30.0300007      -1.88576692E-08
   30.0900002      -1.57819446E-08
   30.1499996      -1.25706654E-08
   30.2099991      -9.24586896E-09
   30.2700005      -5.83166004E-09
   30.3299999      -2.35418196E-09
   30.3899994       1.15841592E-09
   30.4500008       4.67669548E-09
   30.5100002       8.17165802E-09
   30.5699997       1.16170771E-08
   30.6299992       1.49914339E-08
   30.6900005       1.82783992E-08
   30.7500000       2.14654108E-08
   30.8099995       2.45408440E-08
   30.8700008       2.74909198E-08
   30.9300003       3.02976240E-08
   30.9899998       3.29384626E-08
   31.0499992       3.53880445E-08
   31.1100006       3.76209464E-08
   31.1700001       3.96149282E-08
   31.2299995       4.13537009E-08
   31.2900009       4.28285070E-08
   31.3500004       4.40381385E-08
   31.4099998       4.49871465E-08
   31.4699993       4.56823948E-08
   31.5300007       4.61288181E-08
   31.5900002       4.63255851E-08
   31.6499996       4.62643328E-08
   31.7099991       4.59305127E-08
   31.7700005       4.53080489E-08
   31.8299999       4.43859669E-08
   31.8899994       4.31647855E-08
   31.9500008       4.16601154E-08
   32.0099983       3.99017992E-08
   32.0699997       3.79285687E-08
   32.1300011       3.57797525E-08
   32.1899986       3.34869164E-08
   32.2500000       3.10683070E-08
   32.3100014       2.85281523E-08
   32.3699989       2.58611710E-08
   32.4300003       2.30609238E-08
   32.4900017       2.01291748E-08
   32.5499992       1.70830639E-08
   32.6100006       1.39574539E-08
   32.6699982       1.08013491E-08
   32.7299995       7.66925456E-09
   32.7900009       4.61015137E-09
   32.8499985       1.65771996E-09
   32.9099998      -1.17481092E-09
   32.9700012      -3.89331767E-09
   33.0299988      -6.51528032E-09
   33.0900002      -9.05865338E-09
   33.1500015      -1.15309193E-08
   33.2099991      -1.39220901E-08
   33.2700005      -1.62040319E-08
   33.3300018      -1.83363031E-08
   33.3899994      -2.02765076E-08
   33.4500008      -2.19918022E-08
   33.5099983      -2.34678978E-08
   33.5699997      -2.47128611E-08
   33.6300011      -2.57546695E-08
   33.6899986      -2.66333124E-08
   33.7500000      -2.73898664E-08
   33.8100014      -2.80556609E-08
   33.8699989      -2.86447133E-08
   33.9300003      -2.91515736E-08
   33.9900017      -2.95552649E-08
   34.0499992      -2.98281364E-08
   34.1100006      -2.99469214E-08
   34.1699982      -2.99025160E-08
   34.2299995      -2.97052409E-08
   34.2900009      -2.93837488E-08
   34.3499985      -2.89779134E-08
   34.4099998      -2.85279658E-08
   34.4700012      -2.80636510E-08
   34.5299988      -2.75971566E-08
   34.5900002      -2.71222973E-08
   34.6500015      -2.66202171E-08
   34.7099991      -2.60695625E-08
   34.7700005      -2.54574761E-08
   34.8300018      -2.47874858E-08
   34.8899994      -2.40814089E-08
   34.9500008      -2.33745219E-08
   35.0099983      -2.27055406E-08
   35.0699997      -2.21047571E-08
   35.1300011      -2.15843361E-08
   35.1899986      -2.11341291E-08
   35.2500000      -2.07245776E-08
   35.3100014      -2.03159818E-08
   35.3699989      -1.98712780E-08
   35.4300003      -1.93682457E-08
   35.4900017      -1.88071443E-08
   35.5499992      -1.82110949E-08
   35.6100006      -1.76189321E-08
   35.6699982      -1.70726402E-08
   35.7299995      -1.66034386E-08
   35.7900009      -1.62211258E-08
   35.8499985      -1.59103521E-08
   35.9099998      -1.56352371E-08
   35.9700012      -1.53510058E-08
   36.0299988      -1.50188271E-08
   36.0900002      -1.46188555E-08
   36.1500015      -1.41569627E-08
   36.2099991      -1.36627207E-08
   36.2700005      -1.31791831E-08
   36.3300018      -1.27479396E-08
   36.3899994      -1.23946808E-08
   36.4500008      -1.21204247E-08
   36.5099983      -1.19016610E-08
   36.5699997      -1.16994743E-08
   36.6300011      -1.14744658E-08
   36.6899986      -1.12021237E-08
   36.7500000      -1.08830474E-08
   36.8100014      -1.05442544E-08
   36.8699989      -1.02309663E-08
   36.9300003      -9.99166261E-09
   36.9900017      -9.86159865E-09
   37.0499992      -9.85044668E-09
   37.1100006      -9.93828753E-09
   37.1699982      -1.00812052E-08
   37.2299995      -1.02245501E-08
   37.2900009      -1.03193862E-08
   37.3499985      -1.03367537E-08
   37.4099998      -1.02752811E-08
   37.4700012      -1.01599591E-08
   37.5299988      -1.00328679E-08
   37.5900002      -9.93918103E-09
   37.6500015      -9.91315474E-09
   37.7099991      -9.96861793E-09
   37.7700005      -1.00968194E-08
   37.8300018      -1.02719664E-08
   37.8899994      -1.04621849E-08
   37.9500008      -1.06419353E-08
   38.0099983      -1.08015064E-08
   38.0699997      -1.09503357E-08
   38.1300011      -1.11130820E-08
   38.1899986      -1.13199201E-08
   38.2500000      -1.15945546E-08
   38.3100014      -1.19442563E-08
   38.3699989      -1.23555424E-08
   38.4300003      -1.27971527E-08
   38.4900017      -1.32293971E-08
   38.5499992      -1.36166278E-08
   38.6100006      -1.39384237E-08
   38.6699982      -1.41955265E-08
   38.7299995      -1.44084362E-08
   38.7900009      -1.46092836E-08
   38.8499985      -1.48300634E-08
   38.9099998      -1.50916062E-08
   38.9700012      -1.53972479E-08
   39.0299988      -1.57333204E-08
   39.0900002      -1.60759068E-08
   39.1500015      -1.64010387E-08
   39.2099991      -1.66943543E-08
   39.2700005      -1.69566459E-08
   39.3300018      -1.72034298E-08
   39.3899994      -1.74589321E-08
   39.4500008      -1.77468404E-08
   39.5099983      -1.80811526E-08
   39.5699997      -1.84602644E-08
   39.6300011      -1.88662295E-08
   39.6899986      -1.92692671E-08
   39.7500000      -1.96359498E-08
   39.8100014      -1.99383372E-08
   39.8699989      -2.01610746E-08
   39.9300003      -2.03042134E-08
   39.9900017      -2.03809343E-08
   40.0499992      -2.04110417E-08
   40.1100006      -2.04124717E-08
   40.1699982      -2.03936299E-08
   40.2299995      -2.03490256E-08
   40.2900009      -2.02594208E-08
   40.3499985      -2.00961470E-08
   40.4099998      -1.98279366E-08
   40.4700012      -1.94278904E-08
   40.5299988      -1.88784774E-08
   40.5900002      -1.81733579E-08
   40.6500015      -1.73160153E-08
   40.7099991      -1.63162799E-08
   40.7700005      -1.51862825E-08
   40.8300018      -1.39373384E-08
   40.8899994      -1.25786244E-08
   40.9500008      -1.11176970E-08
   41.0099983      -9.56219903E-09
   41.0699997      -7.92168109E-09
   41.1300011      -6.20858387E-09
   41.1899986      -4.43788650E-09
   41.2500000      -2.62556421E-09
   41.3100014      -7.86547272E-10
   41.3699989       1.06692544E-09
   41.4300003       2.92589242E-09
   41.4900017       4.78406870E-09
   41.5499992       6.63655264E-09
   41.6100006       8.47871817E-09
   41.6699982       1.03060929E-08
   41.7299995       1.21155441E-08
   41.7900009       1.39073375E-08
   41.8499985       1.56870108E-08
   41.9099998       1.74657959E-08
   41.9700012       1.92587404E-08
   42.0299988       2.10804956E-08
   42.0900002       2.29399149E-08
   42.1500015       2.48353214E-08
   42.2099991       2.67524651E-08
   42.2700005       2.86665145E-08
   42.3300018       3.05480405E-08
   42.3899994       3.23713998E-08
   42.4500008       3.41227882E-08
   42.5099983       3.58050904E-08
   42.5699997       3.74374238E-08
   42.6300011       3.90491905E-08
   42.6899986       4.06702902E-08
   42.7500000       4.23206856E-08
   42.8100014       4.40027463E-08
   42.8699989       4.56989966E-08
   42.9300003       4.73759201E-08
   42.9900017       4.89925434E-08
   43.0499992       5.05106748E-08
   43.1100006       5.19034060E-08
   43.1699982       5.31589954E-08
   43.2299995       5.42789493E-08
   43.2900009       5.52713466E-08
   43.3499985       5.61419888E-08
   43.4099998       5.68868721E-08
   43.4700012       5.74888510E-08
   43.5299988       5.79199160E-08
   43.5900002       5.81483555E-08
   43.6500015       5.81481459E-08
   43.7099991       5.79072008E-08
   43.7700005       5.74314782E-08
   43.8300018       5.67433780E-08
   43.8899994       5.58750024E-08
   43.9500008       5.48585390E-08
   44.0099983       5.37169598E-08
   44.0699997       5.24581054E-08
   44.1300011       5.10739717E-08
   44.1899986       4.95455659E-08
   44.2500000       4.78517634E-08
   44.3100014       4.59794585E-08
   44.3699989       4.39317063E-08
   44.4300003       4.17310630E-08
   44.4900017       3.94167330E-08
   44.5499992       3.70362834E-08
   44.6100006       3.46345814E-08
   44.6699982       3.22438645E-08
   44.7299995       2.98785707E-08
   44.7900009       2.75367853E-08
   44.8499985       2.52076440E-08
   44.9099998       2.28816859E-08
   44.9700012       2.05600923E-08
   45.0299988       1.82593887E-08
   45.0900002       1.60101443E-08
   45.1500015       1.38505074E-08
   45.2099991       1.18172201E-08
   45.2700005       9.93716753E-09
   45.3300018       8.22199553E-09
   45.3899994       6.66706823E-09
   45.4500008       5.25473398E-09
   45.5099983       3.96089472E-09
   45.5699997       2.76308065E-09
   45.6300011       1.64779590E-09
   45.6899986       6.14793216E-10
   45.7500000      -3.23477634E-10
   45.8100014      -1.14759224E-09
   45.8699989      -1.84045257E-09
   45.9300003      -2.39685427E-09
   45.9900017      -2.82944246E-09
   46.0499992      -3.16829563E-09
   46.1100006      -3.45387474E-09
   46.1699982      -3.72587383E-09
   46.2299995      -4.01228872E-09
   46.2900009      -4.32289182E-09
   46.3499985      -4.64937644E-09
   46.4099998      -4.97168262E-09
   46.4700012      -5.26768851E-09
   46.5299988      -5.52256285E-09
   46.5900002      -5.73464609E-09
   46.6500015      -5.91634830E-09
   46.7099991      -6.09033535E-09
   46.7700005      -6.28256025E-09
   46.8300018      -6.51437793E-09
   46.8899994      -6.79598999E-09
   46.9500008      -7.12301285E-09
   47.0099983      -7.47712470E-09
   47.0699997      -7.83056286E-09
   47.1300011      -8.15306311E-09
   47.1899986      -8.41895975E-09
   47.2500000      -8.61214478E-09
   47.3100014      -8.72744810E-09
   47.3699989      -8.76843487E-09
   47.4300003      -8.74297434E-09
   47.4900017      -8.65853966E-09
   47.5499992      -8.51891357E-09
   47.6100006      -8.32301605E-09
   47.6699982      -8.06563971E-09
   47.7299995      -7.73935582E-09
   47.7900009      -7.33686312E-09
   47.8499985      -6.85330814E-09
   47.9099998      -6.28824415E-09
   47.9700012      -5.64683367E-09
   48.0299988      -4.93986230E-09
   48.0900002      -4.18234070E-09
   48.1500015      -3.39105610E-09
   48.2099991      -2.58203436E-09
   48.2700005      -1.76904147E-09
   48.3300018      -9.63761182E-10
   48.3899994      -1.77309556E-10
   48.4500008       5.78075976E-10
   48.5099983       1.28846878E-09
   48.5699997       1.93938998E-09
   48.6300011       2.51813370E-09
   48.6899986       3.01599656E-09
   48.7500000       3.42919737E-09
   48.8100014       3.75810938E-09
   48.8699989       4.00543509E-09
   48.9300003       4.17447454E-09
   48.9900017       4.26831859E-09
   49.0499992       4.29000790E-09
   49.1100006       4.24299973E-09
   49.1699982       4.13116785E-09
   49.2299995       3.95809874E-09
   49.2900009       3.72610698E-09
   49.3499985       3.43570106E-09
   49.4099998       3.08596793E-09
   49.4700012       2.67571920E-09
   49.5299988       2.20480167E-09
   49.5900002       1.67496539E-09
   49.6500015       1.09009457E-09
   49.7099991       4.56002153E-10
   49.7700005      -2.19945673E-10
   49.8300018      -9.29379684E-10
   49.8899994      -1.66393144E-09
   49.9500008      -2.41685316E-09
   50.0099983      -3.18488302E-09
   50.0699997      -3.96938971E-09
   50.1300011      -4.77573758E-09
   50.1899986      -5.61050983E-09
   50.2500000      -6.47739196E-09
   50.3100014      -7.37351336E-09
   50.3699989      -8.28808311E-09
   50.4300003      -9.20415832E-09
   50.4900017      -1.01028403E-08
   50.5499992      -1.09679608E-08
   50.6100006      -1.17890870E-08