  -2.400000      0.0000000E+00
  -2.340000      0.0000000E+00
  -2.280000      0.0000000E+00
  -2.220000      0.0000000E+00
  -2.160000      0.0000000E+00
  -2.100000      0.0000000E+00
  -2.040000     -1.0336261E-22
  -1.980000     -4.6617832E-22
  -1.920000      9.4279193E-22
  -1.860000      1.5985556E-20
  -1.800000      7.5670133E-20
  -1.740000      2.1671324E-19
  -1.680000      4.0182079E-19
  -1.620000      3.5961848E-19
  -1.560000     -5.4524546E-19
  -1.500000     -3.1184612E-18
  -1.440000     -7.4756539E-18
  -1.380000     -1.1537514E-17
  -1.320000     -9.7874111E-18
  -1.260000      5.8254542E-18
  -1.200000      4.0930042E-17
  -1.140000      8.9854268E-17
  -1.080000      1.2707870E-16
  -1.020000      1.0740793E-16
 -0.9600000     -1.6583524E-17
 -0.9000000     -2.5862899E-16
 -0.8400000     -5.5764282E-16
 -0.7800000     -7.5935508E-16
 -0.7200000     -6.5171303E-16
 -0.6600000     -6.6284325E-17
 -0.6000000      9.8188599E-16
 -0.5400000      2.1870016E-15
 -0.4800000      2.9666647E-15
 -0.4200000      2.6528481E-15
 -0.3600000      8.2899326E-16
 -0.3000000     -2.3219219E-15
 -0.2400000     -5.8557069E-15
 -0.1800000     -8.2536025E-15
 -0.1200000     -7.9747745E-15
 -5.9999999E-02 -4.1933514E-15
  0.0000000E+00  2.6104262E-15
  5.9999999E-02  1.0534650E-14
  0.1200000      1.6763341E-14
  0.1800000      1.8553279E-14
  0.2400000      1.4305443E-14
  0.3000000      4.2634573E-15
  0.3600000     -9.4437948E-15
  0.4200000     -2.3378125E-14
  0.4800000     -3.3675038E-14
  0.5400000     -3.6867085E-14
  0.6000000     -3.0476750E-14
  0.6600000     -1.3501815E-14
  0.7200000      1.2947255E-14
  0.7800000      4.4800799E-14
  0.8400000      7.4403821E-14
  0.9000000      9.0989004E-14
  0.9600000      8.3107220E-14
   1.020000      4.3125954E-14
   1.080000     -2.7404807E-14
   1.140000     -1.1396728E-13
   1.200000     -1.8966667E-13
   1.260000     -2.2185858E-13
   1.320000     -1.8396310E-13
   1.380000     -6.8666515E-14
   1.440000      1.0320802E-13
   1.500000      2.8346371E-13
   1.560000      4.0908092E-13
   1.620000      4.2376587E-13
   1.680000      3.0103532E-13
   1.740000      5.9311436E-14
   1.800000     -2.3850483E-13
   1.860000     -5.0278916E-13
   1.920000     -6.4684792E-13
   1.980000     -6.1752296E-13
   2.040000     -4.1474604E-13
   2.100000     -9.2237910E-14
   2.160000      2.6073010E-13
   2.220000      5.4890332E-13
   2.280000      7.0028461E-13
   2.340000      6.8479299E-13
   2.400000      5.1786662E-13
   2.460000      2.5136211E-13
   2.520000     -4.1767374E-14
   2.580000     -2.8301192E-13
   2.640000     -4.0204854E-13
   2.700000     -3.5070669E-13
   2.760000     -1.1966330E-13
   2.820000      2.4385970E-13
   2.880000      6.2567654E-13
   2.940000      8.5375023E-13
   3.000000      7.3603656E-13
   3.060000      1.2533232E-13
   3.120000     -1.0053343E-12
   3.180000     -2.5043982E-12
   3.240000     -4.0288445E-12
   3.300000     -5.0928714E-12
   3.360000     -5.1733622E-12
   3.420000     -3.8464770E-12
   3.480000     -9.1803767E-13
   3.540000      3.4868473E-12
   3.600000      8.8940600E-12
   3.660000      1.4509019E-11
   3.720000      1.9285205E-11
   3.780000      2.2008027E-11
   3.840000      2.1374621E-11
   3.900000      1.6062160E-11
   3.960000      4.7896149E-12
   4.020000     -1.3615579E-11
   4.080000     -4.0135829E-11
   4.140000     -7.5464475E-11
   4.200000     -1.1989834E-10
   4.260000     -1.7324035E-10
   4.320000     -2.3473604E-10
   4.380000     -3.0306754E-10
   4.440000     -3.7642062E-10
   4.500000     -4.5262688E-10
   4.560000     -5.2936566E-10
   4.620000     -6.0439276E-10
   4.680000     -6.7575401E-10
   4.740000     -7.4194123E-10
   4.800000     -8.0196283E-10
   4.860000     -8.5532531E-10
   4.920000     -9.0194596E-10
   4.980000     -9.4203523E-10
   5.040000     -9.7598885E-10
   5.100000     -1.0043185E-09
   5.160000     -1.0276217E-09
   5.220000     -1.0465729E-09
   5.280000     -1.0619048E-09
   5.340000     -1.0743496E-09
   5.400000     -1.0845413E-09
   5.460000     -1.0928971E-09
   5.520000     -1.0995229E-09
   5.580000     -1.1041887E-09
   5.640000     -1.1063956E-09
   5.700000     -1.1055229E-09
   5.760000     -1.1010071E-09
   5.820000     -1.0924851E-09
   5.880000     -1.0798477E-09
   5.940000     -1.0631820E-09
   6.000000     -1.0426363E-09
   6.060000     -1.0182745E-09
   6.120000     -9.8999753E-10
   6.180000     -9.5758068E-10
   6.240000     -9.2081748E-10
   6.300000     -8.7971103E-10
   6.360000     -8.3461676E-10
   6.420000     -7.8625706E-10
   6.480000     -7.3557122E-10
   6.540000     -6.8343564E-10
   6.600000     -6.3034572E-10
   6.660000     -5.7617366E-10
   6.720000     -5.2010074E-10
   6.780000     -4.6076645E-10
   6.840000     -3.9660972E-10
   6.900000     -3.2631714E-10
   6.960000     -2.4926208E-10
   7.020000     -1.6582233E-10
   7.080000     -7.7500104E-11
   7.140000      1.3177672E-11
   7.200000      1.0294549E-10
   7.260000      1.8819808E-10
   7.320000      2.6541463E-10
   7.380000      3.3153624E-10
   7.440000      3.8425710E-10
   7.500000      4.2222612E-10
   7.560000      4.4517820E-10
   7.620000      4.5400961E-10
   7.680000      4.5079054E-10
   7.740000      4.3867954E-10
   7.800000      4.2169340E-10
   7.860000      4.0430867E-10
   7.920000      3.9092060E-10
   7.980000      3.8524473E-10
   8.040000      3.8978826E-10
   8.100000      4.0551623E-10
   8.160000      4.3178944E-10
   8.220000      4.6657650E-10
   8.280000      5.0686932E-10
   8.340000      5.4919336E-10
   8.400000      5.9011002E-10
   8.460000      6.2664723E-10
   8.520000      6.5663869E-10
   8.580000      6.7897499E-10
   8.640000      6.9375999E-10
   8.700000      7.0233908E-10
   8.760000      7.0714495E-10
   8.820000      7.1132422E-10
   8.880000      7.1816342E-10
   8.940000      7.3041267E-10
   9.000000      7.4966638E-10
   9.060000      7.7596918E-10
   9.120000      8.0775886E-10
   9.180000      8.4215557E-10
   9.240000      8.7549934E-10
   9.300000      9.0397217E-10
   9.360000      9.2414404E-10
   9.420000      9.3334152E-10
   9.480000      9.2982100E-10
   9.540000      9.1278896E-10
   9.600000      8.8233265E-10
   9.660000      8.3929713E-10
   9.720000      7.8511364E-10
   9.780000      7.2156731E-10
   9.840000      6.5051303E-10
   9.900000      5.7358807E-10
   9.960000      4.9199966E-10
   10.02000      4.0645973E-10
   10.08000      3.1728595E-10
   10.14000      2.2462258E-10
   10.20000      1.2868345E-10
   10.26000      2.9918852E-11
   10.32000     -7.0944250E-11
   10.38000     -1.7297073E-10
   10.44000     -2.7512415E-10
   10.50000     -3.7633152E-10
   10.56000     -4.7546161E-10
   10.62000     -5.7122634E-10
   10.68000     -6.6206118E-10
   10.74000     -7.4605538E-10
   10.80000     -8.2099094E-10
   10.86000     -8.8451729E-10
   10.92000     -9.3445451E-10
   10.98000     -9.6918285E-10
   11.04000     -9.8804054E-10
   11.10000     -9.9162134E-10
   11.16000     -9.8184894E-10
   11.22000     -9.6173469E-10
   11.28000     -9.3481056E-10
   11.34000     -9.0434715E-10
   11.40000     -8.7258112E-10
   11.46000     -8.4021762E-10
   11.52000     -8.0641333E-10
   11.58000     -7.6928064E-10
   11.64000     -7.2675677E-10
   11.70000     -6.7752814E-10
   11.76000     -6.2166949E-10
   11.82000     -5.6076616E-10
   11.88000     -4.9749044E-10
   11.94000     -4.3481865E-10
   12.00000     -3.7520781E-10
   12.06000     -3.2005001E-10
   12.12000     -2.6959163E-10
   12.18000     -2.2330250E-10
   12.24000     -1.8049129E-10
   12.30000     -1.4086877E-10
   12.36000     -1.0480042E-10
   12.42000     -7.3144990E-11
   12.48000     -4.6782970E-11
   12.54000     -2.6097624E-11
   12.60000     -1.0703517E-11
   12.66000      4.0534484E-13
   12.72000      8.3438508E-12
   12.78000      1.3736928E-11
   12.84000      1.6401594E-11
   12.90000      1.5572170E-11
   12.96000      1.0659590E-11
   13.02000      2.2312039E-12
   13.08000     -7.2817039E-12
   13.14000     -1.3579786E-11
   13.20000     -1.1336331E-11
   13.26000      4.3609361E-12
   13.32000      3.6502242E-11
   13.38000      8.5166763E-11
   13.44000      1.4742269E-10
   13.50000      2.1811915E-10
   13.56000      2.9123329E-10
   13.62000      3.6127540E-10
   13.68000      4.2431764E-10
   13.74000      4.7842980E-10
   13.80000      5.2354643E-10
   13.86000      5.6094895E-10
   13.92000      5.9258809E-10
   13.98000      6.2043864E-10
   14.04000      6.4602412E-10
   14.10000      6.7021327E-10
   14.16000      6.9334433E-10
   14.22000      7.1565281E-10
   14.28000      7.3785295E-10
   14.34000      7.6160700E-10
   14.40000      7.8959267E-10
   14.46000      8.2500373E-10
   14.52000      8.7057050E-10
   14.58000      9.2744534E-10
   14.64000      9.9443320E-10
   14.70000      1.0679500E-09
   14.76000      1.1428057E-09
   14.82000      1.2135538E-09
   14.88000      1.2759073E-09
   14.94000      1.3277124E-09
   15.00000      1.3691823E-09
   15.06000      1.4024104E-09
   15.12000      1.4304430E-09
   15.18000      1.4562828E-09
   15.24000      1.4821109E-09
   15.30000      1.5088425E-09
   15.36000      1.5359917E-09
   15.42000      1.5617675E-09
   15.48000      1.5833620E-09
   15.54000      1.5974309E-09
   15.60000      1.6007519E-09
   15.66000      1.5909638E-09
   15.72000      1.5671866E-09
   15.78000      1.5303042E-09
   15.84000      1.4827787E-09
   15.90000      1.4280505E-09
   15.96000      1.3697526E-09
   16.02000      1.3110456E-09
   16.08000      1.2542901E-09
   16.14000      1.2011000E-09
   16.20000      1.1526147E-09
   16.26000      1.1097466E-09
   16.32000      1.0732116E-09
   16.38000      1.0432996E-09
   16.44000      1.0195060E-09
   16.50000      1.0002232E-09
   16.56000      9.8265740E-10
   16.62000      9.6304376E-10
   16.68000      9.3712116E-10
   16.74000      9.0077518E-10
   16.80000      8.5073887E-10
   16.86000      7.8524692E-10
   16.92000      7.0451633E-10
   16.98000      6.1090943E-10
   17.04000      5.0864951E-10
   17.10000      4.0305495E-10
   17.16000      2.9942263E-10
   17.22000      2.0185840E-10
   17.28000      1.1242763E-10
   17.34000      3.0917744E-11
   17.40000     -4.4707824E-11
   17.46000     -1.1733724E-10
   17.52000     -1.8955980E-10
   17.58000     -2.6269525E-10
   17.64000     -3.3623962E-10
   17.70000     -4.0779277E-10
   17.76000     -4.7340015E-10
   17.82000     -5.2818477E-10
   17.88000     -5.6714511E-10
   17.94000     -5.8598926E-10
   18.00000     -5.8185112E-10
   18.06000     -5.5370997E-10
   18.12000     -5.0237903E-10
   18.18000     -4.3006027E-10
   18.24000     -3.3964381E-10
   18.30000     -2.3405192E-10
   18.36000     -1.1590477E-10
   18.42000      1.2396929E-11
   18.48000      1.4831818E-10
   18.54000      2.8886535E-10
   18.60000      4.3056150E-10
   18.66000      5.6979421E-10
   18.72000      7.0337114E-10
   18.78000      8.2899343E-10
   18.84000      9.4541774E-10
   18.90000      1.0522710E-09
   18.96000      1.1496758E-09
   19.02000      1.2379087E-09
   19.08000      1.3172402E-09
   19.14000      1.3879582E-09
   19.20000      1.4504838E-09
   19.26000      1.5054962E-09
   19.32000      1.5540416E-09
   19.38000      1.5976368E-09
   19.44000      1.6383187E-09
   19.50000      1.6785094E-09
   19.56000      1.7205547E-09
   19.62000      1.7659424E-09
   19.68000      1.8144700E-09
   19.74000      1.8638144E-09
   19.80000      1.9099085E-09
   19.86000      1.9481750E-09
   19.92000      1.9751767E-09
   19.98000      1.9899220E-09
   20.04000      1.9941302E-09
   20.10000      1.9912567E-09
   20.16000      1.9847344E-09
   20.22000      1.9763249E-09
   20.28000      1.9654329E-09
   20.34000      1.9497113E-09
   20.40000      1.9265858E-09
   20.46000      1.8948521E-09
   20.52000      1.8555004E-09
   20.58000      1.8113688E-09
   20.64000      1.7658489E-09
   20.70000      1.7213021E-09
   20.76000      1.6778965E-09
   20.82000      1.6332902E-09
   20.88000      1.5831796E-09
   20.94000      1.5224105E-09
   21.00000      1.4462561E-09
   21.06000      1.3515227E-09
   21.12000      1.2372643E-09
   21.18000      1.1049915E-09
   21.24000      9.5834651E-10
   21.30000      8.0232232E-10
   21.36000      6.4224714E-10
   21.42000      4.8284193E-10
   21.48000      3.2764710E-10
   21.54000      1.7894700E-10
   21.60000      3.8094663E-11
   21.66000     -9.4015261E-11
   21.72000     -2.1657336E-10
   21.78000     -3.2867969E-10
   21.84000     -4.2930762E-10
   21.90000     -5.1730853E-10
   21.96000     -5.9146488E-10
   22.02000     -6.5072792E-10
   22.08000     -6.9477851E-10
   22.14000     -7.2484835E-10
   22.20000     -7.4444367E-10
   22.26000     -7.5945533E-10
   22.32000     -7.7729789E-10
   22.38000     -8.0518514E-10
   22.44000     -8.4817192E-10
   22.50000     -9.0784147E-10
   22.56000     -9.8229413E-10
   22.62000     -1.0674767E-09
   22.68000     -1.1592181E-09
   22.74000     -1.2549924E-09
   22.80000     -1.3545994E-09
   22.86000     -1.4595332E-09
   22.92000     -1.5714593E-09
   22.98000     -1.6905919E-09
   23.04000     -1.8147038E-09
   23.10000     -1.9391282E-09
   23.16000     -2.0576634E-09
   23.22000     -2.1639910E-09
   23.28000     -2.2531454E-09
   23.34000     -2.3226352E-09
   23.40000     -2.3729358E-09
   23.46000     -2.4071909E-09
   23.52000     -2.4301416E-09
   23.58000     -2.4465636E-09
   23.64000     -2.4597557E-09
   23.70000     -2.4707443E-09
   23.76000     -2.4786562E-09
   23.82000     -2.4822144E-09
   23.88000     -2.4817064E-09
   23.94000     -2.4804310E-09
   24.00000     -2.4847822E-09
   24.06000     -2.5027442E-09
   24.12000     -2.5413476E-09
   24.18000     -2.6041793E-09
   24.24000     -2.6900155E-09
   24.30000     -2.7931284E-09
   24.36000     -2.9050566E-09
   24.42000     -3.0170551E-09
   24.48000     -3.1222787E-09
   24.54000     -3.2170264E-09
   24.60000     -3.3008263E-09
   24.66000     -3.3755680E-09
   24.72000     -3.4440979E-09
   24.78000     -3.5087278E-09
   24.84000     -3.5700589E-09
   24.90000     -3.6264576E-09
   24.96000     -3.6744054E-09
   25.02000     -3.7097527E-09
   25.08000     -3.7295598E-09
   25.14000     -3.7339216E-09
   25.20000     -3.7270018E-09
   25.26000     -3.7167069E-09
   25.32000     -3.7129175E-09
   25.38000     -3.7247698E-09
   25.44000     -3.7579233E-09
   25.50000     -3.8127754E-09
   25.56000     -3.8842454E-09
   25.62000     -3.9631587E-09
   25.68000     -4.0387222E-09
   25.74000     -4.1012567E-09
   25.80000     -4.1443480E-09
   25.86000     -4.1658454E-09
   25.92000     -4.1675294E-09
   25.98000     -4.1536761E-09
   26.04000     -4.1290735E-09
   26.10000     -4.0971915E-09
   26.16000     -4.0591384E-09
   26.22000     -4.0137618E-09
   26.28000     -3.9587968E-09
   26.34000     -3.8925529E-09
   26.40000     -3.8153734E-09
   26.46000     -3.7302135E-09
   26.52000     -3.6420673E-09
   26.58000     -3.5565104E-09
   26.64000     -3.4780265E-09
   26.70000     -3.4088761E-09
   26.76000     -3.3489569E-09
   26.82000     -3.2966243E-09
   26.88000     -3.2499690E-09
   26.94000     -3.2078848E-09
   27.00000     -3.1704179E-09
   27.06000     -3.1383165E-09
   27.12000     -3.1121115E-09
   27.18000     -3.0913005E-09
   27.24000     -3.0741139E-09
   27.30000     -3.0580134E-09
   27.36000     -3.0406739E-09
   27.42000     -3.0209160E-09
   27.48000     -2.9990701E-09
   27.54000     -2.9765206E-09
   27.60000     -2.9545926E-09
   27.66000     -2.9333140E-09
   27.72000     -2.9106868E-09
   27.78000     -2.8829079E-09
   27.84000     -2.8455509E-09
   27.90000     -2.7952491E-09
   27.96000     -2.7311768E-09
   28.02000     -2.6556819E-09
   28.08000     -2.5738038E-09
   28.14000     -2.4919007E-09
   28.20000     -2.4159716E-09
   28.26000     -2.3503386E-09
   28.32000     -2.2971152E-09
   28.38000     -2.2565065E-09
   28.44000     -2.2276256E-09
   28.50000     -2.2093791E-09
   28.56000     -2.2010347E-09
   28.62000     -2.2023077E-09
   28.68000     -2.2130147E-09
   28.74000     -2.2324820E-09
   28.80000     -2.2589413E-09
   28.86000     -2.2891333E-09
   28.92000     -2.3183109E-09
   28.98000     -2.3407507E-09
   29.04000     -2.3507576E-09
   29.10000     -2.3439424E-09
   29.16000     -2.3183746E-09
   29.22000     -2.2751627E-09
   29.28000     -2.2181648E-09
   29.34000     -2.1528648E-09
   29.40000     -2.0848108E-09
   29.46000     -2.0182025E-09
   29.52000     -1.9551409E-09
   29.58000     -1.8957276E-09
   29.64000     -1.8388239E-09
   29.70000     -1.7830430E-09
   29.76000     -1.7275725E-09
   29.82000     -1.6726209E-09
   29.88000     -1.6195193E-09
   29.94000     -1.5705804E-09
   30.00000     -1.5287495E-09
   30.06000     -1.4969512E-09
   30.12000     -1.4770564E-09
   30.18000     -1.4685984E-09
   30.24000     -1.4676966E-09
   30.30000     -1.4668228E-09
   30.36000     -1.4558881E-09
   30.42000     -1.4246173E-09
   30.48000     -1.3655229E-09
   30.54000     -1.2763596E-09
   30.60000     -1.1610138E-09
   30.66000     -1.0283695E-09
   30.72000     -8.8953217E-10
   30.78000     -7.5446738E-10
   30.84000     -6.2929389E-10
   30.90000     -5.1510080E-10
   30.96000     -4.0846895E-10
   31.02000     -3.0322475E-10
   31.08000     -1.9262875E-10
   31.14000     -7.1270094E-11
   31.20000      6.3753315E-11
   31.26000      2.1246567E-10
   31.32000      3.7235789E-10
   31.38000      5.3928240E-10
   31.44000      7.0868789E-10
   31.50000      8.7688967E-10
   31.56000      1.0419607E-09
   31.62000      1.2038409E-09
   31.68000      1.3635014E-09
   31.74000      1.5214292E-09
   31.80000      1.6761095E-09
   31.86000      1.8233226E-09
   31.92000      1.9567910E-09
   31.98000      2.0700841E-09
   32.04000      2.1590547E-09
   32.10000      2.2237383E-09
   32.16000      2.2688265E-09
   32.22000      2.3024214E-09
   32.28000      2.3335149E-09
   32.34000      2.3691251E-09
   32.40000      2.4121241E-09
   32.46000      2.4604450E-09
   32.52000      2.5078348E-09
   32.58000      2.5458071E-09
   32.64000      2.5661342E-09
   32.70000      2.5631262E-09
   32.76000      2.5350479E-09
   32.82000      2.4842841E-09
   32.88000      2.4162239E-09
   32.94000      2.3372646E-09
   33.00000      2.2526720E-09
   33.06000      2.1651290E-09
   33.12000      2.0745705E-09
   33.18000      1.9793551E-09
   33.24000      1.8782118E-09
   33.30000      1.7720375E-09
   33.36000      1.6646776E-09
   33.42000      1.5623196E-09
   33.48000      1.4717693E-09
   33.54000      1.3983494E-09
   33.60000      1.3442349E-09
   33.66000      1.3077449E-09
   33.72000      1.2836743E-09
   33.78000      1.2644261E-09
   33.84000      1.2415979E-09
   33.90000      1.2077263E-09
   33.96000      1.1579260E-09
   34.02000      1.0911057E-09
   34.08000      1.0103598E-09
   34.14000      9.2222185E-10
   34.20000      8.3479734E-10
   34.26000      7.5529266E-10
   34.32000      6.8783951E-10
   34.38000      6.3249400E-10
   34.44000      5.8581584E-10
   34.50000      5.4271104E-10
   34.56000      4.9866261E-10
   34.62000      4.5137777E-10
   34.68000      4.0127490E-10
   34.74000      3.5084968E-10
   34.80000      3.0340805E-10
   34.86000      2.6173030E-10
   34.92000      2.2699888E-10
   34.98000      1.9805591E-10
   35.04000      1.7100261E-10
   35.10000      1.3930518E-10
   35.16000      9.4702080E-11
   35.22000      2.9050798E-11
   35.28000     -6.3237492E-11
   35.34000     -1.8308155E-10
   35.40000     -3.2602729E-10
   35.46000     -4.8361071E-10
   35.52000     -6.4648559E-10
   35.58000     -8.0805634E-10
   35.64000     -9.6696806E-10
   35.70000     -1.1272755E-09
   35.76000     -1.2962168E-09
   35.82000     -1.4806607E-09
   35.88000     -1.6838465E-09
   35.94000     -1.9037585E-09
   36.00000     -2.1335806E-09
   36.06000     -2.3637288E-09
   36.12000     -2.5844358E-09
   36.18000     -2.7879499E-09
   36.24000     -2.9698439E-09
   36.30000     -3.1294016E-09
   36.36000     -3.2692402E-09
   36.42000     -3.3943091E-09
   36.48000     -3.5103567E-09
   36.54000     -3.6220869E-09
   36.60000     -3.7314689E-09
   36.66000     -3.8368526E-09
   36.72000     -3.9333869E-09
   36.78000     -4.0147490E-09
   36.84000     -4.0755532E-09
   36.90000     -4.1134323E-09
   36.96000     -4.1298596E-09
   37.02000     -4.1293684E-09
   37.08000     -4.1175556E-09
   37.14000     -4.0987769E-09
   37.20000     -4.0745185E-09
   37.26000     -4.0430455E-09
   37.32000     -4.0003409E-09
   37.38000     -3.9418588E-09
   37.44000     -3.8643715E-09
   37.50000     -3.7672554E-09
   37.56000     -3.6527987E-09
   37.62000     -3.5254417E-09
   37.68000     -3.3901879E-09
   37.74000     -3.2506893E-09
   37.80000     -3.1076677E-09
   37.86000     -2.9582972E-09
   37.92000     -2.7968863E-09
   37.98000     -2.6167291E-09
   38.04000     -2.4125193E-09
   38.10000     -2.1824427E-09
   38.16000     -1.9291637E-09
   38.22000     -1.6593583E-09
   38.28000     -1.3820324E-09
   38.34000     -1.1063229E-09
   38.40000     -8.3960805E-10
   38.46000     -5.8651289E-10
   38.52000     -3.4894976E-10
   38.58000     -1.2689053E-10
   38.64000      8.0650708E-11
   38.70000      2.7489219E-10
   38.76000      4.5702142E-10
   38.82000      6.2828659E-10
   38.88000      7.9014395E-10
   38.94000      9.4417052E-10
   39.00000      1.0916532E-09
   39.06000      1.2330309E-09
   39.12000      1.3675434E-09
   39.18000      1.4933930E-09
   39.24000      1.6084731E-09
   39.30000      1.7113585E-09
   39.36000      1.8020243E-09
   39.42000      1.8818282E-09
   39.48000      1.9526538E-09
   39.54000      2.0156039E-09
   39.60000      2.0699538E-09
   39.66000      2.1130009E-09
   39.72000      2.1409934E-09
   39.78000      2.1507196E-09
   39.84000      2.1409607E-09
   39.90000      2.1130619E-09
   39.96000      2.0703594E-09
   40.02000      2.0167938E-09
   40.08000      1.9554263E-09
   40.14000      1.8875190E-09
   40.20000      1.8124654E-09
   40.26000      1.7284014E-09
   40.32000      1.6331038E-09
   40.38000      1.5248299E-09
   40.44000      1.4029763E-09
   40.50000      1.2685822E-09
   40.56000      1.1246765E-09
   40.62000      9.7632946E-10
   40.68000      8.3021540E-10
   40.74000      6.9363543E-10
   40.80000      5.7324517E-10
   40.86000      4.7395693E-10
   40.92000      3.9844147E-10
   40.98000      3.4734080E-10
   41.04000      3.1991737E-10
   41.10000      3.1468175E-10
   41.16000      3.2969091E-10
   41.22000      3.6255574E-10
   41.28000      4.1045528E-10
   41.34000      4.7040749E-10
   41.40000      5.3972760E-10
   41.46000      6.1629568E-10
   41.52000      6.9825867E-10
   41.58000      7.8317935E-10
   41.64000      8.6715740E-10
   41.70000      9.4468189E-10
   41.76000      1.0096769E-09
   41.82000      1.0574913E-09
   41.88000      1.0869200E-09
   41.94000      1.1011810E-09
   42.00000      1.1072804E-09
   42.06000      1.1140553E-09
   42.12000      1.1298730E-09
   42.18000      1.1610271E-09
   42.24000      1.2113479E-09
   42.30000      1.2827981E-09
   42.36000      1.3763799E-09
   42.42000      1.4927601E-09
   42.48000      1.6324518E-09
   42.54000      1.7957643E-09
   42.60000      1.9827533E-09
   42.66000      2.1931055E-09
   42.72000      2.4256510E-09
   42.78000      2.6773226E-09
   42.84000      2.9419043E-09
   42.90000      3.2094161E-09
   42.96000      3.4670136E-09
   43.02000      3.7016255E-09
   43.08000      3.9035184E-09
   43.14000      4.0692441E-09
   43.20000      4.2024992E-09
   43.26000      4.3123998E-09
   43.32000      4.4099422E-09
   43.38000      4.5042712E-09
   43.44000      4.6002753E-09
   43.50000      4.6981516E-09
   43.56000      4.7945048E-09
   43.62000      4.8839852E-09
   43.68000      4.9606492E-09
   43.74000      5.0188791E-09
   43.80000      5.0541908E-09
   43.86000      5.0642615E-09
   43.92000      5.0499911E-09
   43.98000      5.0159579E-09
   44.04000      4.9696056E-09
   44.10000      4.9191091E-09
   44.16000      4.8706554E-09
   44.22000      4.8263216E-09
   44.28000      4.7835176E-09
   44.34000      4.7361555E-09
   44.40000      4.6769113E-09
   44.46000      4.5995598E-09
   44.52000      4.5005768E-09
   44.58000      4.3797237E-09
   44.64000      4.2397694E-09
   44.70000      4.0855808E-09
   44.76000      3.9227315E-09
   44.82000      3.7557677E-09
   44.88000      3.5864995E-09
   44.94000      3.4130374E-09
   45.00000      3.2302929E-09
   45.06000      3.0321339E-09
   45.12000      2.8144620E-09
   45.18000      2.5777160E-09
   45.24000      2.3273456E-09
   45.30000      2.0717268E-09
   45.36000      1.8184052E-09
   45.42000      1.5705459E-09
   45.48000      1.3254353E-09
   45.54000      1.0757625E-09
   45.60000      8.1291579E-10
   45.66000      5.3054339E-10
   45.72000      2.2671894E-10
   45.78000     -9.5948638E-11
   45.84000     -4.3173362E-10
   45.90000     -7.7359841E-10
   45.96000     -1.1144773E-09
   46.02000     -1.4478733E-09
   46.08000     -1.7682030E-09
   46.14000     -2.0713367E-09
   46.20000     -2.3552946E-09
   46.26000     -2.6205649E-09
   46.32000     -2.8694893E-09
   46.38000     -3.1047203E-09
   46.44000     -3.3274370E-09
   46.50000     -3.5363097E-09
   46.56000     -3.7278149E-09
   46.62000     -3.8976751E-09
   46.68000     -4.0425330E-09
   46.74000     -4.1609032E-09
   46.80000     -4.2530433E-09
   46.86000     -4.3201731E-09
   46.92000     -4.3638346E-09
   46.98000     -4.3859449E-09
   47.04000     -4.3893893E-09
   47.10000     -4.3784558E-09
   47.16000     -4.3584452E-09
   47.22000     -4.3343409E-09
   47.28000     -4.3091575E-09
   47.34000     -4.2828781E-09
   47.40000     -4.2526143E-09
   47.46000     -4.2139314E-09
   47.52000     -4.1627031E-09
   47.58000     -4.0967190E-09
   47.64000     -4.0165551E-09
   47.70000     -3.9256447E-09
   47.76000     -3.8296748E-09
   47.82000     -3.7354266E-09
   47.88000     -3.6490946E-09
   47.94000     -3.5743137E-09
   48.00000     -3.5105268E-09
   48.06000     -3.4526000E-09
   48.12000     -3.3923702E-09
   48.18000     -3.3219125E-09
   48.24000     -3.2372416E-09
   48.30000     -3.1405645E-09
   48.36000     -3.0396632E-09
   48.42000     -2.9443994E-09
   48.48000     -2.8619449E-09
   48.54000     -2.7931595E-09
   48.60000     -2.7320177E-09
   48.66000     -2.6683620E-09
   48.72000     -2.5924889E-09
   48.78000     -2.4992082E-09
   48.84000     -2.3894844E-09
   48.90000     -2.2692344E-09
   48.96000     -2.1463320E-09
   49.02000     -2.0275550E-09
   49.08000     -1.9168038E-09
   49.14000     -1.8148968E-09
   49.20000     -1.7203687E-09
   49.26000     -1.6304437E-09
   49.32000     -1.5417260E-09
   49.38000     -1.4506791E-09
   49.44000     -1.3541623E-09
   49.50000     -1.2500864E-09
   49.56000     -1.1378847E-09
   49.62000     -1.0183989E-09
   49.68000     -8.9308561E-10
   49.74000     -7.6296136E-10
   49.80000     -6.2797145E-10
   49.86000     -4.8724885E-10
   49.92000     -3.4013381E-10
   49.98000     -1.8729103E-10
   50.04000     -3.1191893E-11
   50.10000      1.2430849E-10
   50.16000      2.7491762E-10
   50.22000      4.1662929E-10
   50.28000      5.4569366E-10
   50.34000      6.5792105E-10
   50.40000      7.4798162E-10
   50.46000      8.0945189E-10
   50.52000      8.3588758E-10
   50.58000      8.2248014E-10
   50.64000      7.6739082E-10
   50.70000      6.7194350E-10
   50.76000      5.3944893E-10
   50.82000      3.7313391E-10
   50.88000      1.7405050E-10
   50.94000     -6.0228239E-11
   51.00000     -3.3574191E-10
   51.06000     -6.6119249E-10
   51.12000     -1.0462926E-09
   51.18000     -1.4998635E-09
   51.24000     -2.0281006E-09
   51.30000     -2.6333846E-09
   51.36000     -3.3139900E-09
   51.42000     -4.0649151E-09
   51.48000     -4.8797588E-09
   51.54000     -5.7531588E-09
   51.60000     -6.6829946E-09
   51.66000     -7.6715319E-09
   51.72000     -8.7250367E-09
   51.78000     -9.8519850E-09
   51.84000     -1.1060510E-08
   51.90000     -1.2355998E-08
   51.96000     -1.3739632E-08
   52.02000     -1.5208229E-08
   52.08000     -1.6755278E-08
   52.14000     -1.8372642E-08
   52.20000     -2.0052294E-08
   52.26000     -2.1787471E-08
   52.32000     -2.3572861E-08
   52.38000     -2.5403841E-08
   52.44000     -2.7274929E-08
   52.50000     -2.9177949E-08
   52.56000     -3.1100416E-08
   52.62000     -3.3024467E-08
   52.68000     -3.4926657E-08
   52.74000     -3.6778484E-08
   52.80000     -3.8547526E-08
   52.86000     -4.0198877E-08
   52.92000     -4.1696470E-08
   52.98000     -4.3003837E-08
   53.04000     -4.4083986E-08
   53.10000     -4.4898112E-08
   53.16000     -4.5403539E-08
   53.22000     -4.5551491E-08
   53.28000     -4.5285741E-08
   53.34000     -4.4542993E-08
   53.40000     -4.3255209E-08
   53.46000     -4.1353413E-08
   53.52000     -3.8771638E-08
   53.58000     -3.5449705E-08
   53.64000     -3.1333855E-08
   53.70000     -2.6375156E-08
   53.76000     -2.0526617E-08
   53.82000     -1.3740212E-08
   53.88000     -5.9653176E-09
   53.94000      2.8507297E-09
   54.00000      1.2759920E-08
   54.06000      2.3809426E-08
   54.12000      3.6037243E-08
   54.18000      4.9468831E-08
   54.24000      6.4115632E-08
   54.30000      7.9975756E-08
   54.36000      9.7036036E-08
   54.42000      1.1527428E-07
   54.48000      1.3466067E-07
   54.54000      1.5515742E-07
   54.60000      1.7671692E-07
   54.66000      1.9927889E-07
   54.72000      2.2276812E-07
   54.78000      2.4709300E-07
   54.84000      2.7214523E-07
   54.90000      2.9780060E-07
   54.96000      3.2392020E-07
   55.02000      3.5035222E-07
   55.08000      3.7693411E-07
   55.14000      4.0349522E-07
   55.20000      4.2985920E-07
   55.26000      4.5584565E-07
   55.32000      4.8127049E-07
   55.38000      5.0594537E-07
   55.44000      5.2967664E-07
   55.50000      5.5226604E-07
   55.56000      5.7351224E-07