  -2.400000      0.0000000E+00
  -2.340000      0.0000000E+00
  -2.280000      0.0000000E+00
  -2.220000      0.0000000E+00
  -2.160000      0.0000000E+00
  -2.100000      0.0000000E+00
  -2.040000      8.0464433E-22
  -1.980000      7.2262313E-21
  -1.920000      3.1031173E-20
  -1.860000      7.8379182E-20
  -1.800000      9.9692305E-20
  -1.740000     -8.5260530E-20
  -1.680000     -7.7934295E-19
  -1.620000     -2.1269442E-18
  -1.560000     -3.4806217E-18
  -1.500000     -2.7792979E-18
  -1.440000      3.1130547E-18
  -1.380000      1.6088507E-17
  -1.320000      3.2669220E-17
  -1.260000      4.0653919E-17
  -1.200000      2.1146457E-17
  -1.140000     -4.0438296E-17
  -1.080000     -1.3651208E-16
  -1.020000     -2.2318699E-16
 -0.9600000     -2.2551940E-16
 -0.9000000     -7.2202002E-17
 -0.8400000      2.4826567E-16
 -0.7800000      6.4022133E-16
 -0.7200000      9.0275903E-16
 -0.6600000      8.0497781E-16
 -0.6000000      2.1640072E-16
 -0.5400000     -7.7187328E-16
 -0.4800000     -1.8168185E-15
 -0.4200000     -2.4310248E-15
 -0.3600000     -2.1988069E-15
 -0.3000000     -9.9664300E-16
 -0.2400000      9.0664236E-16
 -0.1800000      2.9357167E-15
 -0.1200000      4.4373151E-15
 -5.9999999E-02  4.9200205E-15
  0.0000000E+00  4.1728193E-15
  5.9999999E-02  2.2259287E-15
  0.1200000     -7.5486983E-16
  0.1800000     -4.4907633E-15
  0.2400000     -8.4533185E-15
  0.3000000     -1.1664067E-14
  0.3600000     -1.2670541E-14
  0.4200000     -9.9237558E-15
  0.4800000     -2.5655724E-15
  0.5400000      8.6805758E-15
  0.6000000      2.1035884E-14
  0.6600000      3.0071130E-14
  0.7200000      3.1098337E-14
  0.7800000      2.1163325E-14
  0.8400000      8.6815551E-16
  0.9000000     -2.4826517E-14
  0.9600000     -4.7397548E-14
   1.020000     -5.7215300E-14
   1.080000     -4.7127290E-14
   1.140000     -1.6111487E-14
   1.200000      2.8397735E-14
   1.260000      7.0913578E-14
   1.320000      9.1906070E-14
   1.380000      7.5100292E-14
   1.440000      1.6059114E-14
   1.500000     -7.1500897E-14
   1.560000     -1.5562996E-13
   1.620000     -1.9472923E-13
   1.680000     -1.5371351E-13
   1.740000     -2.2402661E-14
   1.800000      1.7207373E-13
   1.860000      3.6648359E-13
   1.920000      4.7923259E-13
   1.980000      4.4026203E-13
   2.040000      2.2215256E-13
   2.100000     -1.4083330E-13
   2.160000     -5.5532689E-13
   2.220000     -8.9409009E-13
   2.280000     -1.0355059E-12
   2.340000     -9.0306880E-13
   2.400000     -4.9111518E-13
   2.460000      1.3072104E-13
   2.520000      8.3339471E-13
   2.580000      1.4574558E-12
   2.640000      1.8463703E-12
   2.700000      1.8778445E-12
   2.760000      1.4902862E-12
   2.820000      7.0270157E-13
   2.880000     -3.7563000E-13
   2.940000     -1.5521381E-12
   3.000000     -2.5806822E-12
   3.060000     -3.2140297E-12
   3.120000     -3.2685877E-12
   3.180000     -2.6811025E-12
   3.240000     -1.5344726E-12
   3.300000     -3.8196476E-14
   3.360000      1.5336239E-12
   3.420000      2.9248938E-12
   3.480000      3.9679406E-12
   3.540000      4.6122858E-12
   3.600000      4.8995070E-12
   3.660000      4.8952769E-12
   3.720000      4.6080392E-12
   3.780000      3.9283672E-12
   3.840000      2.6118836E-12
   3.900000      3.0783422E-13
   3.960000     -3.3841074E-12
   4.020000     -8.8546323E-12
   4.080000     -1.6442703E-11
   4.140000     -2.6413868E-11
   4.200000     -3.8946447E-11
   4.260000     -5.4107850E-11
   4.320000     -7.1812757E-11
   4.380000     -9.1774047E-11
   4.440000     -1.1347442E-10
   4.500000     -1.3618928E-10
   4.560000     -1.5907410E-10
   4.620000     -1.8129839E-10
   4.680000     -2.0217850E-10
   4.740000     -2.2125082E-10
   4.800000     -2.3824651E-10
   4.860000     -2.5297106E-10
   4.920000     -2.6514252E-10
   4.980000     -2.7427113E-10
   5.040000     -2.7965533E-10
   5.100000     -2.8052280E-10
   5.160000     -2.7627858E-10
   5.220000     -2.6676747E-10
   5.280000     -2.5244026E-10
   5.340000     -2.3434327E-10
   5.400000     -2.1391780E-10
   5.460000     -1.9266640E-10
   5.520000     -1.7179096E-10
   5.580000     -1.5191225E-10
   5.640000     -1.3294599E-10
   5.700000     -1.1415569E-10
   5.760000     -9.4351672E-11
   5.820000     -7.2173642E-11
   5.880000     -4.6386568E-11
   5.940000     -1.6127015E-11
   6.000000      1.8946830E-11
   6.060000      5.8628991E-11
   6.120000      1.0226620E-10
   6.180000      1.4895823E-10
   6.240000      1.9780086E-10
   6.300000      2.4809782E-10
   6.360000      2.9947658E-10
   6.420000      3.5187905E-10
   6.480000      4.0545134E-10
   6.540000      4.6039875E-10
   6.600000      5.1688204E-10
   6.660000      5.7500110E-10
   6.720000      6.3485794E-10
   6.780000      6.9663797E-10
   6.840000      7.6063572E-10
   6.900000      8.2717699E-10
   6.960000      8.9644736E-10
   7.020000      9.6829345E-10
   7.080000      1.0420813E-09
   7.140000      1.1166763E-09
   7.200000      1.1905527E-09
   7.260000      1.2619886E-09
   7.320000      1.3292759E-09
   7.380000      1.3908903E-09
   7.440000      1.4456033E-09
   7.500000      1.4925545E-09
   7.560000      1.5313165E-09
   7.620000      1.5619657E-09
   7.680000      1.5851387E-09
   7.740000      1.6020300E-09
   7.800000      1.6142843E-09
   7.860000      1.6237742E-09
   7.920000      1.6322913E-09
   7.980000      1.6412254E-09
   8.040000      1.6513149E-09
   8.100000      1.6625379E-09
   8.160000      1.6741752E-09
   8.220000      1.6850333E-09
   8.280000      1.6937829E-09
   8.340000      1.6993374E-09
   8.400000      1.7011956E-09
   8.460000      1.6996620E-09
   8.520000      1.6958809E-09
   8.580000      1.6916424E-09
   8.640000      1.6889692E-09
   8.700000      1.6895582E-09
   8.760000      1.6942053E-09
   8.820000      1.7023837E-09
   8.880000      1.7121240E-09
   8.940000      1.7202817E-09
   9.000000      1.7231553E-09
   9.060000      1.7173025E-09
   9.120000      1.7003184E-09
   9.180000      1.6713313E-09
   9.240000      1.6310577E-09
   9.300000      1.5814096E-09
   9.360000      1.5247972E-09
   9.420000      1.4633827E-09
   9.480000      1.3985377E-09
   9.540000      1.3306617E-09
   9.600000      1.2593624E-09
   9.660000      1.1838510E-09
   9.720000      1.1033334E-09
   9.780000      1.0172178E-09
   9.840000      9.2507452E-10
   9.900000      8.2643037E-10
   9.960000      7.2056000E-10
   10.02000      6.0644134E-10
   10.08000      4.8294346E-10
   10.14000      3.4918746E-10
   10.20000      2.0492674E-10
   10.26000      5.0777427E-11
   10.32000     -1.1180099E-10
   10.38000     -2.8076164E-10
   10.44000     -4.5385704E-10
   10.50000     -6.2901678E-10
   10.56000     -8.0461637E-10
   10.62000     -9.7960140E-10
   10.68000     -1.1534959E-09
   10.74000     -1.3263328E-09
   10.80000     -1.4985205E-09
   10.86000     -1.6706264E-09
   10.92000     -1.8430514E-09
   10.98000     -2.0156132E-09
   11.04000     -2.1871236E-09
   11.10000     -2.3550930E-09
   11.16000     -2.5157010E-09
   11.22000     -2.6641092E-09
   11.28000     -2.7950955E-09
   11.34000     -2.9038940E-09
   11.40000     -2.9870699E-09
   11.46000     -3.0432583E-09
   11.52000     -3.0736191E-09
   11.58000     -3.0819227E-09
   11.64000     -3.0742249E-09
   11.70000     -3.0581766E-09
   11.76000     -3.0420764E-09
   11.82000     -3.0338660E-09
   11.88000     -3.0402989E-09
   11.94000     -3.0664677E-09
   12.00000     -3.1157557E-09
   12.06000     -3.1900946E-09
   12.12000     -3.2902840E-09
   12.18000     -3.4161014E-09
   12.24000     -3.5660703E-09
   12.30000     -3.7369765E-09
   12.36000     -3.9234198E-09
   12.42000     -4.1177657E-09
   12.48000     -4.3107269E-09
   12.54000     -4.4925508E-09
   12.60000     -4.6545110E-09
   12.66000     -4.7902438E-09
   12.72000     -4.8965214E-09
   12.78000     -4.9732676E-09
   12.84000     -5.0228808E-09
   12.90000     -5.0491646E-09
   12.96000     -5.0562137E-09
   13.02000     -5.0475557E-09
   13.08000     -5.0256896E-09
   13.14000     -4.9920228E-09
   13.20000     -4.9470805E-09
   13.26000     -4.8908313E-09
   13.32000     -4.8229500E-09
   13.38000     -4.7428914E-09
   13.44000     -4.6497211E-09
   13.50000     -4.5417732E-09
   13.56000     -4.4162958E-09
   13.62000     -4.2693005E-09
   13.68000     -4.0957953E-09
   13.74000     -3.8904293E-09
   13.80000     -3.6484129E-09
   13.86000     -3.3664631E-09
   13.92000     -3.0435188E-09
   13.98000     -2.6810916E-09
   14.04000     -2.2832864E-09
   14.10000     -1.8566332E-09
   14.16000     -1.4098644E-09
   14.22000     -9.5367247E-10
   14.28000     -5.0036675E-10
   14.34000     -6.3302218E-11
   14.40000      3.4396855E-10
   14.46000      7.0873252E-10
   14.52000      1.0201315E-09
   14.58000      1.2699234E-09
   14.64000      1.4528465E-09
   14.70000      1.5665830E-09
   14.76000      1.6114188E-09
   14.82000      1.5897276E-09
   14.88000      1.5053730E-09
   14.94000      1.3630973E-09
   15.00000      1.1679774E-09
   15.06000      9.2508556E-10
   15.12000      6.3950095E-10
   15.18000      3.1673844E-10
   15.24000     -3.6518070E-11
   15.30000     -4.1168688E-10
   15.36000     -7.9795620E-10
   15.42000     -1.1826286E-09
   15.48000     -1.5521420E-09
   15.54000     -1.8934465E-09
   15.60000     -2.1952318E-09
   15.66000     -2.4485507E-09
   15.72000     -2.6466718E-09
   15.78000     -2.7843476E-09
   15.84000     -2.8569598E-09
   15.90000     -2.8600395E-09
   15.96000     -2.7894727E-09
   16.02000     -2.6423832E-09
   16.08000     -2.4184006E-09
   16.14000     -2.1208615E-09
   16.20000     -1.7575390E-09
   16.26000     -1.3406485E-09
   16.32000     -8.8611563E-10
   16.38000     -4.1227377E-10
   16.44000      6.1711782E-11
   16.50000      5.1736493E-10
   16.56000      9.3808183E-10
   16.62000      1.3097962E-09
   16.68000      1.6210898E-09
   16.74000      1.8628596E-09
   16.80000      2.0277831E-09
   16.86000      2.1098800E-09
   16.92000      2.1044571E-09
   16.98000      2.0085937E-09
   17.04000      1.8221510E-09
   17.10000      1.5490494E-09
   17.16000      1.1983941E-09
   17.22000      7.8496726E-10
   17.28000      3.2872846E-10
   17.34000     -1.4674788E-10
   17.40000     -6.1659600E-10
   17.46000     -1.0571455E-09
   17.52000     -1.4478879E-09
   17.58000     -1.7724506E-09
   17.64000     -2.0185200E-09
   17.70000     -2.1771054E-09
   17.76000     -2.2417908E-09
   17.82000     -2.2085336E-09
   17.88000     -2.0762141E-09
   17.94000     -1.8476700E-09
   18.00000     -1.5306350E-09
   18.06000     -1.1380024E-09
   18.12000     -6.8712358E-10
   18.18000     -1.9825919E-10
   18.24000      3.0738209E-10
   18.30000      8.0951373E-10
   18.36000      1.2901989E-09
   18.42000      1.7347187E-09
   18.48000      2.1319382E-09
   18.54000      2.4742746E-09
   18.60000      2.7573388E-09
   18.66000      2.9793041E-09
   18.72000      3.1401430E-09
   18.78000      3.2409715E-09
   18.84000      3.2837915E-09
   18.90000      3.2717851E-09
   18.96000      3.2100318E-09
   19.02000      3.1062299E-09
   19.08000      2.9708631E-09
   19.14000      2.8164191E-09
   19.20000      2.6556584E-09
   19.26000      2.4993929E-09
   19.32000      2.3545235E-09
   19.38000      2.2230586E-09
   19.44000      2.1025131E-09
   19.50000      1.9875890E-09
   19.56000      1.8726019E-09
   19.62000      1.7538732E-09
   19.68000      1.6313468E-09
   19.74000      1.5089539E-09
   19.80000      1.3936565E-09
   19.86000      1.2935216E-09
   19.92000      1.2154783E-09
   19.98000      1.1635201E-09
   20.04000      1.1379488E-09
   20.10000      1.1358748E-09
   20.16000      1.1527107E-09
   20.22000      1.1840050E-09
   20.28000      1.2268412E-09
   20.34000      1.2802284E-09
   20.40000      1.3443537E-09
   20.46000      1.4190469E-09
   20.52000      1.5021077E-09
   20.58000      1.5881642E-09
   20.64000      1.6684963E-09
   20.70000      1.7319046E-09
   20.76000      1.7664118E-09
   20.82000      1.7613939E-09
   20.88000      1.7096751E-09
   20.94000      1.6091104E-09
   21.00000      1.4632316E-09
   21.06000      1.2806711E-09
   21.12000      1.0733777E-09
   21.18000      8.5403706E-10
   21.24000      6.3348388E-10
   21.30000      4.1901652E-10
   21.36000      2.1424557E-10
   21.42000      2.0486087E-11
   21.48000     -1.6101188E-10
   21.54000     -3.2713968E-10
   21.60000     -4.7236282E-10
   21.66000     -5.8994176E-10
   21.72000     -6.7450812E-10
   21.78000     -7.2489331E-10
   21.84000     -7.4595768E-10
   21.90000     -7.4860407E-10
   21.96000     -7.4794421E-10
   22.02000     -7.6032747E-10
   22.08000     -8.0030904E-10
   22.14000     -8.7850799E-10
   22.20000     -1.0008340E-09
   22.26000     -1.1690029E-09
   22.32000     -1.3818711E-09
   22.38000     -1.6369974E-09
   22.44000     -1.9319382E-09
   22.50000     -2.2649762E-09
   22.56000     -2.6351687E-09
   22.62000     -3.0417531E-09
   22.68000     -3.4830654E-09
   22.74000     -3.9552575E-09
   22.80000     -4.4511750E-09
   22.86000     -4.9597704E-09
   22.92000     -5.4662861E-09
   22.98000     -5.9532117E-09
   23.04000     -6.4017507E-09
   23.10000     -6.7933636E-09
   23.16000     -7.1109518E-09
   23.22000     -7.3394357E-09
   23.28000     -7.4657267E-09
   23.34000     -7.4783513E-09
   23.40000     -7.3670852E-09
   23.46000     -7.1229342E-09
   23.52000     -6.7386345E-09
   23.58000     -6.2096435E-09
   23.64000     -5.5354339E-09
   23.70000     -4.7207909E-09
   23.76000     -3.7768024E-09
   23.82000     -2.7212859E-09
   23.88000     -1.5784827E-09
   23.94000     -3.7799586E-10
   24.00000      8.4692819E-10
   24.06000      2.0615361E-09
   24.12000      3.2318066E-09
   24.18000      4.3264610E-09
   24.24000      5.3184790E-09
   24.30000      6.1860095E-09
   24.36000      6.9127144E-09
   24.42000      7.4877287E-09
   24.48000      7.9054594E-09
   24.54000      8.1654017E-09
   24.60000      8.2720026E-09
   24.66000      8.2345215E-09
   24.72000      8.0667437E-09
   24.78000      7.7864399E-09
   24.84000      7.4145685E-09
   24.90000      6.9742865E-09
   24.96000      6.4898718E-09
   25.02000      5.9856227E-09
   25.08000      5.4846963E-09
   25.14000      5.0078408E-09
   25.20000      4.5720165E-09
   25.26000      4.1890438E-09
   25.32000      3.8645611E-09
   25.38000      3.5976189E-09
   25.44000      3.3811278E-09
   25.50000      3.2031533E-09
   25.56000      3.0487808E-09
   25.62000      2.9021285E-09
   25.68000      2.7480771E-09
   25.74000      2.5734459E-09
   25.80000      2.3675495E-09
   25.86000      2.1222284E-09
   25.92000      1.8315307E-09
   25.98000      1.4912176E-09
   26.04000      1.0982677E-09
   26.10000      6.5055483E-10
   26.16000      1.4688738E-10
   26.22000     -4.1247683E-10
   26.28000     -1.0248961E-09
   26.34000     -1.6843090E-09
   26.40000     -2.3806022E-09
   26.46000     -3.0998777E-09
   26.52000     -3.8258388E-09
   26.58000     -4.5420205E-09
   26.64000     -5.2341678E-09
   26.70000     -5.8918750E-09
   26.76000     -6.5088863E-09
   26.82000     -7.0820199E-09
   26.88000     -7.6093505E-09
   26.94000     -8.0886569E-09
   27.00000     -8.5169996E-09
   27.06000     -8.8917522E-09
   27.12000     -9.2125809E-09
   27.18000     -9.4833545E-09
   27.24000     -9.7128616E-09
   27.30000     -9.9137241E-09
   27.36000     -1.0099695E-08
   27.42000     -1.0282281E-08
   27.48000     -1.0467955E-08
   27.54000     -1.0657027E-08
   27.60000     -1.0844503E-08
   27.66000     -1.1022478E-08
   27.72000     -1.1183027E-08
   27.78000     -1.1320375E-08
   27.84000     -1.1431541E-08
   27.90000     -1.1515279E-08
   27.96000     -1.1569836E-08
   28.02000     -1.1590572E-08
   28.08000     -1.1568503E-08
   28.14000     -1.1490505E-08
   28.20000     -1.1341342E-08
   28.26000     -1.1106994E-08
   28.32000     -1.0778212E-08
   28.38000     -1.0353133E-08
   28.44000     -9.8380211E-09
   28.50000     -9.2458299E-09
   28.56000     -8.5930285E-09
   28.62000     -7.8957978E-09
   28.68000     -7.1669133E-09
   28.74000     -6.4143713E-09
   28.80000     -5.6421414E-09
   28.86000     -4.8526054E-09
   28.92000     -4.0495727E-09
   28.98000     -3.2405845E-09
   29.04000     -2.4375373E-09
   29.10000     -1.6553483E-09
   29.16000     -9.0918839E-10
   29.22000     -2.1135782E-10
   29.28000      4.3097642E-10
   29.34000      1.0162955E-09
   29.40000      1.5472411E-09
   29.46000      2.0275917E-09
   29.52000      2.4587170E-09
   29.58000      2.8367431E-09
   29.64000      3.1514713E-09
   29.70000      3.3875516E-09
   29.76000      3.5276888E-09
   29.82000      3.5569563E-09
   29.88000      3.4668770E-09
   29.94000      3.2579639E-09
   30.00000      2.9398859E-09
   30.06000      2.5292533E-09
   30.12000      2.0458397E-09
   30.18000      1.5085924E-09
   30.24000      9.3279595E-10
   30.30000      3.2925146E-10
   30.36000     -2.9451075E-10
   30.42000     -9.3175845E-10
   30.48000     -1.5740500E-09
   30.54000     -2.2098450E-09
   30.60000     -2.8248521E-09
   30.66000     -3.4039727E-09
   30.72000     -3.9340482E-09
   30.78000     -4.4063051E-09
   30.84000     -4.8175344E-09
   30.90000     -5.1695492E-09
   30.96000     -5.4671094E-09
   31.02000     -5.7150498E-09
   31.08000     -5.9156076E-09
   31.14000     -6.0668199E-09
   31.20000     -6.1624692E-09
   31.26000     -6.1934879E-09
   31.32000     -6.1502776E-09
   31.38000     -6.0251395E-09
   31.44000     -5.8140510E-09
   31.50000     -5.5173111E-09
   31.56000     -5.1389986E-09
   31.62000     -4.6855804E-09
   31.68000     -4.1642663E-09
   31.74000     -3.5817747E-09
   31.80000     -2.9440037E-09
   31.86000     -2.2567643E-09
   31.92000     -1.5273234E-09
   31.98000     -7.6611040E-10
   32.04000      1.2239307E-11
   32.10000      7.8919610E-10
   32.16000      1.5442413E-09
   32.22000      2.2579416E-09
   32.28000      2.9151925E-09
   32.34000      3.5074215E-09
   32.40000      4.0328789E-09
   32.46000      4.4949449E-09
   32.52000      4.8992459E-09
   32.58000      5.2509415E-09
   32.64000      5.5533924E-09
   32.70000      5.8086806E-09
   32.76000      6.0194094E-09
   32.82000      6.1904739E-09
   32.88000      6.3294676E-09
   32.94000      6.4450760E-09
   33.00000      6.5439192E-09
   33.06000      6.6272019E-09
   33.12000      6.6887691E-09
   33.18000      6.7156263E-09
   33.24000      6.6909474E-09
   33.30000      6.5985706E-09
   33.36000      6.4274648E-09
   33.42000      6.1747096E-09
   33.48000      5.8461751E-09
   33.54000      5.4548486E-09
   33.60000      5.0174696E-09
   33.66000      4.5505071E-09
   33.72000      4.0666621E-09
   33.78000      3.5728871E-09
   33.84000      3.0705243E-09
   33.90000      2.5575184E-09
   33.96000      2.0319038E-09
   34.02000      1.4951795E-09
   34.08000      9.5403474E-10
   34.14000      4.1940376E-10
   34.20000     -9.7074571E-11
   34.26000     -5.8789212E-10
   34.32000     -1.0537170E-09
   34.38000     -1.5046715E-09
   34.44000     -1.9578992E-09
   34.50000     -2.4320173E-09
   34.56000     -2.9403842E-09
   34.62000     -3.4856511E-09
   34.68000     -4.0575840E-09
   34.74000     -4.6349000E-09
   34.80000     -5.1904361E-09
   34.86000     -5.6979070E-09
   34.92000     -6.1381562E-09
   34.98000     -6.5031296E-09
   35.04000     -6.7965820E-09
   35.10000     -7.0315029E-09
   35.16000     -7.2251360E-09
   35.22000     -7.3931554E-09
   35.28000     -7.5448785E-09
   35.34000     -7.6811491E-09
   35.40000     -7.7957640E-09
   35.46000     -7.8800388E-09
   35.52000     -7.9288673E-09
   35.58000     -7.9458511E-09
   35.64000     -7.9452311E-09
   35.70000     -7.9494678E-09
   35.76000     -7.9830027E-09
   35.82000     -8.0642746E-09
   35.88000     -8.1988327E-09
   35.94000     -8.3760057E-09
   36.00000     -8.5703133E-09
   36.06000     -8.7471435E-09
   36.12000     -8.8708720E-09
   36.18000     -8.9129113E-09
   36.24000     -8.8573904E-09
   36.30000     -8.7029441E-09
   36.36000     -8.4603240E-09
   36.42000     -8.1466647E-09
   36.48000     -7.7782891E-09
   36.54000     -7.3643935E-09
   36.60000     -6.9038188E-09
   36.66000     -6.3862124E-09
   36.72000     -5.7973559E-09
   36.78000     -5.1268656E-09
   36.84000     -4.3753223E-09
   36.90000     -3.5578942E-09
   36.96000     -2.7026692E-09
   37.02000     -1.8439678E-09
   37.08000     -1.0129229E-09
   37.14000     -2.2880525E-10
   37.20000      5.0564053E-10
   37.26000      1.2030951E-09
   37.32000      1.8852127E-09
   37.38000      2.5731997E-09
   37.44000      3.2787870E-09
   37.50000      3.9987289E-09
   37.56000      4.7146300E-09
   37.62000      5.3980891E-09
   37.68000      6.0194152E-09
   37.74000      6.5570496E-09
   37.80000      7.0046449E-09
   37.86000      7.3734543E-09
   37.92000      7.6891995E-09
   37.98000      7.9843527E-09
   38.04000      8.2883664E-09
   38.10000      8.6191587E-09
   38.16000      8.9788132E-09
   38.22000      9.3549737E-09
   38.28000      9.7273425E-09
   38.34000      1.0076764E-08
   38.40000      1.0393379E-08
   38.46000      1.0680745E-08
   38.52000      1.0954392E-08
   38.58000      1.1235453E-08
   38.64000      1.1541921E-08
   38.70000      1.1880873E-08
   38.76000      1.2244575E-08
   38.82000      1.2611854E-08
   38.88000      1.2954163E-08
   38.94000      1.3244125E-08
   39.00000      1.3463527E-08
   39.06000      1.3608076E-08
   39.12000      1.3687416E-08
   39.18000      1.3720578E-08
   39.24000      1.3728647E-08
   39.30000      1.3727228E-08
   39.36000      1.3721380E-08
   39.42000      1.3704603E-08
   39.48000      1.3662009E-08
   39.54000      1.3576300E-08
   39.60000      1.3434202E-08
   39.66000      1.3231017E-08
   39.72000      1.2971781E-08
   39.78000      1.2668865E-08
   39.84000      1.2337178E-08
   39.90000      1.1988869E-08
   39.96000      1.1629462E-08
   40.02000      1.1256668E-08
   40.08000      1.0862113E-08
   40.14000      1.0435200E-08
   40.20000      9.9676862E-09
   40.26000      9.4574020E-09
   40.32000      8.9098791E-09
   40.38000      8.3373957E-09
   40.44000      7.7557862E-09
   40.50000      7.1802106E-09
   40.56000      6.6214039E-09
   40.62000      6.0838588E-09
   40.68000      5.5666285E-09
   40.74000      5.0663997E-09
   40.80000      4.5815125E-09
   40.86000      4.1151251E-09
   40.92000      3.6760561E-09
   40.98000      3.2768424E-09
   41.04000      2.9298202E-09
   41.10000      2.6429834E-09
   41.16000      2.4175053E-09
   41.22000      2.2480786E-09
   41.28000      2.1259430E-09
   41.34000      2.0432378E-09
   41.40000      1.9967410E-09
   41.46000      1.9893416E-09
   41.52000      2.0286199E-09
   41.58000      2.1231692E-09
   41.64000      2.2782205E-09
   41.70000      2.4923708E-09
   41.76000      2.7567333E-09
   41.82000      3.0568486E-09
   41.88000      3.3766736E-09
   41.94000      3.7032202E-09
   42.00000      4.0302193E-09
   42.06000      4.3594883E-09
   42.12000      4.6994559E-09
   42.18000      5.0612488E-09
   42.24000      5.4536264E-09
   42.30000      5.8785563E-09
   42.36000      6.3291159E-09
   42.42000      6.7906596E-09
   42.48000      7.2449589E-09
   42.54000      7.6758155E-09
   42.60000      8.0739158E-09
   42.66000      8.4388931E-09
   42.72000      8.7776284E-09
   42.78000      9.0994137E-09
   42.84000      9.4099404E-09
   42.90000      9.7066639E-09
   42.96000      9.9774926E-09
   43.02000      1.0203387E-08
   43.08000      1.0363836E-08
   43.14000      1.0443029E-08
   43.20000      1.0434374E-08
   43.26000      1.0341788E-08
   43.32000      1.0177433E-08
   43.38000      9.9569180E-09
   43.44000      9.6937400E-09
   43.50000      9.3948662E-09
   43.56000      9.0588781E-09
   43.62000      8.6771887E-09
   43.68000      8.2379215E-09
   43.74000      7.7311535E-09
   43.80000      7.1538544E-09
   43.86000      6.5128511E-09
   43.92000      5.8247998E-09
   43.98000      5.1131099E-09
   44.04000      4.4028443E-09
   44.10000      3.7152932E-09
   44.16000      3.0640022E-09
   44.22000      2.4533902E-09
   44.28000      1.8801003E-09
   44.34000      1.3362819E-09
   44.40000      8.1350304E-10
   44.46000      3.0605843E-10
   44.52000     -1.8711407E-10
   44.58000     -6.6215433E-10
   44.64000     -1.1114819E-09
   44.70000     -1.5260792E-09
   44.76000     -1.8982718E-09
   44.82000     -2.2242344E-09
   44.88000     -2.5053395E-09
   44.94000     -2.7476472E-09
   45.00000     -2.9594291E-09
   45.06000     -3.1474954E-09
   45.12000     -3.3138290E-09
   45.18000     -3.4541432E-09
   45.24000     -3.5592578E-09
   45.30000     -3.6189176E-09
   45.36000     -3.6264654E-09
   45.42000     -3.5823366E-09
   45.48000     -3.4949017E-09
   45.54000     -3.3784437E-09
   45.60000     -3.2493295E-09
   45.66000     -3.1220277E-09
   45.72000     -3.0063514E-09
   45.78000     -2.9064708E-09
   45.84000     -2.8214198E-09
   45.90000     -2.7465055E-09
   45.96000     -2.6751652E-09
   46.02000     -2.6011036E-09
   46.08000     -2.5205769E-09
   46.14000     -2.4343727E-09
   46.20000     -2.3487079E-09
   46.26000     -2.2743178E-09
   46.32000     -2.2236686E-09
   46.38000     -2.2071724E-09
   46.44000     -2.2299809E-09
   46.50000     -2.2908064E-09
   46.56000     -2.3833151E-09
   46.62000     -2.4993683E-09
   46.68000     -2.6325482E-09
   46.74000     -2.7804095E-09
   46.80000     -2.9446907E-09
   46.86000     -3.1297589E-09
   46.92000     -3.3402143E-09
   46.98000     -3.5786218E-09
   47.04000     -3.8439274E-09
   47.10000     -4.1307047E-09
   47.16000     -4.4292618E-09
   47.22000     -4.7267190E-09
   47.28000     -5.0091264E-09
   47.34000     -5.2643077E-09
   47.40000     -5.4845182E-09
   47.46000     -5.6676903E-09
   47.52000     -5.8164065E-09
   47.58000     -5.9348255E-09
   47.64000     -6.0249752E-09
   47.70000     -6.0843539E-09
   47.76000     -6.1062173E-09
   47.82000     -6.0824545E-09
   47.88000     -6.0074998E-09
   47.94000     -5.8811391E-09
   48.00000     -5.7087592E-09
   48.06000     -5.4990803E-09
   48.12000     -5.2607301E-09
   48.18000     -4.9994431E-09
   48.24000     -4.7169499E-09
   48.30000     -4.4114827E-09
   48.36000     -4.0790167E-09
   48.42000     -3.7143850E-09
   48.48000     -3.3120759E-09
   48.54000     -2.8671239E-09
   48.60000     -2.3765032E-09
   48.66000     -1.8408182E-09
   48.72000     -1.2654111E-09
   48.78000     -6.5993261E-10
   48.84000     -3.6167489E-11
   48.90000      5.9499611E-10
   48.96000      1.2259259E-09
   49.02000      1.8527490E-09
   49.08000      2.4739928E-09
   49.14000      3.0885596E-09
   49.20000      3.6945969E-09
   49.26000      4.2900807E-09
   49.32000      4.8745825E-09
   49.38000      5.4507368E-09
   49.44000      6.0240541E-09
   49.50000      6.6008949E-09
   49.56000      7.1858071E-09
   49.62000      7.7800273E-09
   49.68000      8.3823268E-09
   49.74000      8.9919210E-09
   49.80000      9.6118704E-09
   49.86000      1.0251102E-08
   49.92000      1.0924064E-08
   49.98000      1.1648432E-08
   50.04000      1.2442325E-08
   50.10000      1.3322468E-08
   50.16000      1.4303930E-08
   50.22000      1.5400975E-08
   50.28000      1.6628110E-08
   50.34000      1.8000680E-08
   50.40000      1.9535012E-08
   50.46000      2.1248651E-08
   50.52000      2.3161055E-08
   50.58000      2.5294625E-08
   50.64000      2.7675400E-08
   50.70000      3.0332821E-08
   50.76000      3.3298519E-08
   50.82000      3.6604749E-08
   50.88000      4.0283290E-08
   50.94000      4.4365223E-08
   51.00000      4.8881279E-08
   51.06000      5.3861779E-08
   51.12000      5.9335452E-08
   51.18000      6.5327136E-08
   51.24000      7.1855212E-08
   51.30000      7.8929887E-08
   51.36000      8.6553037E-08
   51.42000      9.4719177E-08
   51.48000      1.0341631E-07
   51.54000      1.1262552E-07
   51.60000      1.2231865E-07
   51.66000      1.3245477E-07
   51.72000      1.4297682E-07
   51.78000      1.5380935E-07
   51.84000      1.6485819E-07
   51.90000      1.7601083E-07
   51.96000      1.8713693E-07
   52.02000      1.9808733E-07
   52.08000      2.0869197E-07
   52.14000      2.1875690E-07
   52.20000      2.2806172E-07
   52.26000      2.3635781E-07
   52.32000      2.4336785E-07
   52.38000      2.4878659E-07
   52.44000      2.5228246E-07
   52.50000      2.5349988E-07
   52.56000      2.5206251E-07
   52.62000      2.4757696E-07
   52.68000      2.3963668E-07
   52.74000      2.2782569E-07
   52.80000      2.1172166E-07
   52.86000      1.9089880E-07
   52.92000      1.6493141E-07
   52.98000      1.3339820E-07
   53.04000      9.5888730E-08
   53.10000      5.2010723E-08
   53.16000      1.3983330E-09
   53.22000     -5.6279486E-08
   53.28000     -1.2131058E-07
   53.34000     -1.9393104E-07
   53.40000     -2.7431633E-07
   53.46000     -3.6257214E-07
   53.52000     -4.5872599E-07
   53.58000     -5.6271983E-07
   53.64000     -6.7440453E-07
   53.70000     -7.9353521E-07
   53.76000     -9.1976784E-07
   53.82000     -1.0526554E-06
   53.88000     -1.1916447E-06
   53.94000     -1.3360735E-06
   54.00000     -1.4851699E-06
   54.06000     -1.6380535E-06
   54.12000     -1.7937389E-06
   54.18000     -1.9511399E-06
   54.24000     -2.1090755E-06
   54.30000     -2.2662759E-06
   54.36000     -2.4213928E-06
   54.42000     -2.5730087E-06
   54.48000     -2.7196527E-06
   54.54000     -2.8598140E-06
   54.60000     -2.9919590E-06
   54.66000     -3.1145478E-06
   54.72000     -3.2260491E-06
   54.78000     -3.3249587E-06
   54.84000     -3.4098161E-06
   54.90000     -3.4792236E-06
   54.96000     -3.5318637E-06
   55.02000     -3.5665166E-06
   55.08000     -3.5820754E-06
   55.14000     -3.5775622E-06
   55.20000     -3.5521430E-06
   55.26000     -3.5051416E-06
   55.32000     -3.4360539E-06
   55.38000     -3.3445565E-06
   55.44000     -3.2305140E-06
   55.50000     -3.0939839E-06
   55.56000     -2.9352170E-06