  -2.400000      0.0000000E+00
  -2.340000      0.0000000E+00
  -2.280000      0.0000000E+00
  -2.220000      0.0000000E+00
  -2.160000      0.0000000E+00
  -2.100000      0.0000000E+00
  -2.040000      6.9057239E-24
  -1.980000      3.9393404E-23
  -1.920000     -1.1722670E-22
  -1.860000     -2.1052908E-21
  -1.800000     -1.0921936E-20
  -1.740000     -3.2091121E-20
  -1.680000     -5.0727194E-20
  -1.620000      1.5412031E-20
  -1.560000      3.5301145E-19
  -1.500000      1.1658758E-18
  -1.440000      2.3178744E-18
  -1.380000      2.7299444E-18
  -1.320000     -2.6358531E-22
  -1.260000     -8.8004763E-18
  -1.200000     -2.4288256E-17
  -1.140000     -4.0377869E-17
  -1.080000     -4.1281881E-17
  -1.020000     -4.8899617E-18
 -0.9600000      8.3603403E-17
 -0.9000000      2.1012369E-16
 -0.8400000      3.1419840E-16
 -0.7800000      2.9448834E-16
 -0.7200000      5.2115072E-17
 -0.6600000     -4.3346432E-16
 -0.6000000     -1.0308792E-15
 -0.5400000     -1.4415771E-15
 -0.4800000     -1.2899722E-15
 -0.4200000     -3.1752798E-16
 -0.3600000      1.3931384E-15
 -0.3000000      3.2935309E-15
 -0.2400000      4.4661756E-15
 -0.1800000      3.9761213E-15
 -0.1200000      1.3682416E-15
 -5.9999999E-02 -2.9192639E-15
  0.0000000E+00 -7.4746245E-15
  5.9999999E-02 -1.0298175E-14
  0.1200000     -9.5732934E-15
  0.1800000     -4.5351626E-15
  0.2400000      3.9399001E-15
  0.3000000      1.3321511E-14
  0.3600000      2.0071340E-14
  0.4200000      2.0783505E-14
  0.4800000      1.3476256E-14
  0.5400000     -1.3680867E-15
  0.6000000     -2.0374471E-14
  0.6600000     -3.7705533E-14
  0.7200000     -4.6428380E-14
  0.7800000     -4.0645794E-14
  0.8400000     -1.7896356E-14
  0.9000000      1.8973335E-14
  0.9600000      6.1352351E-14
   1.020000      9.6412915E-14
   1.080000      1.1054916E-13
   1.140000      9.3745148E-14
   1.200000      4.3352607E-14
   1.260000     -3.4132148E-14
   1.320000     -1.2389852E-13
   1.380000     -2.0577623E-13
   1.440000     -2.5810861E-13
   1.500000     -2.6143958E-13
   1.560000     -2.0173133E-13
   1.620000     -7.3685686E-14
   1.680000      1.1521124E-13
   1.740000      3.4043165E-13
   1.800000      5.5820848E-13
   1.860000      7.0878627E-13
   1.920000      7.2770159E-13
   1.980000      5.6461167E-13
   2.040000      2.0496254E-13
   2.100000     -3.1346204E-13
   2.160000     -8.9724896E-13
   2.220000     -1.4118257E-12
   2.280000     -1.7119096E-12
   2.340000     -1.6798954E-12
   2.400000     -1.2607187E-12
   2.460000     -4.8263997E-13
   2.520000      5.4190002E-13
   2.580000      1.6349399E-12
   2.640000      2.5855893E-12
   2.700000      3.1886076E-12
   2.760000      3.2815773E-12
   2.820000      2.7754736E-12
   2.880000      1.6756055E-12
   2.940000      9.1029899E-14
   3.000000     -1.7694050E-12
   3.060000     -3.6163097E-12
   3.120000     -5.1154259E-12
   3.180000     -5.9384776E-12
   3.240000     -5.8242408E-12
   3.300000     -4.6406039E-12
   3.360000     -2.4349262E-12
   3.420000      5.4126755E-13
   3.480000      3.8451850E-12
   3.540000      6.8993040E-12
   3.600000      9.0884722E-12
   3.660000      9.8837431E-12
   3.720000      8.9694589E-12
   3.780000      6.3445395E-12
   3.840000      2.3698647E-12
   3.900000     -2.2580065E-12
   3.960000     -6.6117602E-12
   4.020000     -9.7035964E-12
   4.080000     -1.0690049E-11
   4.140000     -9.0684699E-12
   4.200000     -4.8198901E-12
   4.260000      1.5381442E-12
   4.320000      9.0055090E-12
   4.380000      1.6251837E-11
   4.440000      2.1835304E-11
   4.500000      2.4441912E-11
   4.560000      2.3099361E-11
   4.620000      1.7333083E-11
   4.680000      7.2517751E-12
   4.740000     -6.4336253E-12
   4.800000     -2.2447872E-11
   4.860000     -3.9042661E-11
   4.920000     -5.4148103E-11
   4.980000     -6.5594780E-11
   5.040000     -7.1404514E-11
   5.100000     -7.0119563E-11
   5.160000     -6.1108632E-11
   5.220000     -4.4769539E-11
   5.280000     -2.2559820E-11
   5.340000      3.1710617E-12
   5.400000      2.9514915E-11
   5.460000      5.3418412E-11
   5.520000      7.2072258E-11
   5.580000      8.3192474E-11
   5.640000      8.5163591E-11
   5.700000      7.7071315E-11
   5.760000      5.8685778E-11
   5.820000      3.0450052E-11
   5.880000     -6.5123115E-12
   5.940000     -5.0406339E-11
   6.000000     -9.8853883E-11
   6.060000     -1.4910866E-10
   6.120000     -1.9839254E-10
   6.180000     -2.4428448E-10
   6.240000     -2.8505179E-10
   6.300000     -3.1982295E-10
   6.360000     -3.4855441E-10
   6.420000     -3.7182171E-10
   6.480000     -3.9052434E-10
   6.540000     -4.0561141E-10
   6.600000     -4.1790202E-10
   6.660000     -4.2801659E-10
   6.720000     -4.3638351E-10
   6.780000     -4.4326917E-10
   6.840000     -4.4879966E-10
   6.900000     -4.5298029E-10
   6.960000     -4.5574500E-10
   7.020000     -4.5706194E-10
   7.080000     -4.5708681E-10
   7.140000     -4.5631762E-10
   7.200000     -4.5568990E-10
   7.260000     -4.5657303E-10
   7.320000     -4.6067547E-10
   7.380000     -4.6990922E-10
   7.440000     -4.8626952E-10
   7.500000     -5.1175608E-10
   7.560000     -5.4830568E-10
   7.620000     -5.9767163E-10
   7.680000     -6.6119232E-10
   7.740000     -7.3944523E-10
   7.800000     -8.3185669E-10
   7.860000     -9.3638630E-10
   7.920000     -1.0494016E-09
   7.980000     -1.1658003E-09
   8.040000     -1.2793611E-09
   8.100000     -1.3832360E-09
   8.160000     -1.4704913E-09
   8.220000     -1.5346191E-09
   8.280000     -1.5699908E-09
   8.340000     -1.5722473E-09
   8.400000     -1.5386109E-09
   8.460000     -1.4680843E-09
   8.520000     -1.3614866E-09
   8.580000     -1.2212996E-09
   8.640000     -1.0513539E-09
   8.700000     -8.5645013E-10
   8.760000     -6.4203692E-10
   8.820000     -4.1404002E-10
   8.880000     -1.7885148E-10
   8.940000      5.6611282E-11
   9.000000      2.8492550E-10
   9.060000      4.9839649E-10
   9.120000      6.8954586E-10
   9.180000      8.5176532E-10
   9.240000      9.7993735E-10
   9.300000      1.0708013E-09
   9.360000      1.1229169E-09
   9.420000      1.1362306E-09
   9.480000      1.1114232E-09
   9.540000      1.0493153E-09
   9.600000      9.5059938E-10
   9.660000      8.1602480E-10
   9.720000      6.4696748E-10
   9.780000      4.4612661E-10
   9.840000      2.1802639E-10
   9.900000     -3.0927951E-11
   9.960000     -2.9289970E-10
   10.02000     -5.5942789E-10
   10.08000     -8.2231566E-10
   10.14000     -1.0743343E-09
   10.20000     -1.3096129E-09
   10.26000     -1.5237491E-09
   10.32000     -1.7137889E-09
   10.38000     -1.8782009E-09
   10.44000     -2.0168693E-09
   10.50000     -2.1310023E-09
   10.56000     -2.2228250E-09
   10.62000     -2.2950077E-09
   10.68000     -2.3499449E-09
   10.74000     -2.3891331E-09
   10.80000     -2.4129156E-09
   10.86000     -2.4207347E-09
   10.92000     -2.4118236E-09
   10.98000     -2.3861044E-09
   11.04000     -2.3449889E-09
   11.10000     -2.2918469E-09
   11.16000     -2.2320463E-09
   11.22000     -2.1725770E-09
   11.28000     -2.1213358E-09
   11.34000     -2.0861586E-09
   11.40000     -2.0736948E-09
   11.46000     -2.0882924E-09
   11.52000     -2.1311257E-09
   11.58000     -2.1998319E-09
   11.64000     -2.2888227E-09
   11.70000     -2.3902236E-09
   11.76000     -2.4951587E-09
   11.82000     -2.5949614E-09
   11.88000     -2.6819758E-09
   11.94000     -2.7498595E-09
   12.00000     -2.7935980E-09
   12.06000     -2.8096137E-09
   12.12000     -2.7962794E-09
   12.18000     -2.7548681E-09
   12.24000     -2.6906215E-09
   12.30000     -2.6134142E-09
   12.36000     -2.5375273E-09
   12.42000     -2.4803217E-09
   12.48000     -2.4599960E-09
   12.54000     -2.4929359E-09
   12.60000     -2.5913027E-09
   12.66000     -2.7614224E-09
   12.72000     -3.0032881E-09
   12.78000     -3.3111860E-09
   12.84000     -3.6751742E-09
   12.90000     -4.0829735E-09
   12.96000     -4.5217998E-09
   13.02000     -4.9797459E-09
   13.08000     -5.4465463E-09
   13.14000     -5.9137744E-09
   13.20000     -6.3747190E-09
   13.26000     -6.8242305E-09
   13.32000     -7.2587216E-09
   13.38000     -7.6763165E-09
   13.44000     -8.0769640E-09
   13.50000     -8.4622798E-09
   13.56000     -8.8349807E-09
   13.62000     -9.1979819E-09
   13.68000     -9.5533714E-09
   13.74000     -9.9015685E-09
   13.80000     -1.0240853E-08
   13.86000     -1.0567360E-08
   13.92000     -1.0875511E-08
   13.98000     -1.1158779E-08
   14.04000     -1.1410737E-08
   14.10000     -1.1626241E-08
   14.16000     -1.1802568E-08
   14.22000     -1.1940191E-08
   14.28000     -1.2042911E-08
   14.34000     -1.2117165E-08
   14.40000     -1.2170648E-08
   14.46000     -1.2210628E-08
   14.52000     -1.2242443E-08
   14.58000     -1.2268552E-08
   14.64000     -1.2288244E-08
   14.70000     -1.2297818E-08
   14.76000     -1.2290974E-08
   14.82000     -1.2259243E-08
   14.88000     -1.2192507E-08
   14.94000     -1.2079755E-08
   15.00000     -1.1910235E-08
   15.06000     -1.1674887E-08
   15.12000     -1.1367838E-08
   15.18000     -1.0987582E-08
   15.24000     -1.0537663E-08
   15.30000     -1.0026819E-08
   15.36000     -9.4687049E-09
   15.42000     -8.8812833E-09
   15.48000     -8.2858982E-09
   15.54000     -7.7059479E-09
   15.60000     -7.1651591E-09
   15.66000     -6.6856645E-09
   15.72000     -6.2862000E-09
   15.78000     -5.9807932E-09
   15.84000     -5.7780531E-09
   15.90000     -5.6809397E-09
   15.96000     -5.6867240E-09
   16.02000     -5.7869598E-09
   16.08000     -5.9675647E-09
   16.14000     -6.2093215E-09
   16.20000     -6.4891226E-09
   16.26000     -6.7819736E-09
   16.32000     -7.0633597E-09
   16.38000     -7.3113755E-09
   16.44000     -7.5080981E-09
   16.50000     -7.6400957E-09
   16.56000     -7.6983433E-09
   16.62000     -7.6779880E-09
   16.68000     -7.5782092E-09
   16.74000     -7.4020634E-09
   16.80000     -7.1559909E-09
   16.86000     -6.8487456E-09
   16.92000     -6.4898829E-09
   16.98000     -6.0883041E-09
   17.04000     -5.6514264E-09
   17.10000     -5.1852349E-09
   17.16000     -4.6949693E-09
   17.22000     -4.1858415E-09
   17.28000     -3.6632233E-09
   17.34000     -3.1321281E-09
   17.40000     -2.5963225E-09
   17.46000     -2.0576387E-09
   17.52000     -1.5159390E-09
   17.58000     -9.6979214E-10
   17.64000     -4.1756654E-10
   17.70000      1.4145446E-10
   17.76000      7.0617928E-10
   17.82000      1.2730701E-09
   17.88000      1.8357513E-09
   17.94000      2.3850055E-09
   18.00000      2.9094835E-09
   18.06000      3.3973844E-09
   18.12000      3.8389740E-09
   18.18000      4.2292507E-09
   18.24000      4.5697255E-09
   18.30000      4.8684585E-09
   18.36000      5.1381819E-09
   18.42000      5.3932179E-09
   18.48000      5.6464797E-09
   18.54000      5.9077689E-09
   18.60000      6.1839343E-09
   18.66000      6.4805654E-09
   18.72000      6.8042230E-09
   18.78000      7.1640875E-09
   18.84000      7.5722246E-09
   18.90000      8.0422735E-09
   18.96000      8.5868583E-09
   19.02000      9.2143688E-09
   19.08000      9.9258619E-09
   19.14000      1.0712883E-08
   19.20000      1.1556915E-08
   19.26000      1.2430871E-08
   19.32000      1.3302550E-08
   19.38000      1.4139347E-08
   19.44000      1.4912933E-08
   19.50000      1.5602602E-08
   19.56000      1.6196354E-08
   19.62000      1.6689665E-08
   19.68000      1.7082696E-08
   19.74000      1.7377207E-08
   19.80000      1.7574290E-08
   19.86000      1.7673624E-08
   19.92000      1.7674235E-08
   19.98000      1.7576269E-08
   20.04000      1.7382975E-08
   20.10000      1.7102073E-08
   20.16000      1.6745730E-08
   20.22000      1.6328698E-08
   20.28000      1.5864686E-08
   20.34000      1.5361763E-08
   20.40000      1.4818333E-08
   20.46000      1.4221429E-08
   20.52000      1.3548616E-08
   20.58000      1.2773529E-08
   20.64000      1.1873628E-08
   20.70000      1.0837638E-08
   20.76000      9.6701145E-09
   20.82000      8.3916332E-09
   20.88000      7.0347177E-09
   20.94000      5.6371618E-09
   21.00000      4.2351092E-09
   21.06000      2.8579288E-09
   21.12000      1.5259730E-09
   21.18000      2.5115551E-10
   21.24000     -9.6048813E-10
   21.30000     -2.1054314E-09
   21.36000     -3.1795973E-09
   21.42000     -4.1765227E-09
   21.48000     -5.0873501E-09
   21.54000     -5.9027907E-09
   21.60000     -6.6165882E-09
   21.66000     -7.2293269E-09
   21.72000     -7.7510629E-09
   21.78000     -8.2014502E-09
   21.84000     -8.6068619E-09
   21.90000     -8.9951877E-09
   21.96000     -9.3899786E-09
   22.02000     -9.8058814E-09
   22.08000     -1.0246845E-08
   22.14000     -1.0707518E-08
   22.20000     -1.1177166E-08
   22.26000     -1.1644777E-08
   22.32000     -1.2103843E-08
   22.38000     -1.2555642E-08
   22.44000     -1.3010331E-08
   22.50000     -1.3485697E-08
   22.56000     -1.4003878E-08
   22.62000     -1.4586798E-08
   22.68000     -1.5251373E-08
   22.74000     -1.6005638E-08
   22.80000     -1.6846712E-08
   22.86000     -1.7760923E-08
   22.92000     -1.8725739E-08
   22.98000     -1.9712720E-08
   23.04000     -2.0690594E-08
   23.10000     -2.1627818E-08
   23.16000     -2.2494524E-08
   23.22000     -2.3263826E-08
   23.28000     -2.3912696E-08
   23.34000     -2.4422329E-08
   23.40000     -2.4778039E-08
   23.46000     -2.4968802E-08
   23.52000     -2.4986861E-08
   23.58000     -2.4827896E-08
   23.64000     -2.4491978E-08
   23.70000     -2.3984992E-08
   23.76000     -2.3319766E-08
   23.82000     -2.2515978E-08
   23.88000     -2.1598412E-08
   23.94000     -2.0593868E-08
   24.00000     -1.9527711E-08
   24.06000     -1.8421101E-08
   24.12000     -1.7289624E-08
   24.18000     -1.6143266E-08
   24.24000     -1.4987265E-08
   24.30000     -1.3823230E-08
   24.36000     -1.2650312E-08
   24.42000     -1.1466497E-08
   24.48000     -1.0270190E-08
   24.54000     -9.0619681E-09
   24.60000     -7.8460278E-09
   24.66000     -6.6306756E-09
   24.72000     -5.4275668E-09
   24.78000     -4.2499573E-09
   24.84000     -3.1107548E-09
   24.90000     -2.0212627E-09
   24.96000     -9.9110475E-10
   25.02000     -2.9187184E-11
   25.08000      8.5496416E-10
   25.14000      1.6502985E-09
   25.20000      2.3443070E-09
   25.26000      2.9241798E-09
   25.32000      3.3787788E-09
   25.38000      3.7009482E-09
   25.44000      3.8895682E-09
   25.50000      3.9507135E-09
   25.56000      3.8973016E-09
   25.62000      3.7468273E-09
   25.68000      3.5172911E-09
   25.74000      3.2221654E-09
   25.80000      2.8658211E-09
   25.86000      2.4410185E-09
   25.92000      1.9295163E-09
   25.98000      1.3058347E-09
   26.04000      5.4310534E-10
   26.10000     -3.8072320E-10
   26.16000     -1.4780390E-09
   26.22000     -2.7491844E-09
   26.28000     -4.1828225E-09
   26.34000     -5.7586345E-09
   26.40000     -7.4515301E-09
   26.46000     -9.2363894E-09
   26.52000     -1.1092249E-08
   26.58000     -1.3004894E-08
   26.64000     -1.4966966E-08
   26.70000     -1.6975349E-08
   26.76000     -1.9026421E-08
   26.82000     -2.1110756E-08
   26.88000     -2.3209237E-08
   26.94000     -2.5292241E-08
   27.00000     -2.7322448E-08
   27.06000     -2.9260375E-08
   27.12000     -3.1070677E-08
   27.18000     -3.2727016E-08
   27.24000     -3.4213823E-08
   27.30000     -3.5524632E-08
   27.36000     -3.6657653E-08
   27.42000     -3.7610299E-08
   27.48000     -3.8374409E-08
   27.54000     -3.8933724E-08
   27.60000     -3.9264364E-08
   27.66000     -3.9338296E-08
   27.72000     -3.9128750E-08
   27.78000     -3.8616019E-08
   27.84000     -3.7791732E-08
   27.90000     -3.6660239E-08
   27.96000     -3.5236649E-08
   28.02000     -3.3542463E-08
   28.08000     -3.1600482E-08
   28.14000     -2.9430945E-08
   28.20000     -2.7050094E-08
   28.26000     -2.4471074E-08
   28.32000     -2.1706226E-08
   28.38000     -1.8769315E-08
   28.44000     -1.5676836E-08
   28.50000     -1.2448231E-08
   28.56000     -9.1055981E-09
   28.62000     -5.6734550E-09
   28.68000     -2.1787376E-09
   28.74000      1.3494137E-09
   28.80000      4.8806492E-09
   28.86000      8.3853982E-09
   28.92000      1.1837328E-08
   28.98000      1.5215218E-08
   29.04000      1.8503238E-08
   29.10000      2.1689276E-08
   29.16000      2.4761867E-08
   29.22000      2.7707019E-08
   29.28000      3.0506190E-08
   29.34000      3.3136246E-08
   29.40000      3.5571340E-08
   29.46000      3.7786062E-08
   29.52000      3.9758859E-08
   29.58000      4.1474728E-08
   29.64000      4.2926533E-08
   29.70000      4.4114568E-08
   29.76000      4.5044203E-08
   29.82000      4.5722132E-08
   29.88000      4.6152142E-08
   29.94000      4.6331706E-08
   30.00000      4.6250850E-08
   30.06000      4.5894282E-08
   30.12000      4.5246395E-08
   30.18000      4.4297892E-08
   30.24000      4.3051614E-08
   30.30000      4.1525361E-08
   30.36000      3.9750304E-08
   30.42000      3.7765211E-08
   30.48000      3.5608206E-08
   30.54000      3.3308893E-08
   30.60000      3.0883459E-08
   30.66000      2.8334673E-08
   30.72000      2.5656831E-08
   30.78000      2.2844164E-08
   30.84000      1.9899948E-08
   30.90000      1.6843167E-08
   30.96000      1.3710252E-08
   31.02000      1.0551003E-08
   31.08000      7.4196920E-09
   31.14000      4.3641366E-09
   31.20000      1.4163308E-09
   31.26000     -1.4121205E-09
   31.32000     -4.1281059E-09
   31.38000     -6.7492048E-09
   31.44000     -9.2925987E-09
   31.50000     -1.1764486E-08
   31.56000     -1.4153590E-08
   31.62000     -1.6430931E-08
   31.68000     -1.8555895E-08
   31.74000     -2.0486580E-08
   31.80000     -2.2191093E-08
   31.86000     -2.3656257E-08
   31.92000     -2.4891136E-08
   31.98000     -2.5924356E-08
   32.04000     -2.6796057E-08
   32.10000     -2.7546882E-08
   32.16000     -2.8207184E-08
   32.22000     -2.8789632E-08
   32.28000     -2.9287371E-08
   32.34000     -2.9678340E-08
   32.40000     -2.9934437E-08
   32.46000     -3.0032705E-08
   32.52000     -2.9965026E-08
   32.58000     -2.9743111E-08
   32.64000     -2.9397109E-08
   32.70000     -2.8968186E-08
   32.76000     -2.8497503E-08
   32.82000     -2.8015252E-08
   32.88000     -2.7533551E-08
   32.94000     -2.7045623E-08
   33.00000     -2.6531625E-08
   33.06000     -2.5969097E-08
   33.12000     -2.5344328E-08
   33.18000     -2.4660620E-08
   33.24000     -2.3940379E-08
   33.30000     -2.3220117E-08
   33.36000     -2.2539989E-08
   33.42000     -2.1931310E-08
   33.48000     -2.1406366E-08
   33.54000     -2.0954094E-08
   33.60000     -2.0543233E-08
   33.66000     -2.0132136E-08
   33.72000     -1.9682158E-08
   33.78000     -1.9170331E-08
   33.84000     -1.8597184E-08
   33.90000     -1.7987119E-08
   33.96000     -1.7380989E-08
   34.02000     -1.6823172E-08
   34.08000     -1.6347151E-08
   34.14000     -1.5964318E-08
   34.20000     -1.5659756E-08
   34.26000     -1.5396653E-08
   34.32000     -1.5128085E-08
   34.38000     -1.4812445E-08
   34.44000     -1.4427335E-08
   34.50000     -1.3977068E-08
   34.56000     -1.3491036E-08
   34.62000     -1.3013335E-08
   34.68000     -1.2587184E-08
   34.74000     -1.2239693E-08
   34.80000     -1.1972475E-08
   34.86000     -1.1761605E-08
   34.92000     -1.1567013E-08
   34.98000     -1.1347955E-08
   35.04000     -1.1078965E-08
   35.10000     -1.0760452E-08
   35.16000     -1.0420085E-08
   35.22000     -1.0104361E-08
   35.28000     -9.8632507E-09
   35.34000     -9.7332347E-09
   35.40000     -9.7245332E-09
   35.46000     -9.8168398E-09
   35.52000     -9.9649471E-09
   35.58000     -1.0112331E-08
   35.64000     -1.0208159E-08
   35.70000     -1.0222194E-08
   35.76000     -1.0152871E-08
   35.82000     -1.0026208E-08
   35.88000     -9.8862252E-09
   35.94000     -9.7803232E-09
   36.00000     -9.7445536E-09
   36.06000     -9.7935571E-09
   36.12000     -9.9182307E-09
   36.18000     -1.0091471E-08
   36.24000     -1.0279672E-08
   36.30000     -1.0455769E-08
   36.36000     -1.0609251E-08
   36.42000     -1.0749746E-08
   36.48000     -1.0902991E-08
   36.54000     -1.1100735E-08
   36.60000     -1.1368186E-08
   36.66000     -1.1713488E-08
   36.72000     -1.2123083E-08
   36.78000     -1.2564705E-08
   36.84000     -1.2997091E-08
   36.90000     -1.3383052E-08
   36.96000     -1.3701233E-08
   37.02000     -1.3952409E-08
   37.08000     -1.4158071E-08
   37.14000     -1.4351952E-08
   37.20000     -1.4567704E-08
   37.26000     -1.4827329E-08
   37.32000     -1.5134484E-08
   37.38000     -1.5474903E-08
   37.44000     -1.5823330E-08
   37.50000     -1.6154099E-08
   37.56000     -1.6451233E-08
   37.62000     -1.6714381E-08
   37.68000     -1.6958648E-08
   37.74000     -1.7208615E-08
   37.80000     -1.7488922E-08
   37.86000     -1.7814786E-08
   37.92000     -1.8185697E-08
   37.98000     -1.8584334E-08
   38.04000     -1.8980954E-08
   38.10000     -1.9341647E-08
   38.16000     -1.9637730E-08
   38.22000     -1.9853180E-08
   38.28000     -1.9987732E-08
   38.34000     -2.0054751E-08
   38.40000     -2.0074722E-08
   38.46000     -2.0066594E-08
   38.52000     -2.0039874E-08
   38.58000     -1.9989988E-08
   38.64000     -1.9898181E-08
   38.70000     -1.9735687E-08
   38.76000     -1.9470550E-08
   38.82000     -1.9074749E-08
   38.88000     -1.8529500E-08
   38.94000     -1.7827409E-08
   39.00000     -1.6971384E-08
   39.06000     -1.5971255E-08
   39.12000     -1.4839628E-08
   39.18000     -1.3588535E-08
   39.24000     -1.2227792E-08
   39.30000     -1.0765304E-08
   39.36000     -9.2086330E-09
   39.42000     -7.5668689E-09
   39.48000     -5.8517782E-09
   39.54000     -4.0777026E-09
   39.60000     -2.2602933E-09
   39.66000     -4.1470519E-10
   39.72000      1.4459584E-09
   39.78000      3.3113396E-09
   39.84000      5.1735607E-09
   39.90000      7.0264119E-09
   39.96000      8.8647099E-09
   40.02000      1.0684437E-08
   40.08000      1.2483864E-08
   40.14000      1.4265196E-08
   40.20000      1.6035862E-08
   40.26000      1.7808361E-08
   40.32000      1.9598016E-08
   40.38000      2.1418757E-08
   40.44000      2.3277995E-08
   40.50000      2.5172321E-08
   40.56000      2.7085973E-08
   40.62000      2.8993199E-08
   40.68000      3.0864463E-08
   40.74000      3.2674826E-08
   40.80000      3.4411798E-08
   40.86000      3.6079761E-08
   40.92000      3.7699074E-08
   40.98000      3.9299685E-08
   41.04000      4.0911171E-08
   41.10000      4.2552333E-08
   41.16000      4.4223878E-08
   41.22000      4.5906564E-08
   41.28000      4.7565432E-08
   41.34000      4.9158547E-08
   41.40000      5.0647380E-08
   41.46000      5.2005195E-08
   41.52000      5.3220905E-08
   41.58000      5.4297082E-08
   41.64000      5.5243142E-08
   41.70000      5.6066281E-08
   41.76000      5.6763568E-08
   41.82000      5.7318310E-08
   41.88000      5.7702117E-08
   41.94000      5.7882183E-08
   42.00000      5.7831127E-08
   42.06000      5.7535793E-08
   42.12000      5.7001852E-08
   42.18000      5.6252393E-08
   42.24000      5.5320996E-08
   42.30000      5.4241717E-08
   42.36000      5.3039322E-08
   42.42000      5.1723028E-08
   42.48000      5.0285628E-08
   42.54000      4.8708394E-08
   42.60000      4.6969983E-08
   42.66000      4.5056701E-08
   42.72000      4.2970736E-08
   42.78000      4.0733642E-08
   42.84000      3.8383739E-08
   42.90000      3.5968018E-08
   42.96000      3.3531311E-08
   43.02000      3.1106385E-08
   43.08000      2.8708692E-08
   43.14000      2.6337601E-08
   43.20000      2.3983562E-08
   43.26000      2.1638265E-08
   43.32000      1.9303721E-08
   43.38000      1.6996884E-08
   43.44000      1.4748259E-08
   43.50000      1.2595457E-08
   43.56000      1.0574285E-08
   43.62000      8.7104990E-09
   43.68000      7.0146986E-09
   43.74000      5.4815494E-09
   43.80000      4.0932164E-09
   43.86000      2.8259297E-09
   43.92000      1.6579120E-09
   43.98000      5.7647542E-10
   44.04000     -4.1797346E-10
   44.10000     -1.3127164E-09
   44.16000     -2.0886153E-09
   44.22000     -2.7294857E-09
   44.28000     -3.2315857E-09
   44.34000     -3.6093104E-09
   44.40000     -3.8943413E-09
   44.46000     -4.1281085E-09
   44.52000     -4.3502832E-09
   44.58000     -4.5878203E-09
   44.64000     -4.8488067E-09
   44.70000     -5.1232760E-09
   44.76000     -5.3902278E-09
   44.82000     -5.6277489E-09
   44.88000     -5.8223275E-09
   44.94000     -5.9742677E-09
   45.00000     -6.0979226E-09
   45.06000     -6.2172760E-09
   45.12000     -6.3586731E-09
   45.18000     -6.5429844E-09
   45.24000     -6.7793455E-09
   45.30000     -7.0621318E-09
   45.36000     -7.3719781E-09
   45.42000     -7.6805637E-09
   45.48000     -7.9577207E-09
   45.54000     -8.1785672E-09
   45.60000     -8.3283327E-09
   45.66000     -8.4034042E-09
   45.72000     -8.4086818E-09
   45.78000     -8.3527150E-09
   45.84000     -8.2427984E-09
   45.90000     -8.0817983E-09
   45.96000     -7.8674143E-09
   46.02000     -7.5934627E-09
   46.08000     -7.2521837E-09
   46.14000     -6.8366668E-09
   46.20000     -6.3428831E-09
   46.26000     -5.7711680E-09
   46.32000     -5.1269984E-09
   46.38000     -4.4208281E-09
   46.44000     -3.6668224E-09
   46.50000     -2.8807416E-09
   46.56000     -2.0777569E-09
   46.62000     -1.2711666E-09
   46.68000     -4.7258403E-10
   46.74000      3.0669764E-10
   46.80000      1.0542294E-09
   46.86000      1.7560154E-09
   46.92000      2.3977400E-09
   46.98000      2.9670937E-09
   47.04000      3.4559444E-09
   47.10000      3.8611687E-09
   47.16000      4.1837871E-09
   47.22000      4.4270578E-09
   47.28000      4.5946753E-09
   47.34000      4.6899324E-09
   47.40000      4.7158926E-09
   47.46000      4.6758926E-09
   47.52000      4.5735997E-09
   47.58000      4.4123496E-09
   47.64000      4.1941828E-09
   47.70000      3.9193186E-09
   47.76000      3.5865526E-09
   47.82000      3.1944489E-09
   47.88000      2.7427201E-09
   47.94000      2.2331632E-09
   48.00000      1.6698943E-09
   48.06000      1.0590415E-09
   48.12000      4.0816109E-10
   48.18000     -2.7455360E-10
   48.24000     -9.8143715E-10
   48.30000     -1.7069511E-09
   48.36000     -2.4493154E-09
   48.42000     -3.2112824E-09
   48.48000     -3.9991530E-09
   48.54000     -4.8198183E-09
   48.60000     -5.6767138E-09
   48.66000     -6.5663959E-09
   48.72000     -7.4774782E-09
   48.78000     -8.3925924E-09
   48.84000     -9.2926484E-09
   48.90000     -1.0161464E-08
   48.96000     -1.0988739E-08
   49.02000     -1.1770165E-08
   49.08000     -1.2504847E-08
   49.14000     -1.3191329E-08
   49.20000     -1.3823994E-08
   49.26000     -1.4391242E-08
   49.32000     -1.4876094E-08
   49.38000     -1.5259058E-08
   49.44000     -1.5522444E-08
   49.50000     -1.5654964E-08
   49.56000     -1.5655273E-08
   49.62000     -1.5533281E-08
   49.68000     -1.5308585E-08
   49.74000     -1.5006185E-08
   49.80000     -1.4650626E-08
   49.86000     -1.4260328E-08
   49.92000     -1.3843894E-08
   49.98000     -1.3399481E-08
   50.04000     -1.2917257E-08
   50.10000     -1.2383981E-08
   50.16000     -1.1788175E-08
   50.22000     -1.1124449E-08
   50.28000     -1.0395939E-08
   50.34000     -9.6144186E-09
   50.40000     -8.7981995E-09
   50.46000     -7.9684099E-09
   50.52000     -7.1446435E-09
   50.58000     -6.3412022E-09
   50.64000     -5.5650315E-09
   50.70000     -4.8159201E-09
   50.76000     -4.0886783E-09
   50.82000     -3.3762579E-09
   50.88000     -2.6724380E-09
   50.94000     -1.9730915E-09
   51.00000     -1.2758177E-09
   51.06000     -5.7854965E-10
   51.12000      1.2192539E-10
   51.18000      8.3080048E-10
   51.24000      1.5552662E-09
   51.30000      2.3039965E-09
   51.36000      3.0864860E-09
   51.42000      3.9124037E-09
   51.48000      4.7908819E-09
   51.54000      5.7296514E-09
   51.60000      6.7342394E-09
   51.66000      7.8077349E-09
   51.72000      8.9516847E-09
   51.78000      1.0168281E-08
   51.84000      1.1463390E-08
   51.90000      1.2849406E-08
   51.96000      1.4346911E-08
   52.02000      1.5984474E-08
   52.08000      1.7796685E-08
   52.14000      1.9821158E-08
   52.20000      2.2095559E-08
   52.26000      2.4655598E-08
   52.32000      2.7534549E-08
   52.38000      3.0764255E-08
   52.44000      3.4377141E-08
   52.50000      3.8408377E-08
   52.56000      4.2897309E-08
   52.62000      4.7887532E-08
   52.68000      5.3425314E-08
   52.74000      5.9556797E-08
   52.80000      6.6324617E-08
   52.86000      7.3764802E-08
   52.92000      8.1904595E-08
   52.98000      9.0761532E-08
   53.04000      1.0034366E-07
   53.10000      1.1065060E-07
   53.16000      1.2167493E-07
   53.22000      1.3340316E-07
   53.28000      1.4581558E-07
   53.34000      1.5888465E-07
   53.40000      1.7257172E-07
   53.46000      1.8682320E-07
   53.52000      2.0156692E-07
   53.58000      2.1671029E-07
   53.64000      2.3214042E-07
   53.70000      2.4772612E-07
   53.76000      2.6332023E-07
   53.82000      2.7876189E-07
   53.88000      2.9387780E-07
   53.94000      3.0848315E-07
   54.00000      3.2238273E-07
   54.06000      3.3537239E-07
   54.12000      3.4724002E-07
   54.18000      3.5776532E-07
   54.24000      3.6671801E-07
   54.30000      3.7385544E-07
   54.36000      3.7892184E-07
   54.42000      3.8165092E-07
   54.48000      3.8177279E-07
   54.54000      3.7902336E-07
   54.60000      3.7315394E-07
   54.66000      3.6393811E-07
   54.72000      3.5117489E-07
   54.78000      3.3468888E-07
   54.84000      3.1432904E-07
   54.90000      2.8996743E-07
   54.96000      2.6149863E-07
   55.02000      2.2883961E-07
   55.08000      1.9193071E-07
   55.14000      1.5073830E-07
   55.20000      1.0526014E-07
   55.26000      5.5533437E-08
   55.32000      1.6430817E-09
   55.38000     -5.6273468E-08
   55.44000     -1.1802743E-07
   55.50000     -1.8338613E-07
   55.56000     -2.5208394E-07