 -0.750000000       0.00000000    
 -0.689999998       0.00000000    
 -0.629999995       0.00000000    
 -0.569999993       0.00000000    
 -0.509999990       0.00000000    
 -0.449999988       0.00000000    
 -0.389999986      -1.03305595E-22
 -0.330000013      -4.65889336E-22
 -0.270000011       9.43418674E-22
 -0.209999993       1.59872283E-20
 -0.150000006       7.56801307E-20
  -9.00000036E-02   2.16756760E-19
  -2.99999993E-02   4.01932178E-19
   2.99999993E-02   3.59755324E-19
   9.00000036E-02  -5.45381529E-19
  0.150000006      -3.11951274E-18
  0.209999993      -7.47816024E-18
  0.270000011      -1.15405559E-17
  0.330000013      -9.78694127E-18
  0.389999986       5.83634941E-18
  0.449999988       4.09558529E-17
  0.509999990       8.98861040E-17
  0.569999993       1.27084099E-16
  0.629999995       1.07335942E-16
  0.689999998      -1.67669808E-17
  0.750000000      -2.58877912E-16
  0.810000002      -5.57776860E-16
  0.870000005      -7.59083716E-16
  0.930000007      -6.50801301E-16
  0.990000010      -6.48460962E-17
   1.04999995       9.83121072E-16
   1.11000001       2.18671974E-15
   1.16999996       2.96355187E-15
   1.23000002       2.64671199E-15
   1.28999996       8.21929538E-16
   1.35000002      -2.32524033E-15
   1.40999997      -5.84955490E-15
   1.47000003      -8.23472726E-15
   1.52999997      -7.94668608E-15
   1.59000003      -4.16871712E-15
   1.64999998       2.61233812E-15
   1.71000004       1.04968490E-14
   1.76999998       1.66840452E-14
   1.83000004       1.84564363E-14
   1.88999999       1.42403772E-14
   1.95000005       4.28794463E-15
   2.00999999      -9.29477036E-15
   2.06999993      -2.31252615E-14
   2.13000011      -3.34095070E-14
   2.19000006      -3.67299981E-14
   2.25000000      -3.06003968E-14
   2.30999994      -1.39318107E-14
   2.36999989       1.23110149E-14
   2.43000007       4.42037188E-14
   2.49000001       7.41565555E-14
   2.54999995       9.13265232E-14
   2.60999990       8.40459023E-14
   2.67000008       4.43954599E-14
   2.73000002      -2.62990652E-14
   2.78999996      -1.13552763E-13
   2.84999990      -1.90255702E-13
   2.91000009      -2.23362100E-13
   2.97000003      -1.85874170E-13
   3.02999997      -7.02502089E-14
   3.08999991       1.02587819E-13
   3.15000010       2.84035463E-13
   3.21000004       4.10542775E-13
   3.26999998       4.25438168E-13
   3.32999992       3.02233390E-13
   3.39000010       5.97482404E-14
   3.45000005      -2.38525237E-13
   3.50999999      -5.02543428E-13
   3.56999993      -6.45694544E-13
   3.63000011      -6.15489484E-13
   3.69000006      -4.12849090E-13
   3.75000000      -9.22580155E-14
   3.80999994       2.57050213E-13
   3.86999989       5.40946465E-13
   3.93000007       6.89417653E-13
   3.99000001       6.74481684E-13
   4.05000019       5.12800035E-13
   4.11000013       2.55771343E-13
   4.17000008      -2.60117431E-14
   4.23000002      -2.57761206E-13
   4.28999996      -3.73082668E-13
   4.34999990      -3.26577171E-13
   4.40999985      -1.09453401E-13
   4.46999979       2.33222892E-13
   4.53000021       5.91819128E-13
   4.59000015       8.00353382E-13
   4.65000010       6.73079160E-13
   4.71000004       6.79225624E-14
   4.76999998      -1.03955744E-12
   4.82999992      -2.49916299E-12
   4.88999987      -3.97403334E-12
   4.94999981      -4.98930021E-12
   5.01000023      -5.03612083E-12
   5.07000017      -3.70512431E-12
   5.13000011      -8.12309801E-13
   5.19000006       3.51604184E-12
   5.25000000       8.81682401E-12
   5.30999994       1.43186461E-11
   5.36999989       1.90062063E-11
   5.42999983       2.16963773E-11
   5.48999977       2.11084830E-11
   5.55000019       1.59243087E-11
   5.61000013       4.84560872E-12
   5.67000008      -1.33376157E-11
   5.73000002      -3.96580303E-11
   5.78999996      -7.48607634E-11
   5.84999990      -1.19283944E-10
   5.90999985      -1.72751508E-10
   5.96999979      -2.34504777E-10
   6.03000021      -3.03196412E-10
   6.09000015      -3.76961906E-10
   6.15000010      -4.53568377E-10
   6.21000004      -5.30623823E-10
   6.26999998      -6.05812900E-10
   6.32999992      -6.77116807E-10
   6.38999987      -7.42977180E-10
   6.44999981      -8.02376665E-10
   6.51000023      -8.54832927E-10
   6.57000017      -9.00325148E-10
   6.63000011      -9.39188727E-10
   6.69000006      -9.72012582E-10
   6.75000000      -9.99562322E-10
   6.80999994      -1.02272812E-09
   6.86999989      -1.04247633E-09
   6.92999983      -1.05977793E-09
   6.98999977      -1.07549591E-09
   7.05000019      -1.09023868E-09
   7.11000013      -1.10421561E-09
   7.17000008      -1.11714693E-09
   7.23000002      -1.12827603E-09
   7.28999996      -1.13650211E-09
   7.34999990      -1.14060716E-09
   7.40999985      -1.13951593E-09
   7.46999979      -1.13250420E-09
   7.53000021      -1.11929155E-09
   7.59000015      -1.09999831E-09
   7.65000010      -1.07500175E-09
   7.71000004      -1.04476694E-09
   7.76999998      -1.00973696E-09
   7.82999992      -9.70332703E-10
   7.88999987      -9.27051547E-10
   7.94999981      -8.80601370E-10
   8.01000023      -8.31974267E-10
   8.06999969      -7.82380882E-10
   8.13000011      -7.33023420E-10
   8.18999958      -6.84756252E-10
   8.25000000      -6.37743136E-10
   8.31000042      -5.91240557E-10
   8.36999989      -5.43606882E-10
   8.43000031      -4.92570817E-10
   8.48999977      -4.35713188E-10
   8.55000019      -3.71048081E-10
   8.60999966      -2.97559338E-10
   8.67000008      -2.15560597E-10
   8.72999954      -1.26798835E-10
   8.78999996      -3.42898036E-11
   8.85000038       5.80606917E-11
   8.90999985       1.45954235E-10
   8.97000027       2.25214250E-10
   9.02999973       2.92240815E-10
   9.09000015       3.44369755E-10
   9.14999962       3.80135978E-10
   9.21000004       3.99454303E-10
   9.27000046       4.03716810E-10
   9.32999992       3.95777439E-10
   9.39000034       3.79771214E-10
   9.44999981       3.60724256E-10
   9.51000023       3.43954837E-10
   9.56999969       3.34336864E-10
   9.63000011       3.35564937E-10
   9.68999958       3.49589524E-10
   9.75000000       3.76364218E-10
   9.81000042       4.13968665E-10
   9.86999989       4.59066868E-10
   9.93000031       5.07574038E-10
   9.98999977       5.55367696E-10
   10.0500002       5.98898264E-10
   10.1099997       6.35614894E-10
   10.1700001       6.64193089E-10
   10.2299995       6.84595436E-10
   10.2900000       6.98004654E-10
   10.3500004       7.06646353E-10
   10.4099998       7.13495096E-10
   10.4700003       7.21854465E-10
   10.5299997       7.34832750E-10
   10.5900002       7.54785290E-10
   10.6499996       7.82838072E-10
   10.7100000       8.18608847E-10
   10.7700005       8.60203631E-10
   10.8299999       9.04487429E-10
   10.8900003       9.47553813E-10
   10.9499998       9.85272530E-10
   11.0100002       1.01380060E-09
   11.0699997       1.02998088E-09
   11.1300001       1.03161202E-09
   11.1899996       1.01759434E-09
   11.2500000       9.87967597E-10
   11.3100004       9.43829126E-10
   11.3699999       8.87114715E-10
   11.4300003       8.20242985E-10
   11.4899998       7.45674134E-10
   11.5500002       6.65488165E-10
   11.6099997       5.81104609E-10
   11.6700001       4.93232177E-10
   11.7299995       4.02050088E-10
   11.7900000       3.07533055E-10
   11.8500004       2.09779069E-10
   11.9099998       1.09213839E-10
   11.9700003       6.62103141E-12
   12.0299997      -9.69634512E-11
   12.0900002      -2.00394687E-10
   12.1499996      -3.02502134E-10
   12.2100000      -4.02069739E-10
   12.2700005      -4.97739461E-10
   12.3299999      -5.87911331E-10
   12.3900003      -6.70719480E-10
   12.4499998      -7.44127926E-10
   12.5100002      -8.06148537E-10
   12.5699997      -8.55144067E-10
   12.6300001      -8.90159391E-10
   12.6899996      -9.11209719E-10
   12.7500000      -9.19441079E-10
   12.8100004      -9.17077192E-10
   12.8699999      -9.07095232E-10
   12.9300003      -8.92643681E-10
   12.9899998      -8.76324069E-10
   13.0500002      -8.59551208E-10
   13.1099997      -8.42235059E-10
   13.1700001      -8.22951429E-10
   13.2299995      -7.99594335E-10
   13.2900000      -7.70307151E-10
   13.3500004      -7.34351635E-10
   13.4099998      -6.92574054E-10
   13.4700003      -6.47275067E-10
   13.5299997      -6.01526384E-10
   13.5900002      -5.58204871E-10
   13.6499996      -5.19124799E-10
   13.7100000      -4.84607854E-10
   13.7700005      -4.53639015E-10
   13.8299999      -4.24510399E-10
   13.8900003      -3.95656785E-10
   13.9499998      -3.66317338E-10
   14.0100002      -3.36752515E-10
   14.0699997      -3.07959741E-10
   14.1300001      -2.81071083E-10
   14.1899996      -2.56769550E-10
   14.2500000      -2.35047509E-10
   14.3100004      -2.15449644E-10
   14.3699999      -1.97668146E-10
   14.4300003      -1.82134891E-10
   14.4899998      -1.70203809E-10
   14.5500002      -1.63688577E-10
   14.6099997      -1.63851807E-10
   14.6700001      -1.70267050E-10
   14.7299995      -1.80120321E-10
   14.7900000      -1.88386723E-10
   14.8500004      -1.88950411E-10
   14.9099998      -1.76307274E-10
   14.9700003      -1.47208815E-10
   15.0299997      -1.01614793E-10
   15.0900002      -4.26168545E-11
   15.1499996       2.45790992E-11
   15.2100000       9.41681386E-11
   15.2700005       1.61188979E-10
   15.3299999       2.22450142E-10
   15.3900003       2.76770606E-10
   15.4499998       3.24640537E-10
   15.5100002       3.67558955E-10
   15.5699997       4.07314821E-10
   15.6300001       4.45402493E-10
   15.6899996       4.82678064E-10
   15.7500000       5.19309984E-10
   15.8100004       5.55037516E-10
   15.8699999       5.89679472E-10
   15.9300003       6.23730623E-10
   15.9899998       6.58787302E-10
   16.0499992       6.97538693E-10
   16.1100006       7.43199946E-10
   16.1700001       7.98506872E-10
   16.2299995       8.64635308E-10
   16.2900009       9.40502010E-10
   16.3500004       1.02278475E-09
   16.4099998       1.10669662E-09
   16.4699993       1.18722654E-09
   16.5300007       1.26036492E-09
   16.5900002       1.32388023E-09
   16.6499996       1.37744127E-09
   16.7099991       1.42218981E-09
   16.7700005       1.46004697E-09
   16.8299999       1.49305990E-09
   16.8899994       1.52294921E-09
   16.9500008       1.55084390E-09
   17.0100002       1.57710012E-09
   17.0699997       1.60114111E-09
   17.1299992       1.62136804E-09
   17.1900005       1.63528424E-09
   17.2500000       1.63993985E-09
   17.3099995       1.63266256E-09
   17.3700008       1.61186353E-09
   17.4300003       1.57761715E-09
   17.4899998       1.53177337E-09
   17.5499992       1.47756063E-09
   17.6100006       1.41885514E-09
   17.6700001       1.35942302E-09
   17.7299995       1.30240729E-09
   17.7900009       1.25017396E-09
   17.8500004       1.20442634E-09
   17.9099998       1.16638632E-09
   17.9699993       1.13684517E-09
   18.0300007       1.11600884E-09
   18.0900002       1.10320786E-09
   18.1499996       1.09662890E-09
   18.2099991       1.09323139E-09
   18.2700005       1.08893838E-09
   18.3299999       1.07910736E-09
   18.3899994       1.05921183E-09
   18.4500008       1.02561937E-09
   18.5100002       9.76324577E-10
   18.5699997       9.11458742E-10
   18.6299992       8.33407510E-10
   18.6900005       7.46417317E-10
   18.7500000       6.55708821E-10
   18.8099995       5.66292624E-10
   18.8700008       4.81822915E-10
   18.9300003       4.03852202E-10
   18.9899998       3.31726147E-10
   19.0499992       2.63130767E-10
   19.1100006       1.95081520E-10
   19.1700001       1.25023533E-10
   19.2299995       5.17370695E-11
   19.2900009      -2.41333585E-11
   19.3500004      -9.99687486E-11
   19.4099998      -1.71446274E-10
   19.4699993      -2.33132874E-10
   19.5300007      -2.79334056E-10
   19.5900002      -3.05081738E-10
   19.6499996      -3.07054132E-10
   19.7099991      -2.84161528E-10
   19.7700005      -2.37579345E-10
   19.8299999      -1.70195205E-10
   19.8899994      -8.56825652E-11
   19.9500008       1.24133351E-11
   20.0100002       1.21209084E-10
   20.0699997       2.38480957E-10
   20.1299992       3.62262664E-10
   20.1900005       4.90376628E-10
   20.2500000       6.20219154E-10
   20.3099995       7.48923312E-10
   20.3700008       8.73769279E-10
   20.4300003       9.92582350E-10
   20.4899998       1.10390574E-09
   20.5499992       1.20691912E-09
   20.6100006       1.30123701E-09
   20.6700001       1.38675993E-09
   20.7299995       1.46365497E-09
   20.7900009       1.53240598E-09
   20.8500004       1.59382829E-09
   20.9099998       1.64900082E-09
   20.9699993       1.69918268E-09
   21.0300007       1.74581161E-09
   21.0900002       1.79058479E-09
   21.1499996       1.83547066E-09
   21.2099991       1.88242932E-09
   21.2700005       1.93275596E-09
   21.3299999       1.98625116E-09
   21.3899994       2.04067230E-09
   21.4500008       2.09193485E-09
   21.5100002       2.13519158E-09
   21.5699997       2.16643103E-09
   21.6299992       2.18385132E-09
   21.6900005       2.18830198E-09
   21.7500000       2.18253571E-09
   21.8099995       2.16966178E-09
   21.8700008       2.15163154E-09
   21.9300003       2.12856532E-09
   21.9899998       2.09923168E-09
   22.0499992       2.06232542E-09
   22.1100006       2.01775818E-09
   22.1700001       1.96720706E-09
   22.2299995       1.91361949E-09
   22.2900009       1.85995519E-09
   22.3500004       1.80781090E-09
   22.4099998       1.75655468E-09
   22.4699993       1.70327552E-09
   22.5300007       1.64345271E-09
   22.5900002       1.57201685E-09
   22.6499996       1.48444834E-09
   22.7099991       1.37768663E-09
   22.7700005       1.25073518E-09
   22.8299999       1.10489473E-09
   22.8899994       9.43561562E-10
   22.9500008       7.71584907E-10
   23.0100002       5.94311267E-10
   23.0699997       4.16591622E-10
   23.1299992       2.42077358E-10
   23.1900005       7.30158850E-11
   23.2500000      -8.94711735E-11
   23.3099995      -2.44844006E-10
   23.3700008      -3.92607252E-10
   23.4300003      -5.31948707E-10
   23.4899998      -6.61574406E-10
   23.5499992      -7.79694198E-10
   23.6100006      -8.84166851E-10
   23.6700001      -9.72905756E-10
   23.7299995      -1.04462261E-09
   23.7900009      -1.09978882E-09
   23.8500004      -1.14142062E-09
   23.9099998      -1.17516297E-09
   23.9699993      -1.20834054E-09
   24.0300007      -1.24812305E-09
   24.0900002      -1.29948630E-09
   24.1499996      -1.36388112E-09
   24.2099991      -1.43927537E-09
   24.2700005      -1.52158353E-09
   24.3299999      -1.60680169E-09
   24.3899994      -1.69282421E-09
   24.4500008      -1.78010040E-09
   24.5100002      -1.87091009E-09
   24.5699997      -1.96770178E-09
   24.6299992      -2.07133044E-09
   24.6900005      -2.17996088E-09
   24.7500000      -2.28902253E-09
   24.8099995      -2.39212583E-09
   24.8700008      -2.48255816E-09
   24.9300003      -2.55487587E-09
   24.9899998      -2.60617394E-09
   25.0499992      -2.63671085E-09
   25.1100006      -2.64969202E-09
   25.1700001      -2.65019562E-09
   25.2299995      -2.64352051E-09
   25.2900009      -2.63353739E-09
   25.3500004      -2.62175881E-09
   25.4099998      -2.60763255E-09
   25.4699993      -2.59003041E-09
   25.5300007      -2.56926058E-09
   25.5900002      -2.54857424E-09
   25.6499996      -2.53428323E-09
   25.7099991      -2.53425014E-09
   25.7700005      -2.55533039E-09
   25.8299999      -2.60087196E-09
   25.8899994      -2.66936562E-09
   25.9500008      -2.75477730E-09
   26.0100002      -2.84834356E-09
   26.0699997      -2.94103630E-09
   26.1299992      -3.02577541E-09
   26.1900005      -3.09873349E-09
   26.2500000      -3.15953086E-09
   26.3099995      -3.21047855E-09
   26.3700008      -3.25521277E-09
   26.4300003      -3.29710392E-09
   26.4899998      -3.33783512E-09
   26.5499992      -3.37655703E-09
   26.6100006      -3.40998851E-09
   26.6700001      -3.43360118E-09
   26.7299995      -3.44363960E-09
   26.7900009      -3.43929107E-09
   26.8500004      -3.42409789E-09
   26.9099998      -3.40588424E-09
   26.9699993      -3.39502515E-09
   27.0300007      -3.40157102E-09
   27.0900002      -3.43224227E-09
   27.1499996      -3.48837004E-09
   27.2099991      -3.56547969E-09
   27.2700005      -3.65457420E-09
   27.3299999      -3.74459841E-09
   27.3899994      -3.82523613E-09
   27.4500008      -3.88919430E-09
   27.5100002      -3.93338784E-09
   27.5699997      -3.95879418E-09
   27.6299992      -3.96915523E-09
   27.6900005      -3.96900335E-09
   27.7500000      -3.96171052E-09
   27.8099995      -3.94825506E-09
   27.8700008      -3.92715727E-09
   27.9300003      -3.89560162E-09
   27.9899998      -3.85124066E-09
   28.0499992      -3.79385900E-09
   28.1100006      -3.72610742E-09
   28.1700001      -3.65294994E-09
   28.2299995      -3.58008045E-09
   28.2900009      -3.51206597E-09
   28.3500004      -3.45109830E-09
   28.4099998      -3.39688988E-09
   28.4699993      -3.34765904E-09
   28.5300007      -3.30161321E-09
   28.5900002      -3.25812599E-09
   28.6499996      -3.21805249E-09
   28.7099991      -3.18310178E-09
   28.7700005      -3.15470028E-09
   28.8299999      -3.13300297E-09
   28.8899994      -3.11658166E-09
   28.9500008      -3.10293946E-09
   29.0100002      -3.08955928E-09
   29.0699997      -3.07494163E-09
   29.1299992      -3.05909076E-09
   29.1900005      -3.04318570E-09
   29.2500000      -3.02856762E-09
   29.3099995      -3.01550029E-09
   29.3700008      -3.00230196E-09
   29.4300003      -2.98530956E-09
   29.4899998      -2.95979663E-09
   29.5499992      -2.92155300E-09
   29.6100006      -2.86851898E-09
   29.6700001      -2.80181123E-09
   29.7299995      -2.72570544E-09
   29.7900009      -2.64656341E-09
   29.8500004      -2.57112398E-09
   29.9099998      -2.50481680E-09
   29.9699993      -2.45070853E-09
   30.0300007      -2.40937403E-09
   30.0900002      -2.37958275E-09
   30.1499996      -2.35937736E-09
   30.2099991      -2.34702857E-09
   30.2700005      -2.34149300E-09
   30.3299999      -2.34226905E-09
   30.3899994      -2.34880648E-09
   30.4500008      -2.35977615E-09
   30.5100002      -2.37253617E-09
   30.5699997      -2.38302889E-09
   30.6299992      -2.38621256E-09
   30.6900005      -2.37695885E-09
   30.7500000      -2.35119724E-09
   30.8099995      -2.30697728E-09
   30.8700008      -2.24509478E-09
   30.9300003      -2.16902585E-09
   30.9899998      -2.08413664E-09
   31.0499992      -1.99638306E-09
   31.1100006      -1.91092364E-09
   31.1700001      -1.83108184E-09
   31.2299995      -1.75796722E-09
   31.2900009      -1.69079317E-09
   31.3500004      -1.62770541E-09
   31.4099998      -1.56680457E-09
   31.4699993      -1.50705981E-09
   31.5300007      -1.44889201E-09
   31.5900002      -1.39429079E-09
   31.6499996      -1.34638911E-09
   31.7099991      -1.30848099E-09
   31.7700005      -1.28261146E-09
   31.8299999      -1.26807931E-09
   31.8899994      -1.26040001E-09
   31.9500008      -1.25130728E-09
   32.0099983      -1.23012356E-09
   32.0699997      -1.18631460E-09
   32.1300011      -1.11248577E-09
   32.1899986      -1.00674424E-09
   32.2500000      -8.73470019E-10
   32.3100014      -7.22111093E-10
   32.3699989      -5.64386760E-10
   32.4300003      -4.10916245E-10
   32.4900017      -2.68462669E-10
   32.5499992      -1.38661763E-10
   32.6100006      -1.84603045E-11
   32.6699982       9.81497800E-11
   32.7299995       2.17876689E-10
   32.7900009       3.46122547E-10
   32.8499985       4.85725793E-10
   32.9099998       6.36611375E-10
   32.9700012       7.96249455E-10
   33.0299988       9.60680868E-10
   33.0900002       1.12579368E-09
   33.1500015       1.28847699E-09
   33.2099991       1.44726719E-09
   33.2700005       1.60220215E-09
   33.3300018       1.75387160E-09
   33.3899994       1.90202654E-09
   33.4500008       2.04440065E-09
   33.5099983       2.17642415E-09
   33.5699997       2.29216290E-09
   33.6300011       2.38625075E-09
   33.6899986       2.45605025E-09
   33.7500000       2.50308485E-09
   33.8100014       2.53305021E-09
   33.8699989       2.55429278E-09
   33.9300003       2.57530797E-09
   33.9900017       2.60216781E-09
   34.0499992       2.63677968E-09
   34.1100006       2.67650124E-09
   34.1699982       2.71512701E-09
   34.2299995       2.74482881E-09
   34.2900009       2.75840906E-09
   34.3499985       2.75120127E-09
   34.4099998       2.72210454E-09
   34.4700012       2.67349320E-09
   34.5299988       2.61006639E-09
   34.5900002       2.53704369E-09
   34.6500015       2.45836618E-09
   34.7099991       2.37559594E-09
   34.7700005       2.28796004E-09
   34.8300018       2.19350449E-09
   34.8899994       2.09082773E-09
   34.9500008       1.98060435E-09
   35.0099983       1.86620630E-09
   35.0699997       1.75316706E-09
   35.1300011       1.64774649E-09
   35.1899986       1.55518809E-09
   35.2500000       1.47827739E-09
   35.3100014       1.41657663E-09
   35.3699989       1.36641265E-09
   35.4300003       1.32152900E-09
   35.4900017       1.27427568E-09
   35.5499992       1.21721411E-09
   35.6100006       1.14491538E-09
   35.6699982       1.05552855E-09
   35.7299995       9.51545509E-10
   35.7900009       8.39293468E-10
   35.8499985       7.27114757E-10
   35.9099998       6.22788765E-10
   35.9700012       5.31169608E-10
   36.0299988       4.52991311E-10
   36.0900002       3.85277643E-10
   36.1500015       3.23063104E-10
   36.2099991       2.61583921E-10
   36.2700005       1.98017519E-10
   36.3300018       1.32217765E-10
   36.3899994       6.64305139E-11
   36.4500008       4.33484889E-12
   36.5099983      -5.02048715E-11
   36.5699997      -9.44544373E-11
   36.6300011      -1.28077049E-10
   36.6899986      -1.54128765E-10
   36.7500000      -1.79334769E-10
   36.8100014      -2.13149026E-10
   36.8699989      -2.65454242E-10
   36.9300003      -3.43457679E-10
   36.9900017      -4.48996035E-10
   37.0499992      -5.77593584E-10
   37.1100006      -7.19997395E-10
   37.1699982      -8.65767957E-10
   37.2299995      -1.00743780E-09
   37.2900009      -1.14338694E-09
   37.3499985      -1.27815702E-09
   37.4099998      -1.42014034E-09
   37.4700012      -1.57778268E-09
   37.5299988      -1.75598713E-09
   37.5900002      -1.95411975E-09
   37.6500015      -2.16613039E-09
   37.7099991      -2.38239495E-09
   37.7700005      -2.59236566E-09
   37.8300018      -2.78712942E-09
   37.8899994      -2.96127589E-09
   37.9500008      -3.11380854E-09
   38.0099983      -3.24798055E-09
   38.0699997      -3.37004669E-09
   38.1300011      -3.48710705E-09
   38.1899986      -3.60455399E-09
   38.2500000      -3.72395492E-09
   38.3100014      -3.84224519E-09
   38.3699989      -3.95268485E-09
   38.4300003      -4.04729050E-09
   38.4900017      -4.11976186E-09
   38.5499992      -4.16765200E-09
   38.6100006      -4.19288293E-09
   38.6699982      -4.20048707E-09
   38.7299995      -4.19624246E-09
   38.7900009      -4.18426138E-09
   38.8499985      -4.16548884E-09
   38.9099998      -4.13755297E-09
   38.9700012      -4.09584766E-09
   39.0299988      -4.03534584E-09
   39.0900002      -3.95249966E-09
   39.1500015      -3.84664922E-09
   39.2099991      -3.72051412E-09
   39.2700005      -3.57954577E-09
   39.3300018      -3.43023565E-09
   39.3899994      -3.27784644E-09
   39.4500008      -3.12436210E-09
   39.5099983      -2.96751934E-09
   39.5699997      -2.80144974E-09
   39.6300011      -2.61881361E-09
   39.6899986      -2.41362530E-09
   39.7500000      -2.18362417E-09
   39.8100014      -1.93125049E-09
   39.8699989      -1.66293102E-09
   39.9300003      -1.38714540E-09
   39.9900017      -1.11219867E-09
   40.0499992      -8.44591730E-10
   40.1100006      -5.88423366E-10
   40.1699982      -3.45695278E-10
   40.2299995      -1.17037463E-10
   40.2900009       9.76368639E-11
   40.3499985       2.98786496E-10
   40.4099998       4.87153984E-10
   40.4700012       6.63729349E-10
   40.5299988       8.29604219E-10
   40.5900002       9.85700410E-10
   40.6500015       1.13248855E-09
   40.7099991       1.26984678E-09
   40.7700005       1.39715250E-09
   40.8300018       1.51360213E-09
   40.8899994       1.61865377E-09
   40.9500008       1.71241421E-09
   41.0099983       1.79577253E-09
   41.0699997       1.87013072E-09
   41.1300011       1.93673566E-09
   41.1899986       1.99583239E-09
   41.2500000       2.04603623E-09
   41.3100014       2.08433049E-09
   41.3699989       2.10687046E-09
   41.4300003       2.11037632E-09
   41.4900017       2.09354623E-09
   41.5499992       2.05781747E-09
   41.6100006       2.00706052E-09
   41.6699982       1.94627736E-09
   41.7299995       1.87986049E-09
   41.7900009       1.81014770E-09
   41.8499985       1.73684866E-09
   41.9099998       1.65748648E-09
   41.9700012       1.56857649E-09
   42.0299988       1.46704837E-09
   42.0900002       1.35145140E-09
   42.1500015       1.22268007E-09
   42.2099991       1.08414777E-09
   42.2700005       9.41444034E-10
   42.3300018       8.01556765E-10
   42.3899994       6.71791622E-10
   42.4500008       5.58612212E-10
   42.5099983       4.66691852E-10
   42.5699997       3.98438033E-10
   42.6300011       3.54081847E-10
   42.6899986       3.32203876E-10
   42.7500000       3.30423133E-10
   42.8100014       3.45995677E-10
   42.8699989       3.76221693E-10
   42.9300003       4.18704571E-10
   42.9900017       4.71521155E-10
   43.0499992       5.33257938E-10
   43.1100006       6.02769890E-10
   43.1699982       6.78585299E-10
   43.2299995       7.58127450E-10
   43.2900009       8.37196812E-10
   43.3499985       9.10211850E-10
   43.4099998       9.71407621E-10
   43.4700012       1.01666109E-09
   43.5299988       1.04516440E-09
   43.5900002       1.06012177E-09
   43.6500015       1.06808318E-09
   43.7099991       1.07720488E-09
   43.7700005       1.09524267E-09
   43.8300018       1.12812515E-09
   43.8899994       1.17953758E-09
   43.9500008       1.25136967E-09
   44.0099983       1.34451827E-09
   44.0699997       1.45956602E-09
   44.1300011       1.59714231E-09
   44.1899986       1.75804116E-09
   44.2500000       1.94317118E-09
   44.3100014       2.15324403E-09
   44.3699989       2.38799447E-09
   44.4300003       2.64491695E-09
   44.4900017       2.91796054E-09
   44.5499992       3.19700244E-09
   44.6100006       3.46885742E-09
   44.6699982       3.71993436E-09
   44.7299995       3.93972677E-09
   44.7900009       4.12369516E-09
   44.8499985       4.27420943E-09
   44.9099998       4.39908510E-09
   44.9700012       4.50838611E-09
   45.0299988       4.61093697E-09
   45.0900002       4.71190997E-09
   45.1500015       4.81214313E-09
   45.2099991       4.90889196E-09
   45.2700005       4.99722352E-09
   45.3300018       5.07135001E-09
   45.3899994       5.12569587E-09
   45.4500008       5.15589393E-09
   45.5099983       5.15987431E-09
   45.5699997       5.13883380E-09
   45.6300011       5.09752685E-09
   45.6899986       5.04336084E-09
   45.7500000       4.98432406E-09
   45.8100014       4.92644281E-09
   45.8699989       4.87183449E-09
   45.9300003       4.81818407E-09
   45.9900017       4.75980366E-09
   46.0499992       4.68971129E-09
   46.1100006       4.60185134E-09
   46.1699982       4.49273196E-09
   46.2299995       4.36215952E-09
   46.2900009       4.21310675E-09
   46.3499985       4.05083744E-09
   46.4099998       3.88140720E-09
   46.4700012       3.70974496E-09
   46.5299988       3.53781782E-09
   46.5900002       3.36365913E-09
   46.6500015       3.18197024E-09
   46.7099991       2.98639558E-09
   46.7700005       2.77263834E-09
   46.8300018       2.54090637E-09
   46.8899994       2.29628627E-09
   46.9500008       2.04662021E-09
   47.0099983       1.79881876E-09
   47.0699997       1.55546698E-09
   47.1300011       1.31346722E-09
   47.1899986       1.06536258E-09
   47.2500000       8.02547306E-10
   47.3100014       5.18675713E-10
   47.3699989       2.11707291E-10
   47.4300003      -1.15998121E-10
   47.4900017      -4.59005750E-10
   47.5499992      -8.10468581E-10
   47.6100006      -1.16329191E-09
   47.6699982      -1.51067236E-09
   47.7299995      -1.84643645E-09
   47.7900009      -2.16559926E-09
   47.8499985      -2.46509391E-09
   47.9099998      -2.74416467E-09
   47.9700012      -3.00391378E-09
   48.0299988      -3.24599703E-09
   48.0900002      -3.47109830E-09
   48.1500015      -3.67805053E-09
   48.2099991      -3.86410326E-09
   48.2700005      -4.02609501E-09
   48.3300018      -4.16172430E-09
   48.3899994      -4.27013269E-09
   48.4500008      -4.35162084E-09
   48.5099983      -4.40697301E-09
   48.5699997      -4.43715198E-09
   48.6300011      -4.44373827E-09
   48.6899986      -4.42978365E-09
   48.7500000      -4.40026726E-09
   48.8100014      -4.36147651E-09
   48.8699989      -4.31932312E-09
   48.9300003      -4.27737090E-09
   48.9900017      -4.23562385E-09
   49.0499992      -4.19075885E-09
   49.1100006      -4.13770396E-09
   49.1699982      -4.07180378E-09
   49.2299995      -3.99067357E-09
   49.2900009      -3.89516153E-09
   49.3499985      -3.78935594E-09
   49.4099998      -3.67981356E-09
   49.4700012      -3.57419494E-09
   49.5299988      -3.47941853E-09
   49.5900002      -3.39958661E-09
   49.6500015      -3.33430772E-09
   49.7099991      -3.27832494E-09
   49.7700005      -3.22312133E-09
   49.8300018      -3.16029958E-09
   49.8899994      -3.08543413E-09
   49.9500008      -3.00046654E-09
   50.0099983      -2.91315461E-09
   50.0699997      -2.83351076E-09
   50.1300011      -2.76884204E-09
   50.1899986      -2.71988609E-09
   50.2500000      -2.68006639E-09
   50.3100014      -2.63824829E-09
   50.3699989      -2.58352961E-09
   50.4300003      -2.50962873E-09
   50.4900017      -2.41685205E-09
   50.5499992      -2.31107156E-09
   50.6100006      -2.20071450E-09