  -2.400000      0.0000000E+00
  -2.340000      0.0000000E+00
  -2.280000      0.0000000E+00
  -2.220000      0.0000000E+00
  -2.160000      0.0000000E+00
  -2.100000      0.0000000E+00
  -2.040000      0.0000000E+00
  -1.980000      0.0000000E+00
  -1.920000      0.0000000E+00
  -1.860000      0.0000000E+00
  -1.800000      4.5768202E-32
  -1.740000     -1.0010121E-32
  -1.680000     -3.4114057E-30
  -1.620000     -2.1350109E-29
  -1.560000     -3.9351434E-29
  -1.500000      1.7983272E-28
  -1.440000      1.4804771E-27
  -1.380000      5.0022336E-27
  -1.320000      8.4462975E-27
  -1.260000     -3.6299053E-27
  -1.200000     -6.8229973E-26
  -1.140000     -2.1959563E-25
  -1.080000     -3.8218610E-25
  -1.020000     -1.8187824E-25
 -0.9600000      1.1322880E-24
 -0.9000000      4.1891488E-24
 -0.8400000      7.9497268E-24
 -0.7800000      7.5050262E-24
 -0.7200000     -6.4414863E-24
 -0.6600000     -4.2195245E-23
 -0.6000000     -9.2861191E-23
 -0.5400000     -1.1809697E-22
 -0.4800000     -3.9891248E-23
 -0.4200000      2.2058045E-22
 -0.3600000      6.5077955E-22
 -0.3000000      1.0320871E-21
 -0.2400000      9.0235348E-22
 -0.1800000     -2.7140233E-22
 -0.1200000     -2.6518506E-21
 -5.9999999E-02 -5.4762063E-21
  0.0000000E+00 -6.8045178E-21
  5.9999999E-02 -4.0817906E-21
  0.1200000      4.2897696E-21
  0.1800000      1.6918149E-20
  0.2400000      2.8278365E-20
  0.3000000      2.9959913E-20
  0.3600000      1.4743544E-20
  0.4200000     -1.8111447E-20
  0.4800000     -5.9743230E-20
  0.5400000     -9.3775385E-20
  0.6000000     -1.0347015E-19
  0.6600000     -7.9342382E-20
  0.7200000     -2.0761484E-20
  0.7800000      7.0692968E-20
  0.8400000      1.9879139E-19
  0.9000000      3.6613622E-19
  0.9600000      5.4337293E-19
   1.020000      6.2632219E-19
   1.080000      4.2337857E-19
   1.140000     -2.7241074E-19
   1.200000     -1.5061888E-18
   1.260000     -2.9432385E-18
   1.320000     -3.7694426E-18
   1.380000     -2.8973126E-18
   1.440000      4.4755062E-19
   1.500000      5.9369168E-18
   1.560000      1.1601181E-17
   1.620000      1.4092330E-17
   1.680000      1.0039920E-17
   1.740000     -1.8228209E-18
   1.800000     -1.8784964E-17
   1.860000     -3.3881688E-17
   1.920000     -3.8111318E-17
   1.980000     -2.4798584E-17
   2.040000      5.7493557E-18
   2.100000      4.4006240E-17
   2.160000      7.3535251E-17
   2.220000      7.7844624E-17
   2.280000      4.9035108E-17
   2.340000     -6.3121437E-18
   2.400000     -6.7982831E-17
   2.460000     -1.1050971E-16
   2.520000     -1.1551454E-16
   2.580000     -8.1404273E-17
   2.640000     -2.4338031E-17
   2.700000      3.1139558E-17
   2.760000      6.7070729E-17
   2.820000      8.3491918E-17
   2.880000      9.7819918E-17
   2.940000      1.3021923E-16
   3.000000      1.8214436E-16
   3.060000      2.2183500E-16
   3.120000      1.8977240E-16
   3.180000      2.7873892E-17
   3.240000     -2.7769954E-16
   3.300000     -6.6163316E-16
   3.360000     -9.7585692E-16
   3.420000     -1.0302329E-15
   3.480000     -6.7092882E-16
   3.540000      1.3070060E-16
   3.600000      1.2179007E-15
   3.660000      2.2527870E-15
   3.720000      2.8011706E-15
   3.780000      2.4833310E-15
   3.840000      1.1448527E-15
   3.900000     -1.0179324E-15
   3.960000     -3.4408246E-15
   4.020000     -5.3167907E-15
   4.080000     -5.8464044E-15
   4.140000     -4.5406942E-15
   4.200000     -1.4648304E-15
   4.260000      2.6874441E-15
   4.320000      6.7476788E-15
   4.380000      9.4259182E-15
   4.440000      9.7440993E-15
   4.500000      7.3821581E-15
   4.560000      2.7942683E-15
   4.620000     -2.9514929E-15
   4.680000     -8.5311083E-15
   4.740000     -1.2750187E-14
   4.800000     -1.4784342E-14
   4.860000     -1.4196999E-14
   4.920000     -1.0803212E-14
   4.980000     -4.5592112E-15
   5.040000      4.3437984E-15
   5.100000      1.5137790E-14
   5.160000      2.6053424E-14
   5.220000      3.4144494E-14
   5.280000      3.5697645E-14
   5.340000      2.7357072E-14
   5.400000      7.7340876E-15
   5.460000     -2.1086590E-14
   5.520000     -5.2901348E-14
   5.580000     -7.8211377E-14
   5.640000     -8.6652711E-14
   5.700000     -7.0519376E-14
   5.760000     -2.8282584E-14
   5.820000      3.3252528E-14
   5.880000      9.9283578E-14
   5.940000      1.5025710E-13
   6.000000      1.6743101E-13
   6.060000      1.3919137E-13
   6.120000      6.6014970E-14
   6.180000     -3.7874540E-14
   6.240000     -1.4718990E-13
   6.300000     -2.3218973E-13
   6.360000     -2.6731875E-13
   6.420000     -2.3905503E-13
   6.480000     -1.5022243E-13
   6.540000     -1.9203387E-14
   6.600000      1.2561612E-13
   6.660000      2.5398490E-13
   6.720000      3.4134116E-13
   6.780000      3.7303364E-13
   6.840000      3.4417800E-13
   6.900000      2.5639161E-13
   6.960000      1.1435324E-13
   7.020000     -7.4718775E-14
   7.080000     -2.9728848E-13
   7.140000     -5.2698720E-13
   7.200000     -7.1968776E-13
   7.260000     -8.1548516E-13
   7.320000     -7.5112231E-13
   7.380000     -4.8206773E-13
   7.440000     -8.1037302E-15
   7.500000      6.0769553E-13
   7.560000      1.2371148E-12
   7.620000      1.7083940E-12
   7.680000      1.8496556E-12
   7.740000      1.5435523E-12
   7.800000      7.7601288E-13
   7.860000     -3.3898877E-13
   7.920000     -1.5709616E-12
   7.980000     -2.6219454E-12
   8.040000     -3.2015673E-12
   8.100000     -3.1068704E-12
   8.160000     -2.2828152E-12
   8.220000     -8.4474013E-13
   8.280000      9.4397938E-13
   8.340000      2.7316491E-12
   8.400000      4.1566976E-12
   8.460000      4.9220354E-12
   8.520000      4.8467038E-12
   8.580000      3.8865599E-12
   8.640000      2.1277578E-12
   8.700000     -2.3482824E-13
   8.760000     -2.9208381E-12
   8.820000     -5.5820413E-12
   8.880000     -7.8173197E-12
   8.940000     -9.1968169E-12
   9.000000     -9.3091316E-12
   9.060000     -7.8380488E-12
   9.120000     -4.6602089E-12
   9.180000      6.1715241E-14
   9.240000      5.8263277E-12
   9.300000      1.1814857E-11
   9.360000      1.7002358E-11
   9.420000      2.0346008E-11
   9.480000      2.1008131E-11
   9.540000      1.8552920E-11
   9.600000      1.3057225E-11
   9.660000      5.0990566E-12
   9.720000     -4.3744205E-12
   9.780000     -1.4258505E-11
   9.840000     -2.3516401E-11
   9.900000     -3.1352039E-11
   9.960000     -3.7287607E-11
   10.02000     -4.1141444E-11
   10.08000     -4.2938018E-11
   10.14000     -4.2800898E-11
   10.20000     -4.0874214E-11
   10.26000     -3.7292707E-11
   10.32000     -3.2188554E-11
   10.38000     -2.5702154E-11
   10.44000     -1.7964828E-11
   10.50000     -9.0442263E-12
   10.56000      1.1235053E-12
   10.62000      1.2766150E-11
   10.68000      2.6223617E-11
   10.74000      4.1792902E-11
   10.80000      5.9500342E-11
   10.86000      7.8878876E-11
   10.92000      9.8849255E-11
   10.98000      1.1778316E-10
   11.04000      1.3376619E-10
   11.10000      1.4500018E-10
   11.16000      1.5022009E-10
   11.22000      1.4898130E-10
   11.28000      1.4171066E-10
   11.34000      1.2949899E-10
   11.40000      1.1371176E-10
   11.46000      9.5564577E-11
   11.52000      7.5822744E-11
   11.58000      5.4728406E-11
   11.64000      3.2160195E-11
   11.70000      7.9293837E-12
   11.76000     -1.7938630E-11
   11.82000     -4.5073702E-11
   11.88000     -7.2837708E-11
   11.94000     -1.0055715E-10
   12.00000     -1.2777589E-10
   12.06000     -1.5437443E-10
   12.12000     -1.8046306E-10
   12.18000     -2.0606933E-10
   12.24000     -2.3075543E-10
   12.30000     -2.5335942E-10
   12.36000     -2.7202451E-10
   12.42000     -2.8456870E-10
   12.48000     -2.8909708E-10
   12.54000     -2.8463928E-10
   12.60000     -2.7155597E-10
   12.66000     -2.5152869E-10
   12.72000     -2.2710037E-10
   12.78000     -2.0090925E-10
   12.84000     -1.7488885E-10
   12.90000     -1.4973171E-10
   12.96000     -1.2482547E-10
   13.02000     -9.8696093E-11
   13.08000     -6.9800735E-11
   13.14000     -3.7377955E-11
   13.20000     -2.0356882E-12
   13.26000      3.4147619E-11
   13.32000      6.8054576E-11
   13.38000      9.6342115E-11
   13.44000      1.1634756E-10
   13.50000      1.2677147E-10
   13.56000      1.2791537E-10
   13.62000      1.2142924E-10
   13.68000      1.0971039E-10
   13.74000      9.5218611E-11
   13.80000      7.9979079E-11
   13.86000      6.5438016E-11
   13.92000      5.2662437E-11
   13.98000      4.2713999E-11
   14.04000      3.6949728E-11
   14.10000      3.7044708E-11
   14.16000      4.4673289E-11
   14.22000      6.0960327E-11
   14.28000      8.5940699E-11
   14.34000      1.1828225E-10
   14.40000      1.5542663E-10
   14.46000      1.9412695E-10
   14.52000      2.3119257E-10
   14.58000      2.6416494E-10
   14.64000      2.9168173E-10
   14.70000      3.1342362E-10
   14.76000      3.2971259E-10
   14.82000      3.4096670E-10
   14.88000      3.4725386E-10
   14.94000      3.4812028E-10
   15.00000      3.4273301E-10
   15.06000      3.3024264E-10
   15.12000      3.1019953E-10
   15.18000      2.8287081E-10
   15.24000      2.4938784E-10
   15.30000      2.1174583E-10
   15.36000      1.7272948E-10
   15.42000      1.3581716E-10
   15.48000      1.0504579E-10
   15.54000      8.4749027E-11
   15.60000      7.9074518E-11
   15.66000      9.1270221E-11
   15.72000      1.2287540E-10
   15.78000      1.7308509E-10
   15.84000      2.3858829E-10
   15.90000      3.1405825E-10
   15.96000      3.9322573E-10
   16.02000      4.7019394E-10
   16.08000      5.4049493E-10
   16.14000      6.0144456E-10
   16.20000      6.5163969E-10
   16.26000      6.8983741E-10
   16.32000      7.1379408E-10
   16.38000      7.1973033E-10
   16.44000      7.0286327E-10
   16.50000      6.5897132E-10
   16.56000      5.8644106E-10
   16.62000      4.8792564E-10
   16.68000      3.7078943E-10
   16.74000      2.4593849E-10
   16.80000      1.2527465E-10
   16.86000      1.8595549E-11
   16.92000     -6.8957201E-11
   16.98000     -1.3795937E-10
   17.04000     -1.9387070E-10
   17.10000     -2.4460778E-10
   17.16000     -2.9741312E-10
   17.22000     -3.5615053E-10
   17.28000     -4.1996559E-10
   17.34000     -4.8370807E-10
   17.40000     -5.3984678E-10
   17.46000     -5.8107197E-10
   17.52000     -6.0258154E-10
   17.58000     -6.0323951E-10
   17.64000     -5.8529548E-10
   17.70000     -5.5294291E-10
   17.76000     -5.1044141E-10
   17.82000     -4.6065279E-10
   17.88000     -4.0460585E-10
   17.94000     -3.4221681E-10
   18.00000     -2.7376257E-10
   18.06000     -2.0135964E-10
   18.12000     -1.2968794E-10
   18.18000     -6.5516599E-11
   18.24000     -1.6103570E-11
   18.30000      1.2970598E-11
   18.36000      1.9713436E-11
   18.42000      6.6267551E-12
   18.48000     -1.9771714E-11
   18.54000     -5.0677337E-11
   18.60000     -7.7391649E-11
   18.66000     -9.3566405E-11
   18.72000     -9.6562230E-11
   18.78000     -8.7522045E-11
   18.84000     -7.0225013E-11
   18.90000     -4.9213012E-11
   18.96000     -2.7921455E-11
   19.02000     -7.5211842E-12
   19.08000      1.3100574E-11
   19.14000      3.6228093E-11
   19.20000      6.3520335E-11
   19.26000      9.4258677E-11
   19.32000      1.2438302E-10
   19.38000      1.4678875E-10
   19.44000      1.5289209E-10
   19.50000      1.3498368E-10
   19.56000      8.8572420E-11
   19.62000      1.3903601E-11
   19.68000     -8.3871521E-11
   19.74000     -1.9590700E-10
   19.80000     -3.1179967E-10
   19.86000     -4.2190632E-10
   19.92000     -5.1910548E-10
   19.98000     -5.9955491E-10
   20.04000     -6.6241768E-10
   20.10000     -7.0889533E-10
   20.16000     -7.4107698E-10
   20.22000     -7.6103812E-10
   20.28000     -7.7038664E-10
   20.34000     -7.7019130E-10
   20.40000     -7.6107437E-10
   20.46000     -7.4326206E-10
   20.52000     -7.1652390E-10
   20.58000     -6.8009126E-10
   20.64000     -6.3271594E-10
   20.70000     -5.7297445E-10
   20.76000     -4.9976978E-10
   20.82000     -4.1284015E-10
   20.88000     -3.1304381E-10
   20.94000     -2.0228506E-10
   21.00000     -8.3139523E-11
   21.06000      4.1588798E-11
   21.12000      1.6909099E-10
   21.18000      2.9638123E-10
   21.24000      4.1978210E-10
   21.30000      5.3435723E-10
   21.36000      6.3369360E-10
   21.42000      7.1036121E-10
   21.48000      7.5711731E-10
   21.54000      7.6859624E-10
   21.60000      7.4295770E-10
   21.66000      6.8288741E-10
   21.72000      5.9550159E-10
   21.78000      4.9105670E-10
   21.84000      3.8079112E-10
   21.90000      2.7456021E-10
   21.96000      1.7903257E-10
   22.02000      9.7033749E-11
   22.08000      2.8199382E-11
   22.14000     -2.9404965E-11
   22.20000     -7.7418898E-11
   22.26000     -1.1587842E-10
   22.32000     -1.4299613E-10
   22.38000     -1.5605750E-10
   22.44000     -1.5294704E-10
   22.50000     -1.3353987E-10
   22.56000     -1.0028232E-10
   22.62000     -5.7690325E-11
   22.68000     -1.1010034E-11
   22.74000      3.5342371E-11
   22.80000      7.8882519E-11
   22.86000      1.1927052E-10
   22.92000      1.5761098E-10
   22.98000      1.9517875E-10
   23.04000      2.3208320E-10
   23.10000      2.6634653E-10
   23.16000      2.9369876E-10
   23.22000      3.0817665E-10
   23.28000      3.0340994E-10
   23.34000      2.7429028E-10
   23.40000      2.1855508E-10
   23.46000      1.3773596E-10
   23.52000      3.7018232E-11
   23.58000     -7.6111346E-11
   23.64000     -1.9405220E-10
   23.70000     -3.1128783E-10
   23.76000     -4.2563189E-10
   23.82000     -5.3789628E-10
   23.88000     -6.5006617E-10
   23.94000     -7.6282330E-10
   24.00000     -8.7365337E-10
   24.06000     -9.7655251E-10
   24.12000     -1.0635964E-09
   24.18000     -1.1277234E-09
   24.24000     -1.1654885E-09
   24.30000     -1.1785670E-09
   24.36000     -1.1733754E-09
   24.42000     -1.1590192E-09
   24.48000     -1.1444253E-09
   24.54000     -1.1357244E-09
   24.60000     -1.1347124E-09
   24.66000     -1.1387549E-09
   24.72000     -1.1420470E-09
   24.78000     -1.1378394E-09
   24.84000     -1.1210541E-09
   24.90000     -1.0905935E-09
   24.96000     -1.0505944E-09
   25.02000     -1.0100242E-09
   25.08000     -9.8044883E-10
   25.14000     -9.7249442E-10
   25.20000     -9.9218744E-10
   25.26000     -1.0386345E-09
   25.32000     -1.1041164E-09
   25.38000     -1.1767126E-09
   25.44000     -1.2444534E-09
   25.50000     -1.2992795E-09
   25.56000     -1.3391638E-09
   25.62000     -1.3676011E-09
   25.68000     -1.3908582E-09
   25.74000     -1.4143283E-09
   25.80000     -1.4396071E-09
   25.86000     -1.4634451E-09
   25.92000     -1.4788439E-09
   25.98000     -1.4776949E-09
   26.04000     -1.4538518E-09
   26.10000     -1.4055024E-09
   26.16000     -1.3360416E-09
   26.22000     -1.2531646E-09
   26.28000     -1.1664419E-09
   26.34000     -1.0841035E-09
   26.40000     -1.0100545E-09
   26.46000     -9.4217256E-10
   26.52000     -8.7259955E-10
   26.58000     -7.9007773E-10
   26.64000     -6.8360789E-10
   26.70000     -5.4615001E-10
   26.76000     -3.7704115E-10
   26.82000     -1.8231200E-10
   26.88000      2.7075637E-11
   26.94000      2.3828381E-10
   27.00000      4.3979959E-10
   27.06000      6.2378253E-10
   27.12000      7.8703200E-10
   27.18000      9.3055891E-10
   27.24000      1.0580838E-09
   27.30000      1.1739224E-09
   27.36000      1.2807737E-09
   27.42000      1.3779724E-09
   27.48000      1.4607722E-09
   27.54000      1.5210480E-09
   27.60000      1.5493619E-09
   27.66000      1.5377670E-09
   27.72000      1.4823122E-09
   27.78000      1.3842606E-09
   27.84000      1.2496043E-09
   27.90000      1.0872534E-09
   27.96000      9.0685537E-10
   28.02000      7.1720896E-10
   28.08000      5.2569354E-10
   28.14000      3.3843972E-10
   28.20000      1.6058958E-10
   28.26000     -3.8203381E-12
   28.32000     -1.5226174E-10
   28.38000     -2.8385722E-10
   28.44000     -3.9876719E-10
   28.50000     -4.9688870E-10
   28.56000     -5.7659799E-10
   28.62000     -6.3448491E-10
   28.68000     -6.6653366E-10
   28.74000     -6.7026312E-10
   28.80000     -6.4657873E-10
   28.86000     -6.0008004E-10
   28.92000     -5.3740040E-10
   28.98000     -4.6434873E-10
   29.04000     -3.8340187E-10
   29.10000     -2.9295291E-10
   29.16000     -1.8873030E-10
   29.22000     -6.6591788E-11
   29.28000      7.4779807E-11
   29.34000      2.3252995E-10
   29.40000      3.9999395E-10
   29.46000      5.6821281E-10
   29.52000      7.2768891E-10
   29.58000      8.6977775E-10
   29.64000      9.8771813E-10
   29.70000      1.0776418E-09
   29.76000      1.1397062E-09
   29.82000      1.1789445E-09
   29.88000      1.2050536E-09
   29.94000      1.2305637E-09
   30.00000      1.2676235E-09
   30.06000      1.3245054E-09
   30.12000      1.4032835E-09
   30.18000      1.4996577E-09
   30.24000      1.6048655E-09
   30.30000      1.7086403E-09
   30.36000      1.8018531E-09
   30.42000      1.8779189E-09
   30.48000      1.9329149E-09
   30.54000      1.9650304E-09
   30.60000      1.9740636E-09
   30.66000      1.9612485E-09
   30.72000      1.9291693E-09
   30.78000      1.8813335E-09
   30.84000      1.8212682E-09
   30.90000      1.7514862E-09
   30.96000      1.6729510E-09
   31.02000      1.5854436E-09
   31.08000      1.4886773E-09
   31.14000      1.3834882E-09
   31.20000      1.2723474E-09
   31.26000      1.1588562E-09
   31.32000      1.0465181E-09
   31.38000      9.3748598E-10
   31.44000      8.3192592E-10
   31.50000      7.2818873E-10
   31.56000      6.2350403E-10
   31.62000      5.1472987E-10
   31.68000      3.9888434E-10
   31.74000      2.7353264E-10
   31.80000      1.3728188E-10
   31.86000     -9.5143754E-12
   31.92000     -1.6409384E-10
   31.98000     -3.2116518E-10
   32.04000     -4.7371751E-10
   32.10000     -6.1469096E-10
   32.16000     -7.3892154E-10
   32.22000     -8.4453722E-10
   32.28000     -9.3320385E-10
   32.34000     -1.0091684E-09
   32.40000     -1.0775858E-09
   32.46000     -1.1428470E-09
   32.52000     -1.2074548E-09
   32.58000     -1.2716107E-09
   32.64000     -1.3333467E-09
   32.70000     -1.3889475E-09
   32.76000     -1.4335433E-09
   32.82000     -1.4619049E-09
   32.88000     -1.4694980E-09
   32.94000     -1.4536763E-09
   33.00000     -1.4146828E-09
   33.06000     -1.3560305E-09
   33.12000     -1.2839944E-09
   33.18000     -1.2062739E-09
   33.24000     -1.1302248E-09
   33.30000     -1.0612377E-09
   33.36000     -1.0017758E-09
   33.42000     -9.5132935E-10
   33.48000     -9.0722241E-10
   33.54000     -8.6595292E-10
   33.60000     -8.2461399E-10
   33.66000     -7.8196638E-10
   33.72000     -7.3886863E-10
   33.78000     -6.9799760E-10
   33.84000     -6.6302541E-10
   33.90000     -6.3759126E-10
   33.96000     -6.2443639E-10
   34.02000     -6.2494943E-10
   34.08000     -6.3915345E-10
   34.14000     -6.6597350E-10
   34.20000     -7.0355705E-10
   34.26000     -7.4949763E-10
   34.32000     -8.0095580E-10
   34.38000     -8.5477098E-10
   34.44000     -9.0764107E-10
   34.50000     -9.5634278E-10
   34.56000     -9.9789033E-10
   34.62000     -1.0295547E-09
   34.68000     -1.0487995E-09
   34.74000     -1.0533087E-09
   34.80000     -1.0412797E-09
   34.86000     -1.0119875E-09
   34.92000     -9.6638508E-10
   34.98000     -9.0737123E-10
   35.04000     -8.3943114E-10
   35.10000     -7.6763179E-10
   35.16000     -6.9626865E-10
   35.22000     -6.2763172E-10
   35.28000     -5.6130767E-10
   35.34000     -4.9421234E-10
   35.40000     -4.2130960E-10
   35.46000     -3.3682435E-10
   35.52000     -2.3571500E-10
   35.58000     -1.1514485E-10
   35.64000      2.4372504E-11
   35.70000      1.7854446E-10
   35.76000      3.3991943E-10
   35.82000      4.9960214E-10
   35.88000      6.4964772E-10
   35.94000      7.8530055E-10
   36.00000      9.0615138E-10
   36.06000      1.0156564E-09
   36.12000      1.1191572E-09
   36.18000      1.2212218E-09
   36.24000      1.3234132E-09
   36.30000      1.4233414E-09
   36.36000      1.5152168E-09
   36.42000      1.5914760E-09
   36.48000      1.6447171E-09
   36.54000      1.6692826E-09
   36.60000      1.6621815E-09
   36.66000      1.6233921E-09
   36.72000      1.5557216E-09
   36.78000      1.4643451E-09
   36.84000      1.3560503E-09
   36.90000      1.2382386E-09
   36.96000      1.1178659E-09
   37.02000      1.0006010E-09
   37.08000      8.9041280E-10
   37.14000      7.8954859E-10
   37.20000      6.9862593E-10
   37.26000      6.1652888E-10
   37.32000      5.4006954E-10
   37.38000      4.6376164E-10
   37.44000      3.8026074E-10
   37.50000      2.8182531E-10
   37.56000      1.6257903E-10
   37.62000      2.0750632E-11
   37.68000     -1.4016602E-10
   37.74000     -3.1202946E-10
   37.80000     -4.8434240E-10
   37.86000     -6.4731048E-10
   37.92000     -7.9440748E-10
   37.98000     -9.2348673E-10
   38.04000     -1.0362209E-09
   38.10000     -1.1364168E-09
   38.16000     -1.2281254E-09
   38.22000     -1.3143128E-09
   38.28000     -1.3963766E-09
   38.34000     -1.4743105E-09
   38.40000     -1.5471094E-09
   38.46000     -1.6131022E-09
   38.52000     -1.6701307E-09
   38.58000     -1.7156603E-09
   38.64000     -1.7469154E-09
   38.70000     -1.7610556E-09
   38.76000     -1.7553574E-09
   38.82000     -1.7274265E-09
   38.88000     -1.6755558E-09
   38.94000     -1.5993500E-09
   39.00000     -1.5005693E-09
   39.06000     -1.3838779E-09
   39.12000     -1.2570009E-09
   39.18000     -1.1298777E-09
   39.24000     -1.0127724E-09
   39.30000     -9.1382074E-10
   39.36000     -8.3687424E-10
   39.42000     -7.8050677E-10
   39.48000     -7.3866246E-10
   39.54000     -7.0278616E-10
   39.60000     -6.6469674E-10
   39.66000     -6.1919170E-10
   39.72000     -5.6550592E-10
   39.78000     -5.0720733E-10
   39.84000     -4.5067963E-10
   39.90000     -4.0279544E-10
   39.96000     -3.6857720E-10
   40.02000     -3.4955538E-10
   40.08000     -3.4324196E-10
   40.14000     -3.4377162E-10
   40.20000     -3.4344436E-10
   40.26000     -3.3470307E-10
   40.32000     -3.1202252E-10
   40.38000     -2.7324965E-10
   40.44000     -2.2008652E-10
   40.50000     -1.5761012E-10
   40.56000     -9.2951383E-11
   40.62000     -3.3473817E-11
   40.68000      1.5049226E-11
   40.74000      4.9726858E-11
   40.80000      7.0915572E-11
   40.86000      8.1556081E-11
   40.92000      8.5746424E-11
   40.98000      8.7104816E-11
   41.04000      8.7555491E-11
   41.10000      8.6983504E-11
   41.16000      8.3827625E-11
   41.22000      7.6279962E-11
   41.28000      6.3519690E-11
   41.34000      4.6426162E-11
   41.40000      2.7474205E-11
   41.46000      9.8780966E-12
   41.52000     -3.6349489E-12
   41.58000     -1.1895744E-11
   41.64000     -1.5738123E-11
   41.70000     -1.7578243E-11
   41.76000     -2.0211083E-11
   41.82000     -2.5232471E-11
   41.88000     -3.1713271E-11
   41.94000     -3.5765113E-11
   42.00000     -3.1383226E-11
   42.06000     -1.2472946E-11
   42.12000      2.4573283E-11
   42.18000      7.8737385E-11
   42.24000      1.4362239E-10
   42.30000      2.0855033E-10
   42.36000      2.6123373E-10
   42.42000      2.9107955E-10
   42.48000      2.9192077E-10
   42.54000      2.6323621E-10
   42.60000      2.0957296E-10
   42.66000      1.3859086E-10
   42.72000      5.8596461E-11
   42.78000     -2.3542867E-11
   42.84000     -1.0352817E-10
   42.90000     -1.7966585E-10
   42.96000     -2.5203570E-10
   43.02000     -3.2120895E-10
   43.08000     -3.8698775E-10
   43.14000     -4.4760745E-10
   43.20000     -4.9972981E-10
   43.26000     -5.3932536E-10
   43.32000     -5.6319166E-10
   43.38000     -5.7049698E-10
   43.44000     -5.6357763E-10
   43.50000     -5.4743116E-10
   43.56000     -5.2791660E-10
   43.62000     -5.0935184E-10
   43.68000     -4.9261889E-10
   43.74000     -4.7475068E-10
   43.80000     -4.5031628E-10
   43.86000     -4.1405399E-10
   43.92000     -3.6359085E-10
   43.98000     -3.0105576E-10
   44.04000     -2.3293853E-10
   44.10000     -1.6835411E-10
   44.16000     -1.1650722E-10
   44.22000     -8.4345413E-11
   44.28000     -7.5126239E-11
   44.34000     -8.8146351E-11
   44.40000     -1.1945979E-10
   44.46000     -1.6320688E-10
   44.52000     -2.1315852E-10
   44.58000     -2.6413624E-10
   44.64000     -3.1301392E-10
   44.70000     -3.5905678E-10
   44.76000     -4.0348783E-10
   44.82000     -4.4840587E-10
   44.88000     -4.9544829E-10
   44.94000     -5.4472382E-10
   45.00000     -5.9444238E-10
   45.06000     -6.4134931E-10
   45.12000     -6.8170919E-10
   45.18000     -7.1236739E-10
   45.24000     -7.3146089E-10
   45.30000     -7.3858869E-10
   45.36000     -7.3452761E-10
   45.42000     -7.2072637E-10
   45.48000     -6.9879263E-10
   45.54000     -6.7007322E-10
   45.60000     -6.3533323E-10
   45.66000     -5.9453475E-10
   45.72000     -5.4677129E-10
   45.78000     -4.9044063E-10
   45.84000     -4.2369305E-10
   45.90000     -3.4508718E-10
   45.96000     -2.5428315E-10
   46.02000     -1.5258023E-10
   46.08000     -4.3144280E-11
   46.14000      6.9158998E-11
   46.20000      1.7836171E-10
   46.26000      2.7840530E-10
   46.32000      3.6445935E-10
   46.38000      4.3428150E-10
   46.44000      4.8919185E-10
   46.50000      5.3420168E-10
   46.56000      5.7702920E-10
   46.62000      6.2613809E-10
   46.68000      6.8837280E-10
   46.74000      7.6699924E-10
   46.80000      8.6083740E-10
   46.86000      9.6473252E-10
   46.92000      1.0710806E-09
   46.98000      1.1717695E-09
   47.04000      1.2598742E-09
   47.10000      1.3307044E-09
   47.16000      1.3821484E-09
   47.22000      1.4144926E-09
   47.28000      1.4299484E-09
   47.34000      1.4320476E-09
   47.40000      1.4250022E-09
   47.46000      1.4131211E-09
   47.52000      1.4003871E-09
   47.58000      1.3902566E-09
   47.64000      1.3856021E-09
   47.70000      1.3885925E-09
   47.76000      1.4002953E-09
   47.82000      1.4199935E-09
   47.88000      1.4445047E-09
   47.94000      1.4680056E-09
   48.00000      1.4827615E-09
   48.06000      1.4807860E-09
   48.12000      1.4559537E-09
   48.18000      1.4057888E-09
   48.24000      1.3322449E-09
   48.30000      1.2412132E-09
   48.36000      1.1410303E-09
   48.42000      1.0405851E-09
   48.48000      9.4762664E-10
   48.54000      8.6760915E-10
   48.60000      8.0312584E-10
   48.66000      7.5383427E-10
   48.72000      7.1680734E-10
   48.78000      6.8730671E-10
   48.84000      6.5993849E-10
   48.90000      6.2997463E-10
   48.96000      5.9444444E-10
   49.02000      5.5258831E-10
   49.08000      5.0549731E-10
   49.14000      4.5513035E-10
   49.20000      4.0318568E-10
   49.26000      3.5032824E-10
   49.32000      2.9603039E-10
   49.38000      2.3893906E-10
   49.44000      1.7745398E-10
   49.50000      1.1019879E-10
   49.56000      3.6242089E-11
   49.62000     -4.4887500E-11
   49.68000     -1.3327051E-10
   49.74000     -2.2867039E-10
   49.80000     -3.3059933E-10
   49.86000     -4.3836820E-10
   49.92000     -5.5105981E-10
   49.98000     -6.6734607E-10
   50.04000     -7.8516399E-10
   50.10000     -9.0143948E-10
   50.16000     -1.0121589E-09
   50.22000     -1.1129951E-09
   50.28000     -1.2003933E-09
   50.34000     -1.2726814E-09
   50.40000     -1.3306440E-09
   50.46000     -1.3772032E-09
   50.52000     -1.4163023E-09
   50.58000     -1.4514954E-09
   50.64000     -1.4848550E-09
   50.70000     -1.5165625E-09
   50.76000     -1.5451409E-09
   50.82000     -1.5680084E-09
   50.88000     -1.5820526E-09
   50.94000     -1.5841485E-09
   51.00000     -1.5717423E-09
   51.06000     -1.5435611E-09
   51.12000     -1.5002739E-09
   51.18000     -1.4447046E-09
   51.24000     -1.3812759E-09
   51.30000     -1.3147574E-09
   51.36000     -1.2488514E-09
   51.42000     -1.1852989E-09
   51.48000     -1.1239147E-09
   51.54000     -1.0633656E-09
   51.60000     -1.0020648E-09
   51.66000     -9.3858032E-10
   51.72000     -8.7144270E-10
   51.78000     -7.9880963E-10
   51.84000     -7.1865419E-10
   51.90000     -6.2975714E-10
   51.96000     -5.3310251E-10
   52.02000     -4.3276868E-10
   52.08000     -3.3551525E-10
   52.14000     -2.4898256E-10
   52.20000     -1.7923160E-10
   52.26000     -1.2874916E-10
   52.32000     -9.5775859E-11
   52.38000     -7.5052888E-11
   52.44000     -5.9417866E-11
   52.50000     -4.1475497E-11
   52.56000     -1.4847117E-11
   52.62000      2.5037198E-11
   52.68000      8.0465502E-11
   52.74000      1.5125659E-10
   52.80000      2.3511199E-10
   52.86000      3.2871492E-10
   52.92000      4.2942122E-10
   52.98000      5.3684296E-10
   53.04000      6.5347289E-10
   53.10000      7.8392476E-10
   53.16000      9.3312535E-10
   53.22000      1.1045700E-09
   53.28000      1.2996919E-09
   53.34000      1.5187956E-09
   53.40000      1.7629036E-09
   53.46000      2.0354227E-09
   53.52000      2.3426652E-09
   53.58000      2.6930076E-09
   53.64000      3.0953065E-09
   53.70000      3.5574370E-09
   53.76000      4.0855044E-09
   53.82000      4.6835344E-09
   53.88000      5.3534612E-09
   53.94000      6.0948988E-09
   54.00000      6.9051427E-09
   54.06000      7.7796356E-09
   54.12000      8.7131333E-09
   54.18000      9.7012496E-09
   54.24000      1.0741487E-08
   54.30000      1.1833128E-08
   54.36000      1.2975924E-08
   54.42000      1.4168258E-08
   54.48000      1.5405535E-08
   54.54000      1.6679637E-08
   54.60000      1.7979232E-08
   54.66000      1.9290706E-08
   54.72000      2.0599362E-08
   54.78000      2.1890557E-08
   54.84000      2.3151074E-08
   54.90000      2.4370300E-08
   54.96000      2.5540691E-08
   55.02000      2.6656901E-08
   55.08000      2.7713394E-08
   55.14000      2.8701489E-08
   55.20000      2.9607119E-08
   55.26000      3.0410742E-08
   55.32000      3.1089741E-08
   55.38000      3.1621969E-08
   55.44000      3.1988836E-08
   55.50000      3.2176423E-08
   55.56000      3.2174515E-08