  -2.400000      0.0000000E+00
  -2.340000      0.0000000E+00
  -2.280000      0.0000000E+00
  -2.220000      0.0000000E+00
  -2.160000      0.0000000E+00
  -2.100000      0.0000000E+00
  -2.040000      0.0000000E+00
  -1.980000      0.0000000E+00
  -1.920000      0.0000000E+00
  -1.860000      0.0000000E+00
  -1.800000     -2.1882869E-31
  -1.740000     -9.0498952E-30
  -1.680000     -1.0119392E-28
  -1.620000     -5.9169912E-28
  -1.560000     -2.0749750E-27
  -1.500000     -3.8558242E-27
  -1.440000      2.0605359E-27
  -1.380000      4.0496760E-26
  -1.320000      1.4746320E-25
  -1.260000      3.0226231E-25
  -1.200000      2.5745237E-25
  -1.140000     -6.3700666E-25
  -1.080000     -3.2138730E-24
  -1.020000     -7.2352461E-24
 -0.9600000     -8.9595453E-24
 -0.9000000      7.1324933E-25
 -0.8400000      3.2956696E-23
 -0.7800000      8.7401459E-23
 -0.7200000      1.2957996E-22
 -0.6600000      7.6889250E-23
 -0.6000000     -1.7232403E-22
 -0.5400000     -6.3656395E-22
 -0.4800000     -1.0980097E-21
 -0.4200000     -1.0177156E-21
 -0.3600000      2.8345345E-22
 -0.3000000      3.0433423E-21
 -0.2400000      6.2410519E-21
 -0.1800000      7.1705339E-21
 -0.1200000      2.3129729E-21
 -5.9999999E-02 -9.9938879E-21
  0.0000000E+00 -2.5961485E-20
  5.9999999E-02 -3.4534736E-20
  0.1200000     -2.0884677E-20
  0.1800000      2.3222060E-20
  0.2400000      8.5896451E-20
  0.3000000      1.2845217E-19
  0.3600000      9.7612004E-20
  0.4200000     -3.9064613E-20
  0.4800000     -2.4807945E-19
  0.5400000     -4.0810917E-19
  0.6000000     -3.4836282E-19
  0.6600000      4.1793546E-20
  0.7200000      6.7541913E-19
  0.7800000      1.2010130E-18
  0.8400000      1.1115684E-18
  0.9000000      5.7333652E-20
  0.9600000     -1.7624315E-18
   1.020000     -3.3992472E-18
   1.080000     -3.4311342E-18
   1.140000     -7.8902732E-19
   1.200000      4.1865170E-18
   1.260000      9.1493993E-18
   1.320000      1.0342079E-17
   1.380000      4.6012811E-18
   1.440000     -7.9565659E-18
   1.500000     -2.2204330E-17
   1.560000     -2.9003007E-17
   1.620000     -1.9600773E-17
   1.680000      8.0348263E-18
   1.740000      4.4509570E-17
   1.800000      6.9983973E-17
   1.860000      6.2753323E-17
   1.920000      1.2893412E-17
   1.980000     -6.6134897E-17
   2.040000     -1.3659496E-16
   2.100000     -1.5122891E-16
   2.160000     -8.0024099E-17
   2.220000      6.4044035E-17
   2.280000      2.1752688E-16
   2.340000      2.8878937E-16
   2.400000      2.0622965E-16
   2.460000     -2.9582209E-17
   2.520000     -3.2187398E-16
   2.580000     -5.0639399E-16
   2.640000     -4.3191713E-16
   2.700000     -5.8456821E-17
   2.760000      4.8262185E-16
   2.820000      9.1550201E-16
   2.880000      9.4318305E-16
   2.940000      4.1970784E-16
   3.000000     -5.1940934E-16
   3.060000     -1.4586952E-15
   3.120000     -1.8704038E-15
   3.180000     -1.3913653E-15
   3.240000     -7.2180409E-17
   3.300000      1.5551117E-15
   3.360000      2.6735919E-15
   3.420000      2.5876126E-15
   3.480000      1.1475206E-15
   3.540000     -1.0518486E-15
   3.600000     -2.8646161E-15
   3.660000     -3.1510274E-15
   3.720000     -1.4512553E-15
   3.780000      1.5919163E-15
   3.840000      4.3612977E-15
   3.900000      4.9891155E-15
   3.960000      2.3893453E-15
   4.020000     -2.9221993E-15
   4.080000     -8.7252847E-15
   4.140000     -1.1914425E-14
   4.200000     -9.9751275E-15
   4.260000     -2.4465001E-15
   4.320000      8.4110041E-15
   4.380000      1.8232355E-14
   4.440000      2.2341343E-14
   4.500000      1.7983309E-14
   4.560000      5.9267823E-15
   4.620000     -9.4596673E-15
   4.680000     -2.1889283E-14
   4.740000     -2.5970283E-14
   4.800000     -1.9876763E-14
   4.860000     -6.5261750E-15
   4.920000      7.4940893E-15
   4.980000      1.4966733E-14
   5.040000      1.1746877E-14
   5.100000     -6.6847036E-16
   5.160000     -1.5159384E-14
   5.220000     -2.1946932E-14
   5.280000     -1.3443613E-14
   5.340000      1.1154641E-14
   5.400000      4.3876347E-14
   5.460000      7.0021408E-14
   5.520000      7.3964394E-14
   5.580000      4.6586958E-14
   5.640000     -8.9106765E-15
   5.700000     -7.5843798E-14
   5.760000     -1.2888163E-13
   5.820000     -1.4369776E-13
   5.880000     -1.0784565E-13
   5.940000     -2.8153452E-14
   6.000000      6.9213678E-14
   6.060000      1.4715486E-13
   6.120000      1.7201534E-13
   6.180000      1.2847243E-13
   6.240000      2.8507307E-14
   6.300000     -9.0166386E-14
   6.360000     -1.7680489E-13
   6.420000     -1.8731283E-13
   6.480000     -1.0333821E-13
   6.540000      5.7210171E-14
   6.600000      2.4322761E-13
   6.660000      3.8670635E-13
   6.720000      4.2637061E-13
   6.780000      3.2950124E-13
   6.840000      1.0337154E-13
   6.900000     -2.0793836E-13
   6.960000     -5.3925283E-13
   7.020000     -8.2495008E-13
   7.080000     -1.0149212E-12
   7.140000     -1.0787984E-12
   7.200000     -9.9772577E-13
   7.260000     -7.5020350E-13
   7.320000     -3.0320844E-13
   7.380000      3.8084244E-13
   7.440000      1.3172492E-12
   7.500000      2.4585705E-12
   7.560000      3.6566778E-12
   7.620000      4.6481725E-12
   7.680000      5.0804001E-12
   7.740000      4.5832747E-12
   7.800000      2.8752267E-12
   7.860000     -1.2410675E-13
   7.920000     -4.2098534E-12
   7.980000     -8.8681475E-12
   8.040000     -1.3328743E-11
   8.100000     -1.6687695E-11
   8.160000     -1.8072398E-11
   8.220000     -1.6808889E-11
   8.280000     -1.2552791E-11
   8.340000     -5.3598419E-12
   8.400000      4.3065603E-12
   8.460000      1.5614381E-11
   8.520000      2.7424167E-11
   8.580000      3.8354649E-11
   8.640000      4.6852737E-11
   8.700000      5.1287138E-11
   8.760000      5.0094009E-11
   8.820000      4.1993395E-11
   8.880000      2.6266661E-11
   8.940000      3.0465112E-12
   9.000000     -2.6460742E-11
   9.060000     -5.9910223E-11
   9.120000     -9.3976944E-11
   9.180000     -1.2475049E-10
   9.240000     -1.4831246E-10
   9.300000     -1.6138658E-10
   9.360000     -1.6192719E-10
   9.420000     -1.4953024E-10
   9.480000     -1.2560521E-10
   9.540000     -9.3314682E-11
   9.600000     -5.7342710E-11
   9.660000     -2.3570861E-11
   9.720000      1.2825637E-12
   9.780000      1.0054947E-11
   9.840000     -4.3948755E-12
   9.900000     -4.8592415E-11
   9.960000     -1.2770575E-10
   10.02000     -2.4471572E-10
   10.08000     -3.9964596E-10
   10.14000     -5.8905819E-10
   10.20000     -8.0601092E-10
   10.26000     -1.0405927E-09
   10.32000     -1.2810041E-09
   10.38000     -1.5150108E-09
   10.44000     -1.7314884E-09
   10.50000     -1.9217576E-09
   10.56000     -2.0804771E-09
   10.62000     -2.2059985E-09
   10.68000     -2.3002267E-09
   10.74000     -2.3681412E-09
   10.80000     -2.4171563E-09
   10.86000     -2.4564513E-09
   10.92000     -2.4963138E-09
   10.98000     -2.5474443E-09
   11.04000     -2.6201403E-09
   11.10000     -2.7233134E-09
   11.16000     -2.8633929E-09
   11.22000     -3.0432818E-09
   11.28000     -3.2616139E-09
   11.34000     -3.5125503E-09
   11.40000     -3.7862562E-09
   11.46000     -4.0700256E-09
   11.52000     -4.3498307E-09
   11.58000     -4.6119659E-09
   11.64000     -4.8444067E-09
   11.70000     -5.0376281E-09
   11.76000     -5.1847868E-09
   11.82000     -5.2813904E-09
   11.88000     -5.3247020E-09
   11.94000     -5.3131726E-09
   12.00000     -5.2461226E-09
   12.06000     -5.1237414E-09
   12.12000     -4.9473168E-09
   12.18000     -4.7195261E-09
   12.24000     -4.4446029E-09
   12.30000     -4.1282804E-09
   12.36000     -3.7775294E-09
   12.42000     -3.4001888E-09
   12.48000     -3.0046166E-09
   12.54000     -2.5994344E-09
   12.60000     -2.1933577E-09
   12.66000     -1.7950249E-09
   12.72000     -1.4127206E-09
   12.78000     -1.0539466E-09
   12.84000     -7.2489553E-10
   12.90000     -4.2997439E-10
   12.96000     -1.7156436E-10
   13.02000      4.9850818E-11
   13.08000      2.3517666E-10
   13.14000      3.8595388E-10
   13.20000      5.0359145E-10
   13.26000      5.8882349E-10
   13.32000      6.4153494E-10
   13.38000      6.6094480E-10
   13.44000      6.4599331E-10
   13.50000      5.9571714E-10
   13.56000      5.0944626E-10
   13.62000      3.8679357E-10
   13.68000      2.2757185E-10
   13.74000      3.1864417E-11
   13.80000     -1.9955389E-10
   13.86000     -4.6440912E-10
   13.92000     -7.5792433E-10
   13.98000     -1.0719938E-09
   14.04000     -1.3949585E-09
   14.10000     -1.7122658E-09
   14.16000     -2.0080102E-09
   14.22000     -2.2670190E-09
   14.28000     -2.4769169E-09
   14.34000     -2.6295708E-09
   14.40000     -2.7215161E-09
   14.46000     -2.7533165E-09
   14.52000     -2.7281857E-09
   14.58000     -2.6504323E-09
   14.64000     -2.5243019E-09
   14.70000     -2.3535687E-09
   14.76000     -2.1418807E-09
   14.82000     -1.8935451E-09
   14.88000     -1.6142613E-09
   14.94000     -1.3113792E-09
   15.00000     -9.9349617E-10
   15.06000     -6.6952882E-10
   15.12000     -3.4764758E-10
   15.18000     -3.4534504E-11
   15.24000      2.6470121E-10
   15.30000      5.4589366E-10
   15.36000      8.0472329E-10
   15.42000      1.0356033E-09
   15.48000      1.2310356E-09
   15.54000      1.3817580E-09
   15.60000      1.4777287E-09
   15.66000      1.5097004E-09
   15.72000      1.4709317E-09
   15.78000      1.3585452E-09
   15.84000      1.1741655E-09
   15.90000      9.2371422E-10
   15.96000      6.1649774E-10
   16.02000      2.6392866E-10
   16.08000     -1.2172521E-10
   16.14000     -5.2823990E-10
   16.20000     -9.4384356E-10
   16.26000     -1.3571976E-09
   16.32000     -1.7571709E-09
   16.38000     -2.1326709E-09
   16.44000     -2.4727294E-09
   16.50000     -2.7668958E-09
   16.56000     -3.0058291E-09
   16.62000     -3.1818819E-09
   16.68000     -3.2894536E-09
   16.74000     -3.3249814E-09
   16.80000     -3.2865839E-09
   16.86000     -3.1735148E-09
   16.92000     -2.9856759E-09
   16.98000     -2.7234341E-09
   17.04000     -2.3878821E-09
   17.10000     -1.9815263E-09
   17.16000     -1.5092155E-09
   17.22000     -9.7901420E-10
   17.28000     -4.0270767E-10
   17.34000      2.0428201E-10
   17.40000      8.2363033E-10
   17.46000      1.4353703E-09
   17.52000      2.0194233E-09
   17.58000      2.5571074E-09
   17.64000      3.0323914E-09
   17.70000      3.4327823E-09
   17.76000      3.7498618E-09
   17.82000      3.9795554E-09
   17.88000      4.1222012E-09
   17.94000      4.1824078E-09
   18.00000      4.1686361E-09
   18.06000      4.0924029E-09
   18.12000      3.9671071E-09
   18.18000      3.8066106E-09
   18.24000      3.6238590E-09
   18.30000      3.4298788E-09
   18.36000      3.2334142E-09
   18.42000      3.0412632E-09
   18.48000      2.8591165E-09
   18.54000      2.6925191E-09
   18.60000      2.5475217E-09
   18.66000      2.4307343E-09
   18.72000      2.3487314E-09
   18.78000      2.3070523E-09
   18.84000      2.3091773E-09
   18.90000      2.3558759E-09
   18.96000      2.4451334E-09
   19.02000      2.5726237E-09
   19.08000      2.7324689E-09
   19.14000      2.9179643E-09
   19.20000      3.1220209E-09
   19.26000      3.3373073E-09
   19.32000      3.5562726E-09
   19.38000      3.7713579E-09
   19.44000      3.9756420E-09
   19.50000      4.1639381E-09
   19.56000      4.3340695E-09
   19.62000      4.4878412E-09
   19.68000      4.6311959E-09
   19.74000      4.7732494E-09
   19.80000      4.9243067E-09
   19.86000      5.0933546E-09
   19.92000      5.2857971E-09
   19.98000      5.5021707E-09
   20.04000      5.7382499E-09
   20.10000      5.9864420E-09
   20.16000      6.2379026E-09
   20.22000      6.4845360E-09
   20.28000      6.7201653E-09
   20.34000      6.9405601E-09
   20.40000      7.1425430E-09
   20.46000      7.3228090E-09
   20.52000      7.4772224E-09
   20.58000      7.6010762E-09
   20.64000      7.6903506E-09
   20.70000      7.7434672E-09
   20.76000      7.7627798E-09
   20.82000      7.7550659E-09
   20.88000      7.7306961E-09
   20.94000      7.7016438E-09
   21.00000      7.6789508E-09
   21.06000      7.6704820E-09
   21.12000      7.6796276E-09
   21.18000      7.7052631E-09
   21.24000      7.7428099E-09
   21.30000      7.7858413E-09
   21.36000      7.8275875E-09
   21.42000      7.8618010E-09
   21.48000      7.8828242E-09
   21.54000      7.8850739E-09
   21.60000      7.8624689E-09
   21.66000      7.8083362E-09
   21.72000      7.7161300E-09
   21.78000      7.5808586E-09
   21.84000      7.4007236E-09
   21.90000      7.1782447E-09
   21.96000      6.9202537E-09
   22.02000      6.6365380E-09
   22.08000      6.3374324E-09
   22.14000      6.0311023E-09
   22.20000      5.7213949E-09
   22.26000      5.4069056E-09
   22.32000      5.0814539E-09
   22.38000      4.7356616E-09
   22.44000      4.3590167E-09
   22.50000      3.9417802E-09
   22.56000      3.4763374E-09
   22.62000      2.9578899E-09
   22.68000      2.3846272E-09
   22.74000      1.7575787E-09
   22.80000      1.0802840E-09
   22.86000      3.5832642E-10
   22.92000     -4.0122666E-10
   22.98000     -1.1903651E-09
   23.04000     -2.0004540E-09
   23.10000     -2.8221434E-09
   23.16000     -3.6448522E-09
   23.22000     -4.4560697E-09
   23.28000     -5.2409166E-09
   23.34000     -5.9824132E-09
   23.40000     -6.6626460E-09
   23.46000     -7.2646511E-09
   23.52000     -7.7744904E-09
   23.58000     -8.1829308E-09
   23.64000     -8.4863041E-09
   23.70000     -8.6865377E-09
   23.76000     -8.7906296E-09
   23.82000     -8.8099323E-09
   23.88000     -8.7594731E-09
   23.94000     -8.6572181E-09
   24.00000     -8.5230374E-09
   24.06000     -8.3771940E-09
   24.12000     -8.2384819E-09
   24.18000     -8.1224707E-09
   24.24000     -8.0404083E-09
   24.30000     -7.9991240E-09
   24.36000     -8.0017850E-09
   24.42000     -8.0489526E-09
   24.48000     -8.1392537E-09
   24.54000     -8.2692901E-09
   24.60000     -8.4329548E-09
   24.66000     -8.6207272E-09
   24.72000     -8.8196304E-09
   24.78000     -9.0140917E-09
   24.84000     -9.1874224E-09
   24.90000     -9.3232266E-09
   24.96000     -9.4061239E-09
   25.02000     -9.4216741E-09
   25.08000     -9.3560084E-09
   25.14000     -9.1958805E-09
   25.20000     -8.9296606E-09
   25.26000     -8.5490628E-09
   25.32000     -8.0508489E-09
   25.38000     -7.4375963E-09
   25.44000     -6.7171571E-09
   25.50000     -5.9012044E-09
   25.56000     -5.0038889E-09
   25.62000     -4.0415111E-09
   25.68000     -3.0333684E-09
   25.74000     -2.0029709E-09
   25.80000     -9.7828667E-10
   25.86000      9.9525535E-12
   25.92000      9.3179275E-10
   25.98000      1.7621544E-09
   26.04000      2.4836819E-09
   26.10000      3.0870659E-09
   26.16000      3.5688896E-09
   26.22000      3.9284034E-09
   26.28000      4.1651842E-09
   26.34000      4.2790309E-09
   26.40000      4.2720467E-09
   26.46000      4.1514729E-09
   26.52000      3.9313415E-09
   26.58000      3.6316636E-09
   26.64000      3.2752545E-09
   26.70000      2.8836147E-09
   26.76000      2.4737150E-09
   26.82000      2.0569095E-09
   26.88000      1.6399362E-09
   26.94000      1.2268574E-09
   27.00000      8.2048673E-10
   27.06000      4.2242840E-10
   27.12000      3.1887663E-11
   27.18000     -3.5577338E-10
   27.24000     -7.4964995E-10
   27.30000     -1.1625534E-09
   27.36000     -1.6091917E-09
   27.42000     -2.1040560E-09
   27.48000     -2.6597298E-09
   27.54000     -3.2858360E-09
   27.60000     -3.9883328E-09
   27.66000     -4.7687303E-09
   27.72000     -5.6231331E-09
   27.78000     -6.5415326E-09
   27.84000     -7.5080262E-09
   27.90000     -8.5024050E-09
   27.96000     -9.5028660E-09
   28.02000     -1.0488883E-08
   28.08000     -1.1443025E-08
   28.14000     -1.2350933E-08
   28.20000     -1.3199578E-08
   28.26000     -1.3974877E-08
   28.32000     -1.4660113E-08
   28.38000     -1.5236257E-08
   28.44000     -1.5684302E-08
   28.50000     -1.5988736E-08
   28.56000     -1.6140659E-08
   28.62000     -1.6139328E-08
   28.68000     -1.5991633E-08
   28.74000     -1.5709993E-08
   28.80000     -1.5309698E-08
   28.86000     -1.4806725E-08
   28.92000     -1.4216457E-08
   28.98000     -1.3553249E-08
   29.04000     -1.2830267E-08
   29.10000     -1.2059240E-08
   29.16000     -1.1250006E-08
   29.22000     -1.0410101E-08
   29.28000     -9.5446353E-09
   29.34000     -8.6564782E-09
   29.40000     -7.7465314E-09
   29.46000     -6.8138228E-09
   29.52000     -5.8554712E-09
   29.58000     -4.8669277E-09
   29.64000     -3.8430614E-09
   29.70000     -2.7803051E-09
   29.76000     -1.6793622E-09
   29.82000     -5.4732807E-10
   29.88000      6.0202054E-10
   29.94000      1.7503349E-09
   30.00000      2.8785891E-09
   30.06000      3.9711177E-09
   30.12000      5.0179225E-09
   30.18000      6.0141820E-09
   30.24000      6.9573414E-09
   30.30000      7.8434743E-09
   30.36000      8.6650118E-09
   30.42000      9.4111687E-09
   30.48000      1.0070917E-08
   30.54000      1.0636962E-08
   30.60000      1.1108639E-08
   30.66000      1.1492259E-08
   30.72000      1.1798737E-08
   30.78000      1.2039661E-08
   30.84000      1.2223524E-08
   30.90000      1.2353588E-08
   30.96000      1.2427845E-08
   31.02000      1.2440692E-08
   31.08000      1.2385297E-08
   31.14000      1.2255760E-08
   31.20000      1.2048507E-08
   31.26000      1.1762831E-08
   31.32000      1.1400721E-08
   31.38000      1.0966225E-08
   31.44000      1.0464557E-08
   31.50000      9.9012256E-09
   31.56000      9.2814778E-09
   31.62000      8.6102752E-09
   31.68000      7.8928615E-09
   31.74000      7.1356450E-09
   31.80000      6.3469683E-09
   31.86000      5.5373230E-09
   31.92000      4.7188387E-09
   31.98000      3.9041761E-09
   32.04000      3.1051852E-09
   32.10000      2.3316746E-09
   32.16000      1.5905081E-09
   32.22000      8.8510921E-10
   32.28000      2.1541791E-10
   32.34000     -4.2161746E-10
   32.40000     -1.0309441E-09
   32.46000     -1.6178083E-09
   32.52000     -2.1860402E-09
   32.58000     -2.7367959E-09
   32.64000     -3.2682461E-09
   32.70000     -3.7763126E-09
   32.76000     -4.2560258E-09
   32.82000     -4.7027711E-09
   32.88000     -5.1127875E-09
   32.94000     -5.4827423E-09
   33.00000     -5.8087921E-09
   33.06000     -6.0858429E-09
   33.12000     -6.3075896E-09
   33.18000     -6.4674857E-09
   33.24000     -6.5602879E-09
   33.30000     -6.5836008E-09
   33.36000     -6.5389369E-09
   33.42000     -6.4320522E-09
   33.48000     -6.2725394E-09
   33.54000     -6.0727099E-09
   33.60000     -5.8458198E-09
   33.66000     -5.6038321E-09
   33.72000     -5.3552309E-09
   33.78000     -5.1036961E-09
   33.84000     -4.8484115E-09
   33.90000     -4.5862012E-09
   33.96000     -4.3147717E-09
   34.02000     -4.0355510E-09
   34.08000     -3.7545287E-09
   34.14000     -3.4803618E-09
   34.20000     -3.2204224E-09
   34.26000     -2.9766840E-09
   34.32000     -2.7436269E-09
   34.38000     -2.5094602E-09
   34.44000     -2.2603248E-09
   34.50000     -1.9856832E-09
   34.56000     -1.6825709E-09
   34.62000     -1.3570542E-09
   34.68000     -1.0226282E-09
   34.74000     -6.9660999E-10
   34.80000     -3.9616616E-10
   34.86000     -1.3530720E-10
   34.92000      7.6611585E-11
   34.98000      2.3506175E-10
   35.04000      3.3964029E-10
   35.10000      3.9283671E-10
   35.16000      3.9844389E-10
   35.22000      3.5984224E-10
   35.28000      2.7864180E-10
   35.34000      1.5432249E-10
   35.40000     -1.4745408E-11
   35.46000     -2.2918810E-10
   35.52000     -4.8644011E-10
   35.58000     -7.7976386E-10
   35.64000     -1.0992892E-09
   35.70000     -1.4348532E-09
   35.76000     -1.7794182E-09
   35.82000     -2.1314668E-09
   35.88000     -2.4952598E-09
   35.94000     -2.8788703E-09
   36.00000     -3.2908936E-09
   36.06000     -3.7371106E-09
   36.12000     -4.2180779E-09
   36.18000     -4.7279953E-09
   36.24000     -5.2547140E-09
   36.30000     -5.7807004E-09
   36.36000     -6.2849712E-09
   36.42000     -6.7460997E-09
   36.48000     -7.1460167E-09
   36.54000     -7.4736555E-09
   36.60000     -7.7270297E-09
   36.66000     -7.9125204E-09
   36.72000     -8.0412965E-09
   36.78000     -8.1241973E-09
   36.84000     -8.1674489E-09
   36.90000     -8.1713907E-09
   36.96000     -8.1330107E-09
   37.02000     -8.0511233E-09
   37.08000     -7.9315470E-09
   37.14000     -7.7894784E-09
   37.20000     -7.6475128E-09
   37.26000     -7.5298336E-09
   37.32000     -7.4548021E-09
   37.38000     -7.4289122E-09
   37.44000     -7.4443438E-09
   37.50000     -7.4808701E-09
   37.56000     -7.5112352E-09
   37.62000     -7.5080768E-09
   37.68000     -7.4502435E-09
   37.74000     -7.3268298E-09
   37.80000     -7.1380519E-09
   37.86000     -6.8929702E-09
   37.92000     -6.6049020E-09
   37.98000     -6.2860002E-09
   38.04000     -5.9428444E-09
   38.10000     -5.5747140E-09
   38.16000     -5.1754117E-09
   38.22000     -4.7382036E-09
   38.28000     -4.2621013E-09
   38.34000     -3.7569379E-09
   38.40000     -3.2449188E-09
   38.46000     -2.7575928E-09
   38.52000     -2.3289459E-09
   38.58000     -1.9868822E-09
   38.64000     -1.7459950E-09
   38.70000     -1.6040518E-09
   38.76000     -1.5432546E-09
   38.82000     -1.5356852E-09
   38.88000     -1.5510313E-09
   38.94000     -1.5641148E-09
   39.00000     -1.5600042E-09
   39.06000     -1.5353919E-09
   39.12000     -1.4961644E-09
   39.18000     -1.4522957E-09
   39.24000     -1.4120196E-09
   39.30000     -1.3774303E-09
   39.36000     -1.3430893E-09
   39.42000     -1.2980443E-09
   39.48000     -1.2302863E-09
   39.54000     -1.1316494E-09
   39.60000     -1.0009684E-09
   39.66000     -8.4406915E-10
   39.72000     -6.7056843E-10
   39.78000     -4.8885546E-10
   39.84000     -3.0137556E-10
   39.90000     -1.0212310E-10
   39.96000      1.2277179E-10
   40.02000      3.9175910E-10
   40.08000      7.2323375E-10
   40.14000      1.1311587E-09
   40.20000      1.6221583E-09
   40.26000      2.1945825E-09
   40.32000      2.8393765E-09
   40.38000      3.5422163E-09
   40.44000      4.2862549E-09
   40.50000      5.0548543E-09
   40.56000      5.8337388E-09
   40.62000      6.6121046E-09
   40.68000      7.3824578E-09
   40.74000      8.1393292E-09
   40.80000      8.8774712E-09
   40.86000      9.5903960E-09
   40.92000      1.0270011E-08
   40.98000      1.0907669E-08
   41.04000      1.1496276E-08
   41.10000      1.2032650E-08
   41.16000      1.2519251E-08
   41.22000      1.2964695E-08
   41.28000      1.3382985E-08
   41.34000      1.3791773E-08
   41.40000      1.4210070E-08
   41.46000      1.4655724E-08
   41.52000      1.5142845E-08
   41.58000      1.5679431E-08
   41.64000      1.6265640E-08
   41.70000      1.6893416E-08
   41.76000      1.7548031E-08
   41.82000      1.8211557E-08
   41.88000      1.8867484E-08
   41.94000      1.9504952E-08
   42.00000      2.0120998E-08
   42.06000      2.0719828E-08
   42.12000      2.1309338E-08
   42.18000      2.1896337E-08
   42.24000      2.2482469E-08
   42.30000      2.3062601E-08
   42.36000      2.3626217E-08
   42.42000      2.4161102E-08
   42.48000      2.4657455E-08
   42.54000      2.5110658E-08
   42.60000      2.5521496E-08
   42.66000      2.5893966E-08
   42.72000      2.6231842E-08
   42.78000      2.6535572E-08
   42.84000      2.6800802E-08
   42.90000      2.7018944E-08
   42.96000      2.7179372E-08
   43.02000      2.7272181E-08
   43.08000      2.7290579E-08
   43.14000      2.7232142E-08
   43.20000      2.7098871E-08
   43.26000      2.6896240E-08
   43.32000      2.6631698E-08
   43.38000      2.6313092E-08
   43.44000      2.5947404E-08
   43.50000      2.5540068E-08
   43.56000      2.5095078E-08
   43.62000      2.4615822E-08
   43.68000      2.4106331E-08
   43.74000      2.3572417E-08
   43.80000      2.3022114E-08
   43.86000      2.2465102E-08
   43.92000      2.1911196E-08
   43.98000      2.1368457E-08
   44.04000      2.0841659E-08
   44.10000      2.0331729E-08
   44.16000      1.9836357E-08
   44.22000      1.9351384E-08
   44.28000      1.8872417E-08
   44.34000      1.8395983E-08
   44.40000      1.7919994E-08
   44.46000      1.7443586E-08
   44.52000      1.6966695E-08
   44.58000      1.6489736E-08
   44.64000      1.6013534E-08
   44.70000      1.5539479E-08
   44.76000      1.5069663E-08
   44.82000      1.4606884E-08
   44.88000      1.4154415E-08
   44.94000      1.3715646E-08
   45.00000      1.3293713E-08
   45.06000      1.2891232E-08
   45.12000      1.2510212E-08
   45.18000      1.2152140E-08
   45.24000      1.1818232E-08
   45.30000      1.1509729E-08
   45.36000      1.1228099E-08
   45.42000      1.0974941E-08
   45.48000      1.0751457E-08
   45.54000      1.0557559E-08
   45.60000      1.0390909E-08
   45.66000      1.0246309E-08
   45.72000      1.0115818E-08
   45.78000      9.9896980E-09
   45.84000      9.8578603E-09
   45.90000      9.7112700E-09
   45.96000      9.5427390E-09
   46.02000      9.3468460E-09
   46.08000      9.1191401E-09
   46.14000      8.8551113E-09
   46.20000      8.5494598E-09
   46.26000      8.1960376E-09
   46.32000      7.7885121E-09
   46.38000      7.3215469E-09
   46.44000      6.7922001E-09
   46.50000      6.2012235E-09
   46.56000      5.5539586E-09
   46.62000      4.8605089E-09
   46.68000      4.1348871E-09
   46.74000      3.3930250E-09
   46.80000      2.6499387E-09
   46.86000      1.9168422E-09
   46.92000      1.1992729E-09
   46.98000      4.9712856E-10
   47.04000     -1.9320182E-10
   47.10000     -8.7538377E-10
   47.16000     -1.5498337E-09
   47.22000     -2.2120563E-09
   47.28000     -2.8533553E-09
   47.34000     -3.4634560E-09
   47.40000     -4.0336121E-09
   47.46000     -4.5585624E-09
   47.52000     -5.0363762E-09
   47.58000     -5.4664340E-09
   47.64000     -5.8468075E-09
   47.70000     -6.1725811E-09
   47.76000     -6.4360610E-09
   47.82000     -6.6287420E-09
   47.88000     -6.7439609E-09
   47.94000     -6.7789410E-09
   48.00000     -6.7353780E-09
   48.06000     -6.6186310E-09
   48.12000     -6.4362471E-09
   48.18000     -6.1966974E-09
   48.24000     -5.9087952E-09
   48.30000     -5.5816640E-09
   48.36000     -5.2247291E-09
   48.42000     -4.8472732E-09
   48.48000     -4.4575006E-09
   48.54000     -4.0614903E-09
   48.60000     -3.6625913E-09
   48.66000     -3.2616405E-09
   48.72000     -2.8579803E-09
   48.78000     -2.4509355E-09
   48.84000     -2.0412352E-09
   48.90000     -1.6319476E-09
   48.96000     -1.2286543E-09
   49.02000     -8.3877710E-10
   49.08000     -4.7013921E-10
   49.14000     -1.2904325E-10
   49.20000      1.8163035E-10
   49.26000      4.6367227E-10
   49.32000      7.2362061E-10
   49.38000      9.7155550E-10
   49.44000      1.2190766E-09
   49.50000      1.4773514E-09
   49.56000      1.7561087E-09
   49.62000      2.0639452E-09
   49.68000      2.4095754E-09
   49.74000      2.8031484E-09
   49.80000      3.2567953E-09
   49.86000      3.7841783E-09
   49.92000      4.3995678E-09
   49.98000      5.1173754E-09
   50.04000      5.9528062E-09
   50.10000      6.9235164E-09
   50.16000      8.0513836E-09
   50.22000      9.3632631E-09
   50.28000      1.0890107E-08
   50.34000      1.2664761E-08
   50.40000      1.4719528E-08
   50.46000      1.7084654E-08
   50.52000      1.9788249E-08
   50.58000      2.2857151E-08
   50.64000      2.6317631E-08
   50.70000      3.0195014E-08
   50.76000      3.4512002E-08
   50.82000      3.9286498E-08
   50.88000      4.4530054E-08
   50.94000      5.0247710E-08
   51.00000      5.6439031E-08
   51.06000      6.3099279E-08
   51.12000      7.0219379E-08
   51.18000      7.7783973E-08
   51.24000      8.5767851E-08
   51.30000      9.4131785E-08
   51.36000      1.0281911E-07
   51.42000      1.1175383E-07
   51.48000      1.2084030E-07
   51.54000      1.2996362E-07
   51.60000      1.3899015E-07
   51.66000      1.4776741E-07
   51.72000      1.5612342E-07
   51.78000      1.6386549E-07
   51.84000      1.7077855E-07
   51.90000      1.7662339E-07
   51.96000      1.8113508E-07
   52.02000      1.8402207E-07
   52.08000      1.8496677E-07
   52.14000      1.8362820E-07
   52.20000      1.7964682E-07
   52.26000      1.7264999E-07
   52.32000      1.6225732E-07
   52.38000      1.4808418E-07
   52.44000      1.2974310E-07
   52.50000      1.0684425E-07
   52.56000      7.8996486E-08
   52.62000      4.5810651E-08
   52.68000      6.9057591E-09
   52.74000     -3.8082550E-08
   52.80000     -8.9492708E-08
   52.86000     -1.4762838E-07
   52.92000     -2.1275072E-07
   52.98000     -2.8507156E-07
   53.04000     -3.6474682E-07
   53.10000     -4.5186951E-07
   53.16000     -5.4646256E-07
   53.22000     -6.4847160E-07
   53.28000     -7.5775762E-07
   53.34000     -8.7409023E-07
   53.40000     -9.9714066E-07
   53.46000     -1.1264751E-06
   53.52000     -1.2615498E-06
   53.58000     -1.4017073E-06
   53.64000     -1.5461784E-06
   53.70000     -1.6940833E-06
   53.76000     -1.8444367E-06
   53.82000     -1.9961508E-06
   53.88000     -2.1480369E-06
   53.94000     -2.2988088E-06
   54.00000     -2.4470855E-06
   54.06000     -2.5914003E-06
   54.12000     -2.7302142E-06
   54.18000     -2.8619313E-06
   54.24000     -2.9849157E-06
   54.30000     -3.0975077E-06
   54.36000     -3.1980389E-06
   54.42000     -3.2848452E-06
   54.48000     -3.3562847E-06
   54.54000     -3.4107554E-06
   54.60000     -3.4467153E-06
   54.66000     -3.4627028E-06
   54.72000     -3.4573554E-06
   54.78000     -3.4294283E-06
   54.84000     -3.3778113E-06
   54.90000     -3.3015506E-06
   54.96000     -3.1998636E-06
   55.02000     -3.0721587E-06
   55.08000     -2.9180433E-06
   55.14000     -2.7373333E-06
   55.20000     -2.5300556E-06
   55.26000     -2.2964525E-06
   55.32000     -2.0369855E-06
   55.38000     -1.7523394E-06
   55.44000     -1.4434243E-06
   55.50000     -1.1113716E-06
   55.56000     -7.5752610E-07