 -0.750000000       0.00000000    
 -0.689999998       0.00000000    
 -0.629999995       0.00000000    
 -0.569999993       0.00000000    
 -0.509999990       0.00000000    
 -0.449999988       0.00000000    
 -0.389999986       0.00000000    
 -0.330000013       0.00000000    
 -0.270000011       0.00000000    
 -0.209999993       0.00000000    
 -0.150000006      -2.19676549E-31
  -9.00000036E-02  -9.07277836E-30
  -2.99999993E-02  -1.01402450E-28
   2.99999993E-02  -5.92662907E-28
   9.00000036E-02  -2.07709888E-27
  0.150000006      -3.85419874E-27
  0.209999993       2.08937149E-27
  0.270000011       4.05987172E-26
  0.330000013       1.47626826E-25
  0.389999986       3.02147433E-25
  0.449999988       2.56032597E-25
  0.509999990      -6.41056771E-25
  0.569999993      -3.21931828E-24
  0.629999995      -7.23205353E-24
  0.689999998      -8.92400792E-24
  0.750000000       8.06468576E-25
  0.810000002       3.30841038E-23
  0.870000005       8.74031945E-23
  0.930000007       1.29110088E-22
  0.990000010       7.55788448E-23
   1.04999995      -1.74306201E-22
   1.11000001      -6.37637002E-22
   1.16999996      -1.09470902E-21
   1.23000002      -1.00602762E-21
   1.28999996       3.03687795E-22
   1.35000002       3.06174623E-21
   1.40999997       6.23262901E-21
   1.47000003       7.10291268E-21
   1.52999997       2.17233744E-21
   1.59000003      -1.01624033E-20
   1.64999998      -2.60243396E-20
   1.71000004      -3.42954963E-20
   1.76999998      -2.02020398E-20
   1.83000004       2.42379219E-20
   1.88999999       8.67143582E-20
   1.95000005       1.28161749E-19
   2.00999999       9.53423884E-20
   2.06999993      -4.33715643E-20
   2.13000011      -2.52894808E-19
   2.19000006      -4.10191214E-19
   2.25000000      -3.43904476E-19
   2.30999994       5.46896020E-20
   2.36999989       6.93915405E-19
   2.43000007       1.21630137E-18
   2.49000001       1.11122254E-18
   2.54999995       3.17770770E-20
   2.60999990      -1.81160785E-18
   2.67000008      -3.45409096E-18
   2.73000002      -3.46071379E-18
   2.78999996      -7.63497011E-19
   2.84999990       4.27574663E-18
   2.91000009       9.27465343E-18
   2.97000003       1.04425365E-17
   3.02999997       4.61015673E-18
   3.08999991      -8.06946699E-18
   3.15000010      -2.23984016E-17
   3.21000004      -2.91691975E-17
   3.26999998      -1.96147271E-17
   3.32999992       8.22522759E-18
   3.39000010       4.48110075E-17
   3.45000005       7.01593817E-17
   3.50999999       6.25330742E-17
   3.56999993       1.21692115E-17
   3.63000011      -6.71304051E-17
   3.69000006      -1.37254423E-16
   3.75000000      -1.50776642E-16
   3.80999994      -7.79438659E-17
   3.86999989       6.75266048E-17
   3.93000007       2.21177270E-16
   3.99000001       2.90566606E-16
   4.05000019       2.04043950E-16
   4.11000013      -3.67465293E-17
   4.17000008      -3.32927120E-16
   4.23000002      -5.17773506E-16
   4.28999996      -4.38316654E-16
   4.34999990      -5.46828291E-17
   4.40999985       4.99169115E-16
   4.46999979       9.42684355E-16
   4.53000021       9.73415239E-16
   4.59000015       4.41452582E-16
   4.65000010      -5.17948842E-16
   4.71000004      -1.48468348E-15
   4.76999998      -1.92208780E-15
   4.82999992      -1.45640994E-15
   4.88999987      -1.29984697E-16
   4.94999981       1.52719500E-15
   5.01000023       2.69195096E-15
   5.07000017       2.65509804E-15
   5.13000011       1.25041269E-15
   5.19000006      -9.40783083E-16
   5.25000000      -2.77762475E-15
   5.30999994      -3.11463396E-15
   5.36999989      -1.47778990E-15
   5.42999983       1.50685499E-15
   5.48999977       4.23464805E-15
   5.55000019       4.84226078E-15
   5.61000013       2.24132224E-15
   5.67000008      -3.05551953E-15
   5.73000002      -8.82515666E-15
   5.78999996      -1.19507912E-14
   5.84999990      -9.90418939E-15
   5.90999985      -2.22213567E-15
   5.96999979       8.81034629E-15
   6.03000021       1.87697317E-14
   6.09000015       2.28979247E-14
   6.15000010       1.83655496E-14
   6.21000004       5.91606816E-15
   6.26999998      -1.00208495E-14
   6.32999992      -2.30022503E-14
   6.38999987      -2.74187140E-14
   6.44999981      -2.12402507E-14
   6.51000023      -7.28804343E-15
   6.57000017       7.76381844E-15
   6.63000011       1.64129032E-14
   6.69000006       1.40990108E-14
   6.75000000       1.91701068E-15
   6.80999994      -1.32294307E-14
   6.86999989      -2.14604471E-14
   6.92999983      -1.47491306E-14
   6.98999977       8.36384218E-15
   7.05000019       4.05364185E-14
   7.11000013       6.73961077E-14
   7.17000008       7.31510054E-14
   7.23000002       4.80164987E-14
   7.28999996      -5.75560285E-15
   7.34999990      -7.23296748E-14
   7.40999985      -1.26724681E-13
   7.46999979      -1.44225615E-13
   7.53000021      -1.11316040E-13
   7.59000015      -3.34479724E-14
   7.65000010       6.43236685E-14
   7.71000004       1.45201085E-13
   7.76999998       1.74761884E-13
   7.82999992       1.36013962E-13
   7.88999987       3.89491668E-14
   7.94999981      -8.02394379E-14
   8.01000023      -1.71183231E-13
   8.06999969      -1.88752415E-13
   8.13000011      -1.12442194E-13
   8.18999958       4.23537345E-14
   8.25000000       2.26487150E-13
   8.31000042       3.72646250E-13
   8.36999989       4.18801685E-13
   8.43000031       3.30419204E-13
   8.48999977       1.12652448E-13
   8.55000019      -1.92094279E-13
   8.60999966      -5.19502193E-13
   8.67000008      -8.04136434E-13
   8.72999954      -9.95920143E-13
   8.78999996      -1.06484580E-12
   8.85000038      -9.92771403E-13
   8.90999985      -7.58636968E-13
   8.97000027      -3.28523368E-13
   9.02999973       3.38295852E-13
   9.09000015       1.26257121E-12
   9.14999962       2.40338825E-12
   9.21000004       3.61784279E-12
   9.27000046       4.64372204E-12
   9.32999992       5.12360553E-12
   9.39000034       4.67666400E-12
   9.44999981       3.00688467E-12
   9.51000023       1.98079925E-14
   9.56999969      -4.08896484E-12
   9.63000011      -8.80674613E-12
   9.68999958      -1.33555380E-11
   9.75000000      -1.68165377E-11
   9.81000042      -1.82987948E-11
   9.86999989      -1.71103808E-11
   9.93000031      -1.28919514E-11
   9.98999977      -5.68799912E-12
   10.0500002       4.04617962E-12
   10.1099997       1.54839214E-11
   10.1700001       2.74870144E-11
   10.2299995       3.86674026E-11
   10.2900000       4.74516954E-11
   10.3500004       5.21702785E-11
   10.4099998       5.12026289E-11
   10.4700003       4.32002420E-11
   10.5299997       2.73777129E-11
   10.5900002       3.82111313E-12
   10.6499996      -2.62716186E-11
   10.7100000      -6.05138439E-11
   10.7700005      -9.54875762E-11
   10.8299999      -1.27149680E-10
   10.8900003      -1.51430743E-10
   10.9499998      -1.64910793E-10
   11.0100002      -1.65430933E-10
   11.0699997      -1.52519039E-10
   11.1300001      -1.27566555E-10
   11.1899996      -9.37647598E-11
   11.2500000      -5.58672587E-11
   11.3100004      -1.98622750E-11
   11.3699999       7.38718114E-12
   11.4300003       1.85317872E-11
   11.4899998       6.20029158E-12
   11.5500002      -3.63983045E-11
   11.6099997      -1.14711581E-10
   11.6700001      -2.31979477E-10
   11.7299995      -3.88423543E-10
   11.7900000      -5.80706094E-10
   11.8500004      -8.01866740E-10
   11.9099998      -1.04185549E-09
   11.9700003      -1.28863409E-09
   12.0299997      -1.52966217E-09
   12.0900002      -1.75347625E-09
   12.1499996      -1.95105021E-09
   12.2100000      -2.11669726E-09
   12.2700005      -2.24842167E-09
   12.3299999      -2.34776953E-09
   12.3900003      -2.41934539E-09
   12.4499998      -2.47018050E-09
   12.5100002      -2.50909049E-09
   12.5699997      -2.54605470E-09
   12.6300001      -2.59156452E-09
   12.6899996      -2.65584221E-09
   12.7500000      -2.74788059E-09
   12.8100004      -2.87435453E-09
   12.8699999      -3.03857384E-09
   12.9300003      -3.23973093E-09
   12.9899998      -3.47268680E-09
   13.0500002      -3.72843045E-09
   13.1099997      -3.99516997E-09
   13.1700001      -4.25983560E-09
   13.2299995      -4.50964066E-09
   13.2900000      -4.73334438E-09
   13.3500004      -4.92196461E-09
   13.4099998      -5.06888531E-09
   13.4700003      -5.16947951E-09
   13.5299997      -5.22053556E-09
   13.5900002      -5.21975885E-09
   13.6499996      -5.16556486E-09
   13.7100000      -5.05719377E-09
   13.7700005      -4.89505680E-09
   13.8299999      -4.68110395E-09
   13.8900003      -4.41904469E-09
   13.9499998      -4.11431422E-09
   14.0100002      -3.77382126E-09
   14.0699997      -3.40557094E-09
   14.1300001      -3.01829384E-09
   14.1899996      -2.62114530E-09
   14.2500000      -2.22345542E-09
   14.3100004      -1.83444349E-09
   14.3699999      -1.46280965E-09
   14.4300003      -1.11618459E-09
   14.4899998      -8.00523758E-10
   14.5500002      -5.19625343E-10
   14.6099997      -2.74966022E-10
   14.6700001      -6.59758082E-11
   14.7299995       1.09272640E-10
   14.7900000       2.53141591E-10
   14.8500004       3.67548936E-10
   14.9099998       4.53394433E-10
   14.9700003       5.10432474E-10
   15.0299997       5.37551004E-10
   15.0900002       5.33260325E-10
   15.1499996       4.96135355E-10
   15.2100000       4.25025792E-10
   15.2700005       3.19015647E-10
   15.3299999       1.77299536E-10
   15.3900003      -7.55115480E-13
   15.4499998      -2.15135548E-10
   15.5100002      -4.64263988E-10
   15.5699997      -7.43852868E-10
   15.6300001      -1.04596465E-09
   15.6899996      -1.35874978E-09
   15.7500000      -1.66717229E-09
   15.8100004      -1.95470751E-09
   15.8699999      -2.20562479E-09
   15.9300003      -2.40721976E-09
   15.9899998      -2.55133870E-09
   16.0499992      -2.63476907E-09
   16.1100006      -2.65847078E-09
   16.1700001      -2.62603028E-09
   16.2299995      -2.54197374E-09
   16.2900009      -2.41055997E-09
   16.3500004      -2.23542540E-09
   16.4099998      -2.02004968E-09
   16.4699993      -1.76867010E-09
   16.5300007      -1.48708834E-09
   16.5900002      -1.18290933E-09
   16.6499996      -8.65032213E-10
   16.7099991      -5.42578260E-10
   16.7700005      -2.23709273E-10
   16.8299999       8.51443291E-11
   16.8899994       3.79292459E-10
   16.9500008       6.55000665E-10
   17.0100002       9.08219888E-10
   17.0699997       1.13335763E-09
   17.1299992       1.32262257E-09
   17.1900005       1.46627277E-09
   17.2500000       1.55377400E-09
   17.3099995       1.57554603E-09
   17.3700008       1.52477964E-09
   17.4300003       1.39879397E-09
   17.4899998       1.19958410E-09
   17.5499992       9.33482736E-10
   17.6100006       6.10149264E-10
   17.6700001       2.41272863E-10
   17.7299995      -1.60602101E-10
   17.7900009      -5.82848658E-10
   17.8500004      -1.01306030E-09
   17.9099998      -1.43902235E-09
   17.9699993      -1.84860482E-09
   18.0300007      -2.22982077E-09
   18.0900002      -2.57117483E-09
   18.1499996      -2.86225244E-09
   18.2099991      -3.09436876E-09
   18.2700005      -3.26103478E-09
   18.3299999      -3.35805650E-09
   18.3899994      -3.38321926E-09
   18.4500008      -3.33567218E-09
   18.5100002      -3.21524496E-09
   18.5699997      -3.02197289E-09
   18.6299992      -2.75604117E-09
   18.6900005      -2.41822118E-09
   18.7500000      -2.01071226E-09
   18.8099995      -1.53814983E-09
   18.8700008      -1.00847797E-09
   18.9300003      -4.33399150E-10
   18.9899998       1.71779924E-10
   19.0499992       7.88924537E-10
   19.1100006       1.39833489E-09
   19.1700001       1.98024841E-09
   19.2299995       2.51631227E-09
   19.2900009       2.99081648E-09
   19.3500004       3.39158501E-09
   19.4099998       3.71053344E-09
   19.4699993       3.94395006E-09
   19.5300007       4.09254941E-09
   19.5900002       4.16128509E-09
   19.6499996       4.15886303E-09
   19.7099991       4.09688194E-09
   19.7700005       3.98862943E-09
   19.8299999       3.84768439E-09
   19.8899994       3.68659192E-09
   19.9500008       3.51593621E-09
   20.0100002       3.34403349E-09
   20.0699997       3.17727888E-09
   20.1299992       3.02095815E-09
   20.1900005       2.88016033E-09
   20.2500000       2.76039946E-09
   20.3099995       2.66768052E-09
   20.3700008       2.60797761E-09
   20.4300003       2.58632804E-09
   20.4899998       2.60590616E-09
   20.5499992       2.66741607E-09
   20.6100006       2.76899281E-09
   20.6700001       2.90658053E-09
   20.7299995       3.07456216E-09
   20.7900009       3.26635696E-09
   20.8500004       3.47479334E-09
   20.9099998       3.69225162E-09
   20.9699993       3.91077393E-09
   21.0300007       4.12241441E-09
   21.0900002       4.32003677E-09
   21.1499996       4.49852067E-09
   21.2099991       4.65606398E-09
   21.2700005       4.79509632E-09
   21.3299999       4.92229191E-09
   21.3899994       5.04744468E-09
   21.4500008       5.18135757E-09
   21.5100002       5.33329647E-09
   21.5699997       5.50877166E-09
   21.6299992       5.70835690E-09
   21.6900005       5.92788485E-09
   21.7500000       6.15986817E-09
   21.8099995       6.39555919E-09
   21.8700008       6.62685640E-09
   21.9300003       6.84742263E-09
   21.9899998       7.05276104E-09
   22.0499992       7.23949123E-09
   22.1100006       7.40440020E-09
   22.1700001       7.54390239E-09
   22.2299995       7.65430297E-09
   22.2900009       7.73283304E-09
   22.3500004       7.77901832E-09
   22.4099998       7.79575604E-09
   22.4699993       7.78955389E-09
   22.5300007       7.76970221E-09
   22.5900002       7.74657671E-09
   22.6499996       7.72957875E-09
   22.7099991       7.72536080E-09
   22.7700005       7.73684672E-09
   22.8299999       7.76326559E-09
   22.8899994       7.80103182E-09
   22.9500008       7.84503396E-09
   23.0100002       7.88978838E-09
   23.0699997       7.93002286E-09
   23.1299992       7.96056643E-09
   23.1900005       7.97577204E-09
   23.2500000       7.96894195E-09
   23.3099995       7.93228505E-09
   23.3700008       7.85774290E-09
   23.4300003       7.73858133E-09
   23.4899998       7.57125385E-09
   23.5499992       7.35679384E-09
   23.6100006       7.10105752E-09
   23.6700001       6.81352263E-09
   23.7299995       6.50490328E-09
   23.7900009       6.18429352E-09
   23.8500004       5.85674398E-09
   23.9099998       5.52200419E-09
   23.9699993       5.17471355E-09
   24.0300007       4.80582152E-09
   24.0900002       4.40466730E-09
   24.1499996       3.96108923E-09
   24.2099991       3.46708329E-09
   24.2700005       2.91782243E-09
   24.3299999       2.31205477E-09
   24.3899994       1.65199765E-09
   24.4500008       9.42836031E-10
   24.5100002       1.91928196E-10
   24.5699997      -5.92139282E-10
   24.6299992      -1.40040046E-09
   24.6900005      -2.22396612E-09
   24.7500000      -3.05387071E-09
   24.8099995      -3.88034360E-09
   24.8700008      -4.69184114E-09
   24.9300003      -5.47439249E-09
   24.9899998      -6.21175156E-09
   25.0499992      -6.88656199E-09
   25.1100006      -7.48229656E-09
   25.1700001      -7.98538213E-09
   25.2299995      -8.38687342E-09
   25.2900009      -8.68327810E-09
   25.3500004      -8.87651996E-09
   25.4099998      -8.97339181E-09
   25.4699993      -8.98488306E-09
   25.5300007      -8.92559093E-09
   25.5900002      -8.81309870E-09
   25.6499996      -8.66701910E-09
   25.7099991      -8.50751380E-09
   25.7700005      -8.35340241E-09
   25.8299999      -8.22036217E-09
   25.8899994      -8.11979906E-09
   25.9500008      -8.05874922E-09
   26.0100002      -8.04068989E-09
   26.0699997      -8.06664957E-09
   26.1299992      -8.13591949E-09
   26.1900005      -8.24595503E-09
   26.2500000      -8.39161540E-09
   26.3099995      -8.56435722E-09
   26.3700008      -8.75205863E-09
   26.4300003      -8.93979024E-09
   26.4899998      -9.11122822E-09
   26.5499992      -9.25001764E-09
   26.6100006      -9.34047062E-09
   26.6700001      -9.36745437E-09
   26.7299995      -9.31598354E-09
   26.7900009      -9.17129217E-09
   26.8500004      -8.91992702E-09
   26.9099998      -8.55169802E-09
   26.9699993      -8.06169798E-09
   27.0300007      -7.45141637E-09
   27.0900002      -6.72843514E-09
   27.1499996      -5.90504046E-09
   27.2099991      -4.99671016E-09
   27.2700005      -4.02144629E-09
   27.3299999      -3.00022718E-09
   27.3899994      -1.95789185E-09
   27.4500008      -9.23224996E-10
   27.5100002       7.27363725E-11
   27.5699997       1.00012398E-09
   27.6299992       1.83418969E-09
   27.6900005       2.55804378E-09
   27.7500000       3.16292126E-09
   27.8099995       3.64600106E-09
   27.8700008       4.00715150E-09
   27.9300003       4.24653956E-09
   27.9899998       4.36448877E-09
   28.0499992       4.36354064E-09
   28.1100006       4.25129532E-09
   28.1700001       4.04206135E-09
   28.2299995       3.75597908E-09
   28.2900009       3.41570350E-09
   28.3500004       3.04211789E-09
   28.4099998       2.65102296E-09
   28.4699993       2.25213403E-09
   28.5300007       1.85038562E-09
   28.5900002       1.44831303E-09
   28.6499996       1.04788778E-09
   28.7099991       6.50731025E-10
   28.7700005       2.56766053E-10
   28.8299999      -1.37675801E-10
   28.8899994      -5.41010015E-10
   28.9500008      -9.66038360E-10
   29.0100002      -1.42816703E-09
   29.0699997      -1.94296623E-09
   29.1299992      -2.52394328E-09
   29.1900005      -3.18099658E-09
   29.2500000      -3.91947808E-09
   29.3099995      -4.73951900E-09
   29.3700008      -5.63544056E-09
   29.4300003      -6.59547972E-09
   29.4899998      -7.60230545E-09
   29.5499992      -8.63468674E-09
   29.6100006      -9.67009939E-09
   29.6700001      -1.06874536E-08
   29.7299995      -1.16688765E-08
   29.7900009      -1.25997905E-08
   29.8500004      -1.34673854E-08
   29.9099998      -1.42583518E-08
   29.9699993      -1.49572426E-08
   30.0300007      -1.55464903E-08
   30.0900002      -1.60083289E-08
   30.1499996      -1.63278848E-08
   30.2099991      -1.64961520E-08
   30.2700005      -1.65116703E-08
   30.3299999      -1.63803673E-08
   30.3899994      -1.61137983E-08
   30.4500008      -1.57266964E-08
   30.5100002      -1.52347219E-08
   30.5699997      -1.46530086E-08
   30.6299992      -1.39954706E-08
   30.6900005      -1.32746036E-08
   30.7500000      -1.25013742E-08
   30.8099995      -1.16850520E-08
   30.8700008      -1.08330394E-08
   30.9300003      -9.95079485E-09
   30.9899998      -9.04186237E-09
   31.0499992      -8.10785927E-09
   31.1100006      -7.14834947E-09
   31.1700001      -6.16077633E-09
   31.2299995      -5.14085841E-09
   31.2900009      -4.08391498E-09
   31.3500004      -2.98715919E-09
   31.4099998      -1.85236726E-09
   31.4699993      -6.87792989E-10
   31.5300007       4.91791774E-10
   31.5900002       1.66735215E-09
   31.6499996       2.81946799E-09
   31.7099991       3.93224164E-09
   31.7700005       4.99549424E-09
   31.8299999       6.00428551E-09
   31.8899994       6.95614544E-09
   31.9500008       7.84761056E-09
   32.0099983       8.67201067E-09
   32.0699997       9.41977696E-09
   32.1300011       1.00811368E-08
   32.1899986       1.06498046E-08
   32.2500000       1.11257163E-08
   32.3100014       1.15153913E-08
   32.3699989       1.18297123E-08
   32.4300003       1.20801085E-08
   32.4900017       1.22747998E-08
   32.5499992       1.24165167E-08
   32.6100006       1.25023307E-08
   32.6699982       1.25253123E-08
   32.7299995       1.24771411E-08
   32.7900009       1.23506796E-08
   32.8499985       1.21418111E-08
   32.9099998       1.18502230E-08
   32.9700012       1.14791527E-08
   33.0299988       1.10343379E-08
   33.0900002       1.05225810E-08
   33.1500015       9.95040139E-09
   33.2099991       9.32328259E-09
   33.2700005       8.64581384E-09
   33.3300018       7.92266253E-09
   33.3899994       7.15993842E-09
   33.4500008       6.36629283E-09
   33.5099983       5.55317881E-09
   33.5699997       4.73406914E-09
   33.6300011       3.92289090E-09
   33.6899986       3.13220294E-09
   33.7500000       2.37167974E-09
   33.8100014       1.64722236E-09
   33.8699989       9.60773017E-10
   33.9300003       3.10732773E-10
   33.9900017      -3.07131709E-10
   34.0499992      -8.98403130E-10
   34.1100006      -1.46851453E-09
   34.1699982      -2.02134176E-09
   34.2299995      -2.55828358E-09
   34.2900009      -3.07814307E-09
   34.3499985      -3.57780738E-09
   34.4099998      -4.05334033E-09
   34.4700012      -4.50088322E-09
   34.5299988      -4.91687491E-09
   34.5900002      -5.29752375E-09
   34.6500015      -5.63794389E-09
   34.7099991      -5.93159877E-09
   34.7700005      -6.17056850E-09
   34.8300018      -6.34672670E-09
   34.8899994      -6.45347020E-09
   34.9500008      -6.48741061E-09
   35.0099983      -6.44952758E-09
   35.0699997      -6.34550723E-09
   35.1300011      -6.18520657E-09
   35.1899986      -5.98131100E-09
   35.2500000      -5.74731374E-09
   35.3100014      -5.49513546E-09
   35.3699989      -5.23297405E-09
   35.4300003      -4.96419172E-09
   35.4900017      -4.68789318E-09
   35.5499992      -4.40126291E-09
   35.6100006      -4.10282963E-09
   35.6699982      -3.79512866E-09
   35.7299995      -3.48528495E-09
   35.7900009      -3.18288862E-09
   35.8499985      -2.89593882E-09
   35.9099998      -2.62676014E-09
   35.9700012      -2.37002018E-09
   36.0299988      -2.11405626E-09
   36.0900002      -1.84514282E-09
   36.1500015      -1.55290547E-09
   36.2099991      -1.23458788E-09
   36.2700005      -8.96530461E-10
   36.3300018      -5.52564605E-10
   36.3899994      -2.20344451E-10
   36.4500008       8.27582863E-11
   36.5099983       3.42806644E-10
   36.5699997       5.50861412E-10
   36.6300011       7.03048342E-10
   36.6899986       7.99585897E-10
   36.7500000       8.43222658E-10
   36.8100014       8.37433400E-10
   36.8699989       7.84745657E-10
   36.9300003       6.85703216E-10
   36.9900017       5.38975531E-10
   37.0499992       3.42773837E-10
   37.1100006       9.70870467E-11
   37.1699982      -1.94346331E-10
   37.2299995      -5.23508958E-10
   37.2900009      -8.79607054E-10
   37.3499985      -1.25216459E-09
   37.4099998      -1.63437885E-09
   37.4700012      -2.02519534E-09
   37.5299988      -2.42916176E-09
   37.5900002      -2.85418911E-09
   37.6500015      -3.30823213E-09
   37.7099991      -3.79615628E-09
   37.7700005      -4.31764491E-09
   37.8300018      -4.86632379E-09
   37.8899994      -5.42986056E-09
   37.9500008      -5.99082695E-09
   38.0099983      -6.52843291E-09
   38.0699997      -7.02132619E-09
   38.1300011      -7.45128581E-09
   38.1899986      -7.80688847E-09
   38.2500000      -8.08568412E-09
   38.3100014      -8.29363245E-09
   38.3699989      -8.44163672E-09
   38.4300003      -8.54050874E-09
   38.4900017      -8.59671800E-09
   38.5499992      -8.61111893E-09
   38.6100006      -8.58143157E-09
   38.6699982      -8.50732285E-09
   38.7299995      -8.39541148E-09
   38.7900009      -8.26143509E-09
   38.8499985      -8.12809642E-09
   38.9099998      -8.01915157E-09
   38.9700012      -7.95206834E-09
   39.0299988      -7.93216159E-09
   39.0900002      -7.95041277E-09
   39.1500015      -7.98561839E-09
   39.2099991      -8.00989763E-09
   39.2700005      -7.99562105E-09
   39.3300018      -7.92163934E-09
   39.3899994      -7.77721620E-09
   39.4500008      -7.56283924E-09
   39.5099983      -7.28796090E-09
   39.5699997      -6.96645142E-09
   39.6300011      -6.61119826E-09
   39.6899986      -6.22964080E-09
   39.7500000      -5.82191984E-09
   39.8100014      -5.38256817E-09
   39.8699989      -4.90536900E-09
   39.9300003      -4.38966419E-09
   39.9900017      -3.84553145E-09
   40.0499992      -3.29547012E-09
   40.1100006      -2.77144152E-09
   40.1699982      -2.30793828E-09
   40.2299995      -1.93335037E-09
   40.2900009      -1.66259606E-09
   40.3499985      -1.49352009E-09
   40.4099998      -1.40816858E-09
   40.4700012      -1.37834666E-09
   40.5299988      -1.37350342E-09
   40.5900002      -1.36839318E-09
   40.6500015      -1.34823774E-09
   40.7099991      -1.31006139E-09
   40.7700005      -1.26014554E-09
   40.8300018      -1.20878241E-09
   40.8899994      -1.16433108E-09
   40.9500008      -1.12875798E-09
   41.0099983      -1.09625431E-09
   41.0699997      -1.05532982E-09
   41.1300011      -9.93387705E-10
   41.1899986      -9.01750064E-10
   41.2500000      -7.78902831E-10
   41.3100014      -6.30499541E-10
   41.3699989      -4.66091665E-10
   41.4300003      -2.93983671E-10
   41.4900017      -1.16396129E-10
   41.5499992       7.30938157E-11
   41.6100006       2.88915114E-10
   41.6699982       5.50084089E-10
   41.7299995       8.75416684E-10
   41.7900009       1.27905064E-09
   41.8499985       1.76752757E-09
   41.9099998       2.33890307E-09
   41.9700012       2.98366398E-09
   42.0299988       3.68685371E-09
   42.0900002       4.43077486E-09
   42.1500015       5.19772092E-09
   42.2099991       5.97226935E-09
   42.2700005       6.74271305E-09
   42.3300018       7.50129647E-09
   42.3899994       8.24321233E-09
   42.4500008       8.96475871E-09
   42.5099983       9.66142366E-09
   42.5699997       1.03268034E-08
   42.6300011       1.09529719E-08
   42.6899986       1.15322951E-08
   42.7500000       1.20600934E-08
   42.8100014       1.25371376E-08
   42.8699989       1.29710562E-08
   42.9300003       1.33761207E-08
   42.9900017       1.37714222E-08
   43.0499992       1.41778917E-08
   43.1100006       1.46148222E-08
   43.1699982       1.50965498E-08
   43.2299995       1.56299240E-08
   43.2900009       1.62130984E-08
   43.3499985       1.68360401E-08
   43.4099998       1.74829360E-08
   43.4700012       1.81360367E-08
   43.5299988       1.87800619E-08
   43.5900002       1.94057783E-08
   43.6500015       2.00114592E-08
   43.7099991       2.06016164E-08
   43.7700005       2.11834355E-08
   43.8300018       2.17623093E-08
   43.8899994       2.23383481E-08
   43.9500008       2.29053345E-08
   44.0099983       2.34525448E-08
   44.0699997       2.39685143E-08
   44.1300011       2.44449829E-08
   44.1899986       2.48792045E-08
   44.2500000       2.52736179E-08
   44.3100014       2.56331329E-08
   44.3699989       2.59613966E-08
   44.4300003       2.62577373E-08
   44.4900017       2.65161084E-08
   44.5499992       2.67263118E-08
   44.6100006       2.68768137E-08
   44.6699982       2.69578955E-08
   44.7299995       2.69639440E-08
   44.7900009       2.68942486E-08
   44.8499985       2.67523763E-08
   44.9099998       2.65446456E-08
   44.9700012       2.62783644E-08
   45.0299988       2.59603929E-08
   45.0900002       2.55962984E-08
   45.1500015       2.51902286E-08
   45.2099991       2.47454324E-08
   45.2700005       2.42652796E-08
   45.3300018       2.37544491E-08
   45.3899994       2.32197710E-08
   45.4500008       2.26702941E-08
   45.5099983       2.21163550E-08
   45.5699997       2.15678551E-08
   45.6300011       2.10323883E-08
   45.6899986       2.05139656E-08
   45.7500000       2.00128838E-08
   45.8100014       1.95267269E-08
   45.8699989       1.90520080E-08
   45.9300003       1.85856557E-08
   45.9900017       1.81257658E-08
   46.0499992       1.76714838E-08
   46.1100006       1.72223782E-08
   46.1699982       1.67778378E-08
   46.2299995       1.63369371E-08
   46.2900009       1.58988360E-08
   46.3499985       1.54634012E-08
   46.4099998       1.50316879E-08
   46.4700012       1.46059422E-08
   46.5299988       1.41892027E-08
   46.5900002       1.37846552E-08
   46.6500015       1.33950762E-08
   46.7099991       1.30225333E-08
   46.7700005       1.26683926E-08
   46.8300018       1.23335910E-08
   46.8899994       1.20190427E-08
   46.9500008       1.17260388E-08
   47.0099983       1.14564731E-08
   47.0699997       1.12126752E-08
   47.1300011       1.09967511E-08
   47.1899986       1.08094982E-08
   47.2500000       1.06492397E-08
   47.3100014       1.05110933E-08
   47.3699989       1.03870850E-08
   47.4300003       1.02672031E-08
   47.4900017       1.01410409E-08
   47.5499992       9.99933913E-09
   47.6100006       9.83481208E-09
   47.6699982       9.64197078E-09
   47.7299995       9.41618694E-09
   47.7900009       9.15257736E-09
   47.8499985       8.84531470E-09
   47.9099998       8.48771364E-09
   47.9700012       8.07305423E-09
   48.0299988       7.59584928E-09
   48.0900002       7.05324199E-09
   48.1500015       6.44624132E-09
   48.2099991       5.78058978E-09
   48.2700005       5.06695219E-09
   48.3300018       4.32008607E-09
   48.3899994       3.55679597E-09
   48.4500008       2.79291035E-09
   48.5099983       2.04011874E-09
   48.5699997       1.30389577E-09
   48.6300011       5.83557924E-10
   48.6899986      -1.25310873E-10
   48.7500000      -8.26955227E-10
   48.8100014      -1.52177970E-09
   48.8699989      -2.20463114E-09
   48.9300003      -2.86582602E-09
   48.9900017      -3.49430396E-09
   49.0499992      -4.08118472E-09
   49.1100006      -4.62181182E-09
   49.1699982      -5.11525666E-09
   49.2299995      -5.56169244E-09
   49.2900009      -5.95924066E-09
   49.3499985      -6.30214325E-09
   49.4099998      -6.58130350E-09
   49.4700012      -6.78690482E-09
   49.5299988      -6.91169300E-09
   49.5900002      -6.95326241E-09
   49.6500015      -6.91439750E-09
   49.7099991      -6.80164458E-09
   49.7700005      -6.62318556E-09
   49.8300018      -6.38724273E-09
   49.8899994      -6.10165296E-09
   49.9500008      -5.77436854E-09
   50.0099983      -5.41405631E-09
   50.0699997      -5.03001241E-09
   50.1300011      -4.63116523E-09
   50.1899986      -4.22462243E-09
   50.2500000      -3.81456777E-09
   50.3100014      -3.40216544E-09
   50.3699989      -2.98659297E-09
   50.4300003      -2.56680166E-09
   50.4900017      -2.14328644E-09
   50.5499992      -1.71923220E-09
   50.6100006      -1.30066302E-09