 -0.750000000       0.00000000    
 -0.689999998       0.00000000    
 -0.629999995       0.00000000    
 -0.569999993       0.00000000    
 -0.509999990       0.00000000    
 -0.449999988       0.00000000    
 -0.389999986       0.00000000    
 -0.330000013       0.00000000    
 -0.270000011       0.00000000    
 -0.209999993       0.00000000    
 -0.150000006       4.65651604E-32
  -9.00000036E-02   2.80262318E-33
  -2.99999993E-02  -3.31222447E-30
   2.99999993E-02  -2.08692731E-29
   9.00000036E-02  -3.78028541E-29
  0.150000006       1.82736867E-28
  0.209999993       1.47963747E-27
  0.270000011       4.97220993E-27
  0.330000013       8.31599525E-27
  0.389999986      -3.97876827E-27
  0.449999988      -6.88187401E-26
  0.509999990      -2.19833397E-25
  0.569999993      -3.79870989E-25
  0.629999995      -1.72435256E-25
  0.689999998       1.15366983E-24
  0.750000000       4.21778367E-24
  0.810000002       7.95145208E-24
  0.870000005       7.39640166E-24
  0.930000007      -6.77544822E-24
  0.990000010      -4.27839627E-23
   1.04999995      -9.33960888E-23
   1.11000001      -1.17647825E-22
   1.16999996      -3.69561897E-23
   1.23000002       2.27110530E-22
   1.28999996       6.59379422E-22
   1.35000002       1.03580259E-21
   1.40999997       8.88083603E-22
   1.47000003      -3.17368108E-22
   1.52999997      -2.72910573E-21
   1.59000003      -5.54978414E-21
   1.64999998      -6.79326198E-21
   1.71000004      -3.87935065E-21
   1.76999998       4.74213275E-21
   1.83000004       1.75173654E-20
   1.88999999       2.86664417E-20
   1.95000005       2.95610537E-20
   2.00999999       1.30318864E-20
   2.06999993      -2.11217645E-20
   2.13000011      -6.29946052E-20
   2.19000006      -9.50529075E-20
   2.25000000      -1.00094360E-19
   2.30999994      -6.97671206E-20
   2.36999989      -6.54116859E-21
   2.43000007       8.37582603E-20
   2.49000001       2.01694228E-19
   2.54999995       3.50489092E-19
   2.60999990       5.06988407E-19
   2.67000008       5.77740421E-19
   2.73000002       3.81914174E-19
   2.78999996      -2.82976135E-19
   2.84999990      -1.46859435E-18
   2.91000009      -2.85702104E-18
   2.97000003      -3.65402858E-18
   3.02999997      -2.78489089E-18
   3.08999991       5.25452319E-19
   3.15000010       5.95920890E-18
   3.21000004       1.15540762E-17
   3.26999998       1.39540340E-17
   3.32999992       9.76889550E-18
   3.39000010      -2.27160050E-18
   3.45000005      -1.94013012E-17
   3.50999999      -3.45160003E-17
   3.56999993      -3.84216626E-17
   3.63000011      -2.43045384E-17
   3.69000006       7.45959665E-18
   3.75000000       4.69527601E-17
   3.80999994       7.70503785E-17
   3.86999989       8.05116926E-17
   3.93000007       4.90289603E-17
   3.99000001      -1.04808772E-17
   4.05000019      -7.65528922E-17
   4.11000013      -1.21802292E-16
   4.17000008      -1.25942708E-16
   4.23000002      -8.63649881E-17
   4.28999996      -1.98087721E-17
   4.34999990       4.68461994E-17
   4.40999985       9.20947358E-17
   4.46999979       1.12288921E-16
   4.53000021       1.22221693E-16
   4.59000015       1.41369878E-16
   4.65000010       1.72752767E-16
   4.71000004       1.88246865E-16
   4.76999998       1.33607986E-16
   4.82999992      -4.28640593E-17
   4.88999987      -3.48272975E-16
   4.94999981      -7.11565062E-16
   5.01000023      -9.82130679E-16
   5.07000017      -9.73239692E-16
   5.13000011      -5.42602583E-16
   5.19000006       3.18740827E-16
   5.25000000       1.42971877E-15
   5.30999994       2.43061716E-15
   5.36999989       2.87694084E-15
   5.42999983       2.39795387E-15
   5.48999977       8.70501266E-16
   5.55000019      -1.45963661E-15
   5.61000013      -3.97170488E-15
   5.67000008      -5.81048762E-15
   5.73000002      -6.15242424E-15
   5.78999996      -4.52004775E-15
   5.84999990      -1.03004077E-15
   5.90999985       3.53666092E-15
   5.96999979       7.90189244E-15
   6.03000021       1.06646454E-14
   6.09000015       1.07617628E-14
   6.15000010       7.84373261E-15
   6.21000004       2.41638510E-15
   6.26999998      -4.30743147E-15
   6.32999992      -1.07769061E-14
   6.38999987      -1.55289210E-14
   6.44999981      -1.74951115E-14
   6.51000023      -1.60994451E-14
   6.57000017      -1.11918031E-14
   6.63000011      -2.97082428E-15
   6.69000006       7.94598050E-15
   6.75000000       2.02659443E-14
   6.80999994       3.17285667E-14
   6.86999989       3.90734638E-14
   6.92999983       3.85614460E-14
   6.98999977       2.71398098E-14
   7.05000019       4.00289306E-15
   7.11000013      -2.80300905E-14
   7.17000008      -6.20401218E-14
   7.23000002      -8.79920323E-14
   7.28999996      -9.52664664E-14
   7.34999990      -7.62041729E-14
   7.40999985      -2.95784108E-14
   7.46999979       3.73202988E-14
   7.53000021       1.09067533E-13
   7.59000015       1.65344938E-13
   7.65000010       1.86462445E-13
   7.71000004       1.59670346E-13
   7.76999998       8.42440538E-14
   7.82999992      -2.65471849E-14
   7.88999987      -1.47641299E-13
   7.94999981      -2.48275711E-13
   8.01000023      -3.00304405E-13
   8.06999969      -2.86165433E-13
   8.13000011      -2.03911459E-13
   8.18999958      -6.76969331E-14
   8.25000000       9.62350113E-14
   8.31000042       2.56366380E-13
   8.36999989       3.82890903E-13
   8.43000031       4.52512783E-13
   8.48999977       4.50085444E-13
   8.55000019       3.67979274E-13
   8.60999966       2.05419950E-13
   8.67000008      -2.99504142E-14
   8.72999954      -3.17610033E-13
   8.78999996      -6.18660396E-13
   8.85000038      -8.73418146E-13
   8.90999985      -1.00677051E-12
   8.97000027      -9.43981330E-13
   9.02999973      -6.35381667E-13
   9.09000015      -8.33361768E-14
   9.14999962       6.38735159E-13
   9.21000004       1.38563976E-12
   9.27000046       1.96409512E-12
   9.32999992       2.17907051E-12
   9.39000034       1.89214248E-12
   9.44999981       1.07461360E-12
   9.51000023      -1.63167941E-13
   9.56999969      -1.57962478E-12
   9.63000011      -2.84956412E-12
   9.68999958      -3.64148989E-12
   9.75000000      -3.70408305E-12
   9.81000042      -2.93713404E-12
   9.86999989      -1.42605058E-12
   9.93000031       5.70170213E-13
   9.98999977       2.67359832E-12
   10.0500002       4.46843647E-12
   10.1099997       5.58590717E-12
   10.1700001       5.77197925E-12
   10.2299995       4.92528240E-12
   10.2900000       3.10397237E-12
   10.3500004       5.09823900E-13
   10.4099998      -2.53836622E-12
   10.4700003      -5.63310032E-12
   10.5299997      -8.30725766E-12
   10.5900002      -1.00711418E-11
   10.6499996      -1.04679477E-11
   10.7100000      -9.15318776E-12
   10.7700005      -5.99099112E-12
   10.8299999      -1.14474923E-12
   10.8900003       4.87143702E-12
   10.9499998       1.12134729E-11
   11.0100002       1.68178076E-11
   11.0699997       2.05923351E-11
   11.1300001       2.16480341E-11
   11.1899996       1.95104610E-11
   11.2500000       1.42478807E-11
   11.3100004       6.47293807E-12
   11.3699999      -2.78772014E-12
   11.4300003      -1.23199523E-11
   11.4899998      -2.09784516E-11
   11.5500002      -2.78995941E-11
   11.6099997      -3.26162743E-11
   11.6700001      -3.50571239E-11
   11.7299995      -3.54522765E-11
   11.7900000      -3.41941649E-11
   11.8500004      -3.17054716E-11
   11.9099998      -2.83482855E-11
   11.9700003      -2.43793510E-11
   12.0299997      -1.99324238E-11
   12.0900002      -1.50017932E-11
   12.1499996      -9.41444318E-12
   12.2100000      -2.80371451E-12
   12.2700005       5.38105931E-12
   12.3299999       1.57912815E-11
   12.3900003       2.90073417E-11
   12.4499998       4.53044859E-11
   12.5100002       6.44247711E-11
   12.5699997       8.54450399E-11
   12.6300001       1.06815397E-10
   12.6899996       1.26591779E-10
   12.7500000       1.42814593E-10
   12.8100004       1.53923416E-10
   12.8699999       1.59072394E-10
   12.9300003       1.58238575E-10
   12.9899998       1.52087523E-10
   13.0500002       1.41651926E-10
   13.1099997       1.27949554E-10
   13.1700001       1.11687097E-10
   13.2299995       9.31549768E-11
   13.2900000       7.23314048E-11
   13.3500004       4.91212973E-11
   13.4099998       2.35981408E-11
   13.4700003      -3.87662472E-12
   13.5299997      -3.27147164E-11
   13.5900002      -6.23021496E-11
   13.6499996      -9.22201898E-11
   13.7100000      -1.22344704E-10
   13.7700005      -1.52735130E-10
   13.8299999      -1.83330254E-10
   13.8900003      -2.13577545E-10
   13.9499998      -2.42182857E-10
   14.0100002      -2.67141698E-10
   14.0699997      -2.86107193E-10
   14.1300001      -2.97002090E-10
   14.1899996      -2.98662206E-10
   14.2500000      -2.91256047E-10
   14.3100004      -2.76291434E-10
   14.3699999      -2.56171001E-10
   14.4300003      -2.33434549E-10
   14.4899998      -2.09960105E-10
   14.5500002      -1.86424098E-10
   14.6099997      -1.62233116E-10
   14.6700001      -1.35964920E-10
   14.7299995      -1.06161753E-10
   14.7900000      -7.21802687E-11
   14.8500004      -3.47755436E-11
   14.9099998       3.80764734E-12
   14.9700003       4.02813199E-11
   15.0299997       7.11445694E-11
   15.0900002       9.36051167E-11
   15.1499996       1.06274128E-10
   15.2100000       1.09412451E-10
   15.2700005       1.04684560E-10
   15.3299999       9.45631490E-11
   15.3900003       8.16473694E-11
   15.4499998       6.81630863E-11
   15.5100002       5.58050516E-11
   15.5699997       4.59095054E-11
   15.6300001       3.97880236E-11
   15.6899996       3.89810996E-11
   15.7500000       4.52360961E-11
   15.8100004       6.01561301E-11
   15.8699999       8.46395037E-11
   15.9300003       1.18350135E-10
   15.9899998       1.59471616E-10
   16.0499992       2.04892242E-10
   16.1100006       2.50791998E-10
   16.1700001       2.93436164E-10
   16.2299995       3.29895805E-10
   16.2900009       3.58453156E-10
   16.3500004       3.78586329E-10
   16.4099998       3.90600635E-10
   16.4699993       3.95108113E-10
   16.5300007       3.92589933E-10
   16.5900002       3.83209769E-10
   16.6499996       3.66913194E-10
   16.7099991       3.43718803E-10
   16.7700005       3.14041210E-10
   16.8299999       2.78906009E-10
   16.8899994       2.40002546E-10
   16.9500008       1.99615074E-10
   17.0100002       1.60521804E-10
   17.0699997       1.25923258E-10
   17.1299992       9.93793797E-11
   17.1900005       8.46504047E-11
   17.2500000       8.53183219E-11
   17.3099995       1.04145519E-10
   17.3700008       1.42282075E-10
   17.4300003       1.98587161E-10
   17.4899998       2.69388373E-10
   17.5499992       3.48902185E-10
   17.6100006       4.30295216E-10
   17.6700001       5.07075493E-10
   17.7299995       5.74307546E-10
   17.7900009       6.29164665E-10
   17.8500004       6.70587419E-10
   17.9099998       6.98221425E-10
   17.9699993       7.11169068E-10
   18.0300007       7.07230552E-10
   18.0900002       6.83128387E-10
   18.1499996       6.35768715E-10
   18.2099991       5.64070679E-10
   18.2700005       4.70552153E-10
   18.3299999       3.61858404E-10
   18.3899994       2.47801335E-10
   18.4500008       1.39081704E-10
   18.5100002       4.44409093E-11
   18.5699997      -3.17244495E-11
   18.6299992      -9.03825140E-11
   18.6900005      -1.37120107E-10
   18.7500000      -1.79896889E-10
   18.8099995      -2.26123981E-10
   18.8700008      -2.80121148E-10
   18.9300003      -3.41823680E-10
   18.9899998      -4.07103740E-10
   19.0499992      -4.69449812E-10
   19.1100006      -5.22260513E-10
   19.1700001      -5.60838542E-10
   19.2299995      -5.83365189E-10
   19.2900009      -5.90609006E-10
   19.3500004      -5.84660265E-10
   19.4099998      -5.67377145E-10
   19.4699993      -5.39312317E-10
   19.5300007      -4.99636943E-10
   19.5900002      -4.47105131E-10
   19.6499996      -3.81610160E-10
   19.7099991      -3.05591857E-10
   19.7700005      -2.24582672E-10
   19.8299999      -1.46525167E-10
   19.8899994      -8.00018940E-11
   19.9500008      -3.19768552E-11
   20.0100002      -5.86452891E-12
   20.0699997      -6.32561549E-13
   20.1299992      -1.12599626E-11
   20.1900005      -3.03748346E-11
   20.2500000      -5.04806544E-11
   20.3099995      -6.59964444E-11
   20.3700008      -7.44403289E-11
   20.4300003      -7.64202937E-11
   20.4899998      -7.45336015E-11
   20.5499992      -7.16602194E-11
   20.6100006      -6.93392913E-11
   20.6700001      -6.68751998E-11
   20.7299995      -6.15444987E-11
   20.7900009      -4.98580205E-11
   20.8500004      -2.94159870E-11
   20.9099998      -6.31148020E-13
   20.9699993       3.24045027E-11
   21.0300007       6.23499447E-11
   21.0900002       8.03082809E-11
   21.1499996       7.82615708E-11
   21.2099991       5.14212978E-11
   21.2700005      -3.21016922E-13
   21.3299999      -7.23309676E-11
   21.3899994      -1.56530885E-10
   21.4500008      -2.43551512E-10
   21.5100002      -3.24962807E-10
   21.5699997      -3.94869470E-10
   21.6299992      -4.50481263E-10
   21.6900005      -4.91704122E-10
   21.7500000      -5.20142152E-10
   21.8099995      -5.38026124E-10
   21.8700008      -5.47465018E-10
   21.9300003      -5.50151424E-10
   21.9899998      -5.47392964E-10
   22.0499992      -5.40207989E-10
   22.1100006      -5.29275179E-10
   22.1700001      -5.14695397E-10
   22.2299995      -4.95710140E-10
   22.2900009      -4.70606332E-10
   22.3500004      -4.36976871E-10
   22.4099998      -3.92328919E-10
   22.4699993      -3.34842765E-10
   22.5300007      -2.63981365E-10
   22.5900002      -1.80703716E-10
   22.6499996      -8.72176151E-11
   22.7099991       1.35676513E-11
   22.7700005       1.18580562E-10
   22.8299999       2.24820509E-10
   22.8899994       3.29160754E-10
   22.9500008       4.27854613E-10
   23.0100002       5.16090615E-10
   23.0699997       5.87991877E-10
   23.1299992       6.37302711E-10
   23.1900005       6.58699262E-10
   23.2500000       6.49334253E-10
   23.3099995       6.10031858E-10
   23.3700008       5.45595125E-10
   23.4300003       4.63975691E-10
   23.4899998       3.74489856E-10
   23.5499992       2.85657442E-10
   23.6100006       2.03425637E-10
   23.6700001       1.30413860E-10
   23.7299995       6.64141867E-11
   23.7900009       9.86666651E-12
   23.8500004      -4.03791653E-11
   23.9099998      -8.38163150E-11
   23.9699993      -1.18100404E-10
   24.0300007      -1.39993850E-10
   24.0900002      -1.46966758E-10
   24.1499996      -1.38681538E-10
   24.2099991      -1.17645130E-10
   24.2700005      -8.86994228E-11
   24.3299999      -5.75492015E-11
   24.3899994      -2.89502068E-11
   24.4500008      -5.30812286E-12
   24.5100002       1.37586921E-11
   24.5699997       3.07518698E-11
   24.6299992       4.88102787E-11
   24.6900005       6.99794042E-11
   24.7500000       9.38525091E-11
   24.8099995       1.17052437E-10
   24.8700008       1.33748665E-10
   24.9300003       1.37088993E-10
   24.9899998       1.21136878E-10
   25.0499992       8.27024768E-11
   25.1100006       2.24160048E-11
   25.1700001      -5.54229926E-11
   25.2299995      -1.44273760E-10
   25.2900009      -2.37587755E-10
   25.3500004      -3.30959815E-10
   25.4099998      -4.23241803E-10
   25.4699993      -5.16049314E-10
   25.5300007      -6.11812989E-10
   25.5900002      -7.11253723E-10
   25.6499996      -8.11511636E-10
   25.7099991      -9.05922670E-10
   25.7700005      -9.85685755E-10
   25.8299999      -1.04277309E-09
   25.8899994      -1.07284259E-09
   25.9500008      -1.07691212E-09
   26.0100002      -1.06112219E-09
   26.0699997      -1.03473818E-09
   26.1299992      -1.00722120E-09
   26.1900005      -9.85450943E-10
   26.2500000      -9.71997260E-10
   26.3099995      -9.64874292E-10
   26.3700008      -9.58738311E-10
   26.4300003      -9.47125933E-10
   26.4899998      -9.25112709E-10
   26.5499992      -8.91652807E-10
   26.6100006      -8.50845561E-10
   26.6700001      -8.11552103E-10
   26.7299995      -7.85224608E-10
   26.7900009      -7.82461984E-10
   26.8500004      -8.09428358E-10
   26.9099998      -8.65519878E-10
   26.9699993      -9.43320311E-10
   27.0300007      -1.03099695E-09
   27.0900002      -1.11623411E-09
   27.1499996      -1.19010601E-09
   27.2099991      -1.24930921E-09
   27.2700005      -1.29592781E-09
   27.3299999      -1.33501654E-09
   27.3899994      -1.37120471E-09
   27.4500008      -1.40584566E-09
   27.5100002      -1.43586132E-09
   27.5699997      -1.45461809E-09
   27.6299992      -1.45433643E-09
   27.6900005      -1.42901480E-09
   27.7500000      -1.37677358E-09
   27.8099995      -1.30081435E-09
   27.8700008      -1.20867605E-09
   27.9300003      -1.10999676E-09
   27.9899998      -1.01344555E-09
   28.0499992      -9.23789323E-10
   28.1100006      -8.40103542E-10
   28.1700001      -7.55845331E-10
   28.2299995      -6.60904664E-10
   28.2900009      -5.45022860E-10
   28.3500004      -4.01412764E-10
   28.4099998      -2.29301578E-10
   28.4699993      -3.45257260E-11
   28.5300007       1.71941794E-10
   28.5900002       3.76901177E-10
   28.6499996       5.68214809E-10
   28.7099991       7.37439110E-10
   28.7700005       8.81128948E-10
   28.8299999       1.00062469E-09
   28.8899994       1.10053677E-09
   28.9500008       1.18640620E-09
   29.0100002       1.26218069E-09
   29.0699997       1.32823164E-09
   29.1299992       1.38058054E-09
   29.1900005       1.41172074E-09
   29.2500000       1.41287981E-09
   29.3099995       1.37696266E-09
   29.3700008       1.30104483E-09
   29.4300003       1.18741572E-09
   29.4899998       1.04281761E-09
   29.5499992       8.76365591E-10
   29.6100006       6.97205571E-10
   29.6700001       5.12940523E-10
   29.7299995       3.29265282E-10
   29.7900009       1.50503013E-10
   29.8500004      -1.96901523E-11
   29.9099998      -1.78039763E-10
   29.9699993      -3.21830507E-10
   30.0300007      -4.49101784E-10
   30.0900002      -5.58380397E-10
   30.1499996      -6.47920606E-10
   30.2099991      -7.14993786E-10
   30.2700005      -7.55968455E-10
   30.3299999      -7.67504837E-10
   30.3899994      -7.48386353E-10
   30.4500008      -7.00889957E-10
   30.5100002      -6.30656471E-10
   30.5699997      -5.44819301E-10
   30.6299992      -4.49217469E-10
   30.6900005      -3.46163237E-10
   30.7500000      -2.34002540E-10
   30.8099995      -1.08722586E-10
   30.8700008       3.32655431E-11
   30.9300003       1.92612828E-10
   30.9899998       3.65931729E-10
   31.0499992       5.46354739E-10
   31.1100006       7.25127958E-10
   31.1700001       8.93319529E-10
   31.2299995       1.04308018E-09
   31.2900009       1.16851095E-09
   31.3500004       1.26652278E-09
   31.4099998       1.33785705E-09
   31.4699993       1.38787859E-09
   31.5300007       1.42636969E-09
   31.5900002       1.46577228E-09
   31.6499996       1.51808210E-09
   31.7099991       1.59145719E-09
   31.7700005       1.68792924E-09
   31.8299999       1.80316373E-09
   31.8899994       1.92822025E-09
   31.9500008       2.05235007E-09
   32.0099983       2.16555818E-09
   32.0699997       2.26008834E-09
   32.1300011       2.33078068E-09
   32.1899986       2.37484921E-09
   32.2500000       2.39166820E-09
   32.3100014       2.38273157E-09
   32.3699989       2.35147857E-09
   32.4300003       2.30258035E-09
   32.4900017       2.24065055E-09
   32.5499992       2.16886198E-09
   32.6100006       2.08821804E-09
   32.6699982       1.99794292E-09
   32.7299995       1.89682736E-09
   32.7900009       1.78476844E-09
   32.8499985       1.66362935E-09
   32.9099998       1.53695745E-09
   32.9700012       1.40877465E-09
   33.0299988       1.28213840E-09
   33.0900002       1.15819232E-09
   33.1500015       1.03602416E-09
   33.2099991       9.13169651E-10
   33.2700005       7.86361087E-10
   33.3300018       6.52225829E-10
   33.3899994       5.07913711E-10
   33.4500008       3.51792762E-10
   33.5099983       1.84237126E-10
   33.5699997       8.25072909E-12
   33.6300011      -1.70517475E-10
   33.6899986      -3.44684059E-10
   33.7500000      -5.06861997E-10
   33.8100014      -6.51637744E-10
   33.8699989      -7.77011455E-10
   33.9300003      -8.84716134E-10
   33.9900017      -9.79327952E-10
   34.0499992      -1.06658005E-09
   34.1100006      -1.15153331E-09
   34.1699982      -1.23716937E-09
   34.2299995      -1.32367317E-09
   34.2900009      -1.40839673E-09
   34.3499985      -1.48636781E-09
   34.4099998      -1.55122315E-09
   34.4700012      -1.59646885E-09
   34.5299988      -1.61691494E-09
   34.5900002      -1.60999614E-09
   34.6500015      -1.57659752E-09
   34.7099991      -1.52106405E-09
   34.7700005      -1.45031021E-09
   34.8300018      -1.37226752E-09
   34.8899994      -1.29414102E-09
   34.9500008      -1.22100463E-09
   35.0099983      -1.15512044E-09
   35.0699997      -1.09610587E-09
   35.1300011      -1.04181963E-09
   35.1899986      -9.89643256E-10
   35.2500000      -9.37754097E-10
   35.3100014      -8.86009044E-10
   35.3699989      -8.36182346E-10
   35.4300003      -7.91516686E-10
   35.4900017      -7.55780050E-10
   35.5499992      -7.32206018E-10
   35.6100006      -7.22709892E-10
   35.6699982      -7.27621963E-10
   35.7299995      -7.45915718E-10
   35.7900009      -7.75695397E-10
   35.8499985      -8.14647461E-10
   35.9099998      -8.60285732E-10
   35.9700012      -9.10011511E-10
   36.0299988      -9.61132063E-10
   36.0900002      -1.01095254E-09
   36.1500015      -1.05692355E-09
   36.2099991      -1.09672216E-09
   36.2700005      -1.12818110E-09
   36.3300018      -1.14912857E-09
   36.3899994      -1.15735277E-09
   36.4500008      -1.15089616E-09
   36.5099983      -1.12868292E-09
   36.5699997      -1.09121301E-09
   36.6300011      -1.04089892E-09
   36.6899986      -9.81725257E-10
   36.7500000      -9.18227328E-10
   36.8100014      -8.54133597E-10
   36.8699989      -7.91184618E-10
   36.9300003      -7.28549776E-10
   36.9900017      -6.62989774E-10
   37.0499992      -5.89649052E-10
   37.1100006      -5.03238118E-10
   37.1699982      -3.99374200E-10
   37.2299995      -2.75875739E-10
   37.2900009      -1.33761044E-10
   37.3499985       2.23910890E-11
   37.4099998       1.85048782E-10
   37.4700012       3.45385887E-10
   37.5299988       4.95618602E-10
   37.5900002       6.31208308E-10
   37.6500015       7.51996354E-10
   37.7099991       8.61690275E-10
   37.7700005       9.65831304E-10
   37.8300018       1.06907017E-09
   37.8899994       1.17289167E-09
   37.9500008       1.27466837E-09
   38.0099983       1.36827472E-09
   38.0699997       1.44582224E-09
   38.1300011       1.49972534E-09
   38.1899986       1.52439883E-09
   38.2500000       1.51724544E-09
   38.3100014       1.47894397E-09
   38.3699989       1.41319645E-09
   38.4300003       1.32606492E-09
   38.4900017       1.22497079E-09
   38.5499992       1.11748277E-09
   38.6100006       1.01016007E-09
   38.6699982       9.07784126E-10
   38.7299995       8.13183743E-10
   38.7900009       7.27544636E-10
   38.8499985       6.50814236E-10
   38.9099998       5.81792059E-10
   38.9700012       5.17805576E-10
   39.0299988       4.54317917E-10
   39.0900002       3.85074250E-10
   39.1500015       3.03214981E-10
   39.2099991       2.03226283E-10
   39.2700005       8.29879707E-11
   39.3300018      -5.50670100E-11
   39.3899994      -2.04347150E-10
   39.4500008      -3.55984880E-10
   39.5099983      -5.01418185E-10
   39.5699997      -6.34590436E-10
   39.6300011      -7.52967577E-10
   39.6899986      -8.57223903E-10
   39.7500000      -9.50057033E-10
   39.8100014      -1.03483788E-09
   39.8699989      -1.11461540E-09
   39.9300003      -1.19160226E-09
   39.9900017      -1.26695954E-09
   40.0499992      -1.34065647E-09
   40.1100006      -1.41134815E-09
   40.1699982      -1.47639001E-09
   40.2299995      -1.53212509E-09
   40.2900009      -1.57443569E-09
   40.3499985      -1.59937652E-09
   40.4099998      -1.60367553E-09
   40.4700012      -1.58503133E-09
   40.5299988      -1.54233193E-09
   40.5900002      -1.47599899E-09
   40.6500015      -1.38851719E-09
   40.7099991      -1.28493050E-09
   40.7700005      -1.17287924E-09
   40.8300018      -1.06179632E-09
   40.8899994      -9.61216995E-10
   40.9500008      -8.78612905E-10
   41.0099983      -8.17491463E-10
   41.0699997      -7.76510856E-10
   41.1300011      -7.50015938E-10
   41.1899986      -7.29877436E-10
   41.2500000      -7.08031911E-10
   41.3100014      -6.78888723E-10
   41.3699989      -6.40842823E-10
   41.4300003      -5.96464433E-10
   41.4900017      -5.51372725E-10
   41.5499992      -5.12205500E-10
   41.6100006      -4.84344009E-10
   41.6699982      -4.70093298E-10
   41.7299995      -4.67847039E-10
   41.7900009      -4.72445527E-10
   41.8499985      -4.76569506E-10
   41.9099998      -4.72713590E-10
   41.9700012      -4.55149141E-10
   42.0299988      -4.21340435E-10
   42.0900002      -3.72477438E-10
   42.1500015      -3.13054027E-10
   42.2099991      -2.49664706E-10
   42.2700005      -1.89368396E-10
   42.3300018      -1.38054804E-10
   42.3899994      -9.92380414E-11
   42.4500008      -7.35891556E-11
   42.5099983      -5.93082042E-11
   42.5699997      -5.31687402E-11
   42.6300011      -5.18308868E-11
   42.6899986      -5.29222915E-11
   42.7500000      -5.54936860E-11
   42.8100014      -5.97370348E-11
   42.8699989      -6.61888946E-11
   42.9300003      -7.48648019E-11
   42.9900017      -8.47768800E-11
   43.0499992      -9.40763023E-11
   43.1100006      -1.00745787E-10
   43.1699982      -1.03505350E-10
   43.2299995      -1.02487754E-10
   43.2900009      -9.93301760E-11
   43.3499985      -9.65565961E-11
   43.4099998      -9.64073266E-11
   43.4700012      -9.95133420E-11
   43.5299988      -1.03946900E-10
   43.5900002      -1.05133166E-10
   43.6500015      -9.68692349E-11
   43.7099991      -7.32903113E-11
   43.7700005      -3.11915355E-11
   43.8300018       2.81592197E-11
   43.8899994       9.85158830E-11
   43.9500008       1.69811998E-10
   44.0099983       2.30678171E-10
   44.0699997       2.71436873E-10
   44.1300011       2.86484808E-10
   44.1899986       2.75251349E-10
   44.2500000       2.41541592E-10
   44.3100014       1.91723470E-10
   44.3699989       1.32587580E-10
   44.4300003       6.96666683E-11
   44.4900017       6.44992393E-12
   44.5499992      -5.55004688E-11
   44.6100006      -1.15818286E-10
   44.6699982      -1.74362497E-10
   44.7299995      -2.30342967E-10
   44.7900009      -2.81807216E-10
   44.8499985      -3.25685173E-10
   44.9099998      -3.58471031E-10
   44.9700012      -3.77394671E-10
   45.0299988      -3.81653514E-10
   45.0900002      -3.73091863E-10
   45.1500015      -3.55824509E-10
   45.2099991      -3.34740680E-10
   45.2700005      -3.13420234E-10
   45.3300018      -2.92412011E-10
   45.3899994      -2.68773198E-10
   45.4500008      -2.37230013E-10
   45.5099983      -1.92534488E-10
   45.5699997      -1.32000480E-10
   45.6300011      -5.71197534E-11
   45.6899986       2.63868354E-11
   45.7500000       1.09999496E-10
   45.8100014       1.84628271E-10
   45.8699989       2.42760256E-10
   45.9300003       2.79866630E-10
   45.9900017       2.94841956E-10
   46.0499992       2.89613333E-10
   46.1100006       2.68221917E-10
   46.1699982       2.35661074E-10
   46.2299995       1.96698074E-10
   46.2900009       1.54891933E-10
   46.3499985       1.12033723E-10
   46.4099998       6.81913206E-11
   46.4700012       2.23635433E-11
   46.5299988      -2.64994884E-11
   46.5900002      -7.85376070E-11
   46.6500015      -1.32495723E-10
   46.7099991      -1.85898838E-10
   46.7700005      -2.35755249E-10
   46.8300018      -2.79422013E-10
   46.8899994      -3.15251936E-10
   46.9500008      -3.42808171E-10
   47.0099983      -3.62666036E-10
   47.0699997      -3.75977166E-10
   47.1300011      -3.83987009E-10
   47.1899986      -3.87623711E-10
   47.2500000      -3.87198634E-10
   47.3100014      -3.82239240E-10
   47.3699989      -3.71496500E-10
   47.4300003      -3.53175766E-10
   47.4900017      -3.25392352E-10
   47.5499992      -2.86769775E-10
   47.6100006      -2.37028702E-10
   47.6699982      -1.77407034E-10
   47.7299995      -1.10790592E-10
   47.7900009      -4.14906651E-11
   47.8499985       2.53571747E-11
   47.9099998       8.47556331E-11
   47.9700012       1.33060299E-10
   48.0299988       1.69188497E-10
   48.0900002       1.95419125E-10
   48.1500015       2.17364363E-10
   48.2099991       2.42891512E-10
   48.2700005       2.80160367E-10
   48.3300018       3.35345252E-10
   48.3899994       4.10814355E-10
   48.4500008       5.04404074E-10
   48.5099983       6.10003159E-10
   48.5699997       7.19160953E-10
   48.6300011       8.23097424E-10
   48.6899986       9.14470166E-10
   48.7500000       9.88487070E-10
   48.8100014       1.04327447E-09
   48.8699989       1.07964837E-09
   48.9300003       1.10051002E-09
   48.9900017       1.11005449E-09
   49.0499992       1.11293774E-09
   49.1100006       1.11353449E-09
   49.1699982       1.11541365E-09
   49.2299995       1.12109910E-09
   49.2900009       1.13205767E-09
   49.3499985       1.14874599E-09
   49.4099998       1.17054100E-09
   49.4700012       1.19552146E-09
   49.5299988       1.22028010E-09
   49.5900002       1.24005939E-09
   49.6500015       1.24942501E-09
   49.7099991       1.24342003E-09
   49.7700005       1.21885158E-09
   49.8300018       1.17523435E-09
   49.8899994       1.11505127E-09
   49.9500008       1.04328512E-09
   50.0099983       9.66459912E-10
   50.0699997       8.91532959E-10
   50.1300011       8.24880608E-10
   50.1899986       7.71452624E-10
   50.2500000       7.34090788E-10
   50.3100014       7.13063941E-10
   50.3699989       7.05991821E-10
   50.4300003       7.08343217E-10
   50.4900017       7.14524884E-10
   50.5499992       7.19285020E-10
   50.6100006       7.18936299E-10