 -0.750000000       0.00000000    
 -0.689999998       0.00000000    
 -0.629999995       0.00000000    
 -0.569999993       0.00000000    
 -0.509999990       0.00000000    
 -0.449999988       0.00000000    
 -0.389999986       0.00000000    
 -0.330000013       0.00000000    
 -0.270000011       0.00000000    
 -0.209999993       0.00000000    
 -0.150000006       3.73007421E-31
  -9.00000036E-02   3.98170932E-30
  -2.99999993E-02   1.51842468E-29
   2.99999993E-02  -8.40886743E-30
   9.00000036E-02  -3.58131825E-28
  0.150000006      -1.88568013E-27
  0.209999993      -5.47210931E-27
  0.270000011      -8.09208124E-27
  0.330000013       6.47061540E-27
  0.389999986       7.47221745E-26
  0.449999988       2.29787663E-25
  0.509999990       4.05584823E-25
  0.569999993       2.76037222E-25
  0.629999995      -8.06960924E-25
  0.689999998      -3.42009699E-24
  0.750000000      -6.92024758E-24
  0.810000002      -7.92382144E-24
  0.870000005      -6.57155955E-26
  0.930000007       2.24993874E-23
  0.990000010       5.69318139E-23
   1.04999995       8.28799481E-23
   1.11000001       6.28079819E-23
   1.16999996      -3.87672060E-23
   1.23000002      -2.19758927E-22
   1.28999996      -4.12684871E-22
   1.35000002      -4.99520912E-22
   1.40999997      -3.79670247E-22
   1.47000003      -3.99319434E-23
   1.52999997       4.71988833E-22
   1.59000003       1.21275472E-21
   1.64999998       2.48933866E-21
   1.71000004       4.60859276E-21
   1.76999998       6.93024519E-21
   1.83000004       6.58637878E-21
   1.88999999      -1.67814479E-21
   1.95000005      -2.24979410E-20
   2.00999999      -5.29721747E-20
   2.06999993      -7.49811825E-20
   2.13000011      -5.46893887E-20
   2.19000006       4.15218883E-20
   2.25000000       2.12838690E-19
   2.30999994       3.86666275E-19
   2.36999989       4.11713563E-19
   2.43000007       1.17776431E-19
   2.49000001      -5.51189992E-19
   2.54999995      -1.38573649E-18
   2.60999990      -1.85905761E-18
   2.67000008      -1.30011131E-18
   2.73000002       6.78699780E-19
   2.78999996       3.66184461E-18
   2.84999990       6.17358309E-18
   2.91000009       6.06865813E-18
   2.97000003       1.69375374E-18
   3.02999997      -6.58418480E-18
   3.08999991      -1.54176838E-17
   3.15000010      -1.91392173E-17
   3.21000004      -1.24723666E-17
   3.26999998       5.56764806E-18
   3.32999992       2.87778782E-17
   3.39000010       4.44618116E-17
   3.45000005       3.89895784E-17
   3.50999999       6.63138331E-18
   3.56999993      -4.29927024E-17
   3.63000011      -8.46369548E-17
   3.69000006      -8.76599294E-17
   3.75000000      -3.42487085E-17
   3.80999994       6.33989603E-17
   3.86999989       1.58912659E-16
   3.93000007       1.88516050E-16
   3.99000001       1.05679258E-16
   4.05000019      -8.23328929E-17
   4.11000013      -2.98981163E-16
   4.17000008      -4.21323929E-16
   4.23000002      -3.39723448E-16
   4.28999996      -2.89873468E-17
   4.34999990       4.09565073E-16
   4.40999985       7.69671099E-16
   4.46999979       8.30559321E-16
   4.53000021       4.80728573E-16
   4.59000015      -1.90256530E-16
   4.65000010      -8.94819264E-16
   4.71000004      -1.26678574E-15
   4.76999998      -1.05421297E-15
   4.82999992      -2.88739688E-16
   4.88999987       6.73930541E-16
   4.94999981       1.29556474E-15
   5.01000023       1.13679815E-15
   5.07000017       1.44725029E-16
   5.13000011      -1.22048797E-15
   5.19000006      -2.13128355E-15
   5.25000000      -1.79063972E-15
   5.30999994       8.53554638E-17
   5.36999989       2.95224249E-15
   5.42999983       5.50369229E-15
   5.48999977       6.17249553E-15
   5.55000019       3.89708043E-15
   5.61000013      -1.19005302E-15
   5.67000008      -7.52348979E-15
   5.73000002      -1.25289217E-14
   5.78999996      -1.36290727E-14
   5.84999990      -9.44722104E-15
   5.90999985      -6.62245139E-16
   5.96999979       9.94905249E-15
   6.03000021       1.84253095E-14
   6.09000015       2.11953292E-14
   6.15000010       1.66649548E-14
   6.21000004       6.07995633E-15
   6.26999998      -6.81148024E-15
   6.32999992      -1.72494194E-14
   6.38999987      -2.14971761E-14
   6.44999981      -1.84880543E-14
   6.51000023      -1.02580399E-14
   6.57000017      -8.74920660E-16
   6.63000011       5.68199823E-15
   6.69000006       7.64575984E-15
   6.75000000       6.43278452E-15
   6.80999994       5.79668226E-15
   6.86999989       9.41601550E-15
   6.92999983       1.80786782E-14
   6.98999977       2.80471294E-14
   7.05000019       3.18234276E-14
   7.11000013       2.14525256E-14
   7.17000008      -6.84113190E-15
   7.23000002      -4.88450460E-14
   7.28999996      -9.15655559E-14
   7.34999990      -1.16578432E-13
   7.40999985      -1.06861677E-13
   7.46999979      -5.46756413E-14
   7.53000021       3.28690187E-14
   7.59000015       1.33453768E-13
   7.65000010       2.15474042E-13
   7.71000004       2.48742270E-13
   7.76999998       2.16187067E-13
   7.82999992       1.21781545E-13
   7.88999987      -9.14320228E-15
   7.94999981      -1.38334128E-13
   8.01000023      -2.29324101E-13
   8.06999969      -2.62817789E-13
   8.13000011      -2.45960994E-13
   8.18999958      -2.10267527E-13
   8.25000000      -1.97137621E-13
   8.31000042      -2.35319359E-13
   8.36999989      -3.19204624E-13
   8.43000031      -3.98353768E-13
   8.48999977      -3.85887828E-13
   8.55000019      -1.86805297E-13
   8.60999966       2.60938271E-13
   8.67000008       9.46360178E-13
   8.72999954       1.76216908E-12
   8.78999996       2.51008524E-12
   8.85000038       2.93768785E-12
   8.90999985       2.79911315E-12
   8.97000027       1.92370620E-12
   9.02999973       2.74018655E-13
   9.09000015      -2.02183604E-12
   9.14999962      -4.67045803E-12
   9.21000004      -7.24432146E-12
   9.27000046      -9.23615438E-12
   9.32999992      -1.01274458E-11
   9.39000034      -9.46404240E-12
   9.44999981      -6.93443870E-12
   9.51000023      -2.44650003E-12
   9.56999969       3.80518186E-12
   9.63000011       1.12947386E-11
   9.68999958       1.91606019E-11
   9.75000000       2.62566757E-11
   9.81000042       3.12653931E-11
   9.86999989       3.28642634E-11
   9.93000031       2.99228108E-11
   9.98999977       2.16982873E-11
   10.0500002       7.99991497E-12
   10.1099997      -1.06974030E-11
   10.1700001      -3.31943778E-11
   10.2299995      -5.75574345E-11
   10.2900000      -8.11519948E-11
   10.3500004      -1.00725671E-10
   10.4099998      -1.12566317E-10
   10.4700003      -1.12771549E-10
   10.5299997      -9.76598108E-11
   10.5900002      -6.43200493E-11
   10.6499996      -1.12435859E-11
   10.7100000       6.10775250E-11
   10.7700005       1.49741747E-10
   10.8299999       2.49374354E-10
   10.8900003       3.52511048E-10
   10.9499998       4.50431137E-10
   11.0100002       5.34324474E-10
   11.0699997       5.96572736E-10
   11.1300001       6.31880825E-10
   11.1899996       6.38018693E-10
   11.2500000       6.16032947E-10
   11.3100004       5.69923775E-10
   11.3699999       5.05912534E-10
   11.4300003       4.31505359E-10
   11.4899998       3.54562962E-10
   11.5500002       2.82521451E-10
   11.6099997       2.21806642E-10
   11.6700001       1.77397416E-10
   11.7299995       1.52455451E-10
   11.7900000       1.47972704E-10
   11.8500004       1.62472202E-10
   11.9099998       1.91888436E-10
   11.9700003       2.29797986E-10
   12.0299997       2.68134043E-10
   12.0900002       2.98396974E-10
   12.1499996       3.13204879E-10
   12.2100000       3.07875753E-10
   12.2700005       2.81658252E-10
   12.3299999       2.38270820E-10
   12.3900003       1.85563787E-10
   12.4499998       1.34337361E-10
   12.5100002       9.65632990E-11
   12.5699997       8.33975736E-11
   12.6300001       1.03396527E-10
   12.6899996       1.61262448E-10
   12.7500000       2.57284305E-10
   12.8100004       3.87466087E-10
   12.8699999       5.44203183E-10
   12.9300003       7.17304605E-10
   12.9899998       8.95163166E-10
   13.0500002       1.06592224E-09
   13.1099997       1.21853638E-09
   13.1700001       1.34365907E-09
   13.2299995       1.43430012E-09
   13.2900000       1.48620027E-09
   13.3500004       1.49788859E-09
   13.4099998       1.47042156E-09
   13.4700003       1.40686152E-09
   13.5299997       1.31159772E-09
   13.5900002       1.18963250E-09
   13.6499996       1.04593334E-09
   13.7100000       8.84900431E-10
   13.7700005       7.09944548E-10
   13.8299999       5.23146304E-10
   13.8900003       3.24994059E-10
   13.9499998       1.14263154E-10
   14.0100002      -1.11836380E-10
   14.0699997      -3.57106428E-10
   14.1300001      -6.25339391E-10
   14.1899996      -9.18935039E-10
   14.2500000      -1.23746313E-09
   14.3100004      -1.57663316E-09
   14.3699999      -1.92813965E-09
   14.4300003      -2.28067476E-09
   14.4899998      -2.62204214E-09
   14.5500002      -2.94190516E-09
   14.6099997      -3.23436855E-09
   14.6700001      -3.49951934E-09
   14.7299995      -3.74327680E-09
   14.7900000      -3.97541644E-09
   14.8500004      -4.20624602E-09
   14.9099998      -4.44293757E-09
   14.9700003      -4.68671146E-09
   15.0299997      -4.93187446E-09
   15.0900002      -5.16709253E-09
   15.1499996      -5.37854516E-09
   15.2100000      -5.55393154E-09
   15.2700005      -5.68599567E-09
   15.3299999      -5.77438852E-09
   15.3900003      -5.82529802E-09
   15.4499998      -5.84905413E-09
   15.5100002      -5.85664006E-09
   15.5699997      -5.85640780E-09
   15.6300001      -5.85216720E-09
   15.6899996      -5.84328541E-09
   15.7500000      -5.82666049E-09
   15.8100004      -5.79973536E-09
   15.8699999      -5.76335202E-09
   15.9300003      -5.72331338E-09
   15.9899998      -5.69001068E-09
   16.0499992      -5.67618574E-09
   16.1100006      -5.69357184E-09
   16.1700001      -5.74955550E-09
   16.2299995      -5.84497428E-09
   16.2900009      -5.97378280E-09
   16.3500004      -6.12466788E-09
   16.4099998      -6.28406527E-09
   16.4699993      -6.43960663E-09
   16.5300007      -6.58294574E-09
   16.5900002      -6.71118894E-09
   16.6499996      -6.82664858E-09
   16.7099991      -6.93516622E-09
   16.7700005      -7.04364389E-09
   16.8299999      -7.15754611E-09
   16.8899994      -7.27903648E-09
   16.9500008      -7.40608286E-09
   17.0100002      -7.53256657E-09
   17.0699997      -7.64917374E-09
   17.1299992      -7.74473286E-09
   17.1900005      -7.80774290E-09
   17.2500000      -7.82789389E-09
   17.3099995      -7.79751197E-09
   17.3700008      -7.71286768E-09
   17.4300003      -7.57522312E-09
   17.4899998      -7.39139239E-09
   17.5499992      -7.17357640E-09
   17.6100006      -6.93824287E-09
   17.6700001      -6.70405464E-09
   17.7299995      -6.48913501E-09
   17.7900009      -6.30822328E-09
   17.8500004      -6.17044948E-09
   17.9099998      -6.07839512E-09
   17.9699993      -6.02878503E-09
   18.0300007      -6.01467942E-09
   18.0900002      -6.02850525E-09
   18.1499996      -6.06493833E-09
   18.2099991      -6.12259621E-09
   18.2700005      -6.20389429E-09
   18.3299999      -6.31303099E-09
   18.3899994      -6.45281117E-09
   18.4500008      -6.62153044E-09
   18.5100002      -6.81123513E-09
   18.5699997      -7.00826863E-09
   18.6299992      -7.19618587E-09
   18.6900005      -7.36022132E-09
   18.7500000      -7.49176809E-09
   18.8099995      -7.59118013E-09
   18.8700008      -7.66764430E-09
   18.9300003      -7.73583775E-09
   18.9899998      -7.81021647E-09
   19.0499992      -7.89868704E-09
   19.1100006      -7.99780420E-09
   19.1700001      -8.09123080E-09
   19.2299995      -8.15224510E-09
   19.2900009      -8.14978751E-09
   19.3500004      -8.05634581E-09
   19.4099998      -7.85534127E-09
   19.4699993      -7.54572937E-09
   19.5300007      -7.14237647E-09
   19.5900002      -6.67207356E-09
   19.6499996      -6.16642781E-09
   19.7099991      -5.65387248E-09
   19.7700005      -5.15331644E-09
   19.8299999      -4.67137351E-09
   19.8899994      -4.20389901E-09
   19.9500008      -3.74107945E-09
   20.0100002      -3.27408078E-09
   20.0699997      -2.80073187E-09
   20.1299992      -2.32808217E-09
   20.1900005      -1.87083415E-09
   20.2500000      -1.44619638E-09
   20.3099995      -1.06710574E-09
   20.3700008      -7.36487316E-10
   20.4300003      -4.44976389E-10
   20.4899998      -1.73359230E-10
   20.5499992       1.00718767E-10
   20.6100006       3.93894833E-10
   20.6700001       7.09205639E-10
   20.7299995       1.03224052E-09
   20.7900009       1.33319955E-09
   20.8500004       1.57474678E-09
   20.9099998       1.72344072E-09
   20.9699993       1.76104797E-09
   21.0300007       1.69179493E-09
   21.0900002       1.54276836E-09
   21.1499996       1.35691913E-09
   21.2099991       1.18068721E-09
   21.2700005       1.05022413E-09
   21.3299999       9.80801329E-10
   21.3899994       9.62977365E-10
   21.4500008       9.66801750E-10
   21.5100002       9.52587231E-10
   21.5699997       8.84556539E-10
   21.6299992       7.42772732E-10
   21.6900005       5.29456812E-10
   21.7500000       2.67788403E-10
   21.8099995      -6.15879786E-12
   21.8700008      -2.55471450E-10
   21.9300003      -4.54375620E-10
   21.9899998      -5.96251937E-10
   22.0499992      -6.95215163E-10
   22.1100006      -7.80934484E-10
   22.1700001      -8.88560447E-10
   22.2299995      -1.04716225E-09
   22.2900009      -1.27049460E-09
   22.3500004      -1.55306978E-09
   22.4099998      -1.87268268E-09
   22.4699993      -2.19833263E-09
   22.5300007      -2.50065835E-09
   22.5900002      -2.76120971E-09
   22.6499996      -2.97740699E-09
   22.7099991      -3.16168935E-09
   22.7700005      -3.33549699E-09
   22.8299999      -3.52055607E-09
   22.8899994      -3.73076325E-09
   22.9500008      -3.96754851E-09
   23.0100002      -4.22013668E-09
   23.0699997      -4.47028503E-09
   23.1299992      -4.69950301E-09
   23.1900005      -4.89604668E-09
   23.2500000      -5.05925435E-09
   23.3099995      -5.19989740E-09
   23.3700008      -5.33666578E-09
   23.4300003      -5.49019630E-09
   23.4899998      -5.67676484E-09
   23.5499992      -5.90369975E-09
   23.6100006      -6.16782625E-09
   23.6700001      -6.45712106E-09
   23.7299995      -6.75465461E-09
   23.7900009      -7.04323444E-09
   23.8500004      -7.30918615E-09
   23.9099998      -7.54429852E-09
   23.9699993      -7.74586173E-09
   24.0300007      -7.91548871E-09
   24.0900002      -8.05767364E-09
   24.1499996      -8.17880430E-09
   24.2099991      -8.28673308E-09
   24.2700005      -8.39050696E-09
   24.3299999      -8.49971826E-09
   24.3899994      -8.62319993E-09
   24.4500008      -8.76733708E-09
   24.5100002      -8.93459351E-09
   24.5699997      -9.12286424E-09
   24.6299992      -9.32587341E-09
   24.6900005      -9.53429780E-09
   24.7500000      -9.73705827E-09
   24.8099995      -9.92224702E-09
   24.8700008      -1.00776489E-08
   24.9300003      -1.01911786E-08
   24.9899998      -1.02517390E-08
   25.0499992      -1.02507682E-08
   25.1100006      -1.01841833E-08
   25.1700001      -1.00540518E-08
   25.2299995      -9.86914106E-09
   25.2900009      -9.64383684E-09
   25.3500004      -9.39544620E-09
   25.4099998      -9.14048837E-09
   25.4699993      -8.89090046E-09
   25.5300007      -8.65115002E-09
   25.5900002      -8.41696135E-09
   25.6499996      -8.17603318E-09
   25.7099991      -7.91062060E-09
   25.7700005      -7.60143148E-09
   25.8299999      -7.23189864E-09
   25.8899994      -6.79171430E-09
   25.9500008      -6.27864560E-09
   26.0100002      -5.69817304E-09
   26.0699997      -5.06121722E-09
   26.1299992      -4.38091385E-09
   26.1900005      -3.66970920E-09
   26.2500000      -2.93780644E-09
   26.3099995      -2.19329288E-09
   26.3700008      -1.44344814E-09
   26.4300003      -6.96192382E-10
   26.4899998       3.93729702E-11
   26.5499992       7.53858143E-10
   26.6100006       1.43967493E-09
   26.6700001       2.09344075E-09
   26.7299995       2.71757505E-09
   26.7900009       3.32018679E-09
   26.8500004       3.91292554E-09
   26.9099998       4.50716575E-09
   26.9699993       5.10951992E-09
   27.0300007       5.71802339E-09
   27.0900002       6.32035624E-09
   27.1499996       6.89501256E-09
   27.2099991       7.41549755E-09
   27.2700005       7.85659982E-09
   27.3299999       8.20089330E-09
   27.3899994       8.44328252E-09
   27.4500008       8.59190585E-09
   27.5100002       8.66490613E-09
   27.5699997       8.68414318E-09
   27.6299992       8.66811245E-09
   27.6900005       8.62668248E-09
   27.7500000       8.55955395E-09
   27.8099995       8.45891268E-09
   27.8700008       8.31512192E-09
   27.9300003       8.12320344E-09
   27.9899998       7.88755017E-09
   28.0499992       7.62298491E-09
   28.1100006       7.35146433E-09
   28.1700001       7.09520132E-09
   28.2299995       6.86821267E-09
   28.2900009       6.66904620E-09
   28.3500004       6.47738974E-09
   28.4099998       6.25636210E-09
   28.4699993       5.96055783E-09
   28.5300007       5.54787727E-09
   28.5900002       4.99147124E-09
   28.6499996       4.28758362E-09
   28.7099991       3.45614026E-09
   28.7700005       2.53339372E-09
   28.8299999       1.55896485E-09
   28.8899994       5.61912905E-10
   28.9500008      -4.48972470E-10
   29.0100002      -1.48698787E-09
   29.0699997      -2.58077781E-09
   29.1299992      -3.76160658E-09
   29.1900005      -5.04937070E-09
   29.2500000      -6.44236042E-09
   29.3099995      -7.91425148E-09
   29.3700008      -9.41917300E-09
   29.4300003      -1.09029870E-08
   29.4899998      -1.23170496E-08
   29.5499992      -1.36300935E-08
   29.6100006      -1.48345087E-08
   29.6700001      -1.59450213E-08
   29.7299995      -1.69899934E-08
   29.7900009      -1.79978379E-08
   29.8500004      -1.89828135E-08
   29.9099998      -1.99348928E-08
   29.9699993      -2.08174722E-08
   30.0300007      -2.15741363E-08
   30.0900002      -2.21426575E-08
   30.1499996      -2.24716494E-08
   30.2099991      -2.25342909E-08
   30.2700005      -2.23344863E-08
   30.3299999      -2.19036114E-08
   30.3899994      -2.12893418E-08
   30.4500008      -2.05407940E-08
   30.5100002      -1.96950225E-08
   30.5699997      -1.87690539E-08
   30.6299992      -1.77591719E-08
   30.6900005      -1.66467213E-08
   30.7500000      -1.54076130E-08
   30.8099995      -1.40221381E-08
   30.8700008      -1.24820447E-08
   30.9300003      -1.07930704E-08
   30.9899998      -8.97271502E-09
   31.0499992      -7.04443259E-09
   31.1100006      -5.03050623E-09
   31.1700001      -2.94624303E-09
   31.2299995      -7.97743260E-10
   31.2900009       1.41574097E-09
   31.3500004       3.69551345E-09
   31.4099998       6.03549921E-09
   31.4699993       8.41576586E-09
   31.5300007       1.08002327E-08
   31.5900002       1.31397604E-08
   31.6499996       1.53797419E-08
   31.7099991       1.74695813E-08
   31.7700005       1.93708320E-08
   31.8299999       2.10613962E-08
   31.8899994       2.25348664E-08
   31.9500008       2.37958027E-08
   32.0099983       2.48530529E-08
   32.0699997       2.57134420E-08
   32.1300011       2.63776130E-08
   32.1899986       2.68387161E-08
   32.2500000       2.70837770E-08
   32.3100014       2.70967764E-08
   32.3699989       2.68624394E-08
   32.4300003       2.63696673E-08
   32.4900017       2.56139572E-08
   32.5499992       2.45984122E-08
   32.6100006       2.33334116E-08
   32.6699982       2.18352749E-08
   32.7299995       2.01244639E-08
   32.7900009       1.82237887E-08
   32.8499985       1.61568412E-08
   32.9099998       1.39465346E-08
   32.9700012       1.16134808E-08
   33.0299988       9.17410059E-09
   33.0900002       6.63877442E-09
   33.1500015       4.01081035E-09
   33.2099991       1.28709354E-09
   33.2700005      -1.53904200E-09
   33.3300018      -4.47303350E-09
   33.3899994      -7.51361107E-09
   33.4500008      -1.06483959E-08
   33.5099983      -1.38522323E-08
   33.5699997      -1.70890537E-08
   33.6300011      -2.03168469E-08
   33.6899986      -2.34940583E-08
   33.7500000      -2.65852620E-08
   33.8100014      -2.95640810E-08
   33.8699989      -3.24123448E-08
   33.9300003      -3.51159493E-08
   33.9900017      -3.76590137E-08
   34.0499992      -4.00187403E-08
   34.1100006      -4.21631832E-08
   34.1699982      -4.40530812E-08
   34.2299995      -4.56475036E-08
   34.2900009      -4.69116479E-08
   34.3499985      -4.78241411E-08
   34.4099998      -4.83813203E-08
   34.4700012      -4.85969238E-08
   34.5299988      -4.84971032E-08
   34.5900002      -4.81124260E-08
   34.6500015      -4.74695128E-08
   34.7099991      -4.65851926E-08
   34.7700005      -4.54652209E-08
   34.8300018      -4.41079351E-08
   34.8899994      -4.25115303E-08
   34.9500008      -4.06822842E-08
   35.0099983      -3.86404579E-08
   35.0699997      -3.64214721E-08
   35.1300011      -3.40714479E-08
   35.1899986      -3.16382902E-08
   35.2500000      -2.91612530E-08
   35.3100014      -2.66628177E-08
   35.3699989      -2.41460043E-08
   35.4300003      -2.15986944E-08
   35.4900017      -1.90038421E-08
   35.5499992      -1.63523417E-08
   35.6100006      -1.36540175E-08
   35.6699982      -1.09425917E-08
   35.7299995      -8.27244140E-09
   35.7900009      -5.70770986E-09
   35.8499985      -3.30710348E-09
   35.9099998      -1.10937426E-09
   35.9700012       8.75494344E-10
   36.0299988       2.66611488E-09
   36.0900002       4.30016733E-09
   36.1500015       5.81832715E-09
   36.2099991       7.24683646E-09
   36.2700005       8.58463256E-09
   36.3300018       9.79965087E-09
   36.3899994       1.08359712E-08
   36.4500008       1.16297523E-08
   36.5099983       1.21286821E-08
   36.5699997       1.23081900E-08
   36.6300011       1.21785408E-08
   36.6899986       1.17800179E-08
   36.7500000       1.11676286E-08
   36.8100014       1.03906794E-08
   36.8699989       9.47464596E-09
   36.9300003       8.41222647E-09
   36.9900017       7.16739823E-09
   37.0499992       5.69173952E-09
   37.1100006       3.94783584E-09
   37.1699982       1.93175742E-09
   37.2299995      -3.13520238E-10
   37.2900009      -2.69921907E-09
   37.3499985      -5.10714226E-09
   37.4099998      -7.41688755E-09
   37.4700012      -9.53544266E-09
   37.5299988      -1.14193988E-08
   37.5900002      -1.30820537E-08
   37.6500015      -1.45824997E-08
   37.7099991      -1.59999729E-08
   37.7700005      -1.74019803E-08
   37.8300018      -1.88171807E-08
   37.8899994      -2.02224850E-08
   37.9500008      -2.15490168E-08
   38.0099983      -2.27047519E-08
   38.0699997      -2.36059208E-08
   38.1300011      -2.42060398E-08
   38.1899986      -2.45124472E-08
   38.2500000      -2.45846916E-08
   38.3100014      -2.45153675E-08
   38.3699989      -2.43999985E-08
   38.4300003      -2.43061553E-08
   38.4900017      -2.42520972E-08
   38.5499992      -2.42020590E-08
   38.6100006      -2.40797604E-08
   38.6699982      -2.37957032E-08
   38.7299995      -2.32791759E-08
   38.7900009      -2.25040839E-08
   38.8499985      -2.14996021E-08
   38.9099998      -2.03416306E-08
   38.9700012      -1.91277199E-08
   39.0299988      -1.79441280E-08
   39.0900002      -1.68367968E-08
   39.1500015      -1.57969993E-08
   39.2099991      -1.47671306E-08
   39.2700005      -1.36648906E-08
   39.3300018      -1.24171082E-08
   39.3899994      -1.09908491E-08
   39.4500008      -9.41035072E-09
   39.5099983      -7.75351605E-09
   39.5699997      -6.12911677E-09
   39.6300011      -4.64278571E-09
   39.6899986      -3.36374373E-09
   39.7500000      -2.30382935E-09
   39.8100014      -1.41601442E-09
   39.8699989      -6.12848383E-10
   39.9300003       2.01490352E-10
   39.9900017       1.09645881E-09
   40.0499992       2.08962314E-09
   40.1100006       3.13925863E-09
   40.1699982       4.15799750E-09
   40.2299995       5.04330000E-09
   40.2900009       5.71457726E-09
   40.3499985       6.14412032E-09
   40.4099998       6.37069419E-09
   40.4700012       6.49036469E-09
   40.5299988       6.62697763E-09
   40.5900002       6.89203139E-09
   40.6500015       7.34770467E-09
   40.7099991       7.98602162E-09
   40.7700005       8.73167405E-09
   40.8300018       9.46778833E-09
   40.8899994       1.00759001E-08
   40.9500008       1.04763718E-08
   41.0099983       1.06553815E-08
   41.0699997       1.06692362E-08
   41.1300011       1.06246620E-08
   41.1899986       1.06419389E-08
   41.2500000       1.08136025E-08
   41.3100014       1.11728680E-08
   41.3699989       1.16825651E-08
   41.4300003       1.22483410E-08
   41.4900017       1.27516051E-08
   41.5499992       1.30909905E-08
   41.6100006       1.32181537E-08
   41.6699982       1.31557121E-08
   41.7299995       1.29911086E-08
   41.7900009       1.28484254E-08
   41.8499985       1.28475985E-08
   41.9099998       1.30647368E-08
   41.9700012       1.35067966E-08
   42.0299988       1.41089611E-08
   42.0900002       1.47553525E-08
   42.1500015       1.53159156E-08
   42.2099991       1.56869788E-08
   42.2700005       1.58220583E-08
   42.3300018       1.57429731E-08
   42.3899994       1.55282009E-08
   42.4500008       1.52831827E-08
   42.5099983       1.51031951E-08
   42.5699997       1.50417421E-08
   42.6300011       1.50949511E-08
   42.6899986       1.52067496E-08
   42.7500000       1.52920414E-08
   42.8100014       1.52690021E-08
   42.8699989       1.50886503E-08
   42.9300003       1.47513299E-08
   42.9900017       1.43047698E-08
   43.0499992       1.38252707E-08
   43.1100006       1.33895215E-08
   43.1699982       1.30476474E-08
   43.2299995       1.28071935E-08
   43.2900009       1.26334188E-08
   43.3499985       1.24651862E-08
   43.4099998       1.22401751E-08
   43.4700012       1.19200605E-08
   43.5299988       1.15066632E-08
   43.5900002       1.10436185E-08
   43.6500015       1.06033413E-08
   43.7099991       1.02642375E-08
   43.7700005       1.00862021E-08
   43.8300018       1.00927453E-08
   43.8899994       1.02654267E-08
   43.9500008       1.05518678E-08
   44.0099983       1.08839879E-08
   44.0699997       1.11998810E-08
   44.1300011       1.14619647E-08
   44.1899986       1.16657395E-08
   44.2500000       1.18370282E-08
   44.3100014       1.20195427E-08
   44.3699989       1.22577166E-08
   44.4300003       1.25809700E-08
   44.4900017       1.29946391E-08
   44.5499992       1.34801610E-08
   44.6100006       1.40038017E-08
   44.6699982       1.45303325E-08
   44.7299995       1.50365462E-08
   44.7900009       1.55198254E-08
   44.8499985       1.59989089E-08
   44.9099998       1.65068421E-08
   44.9700012       1.70788432E-08
   45.0299988       1.77394508E-08
   45.0900002       1.84934184E-08
   45.1500015       1.93232772E-08
   45.2099991       2.01940225E-08
   45.2700005       2.10628990E-08
   45.3300018       2.18907079E-08
   45.3899994       2.26508661E-08
   45.4500008       2.33337047E-08
   45.5099983       2.39453719E-08
   45.5699997       2.45026293E-08
   45.6300011       2.50259156E-08
   45.6899986       2.55331507E-08
   45.7500000       2.60358561E-08
   45.8100014       2.65380287E-08
   45.8699989       2.70370730E-08
   45.9300003       2.75256067E-08
   45.9900017       2.79930727E-08
   46.0499992       2.84266939E-08
   46.1100006       2.88119111E-08
   46.1699982       2.91329307E-08
   46.2299995       2.93740161E-08
   46.2900009       2.95217166E-08
   46.3499985       2.95676035E-08
   46.4099998       2.95104776E-08
   46.4700012       2.93569311E-08
   46.5299988       2.91195157E-08
   46.5900002       2.88127087E-08
   46.6500015       2.84479000E-08
   46.7099991       2.80292767E-08
   46.7700005       2.75524332E-08
   46.8300018       2.70065676E-08
   46.8899994       2.63797109E-08
   46.9500008       2.56650416E-08
   47.0099983       2.48657361E-08
   47.0699997       2.39961686E-08
   47.1300011       2.30786981E-08
   47.1899986       2.21369234E-08
   47.2500000       2.11878639E-08
   47.3100014       2.02359374E-08
   47.3699989       1.92711749E-08
   47.4300003       1.82725977E-08
   47.4900017       1.72159957E-08
   47.5499992       1.60836979E-08
   47.6100006       1.48731969E-08
   47.6699982       1.36016114E-08
   47.7299995       1.23041595E-08
   47.7900009       1.10266845E-08
   47.8499985       9.81421966E-09
   47.9099998       8.69912675E-09
   47.9700012       7.69267139E-09
   48.0299988       6.78297729E-09
   48.0900002       5.94017457E-09
   48.1500015       5.12702902E-09
   48.2099991       4.31135705E-09
   48.2700005       3.47586937E-09
   48.3300018       2.62208699E-09
   48.3899994       1.76724901E-09
   48.4500008       9.35736488E-10
   48.5099983       1.48501669E-10
   48.5699997      -5.85448579E-10
   48.6300011      -1.27242006E-09
   48.6899986      -1.93117655E-09
   48.7500000      -2.58509081E-09
   48.8100014      -3.25228910E-09
   48.8699989      -3.93747390E-09
   48.9300003      -4.62855354E-09
   48.9900017      -5.29958522E-09
   49.0499992      -5.91937166E-09
   49.1100006      -6.46294884E-09
   49.1699982      -6.92194879E-09
   49.2299995      -7.30985761E-09
   49.2900009      -7.65977504E-09
   49.3499985      -8.01485722E-09
   49.4099998      -8.41445669E-09
   49.4700012      -8.88072371E-09
   49.5299988      -9.41054346E-09
   49.5900002      -9.97577665E-09
   49.6500015      -1.05317461E-08
   49.7099991      -1.10308731E-08
   49.7700005      -1.14366383E-08
   49.8300018      -1.17331815E-08
   49.8899994      -1.19277388E-08
   49.9500008      -1.20458132E-08
   50.0099983      -1.21213661E-08
   50.0699997      -1.21856107E-08
   50.1300011      -1.22579413E-08
   50.1899986      -1.23414106E-08
   50.2500000      -1.24235271E-08
   50.3100014      -1.24816033E-08
   50.3699989      -1.24906645E-08
   50.4300003      -1.24313679E-08
   50.4900017      -1.22954784E-08
   50.5499992      -1.20872690E-08
   50.6100006      -1.18206298E-08