  -2.400000      0.0000000E+00
  -2.340000      0.0000000E+00
  -2.280000      0.0000000E+00
  -2.220000      0.0000000E+00
  -2.160000      0.0000000E+00
  -2.100000      0.0000000E+00
  -2.040000      0.0000000E+00
  -1.980000      0.0000000E+00
  -1.920000      0.0000000E+00
  -1.860000      0.0000000E+00
  -1.800000      3.7279814E-31
  -1.740000      3.9778781E-30
  -1.680000      1.5155159E-29
  -1.620000     -8.5310135E-30
  -1.560000     -3.5840721E-28
  -1.500000     -1.8856570E-27
  -1.440000     -5.4690567E-27
  -1.380000     -8.0768895E-27
  -1.320000      6.5187113E-27
  -1.260000      7.4825978E-26
  -1.200000      2.2988289E-25
  -1.140000      4.0521034E-25
  -1.080000      2.7372177E-25
  -1.020000     -8.1403740E-25
 -0.9600000     -3.4338196E-24
 -0.9000000     -6.9322880E-24
 -0.8400000     -7.8971848E-24
 -0.7800000      8.0502393E-26
 -0.7200000      2.2858964E-23
 -0.6600000      5.7464724E-23
 -0.6000000      8.3120267E-23
 -0.5400000      6.1584004E-23
 -0.4800000     -4.3109390E-23
 -0.4200000     -2.2790151E-22
 -0.3600000     -4.2134255E-22
 -0.3000000     -4.9822415E-22
 -0.2400000     -3.5128034E-22
 -0.1800000      2.9472011E-23
 -0.1200000      5.7111858E-22
 -5.9999999E-02  1.2788840E-21
  0.0000000E+00  2.4019392E-21
  5.9999999E-02  4.2372771E-21
  0.1200000      6.2567174E-21
  0.1800000      5.8658560E-21
  0.2400000     -1.8323614E-21
  0.3000000     -2.1277951E-20
  0.3600000     -4.9901813E-20
  0.4200000     -7.0693576E-20
  0.4800000     -5.1498960E-20
  0.5400000      3.9959473E-20
  0.6000000      2.0332138E-19
  0.6600000      3.6944732E-19
  0.7200000      3.9322135E-19
  0.7800000      1.1059507E-19
  0.8400000     -5.3318801E-19
  0.9000000     -1.3368538E-18
  0.9600000     -1.7917266E-18
   1.020000     -1.2480159E-18
   1.080000      6.7118769E-19
   1.140000      3.5646050E-18
   1.200000      6.0002164E-18
   1.260000      5.8913623E-18
   1.320000      1.6244814E-18
   1.380000     -6.4509053E-18
   1.440000     -1.5078907E-17
   1.500000     -1.8729563E-17
   1.560000     -1.2234212E-17
   1.620000      5.4056729E-18
   1.680000      2.8170738E-17
   1.740000      4.3666309E-17
   1.800000      3.8520368E-17
   1.860000      7.0084102E-18
   1.920000     -4.1623805E-17
   1.980000     -8.2801527E-17
   2.040000     -8.6519280E-17
   2.100000     -3.5101790E-17
   2.160000      5.9951119E-17
   2.220000      1.5373207E-16
   2.280000      1.8408772E-16
   2.340000      1.0530189E-16
   2.400000     -7.6221861E-17
   2.460000     -2.8666620E-16
   2.520000     -4.0681489E-16
   2.580000     -3.2999901E-16
   2.640000     -3.1292342E-17
   2.700000      3.9151229E-16
   2.760000      7.3884042E-16
   2.820000      7.9726944E-16
   2.880000      4.5975884E-16
   2.940000     -1.8556951E-16
   3.000000     -8.5929587E-16
   3.060000     -1.2078153E-15
   3.120000     -9.9121733E-16
   3.180000     -2.4691712E-16
   3.240000      6.7374197E-16
   3.300000      1.2468528E-15
   3.360000      1.0524515E-15
   3.420000      5.3976758E-17
   3.480000     -1.2831731E-15
   3.540000     -2.1413715E-15
   3.600000     -1.7459650E-15
   3.660000      1.6165141E-16
   3.720000      3.0215931E-15
   3.780000      5.5321352E-15
   3.840000      6.1520194E-15
   3.900000      3.8563699E-15
   3.960000     -1.1948125E-15
   4.020000     -7.4385112E-15
   4.080000     -1.2342442E-14
   4.140000     -1.3400355E-14
   4.200000     -9.3036617E-15
   4.260000     -7.5420481E-16
   4.320000      9.5257139E-15
   4.380000      1.7707451E-14
   4.440000      2.0388878E-14
   4.500000      1.6105535E-14
   4.560000      6.1136149E-15
   4.620000     -5.9911081E-15
   4.680000     -1.5738428E-14
   4.740000     -1.9718568E-14
   4.800000     -1.7085378E-14
   4.860000     -9.8625052E-15
   4.920000     -1.8283001E-15
   4.980000      3.5281959E-15
   5.040000      4.9476329E-15
   5.100000      4.1483845E-15
   5.160000      4.8161235E-15
   5.220000      1.0172210E-14
   5.280000      2.0314039E-14
   5.340000      3.0863611E-14
   5.400000      3.4028732E-14
   5.460000      2.2079330E-14
   5.520000     -8.0621121E-15
   5.580000     -5.1283769E-14
   5.640000     -9.3891149E-14
   5.700000     -1.1731665E-13
   5.760000     -1.0509937E-13
   5.820000     -5.0605794E-14
   5.880000      3.7834793E-14
   5.940000      1.3711546E-13
   6.000000      2.1569458E-13
   6.060000      2.4439343E-13
   6.120000      2.0778342E-13
   6.180000      1.1149039E-13
   6.240000     -1.8180580E-14
   6.300000     -1.4313244E-13
   6.360000     -2.2817395E-13
   6.420000     -2.5590389E-13
   6.480000     -2.3518516E-13
   6.540000     -1.9834119E-13
   6.600000     -1.8636816E-13
   6.660000     -2.2669980E-13
   6.720000     -3.1230907E-13
   6.780000     -3.9216067E-13
   6.840000     -3.8015603E-13
   6.900000     -1.8325723E-13
   6.960000      2.5840379E-13
   7.020000      9.3282641E-13
   7.080000      1.7339792E-12
   7.140000      2.4673518E-12
   7.200000      2.8858571E-12
   7.260000      2.7486680E-12
   7.320000      1.8878317E-12
   7.380000      2.6497711E-13
   7.440000     -1.9962322E-12
   7.500000     -4.6088732E-12
   7.560000     -7.1517189E-12
   7.620000     -9.1218083E-12
   7.680000     -1.0002497E-11
   7.740000     -9.3402239E-12
   7.800000     -6.8249191E-12
   7.860000     -2.3683930E-12
   7.920000      3.8285516E-12
   7.980000      1.1234417E-11
   8.040000      1.8987421E-11
   8.100000      2.5951579E-11
   8.160000      3.0832184E-11
   8.220000      3.2340269E-11
   8.280000      2.9382493E-11
   8.340000      2.1246371E-11
   8.400000      7.7539945E-12
   8.460000     -1.0631127E-11
   8.520000     -3.2745761E-11
   8.580000     -5.6710622E-11
   8.640000     -7.9952517E-11
   8.700000     -9.9275838E-11
   8.760000     -1.1101241E-10
   8.820000     -1.1128894E-10
   8.880000     -9.6441272E-11
   8.940000     -6.3569462E-11
   9.000000     -1.1172080E-11
   9.060000      6.0260019E-11
   9.120000      1.4784758E-10
   9.180000      2.4627686E-10
   9.240000      3.4819878E-10
   9.300000      4.4506801E-10
   9.360000      5.2829957E-10
   9.420000      5.9052291E-10
   9.480000      6.2667327E-10
   9.540000      6.3468963E-10
   9.600000      6.1569044E-10
   9.660000      5.7362970E-10
   9.720000      5.1456356E-10
   9.780000      4.4572893E-10
   9.840000      3.7463768E-10
   9.900000      3.0832220E-10
   9.960000      2.5277022E-10
   10.02000      2.1250307E-10
   10.08000      1.9021960E-10
   10.14000      1.8646362E-10
   10.20000      1.9935618E-10
   10.26000      2.2451906E-10
   10.32000      2.5535538E-10
   10.38000      2.8381081E-10
   10.44000      3.0161601E-10
   10.50000      3.0184605E-10
   10.56000      2.8048444E-10
   10.62000      2.3761204E-10
   10.68000      1.7788754E-10
   10.74000      1.1014219E-10
   10.80000      4.6129881E-11
   10.86000     -1.3146907E-12
   10.92000     -2.0319768E-11
   10.98000     -1.8068108E-12
   11.04000      5.9220975E-11
   11.10000      1.6310113E-10
   11.16000      3.0564073E-10
   11.22000      4.7881132E-10
   11.28000      6.7180433E-10
   11.34000      8.7224017E-10
   11.40000      1.0673727E-09
   11.46000      1.2451807E-09
   11.52000      1.3952800E-09
   11.58000      1.5096069E-09
   11.64000      1.5828322E-09
   11.70000      1.6124764E-09
   11.76000      1.5987275E-09
   11.82000      1.5440087E-09
   11.88000      1.4523764E-09
   11.94000      1.3288525E-09
   12.00000      1.1787755E-09
   12.06000      1.0072209E-09
   12.12000      8.1849405E-10
   12.18000      6.1569649E-10
   12.24000      4.0038087E-10
   12.30000      1.7237350E-10
   12.36000     -7.0112784E-11
   12.42000     -3.2995320E-10
   12.48000     -6.1013350E-10
   12.54000     -9.1244029E-10
   12.60000     -1.2361222E-09
   12.66000     -1.5769580E-09
   12.72000     -1.9271613E-09
   12.78000     -2.2763729E-09
   12.84000     -2.6136608E-09
   12.90000     -2.9300622E-09
   12.96000     -3.2209200E-09
   13.02000     -3.4871930E-09
   13.08000     -3.7351597E-09
   13.14000     -3.9744052E-09
   13.20000     -4.2145833E-09
   13.26000     -4.4619073E-09
   13.32000     -4.7165214E-09
   13.38000     -4.9716875E-09
   13.44000     -5.2151425E-09
   13.50000     -5.4322853E-09
   13.56000     -5.6101901E-09
   13.62000     -5.7411511E-09
   13.68000     -5.8246199E-09
   13.74000     -5.8669274E-09
   13.80000     -5.8789760E-09
   13.86000     -5.8727623E-09
   13.92000     -5.8579808E-09
   13.98000     -5.8398806E-09
   14.04000     -5.8190635E-09
   14.10000     -5.7931748E-09
   14.16000     -5.7597660E-09
   14.22000     -5.7191816E-09
   14.28000     -5.6763425E-09
   14.34000     -5.6407141E-09
   14.40000     -5.6244045E-09
   14.46000     -5.6390141E-09
   14.52000     -5.6923004E-09
   14.58000     -5.7857821E-09
   14.64000     -5.9140866E-09
   14.70000     -6.0662648E-09
   14.76000     -6.2286389E-09
   14.82000     -6.3882815E-09
   14.88000     -6.5360619E-09
   14.94000     -6.6683863E-09
   15.00000     -6.7872112E-09
   15.06000     -6.8984676E-09
   15.12000     -7.0094845E-09
   15.18000     -7.1262281E-09
   15.24000     -7.2511233E-09
   15.30000     -7.3819493E-09
   15.36000     -7.5119448E-09
   15.42000     -7.6309172E-09
   15.48000     -7.7269631E-09
   15.54000     -7.7883762E-09
   15.60000     -7.8054114E-09
   15.66000     -7.7717051E-09
   15.72000     -7.6852871E-09
   15.78000     -7.5491347E-09
   15.84000     -7.3712192E-09
   15.90000     -7.1639543E-09
   15.96000     -6.9429622E-09
   16.02000     -6.7251875E-09
   16.08000     -6.5265828E-09
   16.14000     -6.3597816E-09
   16.20000     -6.2323320E-09
   16.26000     -6.1460357E-09
   16.32000     -6.0976886E-09
   16.38000     -6.0811214E-09
   16.44000     -6.0899747E-09
   16.50000     -6.1203145E-09
   16.56000     -6.1721348E-09
   16.62000     -6.2491119E-09
   16.68000     -6.3565584E-09
   16.74000     -6.4982295E-09
   16.80000     -6.6731447E-09
   16.86000     -6.8737371E-09
   16.92000     -7.0862414E-09
   16.98000     -7.2934840E-09
   17.04000     -7.4792998E-09
   17.10000     -7.6331039E-09
   17.16000     -7.7529174E-09
   17.22000     -7.8455829E-09
   17.28000     -7.9238003E-09
   17.34000     -8.0007565E-09
   17.40000     -8.0840321E-09
   17.46000     -8.1708471E-09
   17.52000     -8.2464018E-09
   17.58000     -8.2860856E-09
   17.64000     -8.2611384E-09
   17.70000     -8.1461256E-09
   17.76000     -7.9260030E-09
   17.82000     -7.6005424E-09
   17.88000     -7.1847310E-09
   17.94000     -6.7049628E-09
   18.00000     -6.1922152E-09
   18.06000     -5.6743397E-09
   18.12000     -5.1698792E-09
   18.18000     -4.6853184E-09
   18.24000     -4.2164805E-09
   18.30000     -3.7533967E-09
   18.36000     -3.2867575E-09
   18.42000     -2.8135425E-09
   18.48000     -2.3397166E-09
   18.54000     -1.8789765E-09
   18.60000     -1.4479907E-09
   18.66000     -1.0599333E-09
   18.72000     -7.1883433E-10
   18.78000     -4.1709933E-10
   18.84000     -1.3748255E-10
   18.90000      1.4080229E-10
   18.96000      4.3375675E-10
   19.02000      7.4499074E-10
   19.08000      1.0617810E-09
   19.14000      1.3566716E-09
   19.20000      1.5946351E-09
   19.26000      1.7437959E-09
   19.32000      1.7862454E-09
   19.38000      1.7251708E-09
   19.44000      1.5855581E-09
   19.50000      1.4078329E-09
   19.56000      1.2362577E-09
   19.62000      1.1058262E-09
   19.68000      1.0320217E-09
   19.74000      1.0069056E-09
   19.80000      1.0028431E-09
   19.86000      9.8255393E-10
   19.92000      9.1203295E-10
   19.98000      7.7198459E-10
   20.04000      5.6402305E-10
   20.10000      3.0974878E-10
   20.16000      4.3233465E-11
   20.22000     -2.0041062E-10
   20.28000     -3.9651515E-10
   20.34000     -5.3863741E-10
   20.40000     -6.4018912E-10
   20.46000     -7.2951539E-10
   20.52000     -8.4016433E-10
   20.58000     -9.9963793E-10
   20.64000     -1.2203831E-09
   20.70000     -1.4959948E-09
   20.76000     -1.8038153E-09
   20.82000     -2.1129050E-09
   20.88000     -2.3945097E-09
   20.94000     -2.6313265E-09
   21.00000     -2.8223837E-09
   21.06000     -2.9820173E-09
   21.12000     -3.1336072E-09
   21.18000     -3.3005889E-09
   21.24000     -3.4981102E-09
   21.30000     -3.7282706E-09
   21.36000     -3.9803929E-09
   21.42000     -4.2358979E-09
   21.48000     -4.4757202E-09
   21.54000     -4.6874922E-09
   21.60000     -4.8699911E-09
   21.66000     -5.0334945E-09
   21.72000     -5.1961684E-09
   21.78000     -5.3779687E-09
   21.84000     -5.5942331E-09
   21.90000     -5.8511018E-09
   21.96000     -6.1440746E-09
   22.02000     -6.4598664E-09
   22.08000     -6.7805570E-09
   22.14000     -7.0883925E-09
   22.20000     -7.3696094E-09
   22.26000     -7.6163182E-09
   22.32000     -7.8263840E-09
   22.38000     -8.0020577E-09
   22.44000     -8.1483513E-09
   22.50000     -8.2719032E-09
   22.56000     -8.3804972E-09
   22.62000     -8.4828642E-09
   22.68000     -8.5882252E-09
   22.74000     -8.7053094E-09
   22.80000     -8.8410079E-09
   22.86000     -8.9991650E-09
   22.92000     -9.1799697E-09
   22.98000     -9.3800798E-09
   23.04000     -9.5932142E-09
   23.10000     -9.8107504E-09
   23.16000     -1.0022050E-08
   23.22000     -1.0214647E-08
   23.28000     -1.0374745E-08
   23.34000     -1.0488524E-08
   23.40000     -1.0544338E-08
   23.46000     -1.0535325E-08
   23.52000     -1.0461523E-08
   23.58000     -1.0330536E-08
   23.64000     -1.0156220E-08
   23.70000     -9.9555413E-09
   23.76000     -9.7443893E-09
   23.82000     -9.5334887E-09
   23.88000     -9.3255155E-09
   23.94000     -9.1141867E-09
   24.00000     -8.8855572E-09
   24.06000     -8.6212149E-09
   24.12000     -8.3025320E-09
   24.18000     -7.9148910E-09
   24.24000     -7.4506881E-09
   24.30000     -6.9103310E-09
   24.36000     -6.3010290E-09
   24.42000     -5.6339737E-09
   24.48000     -4.9210946E-09
   24.54000     -4.1726707E-09
   24.60000     -3.3966590E-09
   24.66000     -2.5997455E-09
   24.72000     -1.7893145E-09
   24.78000     -9.7507558E-10
   24.84000     -1.6927265E-10
   24.90000      6.1492816E-10
   24.96000      1.3664029E-09
   25.02000      2.0792570E-09
   25.08000      2.7549116E-09
   25.14000      3.4020808E-09
   25.20000      4.0343111E-09
   25.26000      4.6655657E-09
   25.32000      5.3050213E-09
   25.38000      5.9526553E-09
   25.44000      6.5971473E-09
   25.50000      7.2170963E-09
   25.56000      7.7855722E-09
   25.62000      8.2768734E-09
   25.68000      8.6734087E-09
   25.74000      8.9703418E-09
   25.80000      9.1762349E-09
   25.86000      9.3093266E-09
   25.92000      9.3906989E-09
   25.98000      9.4368735E-09
   26.04000      9.4546042E-09
   26.10000      9.4398160E-09
   26.16000      9.3810399E-09
   26.22000      9.2659489E-09
   26.28000      9.0884615E-09
   26.34000      8.8536778E-09
   26.40000      8.5786329E-09
   26.46000      8.2883158E-09
   26.52000      8.0079161E-09
   26.58000      7.7536386E-09
   26.64000      7.5250606E-09
   26.70000      7.3018587E-09
   26.76000      7.0466002E-09
   26.82000      6.7134360E-09
   26.88000      6.2604348E-09
   26.94000      5.6616893E-09
   27.00000      4.9149378E-09
   27.06000      4.0417030E-09
   27.12000      3.0794944E-09
   27.18000      2.0686137E-09
   27.24000      1.0382876E-09
   27.30000     -2.7609096E-12
   27.36000     -1.0678058E-09
   27.42000     -2.1851827E-09
   27.48000     -3.3855776E-09
   27.54000     -4.6882360E-09
   27.60000     -6.0909930E-09
   27.66000     -7.5674729E-09
   27.72000     -9.0722256E-09
   27.78000     -1.0551934E-08
   27.84000     -1.1959004E-08
   27.90000     -1.3263250E-08
   27.96000     -1.4458024E-08
   28.02000     -1.5558813E-08
   28.08000     -1.6594530E-08
   28.14000     -1.7594013E-08
   28.20000     -1.8571905E-08
   28.26000     -1.9518637E-08
   28.32000     -2.0398179E-08
   28.38000     -2.1154772E-08
   28.44000     -2.1726795E-08
   28.50000     -2.2063276E-08
   28.56000     -2.2137472E-08
   28.62000     -2.1952991E-08
   28.68000     -2.1540563E-08
   28.74000     -2.0947047E-08
   28.80000     -2.0220709E-08
   28.86000     -1.9397868E-08
   28.92000     -1.8494974E-08
   28.98000     -1.7507874E-08
   29.04000     -1.6417536E-08
   29.10000     -1.5199536E-08
   29.16000     -1.3833872E-08
   29.22000     -1.2312120E-08
   29.28000     -1.0640099E-08
   29.34000     -8.8357419E-09
   29.40000     -6.9233308E-09
   29.46000     -4.9262856E-09
   29.52000     -2.8611837E-09
   29.58000     -7.3528478E-10
   29.64000      1.4513372E-09
   29.70000      3.6996439E-09
   29.76000      6.0037104E-09
   29.82000      8.3441511E-09
   29.88000      1.0685681E-08
   29.94000      1.2980069E-08
   30.00000      1.5173660E-08
   30.06000      1.7216847E-08
   30.12000      1.9072219E-08
   30.18000      2.0718730E-08
   30.24000      2.2150966E-08
   30.30000      2.3374332E-08
   30.36000      2.4398298E-08
   30.42000      2.5230099E-08
   30.48000      2.5870635E-08
   30.54000      2.6313293E-08
   30.60000      2.6545342E-08
   30.66000      2.6550985E-08
   30.72000      2.6315004E-08
   30.78000      2.5826017E-08
   30.84000      2.5078801E-08
   30.90000      2.4075311E-08
   30.96000      2.2824500E-08
   31.02000      2.1341215E-08
   31.08000      1.9644652E-08
   31.14000      1.7756754E-08
   31.20000      1.5700717E-08
   31.26000      1.3499517E-08
   31.32000      1.1174183E-08
   31.38000      8.7417851E-09
   31.44000      6.2134622E-09
   31.50000      3.5933014E-09
   31.56000      8.7892776E-10
   31.62000     -1.9356883E-09
   31.68000     -4.8555275E-09
   31.74000     -7.8791516E-09
   31.80000     -1.0994409E-08
   31.86000     -1.4176814E-08
   31.92000     -1.7391327E-08
   31.98000     -2.0597074E-08
   32.04000     -2.3753401E-08
   32.10000     -2.6825186E-08
   32.16000     -2.9785593E-08
   32.22000     -3.2615333E-08
   32.28000     -3.5298914E-08
   32.34000     -3.7819362E-08
   32.40000     -4.0153569E-08
   32.46000     -4.2270280E-08
   32.52000     -4.4131763E-08
   32.58000     -4.5698986E-08
   32.64000     -4.6938801E-08
   32.70000     -4.7830742E-08
   32.76000     -4.8371156E-08
   32.82000     -4.8573064E-08
   32.88000     -4.8461672E-08
   32.94000     -4.8066909E-08
   33.00000     -4.7415433E-08
   33.06000     -4.6524871E-08
   33.12000     -4.5402185E-08
   33.18000     -4.4046782E-08
   33.24000     -4.2457167E-08
   33.30000     -4.0638746E-08
   33.36000     -3.8609762E-08
   33.42000     -3.6402909E-08
   33.48000     -3.4061703E-08
   33.54000     -3.1632368E-08
   33.60000     -2.9154016E-08
   33.66000     -2.6650541E-08
   33.72000     -2.4127466E-08
   33.78000     -2.1575358E-08
   33.84000     -1.8979099E-08
   33.90000     -1.6330056E-08
   33.96000     -1.3636908E-08
   34.02000     -1.0930994E-08
   34.08000     -8.2638714E-09
   34.14000     -5.6973670E-09
   34.20000     -3.2891498E-09
   34.26000     -1.0785718E-09
   34.32000      9.2230207E-10
   34.38000      2.7291549E-09
   34.44000      4.3768020E-09
   34.50000      5.9040279E-09
   34.56000      7.3367592E-09
   34.62000      8.6752614E-09
   34.68000      9.8899529E-09
   34.74000      1.0927637E-08
   34.80000      1.1726437E-08
   34.86000      1.2234522E-08
   34.92000      1.2426169E-08
   34.98000      1.2309315E-08
   35.04000      1.1921665E-08
   35.10000      1.1316406E-08
   35.16000      1.0542529E-08
   35.22000      9.6269188E-09
   35.28000      8.5650305E-09
   35.34000      7.3241369E-09
   35.40000      5.8586922E-09
   35.46000      4.1329082E-09
   35.52000      2.1427886E-09
   35.58000     -7.0424083E-11
   35.64000     -2.4208826E-09
   35.70000     -4.7937720E-09
   35.76000     -7.0717197E-09
   35.82000     -9.1637586E-09
   35.88000     -1.1027264E-08
   35.94000     -1.2675178E-08
   36.00000     -1.4165566E-08
   36.06000     -1.5576580E-08
   36.12000     -1.6975118E-08
   36.18000     -1.8389965E-08
   36.24000     -1.9798815E-08
   36.30000     -2.1133795E-08
   36.36000     -2.2303571E-08
   36.42000     -2.3224214E-08
   36.48000     -2.3847997E-08
   36.54000     -2.4180030E-08
   36.60000     -2.4277099E-08
   36.66000     -2.4229232E-08
   36.72000     -2.4130340E-08
   36.78000     -2.4047900E-08
   36.84000     -2.4001757E-08
   36.90000     -2.3959084E-08
   36.96000     -2.3847123E-08
   37.02000     -2.3579506E-08
   37.08000     -2.3087340E-08
   37.14000     -2.2344526E-08
   37.20000     -2.1378382E-08
   37.26000     -2.0261627E-08
   37.32000     -1.9088150E-08
   37.38000     -1.7940968E-08
   37.44000     -1.6863959E-08
   37.50000     -1.5847833E-08
   37.56000     -1.4835873E-08
   37.62000     -1.3747654E-08
   37.68000     -1.2512213E-08
   37.74000     -1.1098457E-08
   37.80000     -9.5315853E-09
   37.86000     -7.8893612E-09
   37.92000     -6.2795031E-09
   37.98000     -4.8061399E-09
   38.04000     -3.5371317E-09
   38.10000     -2.4835700E-09
   38.16000     -1.5984493E-09
   38.22000     -7.9490853E-10
   38.28000      2.2170769E-11
   38.34000      9.2190383E-10
   38.40000      1.9221436E-09
   38.46000      2.9820217E-09
   38.52000      4.0152512E-09
   38.58000      4.9201363E-09
   38.64000      5.6163190E-09
   38.70000      6.0755561E-09
   38.76000      6.3354091E-09
   38.82000      6.4903336E-09
   38.88000      6.6624977E-09
   38.94000      6.9619612E-09
   39.00000      7.4499384E-09
   39.06000      8.1180787E-09
   39.12000      8.8912548E-09
   39.18000      9.6531299E-09
   39.24000      1.0285761E-08
   39.30000      1.0709615E-08
   39.36000      1.0910237E-08
   39.42000      1.0942548E-08
   39.48000      1.0911477E-08
   39.54000      1.0935734E-08
   39.60000      1.1107208E-08
   39.66000      1.1459856E-08
   39.72000      1.1958640E-08
   39.78000      1.2512242E-08
   39.84000      1.3005176E-08
   39.90000      1.3338368E-08
   39.96000      1.3464343E-08
   40.02000      1.3404970E-08
   40.08000      1.3245621E-08
   40.14000      1.3107622E-08
   40.20000      1.3108264E-08
   40.26000      1.3321830E-08
   40.32000      1.3754750E-08
   40.38000      1.4343074E-08
   40.44000      1.4972894E-08
   40.50000      1.5516596E-08
   40.56000      1.5872665E-08
   40.62000      1.5995830E-08
   40.68000      1.5907855E-08
   40.74000      1.5686069E-08
   40.80000      1.5434249E-08
   40.86000      1.5246281E-08
   40.92000      1.5175168E-08
   40.98000      1.5217660E-08
   41.04000      1.5319120E-08
   41.10000      1.5395992E-08
   41.16000      1.5367316E-08
   41.22000      1.5183787E-08
   41.28000      1.4844205E-08
   41.34000      1.4394061E-08
   41.40000      1.3907552E-08
   41.46000      1.3460235E-08
   41.52000      1.3102591E-08
   41.58000      1.2843994E-08
   41.64000      1.2652463E-08
   41.70000      1.2469661E-08
   41.76000      1.2235181E-08
   41.82000      1.1911070E-08
   41.88000      1.1497844E-08
   41.94000      1.1036567E-08
   42.00000      1.0596664E-08
   42.06000      1.0254109E-08
   42.12000      1.0067710E-08
   42.18000      1.0061576E-08
   42.24000      1.0219329E-08
   42.30000      1.0491450E-08
   42.36000      1.0812631E-08
   42.42000      1.1122852E-08
   42.48000      1.1385056E-08
   42.54000      1.1593853E-08
   42.60000      1.1773122E-08
   42.66000      1.1964191E-08
   42.72000      1.2209360E-08
   42.78000      1.2536737E-08
   42.84000      1.2951446E-08
   42.90000      1.3435752E-08
   42.96000      1.3957403E-08
   43.02000      1.4482703E-08
   43.08000      1.4989416E-08
   43.14000      1.5474933E-08
   43.20000      1.5957006E-08
   43.26000      1.6467062E-08
   43.32000      1.7038698E-08
   43.38000      1.7695472E-08
   43.44000      1.8442195E-08
   43.50000      1.9262474E-08
   43.56000      2.0122982E-08
   43.62000      2.0982560E-08
   43.68000      2.1802871E-08
   43.74000      2.2557064E-08
   43.80000      2.3234058E-08
   43.86000      2.3837845E-08
   43.92000      2.4382929E-08
   43.98000      2.4888141E-08
   44.04000      2.5370992E-08
   44.10000      2.5844040E-08
   44.16000      2.6313556E-08
   44.22000      2.6779876E-08
   44.28000      2.7238396E-08
   44.34000      2.7680439E-08
   44.40000      2.8093750E-08
   44.46000      2.8462928E-08
   44.52000      2.8770454E-08
   44.58000      2.8998704E-08
   44.64000      2.9132861E-08
   44.70000      2.9164076E-08
   44.76000      2.9091686E-08
   44.82000      2.8923449E-08
   44.88000      2.8673245E-08
   44.94000      2.8356629E-08
   45.00000      2.7985589E-08
   45.06000      2.7564427E-08
   45.12000      2.7088511E-08
   45.18000      2.6546672E-08
   45.24000      2.5926630E-08
   45.30000      2.5221460E-08
   45.36000      2.4434526E-08
   45.42000      2.3580652E-08
   45.48000      2.2682746E-08
   45.54000      2.1764803E-08
   45.60000      2.0843810E-08
   45.66000      1.9923581E-08
   45.72000      1.8993012E-08
   45.78000      1.8029771E-08
   45.84000      1.7008485E-08
   45.90000      1.5910874E-08
   45.96000      1.4734548E-08
   46.02000      1.3497336E-08
   46.08000      1.2235446E-08
   46.14000      1.0995564E-08
   46.20000      9.8230784E-09
   46.26000      8.7500336E-09
   46.32000      7.7867188E-09
   46.38000      6.9197958E-09
   46.44000      6.1177241E-09
   46.50000      5.3417351E-09
   46.56000      4.5585855E-09
   46.62000      3.7506718E-09
   46.68000      2.9200715E-09
   46.74000      2.0853730E-09
   46.80000      1.2728165E-09
   46.86000      5.0529841E-10
   46.92000     -2.0659290E-10
   46.98000     -8.6829710E-10
   47.04000     -1.4985990E-09
   47.10000     -2.1217381E-09
   47.16000     -2.7573308E-09
   47.22000     -3.4118530E-09
   47.28000     -4.0748915E-09
   47.34000     -4.7217696E-09
   47.40000     -5.3219504E-09
   47.46000     -5.8505063E-09
   47.52000     -6.2986141E-09
   47.58000     -6.6790466E-09
   47.64000     -7.0241541E-09
   47.70000     -7.3764648E-09
   47.76000     -7.7748608E-09
   47.82000     -8.2411695E-09
   47.88000     -8.7720657E-09
   47.94000     -9.3393231E-09
   48.00000     -9.8983577E-09
   48.06000     -1.0401926E-08
   48.12000     -1.0814118E-08
   48.18000     -1.1119925E-08
   48.24000     -1.1327591E-08
   48.30000     -1.1463631E-08
   48.36000     -1.1562850E-08
   48.42000     -1.1656947E-08
   48.48000     -1.1765290E-08
   48.54000     -1.1890319E-08
   48.60000     -1.2018424E-08
   48.66000     -1.2125506E-08
   48.72000     -1.2185216E-08
   48.78000     -1.2177188E-08
   48.84000     -1.2092700E-08
   48.90000     -1.1936103E-08
   48.96000     -1.1721777E-08
   49.02000     -1.1467992E-08
   49.08000     -1.1190162E-08
   49.14000     -1.0896128E-08
   49.20000     -1.0585171E-08
   49.26000     -1.0250804E-08
   49.32000     -9.8858601E-09
   49.38000     -9.4875237E-09
   49.44000     -9.0602743E-09
   49.50000     -8.6158316E-09
   49.56000     -8.1705940E-09
   49.62000     -7.7419369E-09
   49.68000     -7.3449433E-09
   49.74000     -6.9904917E-09
   49.80000     -6.6848673E-09
   49.86000     -6.4303789E-09
   49.92000     -6.2263394E-09
   49.98000     -6.0699250E-09
   50.04000     -5.9568075E-09
   50.10000     -5.8816836E-09
   50.16000     -5.8388454E-09
   50.22000     -5.8228489E-09
   50.28000     -5.8291980E-09
   50.34000     -5.8549121E-09
   50.40000     -5.8988441E-09
   50.46000     -5.9616680E-09
   50.52000     -6.0454646E-09
   50.58000     -6.1528680E-09
   50.64000     -6.2858247E-09
   50.70000     -6.4441488E-09
   50.76000     -6.6241932E-09
   50.82000     -6.8180341E-09
   50.88000     -7.0134600E-09
   50.94000     -7.1948580E-09
   51.00000     -7.3447950E-09
   51.06000     -7.4458706E-09
   51.12000     -7.4822948E-09
   51.18000     -7.4406721E-09
   51.24000     -7.3096311E-09
   51.30000     -7.0782211E-09
   51.36000     -6.7333867E-09
   51.42000     -6.2572330E-09
   51.48000     -5.6250982E-09
   51.54000     -4.8054130E-09
   51.60000     -3.7618459E-09
   51.66000     -2.4573579E-09
   51.72000     -8.5882162E-10
   51.78000      1.0596670E-09
   51.84000      3.3164325E-09
   51.90000      5.9253531E-09
   51.96000      8.9015026E-09
   52.02000      1.2267037E-08
   52.08000      1.6054768E-08
   52.14000      2.0307654E-08
   52.20000      2.5074158E-08
   52.26000      3.0401022E-08
   52.32000      3.6326046E-08
   52.38000      4.2873094E-08
   52.44000      5.0050652E-08
   52.50000      5.7853676E-08
   52.56000      6.6267511E-08
   52.62000      7.5272418E-08
   52.68000      8.4847294E-08
   52.74000      9.4971881E-08
   52.80000      1.0562690E-07
   52.86000      1.1679179E-07
   52.92000      1.2844033E-07
   52.98000      1.4053469E-07
   53.04000      1.5301933E-07
   53.10000      1.6581637E-07
   53.16000      1.7882407E-07
   53.22000      1.9191849E-07
   53.28000      2.0495766E-07
   53.34000      2.1778631E-07
   53.40000      2.3023951E-07
   53.46000      2.4214432E-07
   53.52000      2.5332000E-07
   53.58000      2.6357756E-07
   53.64000      2.7271972E-07
   53.70000      2.8054149E-07
   53.76000      2.8683110E-07
   53.82000      2.9137070E-07
   53.88000      2.9393647E-07
   53.94000      2.9430012E-07
   54.00000      2.9223079E-07
   54.06000      2.8749892E-07
   54.12000      2.7988040E-07
   54.18000      2.6916004E-07
   54.24000      2.5513316E-07
   54.30000      2.3760593E-07
   54.36000      2.1639552E-07
   54.42000      1.9133211E-07
   54.48000      1.6226339E-07
   54.54000      1.2906108E-07
   54.60000      9.1627342E-08
   54.66000      4.9900013E-08
   54.72000      3.8554533E-09
   54.78000     -4.6490097E-08
   54.84000     -1.0108000E-07
   54.90000     -1.5981708E-07
   54.96000     -2.2256418E-07
   55.02000     -2.8914630E-07
   55.08000     -3.5935415E-07
   55.14000     -4.3294807E-07
   55.20000     -5.0965974E-07
   55.26000     -5.8919090E-07
   55.32000     -6.7120851E-07
   55.38000     -7.5534007E-07
   55.44000     -8.4117158E-07
   55.50000     -9.2825104E-07
   55.56000     -1.0160969E-06