  -2.400000      0.0000000E+00
  -2.340000      0.0000000E+00
  -2.280000      0.0000000E+00
  -2.220000      0.0000000E+00
  -2.160000      0.0000000E+00
  -2.100000      0.0000000E+00
  -2.040000      0.0000000E+00
  -1.980000      0.0000000E+00
  -1.920000      0.0000000E+00
  -1.860000      0.0000000E+00
  -1.800000      0.0000000E+00
  -1.740000      0.0000000E+00
  -1.680000      7.8475509E-35
  -1.620000      5.4824409E-34
  -1.560000     -2.5408922E-33
  -1.500000     -5.6377996E-32
  -1.440000     -4.0520010E-31
  -1.380000     -1.7875865E-30
  -1.320000     -5.3096967E-30
  -1.260000     -9.6865579E-30
  -1.200000     -2.0298397E-30
  -1.140000      5.7755130E-29
  -1.080000      2.3986415E-28
  -1.020000      5.7955999E-28
 -0.9600000      8.6853364E-28
 -0.9000000      3.0979886E-28
 -0.8400000     -2.6715593E-27
 -0.7800000     -9.7298559E-27
 -0.7200000     -2.0098866E-26
 -0.6600000     -2.6249522E-26
 -0.6000000     -1.0231941E-26
 -0.5400000      5.3198542E-26
 -0.4800000      1.7907836E-25
 -0.4200000      3.3820281E-25
 -0.3600000      4.1973696E-25
 -0.3000000      2.2416989E-25
 -0.2400000     -4.6948051E-25
 -0.1800000     -1.7390788E-24
 -0.1200000     -3.2952083E-24
 -5.9999999E-02 -4.3153034E-24
  0.0000000E+00 -3.4998078E-24
  5.9999999E-02  5.3005300E-25
  0.1200000      8.5137529E-24
  0.1800000      1.9695765E-23
  0.2400000      3.1088604E-23
  0.3000000      3.7058934E-23
  0.3600000      2.9413897E-23
  0.4200000     -1.5717235E-24
  0.4800000     -6.4121909E-23
  0.5400000     -1.5839942E-22
  0.6000000     -2.6583709E-22
  0.6600000     -3.3733750E-22
  0.7200000     -2.8925911E-22
  0.7800000     -2.1254940E-23
  0.8400000      5.3171356E-22
  0.9000000      1.3156797E-21
  0.9600000      2.0733650E-21
   1.020000      2.3221535E-21
   1.080000      1.4693610E-21
   1.140000     -8.9512827E-22
   1.200000     -4.5842931E-21
   1.260000     -8.4667614E-21
   1.320000     -1.0478841E-20
   1.380000     -8.2581819E-21
   1.440000     -4.2008259E-22
   1.500000      1.1937722E-20
   1.560000      2.4370175E-20
   1.620000      2.9884071E-20
   1.680000      2.1956261E-20
   1.740000     -8.6887387E-22
   1.800000     -3.1002313E-20
   1.860000     -5.1697864E-20
   1.920000     -4.3459623E-20
   1.980000      3.2985822E-21
   2.040000      7.4355084E-20
   2.100000      1.2592805E-19
   2.160000      9.7014844E-20
   2.220000     -5.6515054E-20
   2.280000     -3.1569250E-19
   2.340000     -5.6517400E-19
   2.400000     -6.0599851E-19
   2.460000     -2.3719427E-19
   2.520000      6.0429354E-19
   2.580000      1.7037514E-18
   2.640000      2.5252314E-18
   2.700000      2.3557260E-18
   2.760000      6.5706446E-19
   2.820000     -2.4823909E-18
   2.880000     -6.0343566E-18
   2.940000     -8.1381528E-18
   3.000000     -6.7922782E-18
   3.060000     -1.0010264E-18
   3.120000      8.1134705E-18
   3.180000      1.6948252E-17
   3.240000      2.0394027E-17
   3.300000      1.4172334E-17
   3.360000     -2.2785114E-18
   3.420000     -2.3883838E-17
   3.480000     -4.0552665E-17
   3.540000     -4.1019016E-17
   3.600000     -1.8913692E-17
   3.660000      2.1653274E-17
   3.720000      6.4472369E-17
   3.780000      8.6012794E-17
   3.840000      6.6187598E-17
   3.900000      1.0841176E-18
   3.960000     -8.8895592E-17
   4.020000     -1.6169290E-16
   4.080000     -1.6931142E-16
   4.140000     -8.2384999E-17
   4.200000      8.6843423E-17
   4.260000      2.7612199E-16
   4.320000      3.8879117E-16
   4.380000      3.3318417E-16
   4.440000      7.3122885E-17
   4.500000     -3.3305685E-16
   4.560000     -7.2896746E-16
   4.620000     -9.0588215E-16
   4.680000     -6.9097306E-16
   4.740000     -4.7597124E-17
   4.800000      8.5905896E-16
   4.860000      1.6756978E-15
   4.920000      1.9734680E-15
   4.980000      1.4352700E-15
   5.040000      4.7965990E-17
   5.100000     -1.7954634E-15
   5.160000     -3.3632582E-15
   5.220000     -3.8398176E-15
   5.280000     -2.6965260E-15
   5.340000     -2.6751244E-17
   5.400000      3.3318388E-15
   5.460000      6.0055453E-15
   5.520000      6.6056974E-15
   5.580000      4.3828593E-15
   5.640000     -2.7549620E-16
   5.700000     -5.7818041E-15
   5.760000     -9.8421993E-15
   5.820000     -1.0379790E-14
   5.880000     -6.5246601E-15
   5.940000      7.8946245E-16
   6.000000      8.9673057E-15
   6.060000      1.4675010E-14
   6.120000      1.5217926E-14
   6.180000      9.7895833E-15
   6.240000      2.9444724E-18
   6.300000     -1.0606348E-14
   6.360000     -1.7961029E-14
   6.420000     -1.9140751E-14
   6.480000     -1.3647481E-14
   6.540000     -3.6482107E-15
   6.600000      6.9467150E-15
   6.660000      1.4177587E-14
   6.720000      1.5742077E-14
   6.780000      1.1934206E-14
   6.840000      5.3796413E-15
   6.900000     -3.1345958E-16
   6.960000     -2.3599617E-15
   7.020000     -2.0728520E-16
   7.080000      4.1358713E-15
   7.140000      7.0484000E-15
   7.200000      5.1284741E-15
   7.260000     -2.9176685E-15
   7.320000     -1.5230289E-14
   7.380000     -2.7168502E-14
   7.440000     -3.3073530E-14
   7.500000     -2.8764334E-14
   7.560000     -1.3712969E-14
   7.620000      8.1230222E-15
   7.680000      2.9355662E-14
   7.740000      4.1885983E-14
   7.800000      4.0306032E-14
   7.860000      2.4580706E-14
   7.920000      7.4914161E-16
   7.980000     -2.0900855E-14
   8.040000     -2.9694820E-14
   8.100000     -1.9045144E-14
   8.160000      1.0285489E-14
   8.220000      4.9576262E-14
   8.280000      8.4596928E-14
   8.340000      1.0023392E-13
   8.400000      8.5485404E-14
   8.460000      3.6895874E-14
   8.520000     -4.0722884E-14
   8.580000     -1.3612629E-13
   8.640000     -2.3467952E-13
   8.700000     -3.2082505E-13
   8.760000     -3.7878698E-13
   8.820000     -3.9168400E-13
   8.880000     -3.4064662E-13
   8.940000     -2.0620605E-13
   9.000000      2.6385252E-14
   9.060000      3.5805275E-13
   9.120000      7.6550566E-13
   9.180000      1.1938474E-12
   9.240000      1.5568149E-12
   9.300000      1.7476665E-12
   9.360000      1.6604947E-12
   9.420000      1.2178951E-12
   9.480000      3.9786070E-13
   9.540000     -7.4821220E-13
   9.600000     -2.0927737E-12
   9.660000     -3.4468396E-12
   9.720000     -4.5891138E-12
   9.780000     -5.3019481E-12
   9.840000     -5.4046685E-12
   9.900000     -4.7764041E-12
   9.960000     -3.3652781E-12
   10.02000     -1.1867881E-12
   10.08000      1.6811457E-12
   10.14000      5.0979230E-12
   10.20000      8.8496693E-12
   10.26000      1.2629956E-11
   10.32000      1.6020947E-11
   10.38000      1.8488730E-11
   10.44000      1.9406034E-11
   10.50000      1.8109052E-11
   10.56000      1.3984449E-11
   10.62000      6.5714162E-12
   10.68000     -4.3443721E-12
   10.74000     -1.8669946E-11
   10.80000     -3.5997136E-11
   10.86000     -5.5656549E-11
   10.92000     -7.6828953E-11
   10.98000     -9.8697654E-11
   11.04000     -1.2061796E-10
   11.10000     -1.4227881E-10
   11.16000     -1.6383685E-10
   11.22000     -1.8601087E-10
   11.28000     -2.1013433E-10
   11.34000     -2.3816771E-10
   11.40000     -2.7267361E-10
   11.46000     -3.1675271E-10
   11.52000     -3.7393402E-10
   11.58000     -4.4800980E-10
   11.64000     -5.4280863E-10
   11.70000     -6.6191103E-10
   11.76000     -8.0832413E-10
   11.82000     -9.8414588E-10
   11.88000     -1.1902560E-09
   11.94000     -1.4260720E-09
   12.00000     -1.6893943E-09
   12.06000     -1.9763586E-09
   12.12000     -2.2814965E-09
   12.18000     -2.5978946E-09
   12.24000     -2.9174450E-09
   12.30000     -3.2311722E-09
   12.36000     -3.5296266E-09
   12.42000     -3.8033230E-09
   12.48000     -4.0432071E-09
   12.54000     -4.2411168E-09
   12.60000     -4.3901967E-09
   12.66000     -4.4852375E-09
   12.72000     -4.5229056E-09
   12.78000     -4.5018491E-09
   12.84000     -4.4226875E-09
   12.90000     -4.2878949E-09
   12.96000     -4.1016093E-09
   13.02000     -3.8693946E-09
   13.08000     -3.5979706E-09
   13.14000     -3.2949223E-09
   13.20000     -2.9683940E-09
   13.26000     -2.6267644E-09
   13.32000     -2.2783189E-09
   13.38000     -1.9309354E-09
   13.44000     -1.5918123E-09
   13.50000     -1.2672684E-09
   13.56000     -9.6262165E-10
   13.62000     -6.8214046E-10
   13.68000     -4.2903417E-10
   13.74000     -2.0544134E-10
   13.80000     -1.2380089E-11
   13.86000      1.5035244E-10
   13.92000      2.8431291E-10
   13.98000      3.9252954E-10
   14.04000      4.7953980E-10
   14.10000      5.5128513E-10
   14.16000      6.1481953E-10
   14.22000      6.7782263E-10
   14.28000      7.4795048E-10
   14.34000      8.3209339E-10
   14.40000      9.3564267E-10
   14.46000      1.0618773E-09
   14.52000      1.2115724E-09
   14.58000      1.3828977E-09
   14.64000      1.5716195E-09
   14.70000      1.7715652E-09
   14.76000      1.9752571E-09
   14.82000      2.1745963E-09
   14.88000      2.3614857E-09
   14.94000      2.5283116E-09
   15.00000      2.6682654E-09
   15.06000      2.7755311E-09
   15.12000      2.8454146E-09
   15.18000      2.8744820E-09
   15.24000      2.8607658E-09
   15.30000      2.8040272E-09
   15.36000      2.7060134E-09
   15.42000      2.5706004E-09
   15.48000      2.4036981E-09
   15.54000      2.2128384E-09
   15.60000      2.0064459E-09
   15.66000      1.7929099E-09
   15.72000      1.5796506E-09
   15.78000      1.3724264E-09
   15.84000      1.1750753E-09
   15.90000      9.8976904E-10
   15.96000      8.1769669E-10
   16.02000      6.5994854E-10
   16.08000      5.1829507E-10
   16.14000      3.9558423E-10
   16.20000      2.9560468E-10
   16.26000      2.2244941E-10
   16.32000      1.7958765E-10
   16.38000      1.6896240E-10
   16.44000      1.9043019E-10
   16.50000      2.4175090E-10
   16.56000      3.1915467E-10
   16.62000      4.1831888E-10
   16.68000      5.3544641E-10
   16.74000      6.6809713E-10
   16.80000      8.1550294E-10
   16.86000      9.7827424E-10
   16.92000      1.1576202E-09
   16.98000      1.3543809E-09
   17.04000      1.5682370E-09
   17.10000      1.7973899E-09
   17.16000      2.0388065E-09
   17.22000      2.2888815E-09
   17.28000      2.5441809E-09
   17.34000      2.8018718E-09
   17.40000      3.0595759E-09
   17.46000      3.3146197E-09
   17.52000      3.5629422E-09
   17.58000      3.7981152E-09
   17.64000      4.0109311E-09
   17.70000      4.1898525E-09
   17.76000      4.3223030E-09
   17.82000      4.3964712E-09
   17.88000      4.4031196E-09
   17.94000      4.3368780E-09
   18.00000      4.1966968E-09
   18.06000      3.9854324E-09
   18.12000      3.7088372E-09
   18.18000      3.3743859E-09
   18.24000      2.9903868E-09
   18.30000      2.5656359E-09
   18.36000      2.1096225E-09
   18.42000      1.6330464E-09
   18.48000      1.1482816E-09
   18.54000      6.6944295E-10
   18.60000      2.1188504E-10
   18.66000     -2.0880225E-10
   18.72000     -5.7803901E-10
   18.78000     -8.8338792E-10
   18.84000     -1.1152819E-09
   18.90000     -1.2672288E-09
   18.96000     -1.3355903E-09
   19.02000     -1.3191942E-09
   19.08000     -1.2190686E-09
   19.14000     -1.0384827E-09
   19.20000     -7.8326773E-10
   19.26000     -4.6218007E-10
   19.32000     -8.6948795E-11
   19.38000      3.2829775E-10
   19.44000      7.6832268E-10
   19.50000      1.2185801E-09
   19.56000      1.6670525E-09
   19.62000      2.1055564E-09
   19.68000      2.5300806E-09
   19.74000      2.9400442E-09
   19.80000      3.3367709E-09
   19.86000      3.7217571E-09
   19.92000      4.0953800E-09
   19.98000      4.4564592E-09
   20.04000      4.8026956E-09
   20.10000      5.1315943E-09
   20.16000      5.4412652E-09
   20.22000      5.7305600E-09
   20.28000      5.9983338E-09
   20.34000      6.2420575E-09
   20.40000      6.4563954E-09
   20.46000      6.6324537E-09
   20.52000      6.7582580E-09
   20.58000      6.8205730E-09
   20.64000      6.8076829E-09
   20.70000      6.7123400E-09
   20.76000      6.5339485E-09
   20.82000      6.2792456E-09
   20.88000      5.9612035E-09
   20.94000      5.5965232E-09
   21.00000      5.2025828E-09
   21.06000      4.7949653E-09
   21.12000      4.3864654E-09
   21.18000      3.9878865E-09
   21.24000      3.6101633E-09
   21.30000      3.2667287E-09
   21.36000      2.9748231E-09
   21.42000      2.7548324E-09
   21.48000      2.6275135E-09
   21.54000      2.6098621E-09
   21.60000      2.7109954E-09
   21.66000      2.9294844E-09
   21.72000      3.2530674E-09
   21.78000      3.6608319E-09
   21.84000      4.1271035E-09
   21.90000      4.6257695E-09
   21.96000      5.1337188E-09
   22.02000      5.6325073E-09
   22.08000      6.1080172E-09
   22.14000      6.5485963E-09
   22.20000      6.9426767E-09
   22.26000      7.2770452E-09
   22.32000      7.5367224E-09
   22.38000      7.7068201E-09
   22.44000      7.7759719E-09
   22.50000      7.7401809E-09
   22.56000      7.6056255E-09
   22.62000      7.3891449E-09
   22.68000      7.1159185E-09
   22.74000      6.8149228E-09
   22.80000      6.5136061E-09
   22.86000      6.2335497E-09
   22.92000      5.9884377E-09
   22.98000      5.7846856E-09
   23.04000      5.6240177E-09
   23.10000      5.5065827E-09
   23.16000      5.4331935E-09
   23.22000      5.4057985E-09
   23.28000      5.4261702E-09
   23.34000      5.4934830E-09
   23.40000      5.6018581E-09
   23.46000      5.7388494E-09
   23.52000      5.8855383E-09
   23.58000      6.0183520E-09
   23.64000      6.1122596E-09
   23.70000      6.1445684E-09
   23.76000      6.0983218E-09
   23.82000      5.9643792E-09
   23.88000      5.7416210E-09
   23.94000      5.4353828E-09
   24.00000      5.0548690E-09
   24.06000      4.6106177E-09
   24.12000      4.1129660E-09
   24.18000      3.5718350E-09
   24.24000      2.9974350E-09
   24.30000      2.4010589E-09
   24.36000      1.7952263E-09
   24.42000      1.1929846E-09
   24.48000      6.0680799E-10
   24.54000      4.7804941E-11
   24.60000     -4.7430199E-10
   24.66000     -9.5055186E-10
   24.72000     -1.3721311E-09
   24.78000     -1.7304921E-09
   24.84000     -2.0184909E-09
   24.90000     -2.2321629E-09
   24.96000     -2.3723050E-09
   25.02000     -2.4450746E-09
   25.08000     -2.4612954E-09
   25.14000     -2.4347604E-09
   25.20000     -2.3801576E-09
   25.26000     -2.3111961E-09
   25.32000     -2.2392166E-09
   25.38000     -2.1723254E-09
   25.44000     -2.1150441E-09
   25.50000     -2.0685886E-09
   25.56000     -2.0318891E-09
   25.62000     -2.0032285E-09
   25.68000     -1.9819617E-09
   25.74000     -1.9695177E-09
   25.80000     -1.9690785E-09
   25.86000     -1.9839814E-09
   25.92000     -2.0156565E-09
   25.98000     -2.0622819E-09
   26.04000     -2.1190081E-09
   26.10000     -2.1797102E-09
   26.16000     -2.2393192E-09
   26.22000     -2.2954643E-09
   26.28000     -2.3486102E-09
   26.34000     -2.4008400E-09
   26.40000     -2.4542277E-09
   26.46000     -2.5098699E-09
   26.52000     -2.5680686E-09
   26.58000     -2.6292870E-09
   26.64000     -2.6950124E-09
   26.70000     -2.7678408E-09
   26.76000     -2.8507843E-09
   26.82000     -2.9464526E-09
   26.88000     -3.0568514E-09
   26.94000     -3.1840428E-09
   27.00000     -3.3312031E-09
   27.06000     -3.5032499E-09
   27.12000     -3.7064909E-09
   27.18000     -3.9474117E-09
   27.24000     -4.2312966E-09
   27.30000     -4.5613584E-09
   27.36000     -4.9385220E-09
   27.42000     -5.3613856E-09
   27.48000     -5.8257301E-09
   27.54000     -6.3234560E-09
   27.60000     -6.8416064E-09
   27.66000     -7.3625537E-09
   27.72000     -7.8660349E-09
   27.78000     -8.3326617E-09
   27.84000     -8.7474810E-09
   27.90000     -9.1019450E-09
   27.96000     -9.3934176E-09
   28.02000     -9.6227604E-09
   28.08000     -9.7916653E-09
   28.14000     -9.9014041E-09
   28.20000     -9.9536575E-09
   28.26000     -9.9526716E-09
   28.32000     -9.9070956E-09
   28.38000     -9.8300736E-09
   28.44000     -9.7372999E-09
   28.50000     -9.6439221E-09
   28.56000     -9.5617496E-09
   28.62000     -9.4977359E-09
   28.68000     -9.4537809E-09
   28.74000     -9.4271888E-09
   28.80000     -9.4111146E-09
   28.86000     -9.3949568E-09
   28.92000     -9.3652357E-09
   28.98000     -9.3074979E-09
   29.04000     -9.2090993E-09
   29.10000     -9.0618366E-09
   29.16000     -8.8631475E-09
   29.22000     -8.6151282E-09
   29.28000     -8.3218721E-09
   29.34000     -7.9866389E-09
   29.40000     -7.6104776E-09
   29.46000     -7.1930453E-09
   29.52000     -6.7350139E-09
   29.58000     -6.2405490E-09
   29.64000     -5.7183804E-09
   29.70000     -5.1809321E-09
   29.76000     -4.6420761E-09
   29.82000     -4.1146846E-09
   29.88000     -3.6089272E-09
   29.94000     -3.1315639E-09
   30.00000     -2.6858868E-09
   30.06000     -2.2719238E-09
   30.12000     -1.8868835E-09
   30.18000     -1.5261730E-09
   30.24000     -1.1851816E-09
   30.30000     -8.6144042E-10
   30.36000     -5.5615557E-10
   30.42000     -2.7408256E-10
   30.48000     -2.1445453E-11
   30.54000      1.9726804E-10
   30.60000      3.8200451E-10
   30.66000      5.3783505E-10
   30.72000      6.7317185E-10
   30.78000      7.9638313E-10
   30.84000      9.1251245E-10
   30.90000      1.0216421E-09
   30.96000      1.1194663E-09
   31.02000      1.1994856E-09
   31.08000      1.2555977E-09
   31.14000      1.2839922E-09
   31.20000      1.2838894E-09
   31.26000      1.2572782E-09
   31.32000      1.2080446E-09
   31.38000      1.1407695E-09
   31.44000      1.0593132E-09
   31.50000      9.6538566E-10
   31.56000      8.5755225E-10
   31.62000      7.3127066E-10
   31.68000      5.8026955E-10
   31.74000      3.9890216E-10
   31.80000      1.8444633E-10
   31.86000     -6.1830943E-11
   31.92000     -3.3543920E-10
   31.98000     -6.3083316E-10
   32.04000     -9.4373243E-10
   32.10000     -1.2722660E-09
   32.16000     -1.6163587E-09
   32.22000     -1.9758564E-09
   32.28000     -2.3485922E-09
   32.34000     -2.7295044E-09
   32.40000     -3.1111365E-09
   32.46000     -3.4849872E-09
   32.52000     -3.8427905E-09
   32.58000     -4.1771306E-09
   32.64000     -4.4814792E-09
   32.70000     -4.7502273E-09
   32.76000     -4.9792162E-09
   32.82000     -5.1666924E-09
   32.88000     -5.3140763E-09
   32.94000     -5.4258158E-09
   33.00000     -5.5080744E-09
   33.06000     -5.5667146E-09
   33.12000     -5.6054796E-09
   33.18000     -5.6251461E-09
   33.24000     -5.6238383E-09
   33.30000     -5.5981206E-09
   33.36000     -5.5442326E-09
   33.42000     -5.4590497E-09
   33.48000     -5.3406897E-09
   33.54000     -5.1888454E-09
   33.60000     -5.0047646E-09
   33.66000     -4.7905857E-09
   33.72000     -4.5478323E-09
   33.78000     -4.2753867E-09
   33.84000     -3.9679495E-09
   33.90000     -3.6162564E-09
   33.96000     -3.2097887E-09
   34.02000     -2.7414626E-09
   34.08000     -2.2124764E-09
   34.14000     -1.6349851E-09
   34.20000     -1.0309752E-09
   34.26000     -4.2737408E-10
   34.32000      1.5081839E-10
   34.38000      6.8668254E-10
   34.44000      1.1744983E-09
   34.50000      1.6189027E-09
   34.56000      2.0307787E-09
   34.62000      2.4216489E-09
   34.68000      2.7985629E-09
   34.74000      3.1609819E-09
   34.80000      3.5003973E-09
   34.86000      3.8026804E-09
   34.92000      4.0525130E-09
   34.98000      4.2386308E-09
   35.04000      4.3581019E-09
   35.10000      4.4178208E-09
   35.16000      4.4320778E-09
   35.22000      4.4165680E-09
   35.28000      4.3809196E-09
   35.34000      4.3228994E-09
   35.40000      4.2270929E-09
   35.46000      4.0690828E-09
   35.52000      3.8236658E-09
   35.58000      3.4737808E-09
   35.64000      3.0165022E-09
   35.70000      2.4638473E-09
   35.76000      1.8384684E-09
   35.82000      1.1663402E-09
   35.88000      4.6939536E-10
   35.94000     -2.3945393E-10
   36.00000     -9.5777342E-10
   36.06000     -1.6917189E-09
   36.12000     -2.4517843E-09
   36.18000     -3.2474710E-09
   36.24000     -4.0822394E-09
   36.30000     -4.9501514E-09
   36.36000     -5.8354583E-09
   36.42000     -6.7157466E-09
   36.48000     -7.5680155E-09
   36.54000     -8.3756619E-09
   36.60000     -9.1335410E-09
   36.66000     -9.8487254E-09
   36.72000     -1.0536345E-08
   36.78000     -1.1212119E-08
   36.84000     -1.1884780E-08
   36.90000     -1.2551611E-08
   36.96000     -1.3198761E-08
   37.02000     -1.3805844E-08
   37.08000     -1.4352514E-08
   37.14000     -1.4824313E-08
   37.20000     -1.5215871E-08
   37.26000     -1.5530938E-08
   37.32000     -1.5779877E-08
   37.38000     -1.5975679E-08
   37.44000     -1.6129585E-08
   37.50000     -1.6247261E-08
   37.56000     -1.6326492E-08
   37.62000     -1.6357355E-08
   37.68000     -1.6325385E-08
   37.74000     -1.6217173E-08
   37.80000     -1.6026519E-08
   37.86000     -1.5758571E-08
   37.92000     -1.5429830E-08
   37.98000     -1.5063613E-08
   38.04000     -1.4682747E-08
   38.10000     -1.4302628E-08
   38.16000     -1.3927583E-08
   38.22000     -1.3551859E-08
   38.28000     -1.3164292E-08
   38.34000     -1.2754170E-08
   38.40000     -1.2315733E-08
   38.46000     -1.1849776E-08
   38.52000     -1.1362444E-08
   38.58000     -1.0862335E-08
   38.64000     -1.0357239E-08
   38.70000     -9.8514068E-09
   38.76000     -9.3437933E-09
   38.82000     -8.8275742E-09
   38.88000     -8.2912868E-09
   38.94000     -7.7218036E-09
   39.00000     -7.1087003E-09
   39.06000     -6.4487251E-09
   39.12000     -5.7485097E-09
   39.18000     -5.0240705E-09
   39.24000     -4.2969508E-09
   39.30000     -3.5884558E-09
   39.36000     -2.9144021E-09
   39.42000     -2.2825082E-09
   39.48000     -1.6931768E-09
   39.54000     -1.1427732E-09
   39.60000     -6.2751276E-10
   39.66000     -1.4621324E-10
   39.72000      2.9886046E-10
   39.78000      7.0274159E-10
   39.84000      1.0592510E-09
   39.90000      1.3625456E-09
   39.96000      1.6084946E-09
   40.02000      1.7959095E-09
   40.08000      1.9275044E-09
   40.14000      2.0101489E-09
   40.20000      2.0539772E-09
   40.26000      2.0703916E-09
   40.32000      2.0697177E-09
   40.38000      2.0596491E-09
   40.44000      2.0452715E-09
   40.50000      2.0305062E-09
   40.56000      2.0198836E-09
   40.62000      2.0193300E-09
   40.68000      2.0353452E-09
   40.74000      2.0731104E-09
   40.80000      2.1348723E-09
   40.86000      2.2198186E-09
   40.92000      2.3256492E-09
   40.98000      2.4508817E-09
   41.04000      2.5964184E-09
   41.10000      2.7654301E-09
   41.16000      2.9617457E-09
   41.22000      3.1879028E-09
   41.28000      3.4441090E-09
   41.34000      3.7286032E-09
   41.40000      4.0388888E-09
   41.46000      4.3728177E-09
   41.52000      4.7288311E-09
   41.58000      5.1055098E-09
   41.64000      5.5011418E-09
   41.70000      5.9139063E-09
   41.76000      6.3424848E-09
   41.82000      6.7862147E-09
   41.88000      7.2439419E-09
   41.94000      7.7116100E-09
   42.00000      8.1797680E-09
   42.06000      8.6327283E-09
   42.12000      9.0504617E-09
   42.18000      9.4128429E-09
   42.24000      9.7043920E-09
   42.30000      9.9173034E-09
   42.36000      1.0051452E-08
   42.42000      1.0111708E-08
   42.48000      1.0104251E-08
   42.54000      1.0033793E-08
   42.60000      9.9026796E-09
   42.66000      9.7115356E-09
   42.72000      9.4603605E-09
   42.78000      9.1491383E-09
   42.84000      8.7778771E-09
   42.90000      8.3466842E-09
   42.96000      7.8564666E-09
   43.02000      7.3101400E-09
   43.08000      6.7135311E-09
   43.14000      6.0749978E-09
   43.20000      5.4035874E-09
   43.26000      4.7065822E-09
   43.32000      3.9878754E-09
   43.38000      3.2482492E-09
   43.44000      2.4874449E-09
   43.50000      1.7068100E-09
   43.56000      9.1097541E-10
   43.62000      1.0775896E-10
   43.68000     -6.9328665E-10
   43.74000     -1.4824361E-09
   43.80000     -2.2503659E-09
   43.86000     -2.9876310E-09
   43.92000     -3.6839649E-09
   43.98000     -4.3286006E-09
   44.04000     -4.9120685E-09
   44.10000     -5.4286757E-09
   44.16000     -5.8780851E-09
   44.22000     -6.2646337E-09
   44.28000     -6.5943215E-09
   44.34000     -6.8708097E-09
   44.40000     -7.0924862E-09
   44.46000     -7.2521402E-09
   44.52000     -7.3394082E-09
   44.58000     -7.3447306E-09
   44.64000     -7.2629458E-09
   44.70000     -7.0950290E-09
   44.76000     -6.8475812E-09
   44.82000     -6.5306738E-09
   44.88000     -6.1551351E-09
   44.94000     -5.7302092E-09
   45.00000     -5.2620885E-09
   45.06000     -4.7534581E-09
   45.12000     -4.2040647E-09
   45.18000     -3.6122847E-09
   45.24000     -2.9774527E-09
   45.30000     -2.3023670E-09
   45.36000     -1.5950732E-09
   45.42000     -8.6907898E-10
   45.48000     -1.4167113E-10
   45.54000      5.6919680E-10
   45.60000      1.2483410E-09
   45.66000      1.8858706E-09
   45.72000      2.4779783E-09
   45.78000      3.0258902E-09
   45.84000      3.5334919E-09
   45.90000      4.0044590E-09
   45.96000      4.4397210E-09
   46.02000      4.8359716E-09
   46.08000      5.1857536E-09
   46.14000      5.4793752E-09
   46.20000      5.7083804E-09
   46.26000      5.8695919E-09
   46.32000      5.9681202E-09
   46.38000      6.0176957E-09
   46.44000      6.0375225E-09
   46.50000      6.0463354E-09
   46.56000      6.0558270E-09
   46.62000      6.0662200E-09
   46.68000      6.0660517E-09
   46.74000      6.0364171E-09
   46.80000      5.9579435E-09
   46.86000      5.8175798E-09
   46.92000      5.6125291E-09
   46.98000      5.3500790E-09
   47.04000      5.0438937E-09
   47.10000      4.7086264E-09
   47.16000      4.3549613E-09
   47.22000      3.9865964E-09
   47.28000      3.5997370E-09
   47.34000      3.1849052E-09
   47.40000      2.7304949E-09
   47.46000      2.2272542E-09
   47.52000      1.6726528E-09
   47.58000      1.0737963E-09
   47.64000      4.4758316E-10
   47.70000     -1.8256532E-10
   47.76000     -7.9280488E-10
   47.82000     -1.3658237E-09
   47.88000     -1.8959485E-09
   47.94000     -2.3901741E-09
   48.00000     -2.8645240E-09
   48.06000     -3.3371723E-09
   48.12000     -3.8211581E-09
   48.18000     -4.3195874E-09
   48.24000     -4.8249467E-09
   48.30000     -5.3222782E-09
   48.36000     -5.7944689E-09
   48.42000     -6.2274057E-09
   48.48000     -6.6133263E-09
   48.54000     -6.9517432E-09
   48.60000     -7.2482558E-09
   48.66000     -7.5120123E-09
   48.72000     -7.7525737E-09
   48.78000     -7.9768725E-09
   48.84000     -8.1869365E-09
   48.90000     -8.3791063E-09
   48.96000     -8.5452809E-09
   49.02000     -8.6760590E-09
   49.08000     -8.7647969E-09
   49.14000     -8.8109111E-09
   49.20000     -8.8208498E-09
   49.26000     -8.8060919E-09
   49.32000     -8.7789314E-09
   49.38000     -8.7478842E-09
   49.44000     -8.7147791E-09
   49.50000     -8.6746539E-09
   49.56000     -8.6182235E-09
   49.62000     -8.5354861E-09
   49.68000     -8.4187493E-09
   49.74000     -8.2640206E-09
   49.80000     -8.0707352E-09
   49.86000     -7.8406535E-09
   49.92000     -7.5768742E-09
   49.98000     -7.2834148E-09
   50.04000     -6.9651689E-09
   50.10000     -6.6277113E-09
   50.16000     -6.2766095E-09
   50.22000     -5.9163785E-09
   50.28000     -5.5495617E-09
   50.34000     -5.1763762E-09
   50.40000     -4.7949826E-09
   50.46000     -4.4020148E-09
   50.52000     -3.9929189E-09
   50.58000     -3.5619330E-09
   50.64000     -3.1019665E-09
   50.70000     -2.6048712E-09
   50.76000     -2.0623760E-09
   50.82000     -1.4674798E-09
   50.88000     -8.1562807E-10
   50.94000     -1.0496908E-10
   51.00000      6.6462397E-10
   51.06000      1.4934487E-09
   51.12000      2.3840301E-09
   51.18000      3.3425711E-09
   51.24000      4.3794133E-09
   51.30000      5.5086193E-09
   51.36000      6.7470864E-09
   51.42000      8.1136022E-09
   51.48000      9.6280814E-09
   51.54000      1.1311157E-08
   51.60000      1.3184320E-08
   51.66000      1.5270947E-08
   51.72000      1.7598394E-08
   51.78000      2.0200877E-08
   51.84000      2.3122261E-08
   51.90000      2.6417407E-08
   51.96000      3.0151192E-08
   52.02000      3.4395171E-08
   52.08000      3.9223195E-08
   52.14000      4.4708020E-08
   52.20000      5.0920661E-08
   52.26000      5.7933036E-08
   52.32000      6.5822661E-08
   52.38000      7.4677175E-08
   52.44000      8.4596458E-08
   52.50000      9.5691526E-08
   52.56000      1.0808077E-07
   52.62000      1.2188545E-07
   52.68000      1.3722632E-07
   52.74000      1.5422204E-07
   52.80000      1.7298915E-07
   52.86000      1.9364248E-07
   52.92000      2.1629477E-07
   52.98000      2.4105537E-07
   53.04000      2.6802812E-07
   53.10000      2.9730850E-07
   53.16000      3.2898026E-07
   53.22000      3.6311002E-07
   53.28000      3.9974029E-07
   53.34000      4.3888076E-07
   53.40000      4.8049992E-07
   53.46000      5.2451838E-07
   53.52000      5.7080518E-07
   53.58000      6.1917689E-07
   53.64000      6.6939725E-07
   53.70000      7.2117518E-07
   53.76000      7.7415922E-07
   53.82000      8.2792849E-07
   53.88000      8.8198254E-07
   53.94000      9.3573061E-07
   54.00000      9.8848375E-07
   54.06000      1.0394496E-06
   54.12000      1.0877301E-06
   54.18000      1.1323228E-06
   54.24000      1.1721236E-06
   54.30000      1.2059306E-06
   54.36000      1.2324501E-06
   54.42000      1.2503006E-06
   54.48000      1.2580150E-06
   54.54000      1.2540445E-06
   54.60000      1.2367622E-06
   54.66000      1.2044737E-06
   54.72000      1.1554329E-06
   54.78000      1.0878634E-06
   54.84000      9.9998306E-07
   54.90000      8.9002754E-07
   54.96000      7.5627037E-07
   55.02000      5.9704320E-07
   55.08000      4.1075722E-07
   55.14000      1.9592937E-07
   55.20000     -4.8785818E-08
   55.26000     -3.2456094E-07
   55.32000     -6.3236126E-07
   55.38000     -9.7291309E-07
   55.44000     -1.3466765E-06
   55.50000     -1.7538205E-06
   55.56000     -2.1941976E-06