  -2.400000      0.0000000E+00
  -2.340000      0.0000000E+00
  -2.280000      0.0000000E+00
  -2.220000      0.0000000E+00
  -2.160000      0.0000000E+00
  -2.100000      0.0000000E+00
  -2.040000      0.0000000E+00
  -1.980000      0.0000000E+00
  -1.920000      0.0000000E+00
  -1.860000      0.0000000E+00
  -1.800000      0.0000000E+00
  -1.740000      0.0000000E+00
  -1.680000     -6.0675190E-35
  -1.620000     -1.2056494E-33
  -1.560000     -1.1125184E-32
  -1.500000     -6.2184168E-32
  -1.440000     -2.2270154E-31
  -1.380000     -4.3850952E-31
  -1.320000      2.6377726E-31
  -1.260000      5.6877989E-30
  -1.200000      2.4047691E-29
  -1.140000      6.1718116E-29
  -1.080000      9.3268279E-29
  -1.020000     -4.1613877E-30
 -0.9600000     -5.1664116E-28
 -0.9000000     -1.8090171E-27
 -0.8400000     -3.8094317E-27
 -0.7800000     -4.8459614E-27
 -0.7200000     -2.2255526E-28
 -0.6600000      1.7746728E-26
 -0.6000000      5.5030789E-26
 -0.5400000      1.0347476E-25
 -0.4800000      1.2229887E-25
 -0.4200000      2.5761379E-26
 -0.3600000     -2.9736114E-25
 -0.3000000     -9.0186986E-25
 -0.2400000     -1.6321815E-24
 -0.1800000     -1.9473678E-24
 -0.1200000     -8.6888443E-25
 -5.9999999E-02  2.7282823E-24
  0.0000000E+00  9.2888222E-24
  5.9999999E-02  1.7258333E-23
  0.1200000      2.1799557E-23
  0.1800000      1.4676218E-23
  0.2400000     -1.3205323E-23
  0.3000000     -6.5576164E-23
  0.3600000     -1.3171696E-22
  0.4200000     -1.7849214E-22
  0.4800000     -1.5088077E-22
  0.5400000      1.0550609E-23
  0.6000000      3.3125673E-22
  0.6600000      7.5139998E-22
  0.7200000      1.0869374E-21
  0.7800000      1.0426549E-21
  0.8400000      3.1400249E-22
  0.9000000     -1.2179330E-21
  0.9600000     -3.2573223E-21
   1.020000     -4.9615077E-21
   1.080000     -5.0712028E-21
   1.140000     -2.4091098E-21
   1.200000      3.3264123E-21
   1.260000      1.0802239E-20
   1.320000      1.6855001E-20
   1.380000      1.7345732E-20
   1.440000      9.1353964E-21
   1.500000     -7.4752377E-21
   1.560000     -2.7202403E-20
   1.620000     -4.0647526E-20
   1.680000     -3.8254108E-20
   1.740000     -1.6238932E-20
   1.800000      1.8593847E-20
   1.860000      4.9061930E-20
   1.920000      5.5157896E-20
   1.980000      2.7140271E-20
   2.040000     -2.2645165E-20
   2.100000     -5.8685175E-20
   2.160000     -3.8543602E-20
   2.220000      5.6296465E-20
   2.280000      1.9011973E-19
   2.340000      2.6649435E-19
   2.400000      1.6471177E-19
   2.460000     -1.8201745E-19
   2.520000     -6.9848946E-19
   2.580000     -1.1268370E-18
   2.640000     -1.0903288E-18
   2.700000     -2.7939349E-19
   2.760000      1.2950550E-18
   2.820000      3.1111872E-18
   2.880000      4.1686760E-18
   2.940000      3.3454865E-18
   3.000000      2.6995080E-20
   3.060000     -5.2426538E-18
   3.120000     -1.0476013E-17
   3.180000     -1.2678114E-17
   3.240000     -9.0865550E-18
   3.300000      1.1440814E-18
   3.360000      1.5597243E-17
   3.420000      2.8510755E-17
   3.480000      3.2526651E-17
   3.540000      2.2021912E-17
   3.600000     -3.2289115E-18
   3.660000     -3.5957197E-17
   3.720000     -6.2570026E-17
   3.780000     -6.8065979E-17
   3.840000     -4.3291315E-17
   3.900000      8.5726335E-18
   3.960000      6.9929346E-17
   4.020000      1.1346967E-16
   4.080000      1.1317305E-16
   4.140000      5.7760672E-17
   4.200000     -3.9504290E-17
   4.260000     -1.4053894E-16
   4.320000     -1.9439025E-16
   4.380000     -1.5890873E-16
   4.440000     -2.4384403E-17
   4.500000      1.7155735E-16
   4.560000      3.4733645E-16
   4.620000      4.0291327E-16
   4.680000      2.6232245E-16
   4.740000     -8.1062965E-17
   4.800000     -5.3659876E-16
   4.860000     -9.2453487E-16
   4.920000     -1.0288709E-15
   4.980000     -6.8582887E-16
   5.040000      1.2089749E-16
   5.100000      1.2002210E-15
   5.160000      2.1690655E-15
   5.220000      2.5609857E-15
   5.280000      2.0076430E-15
   5.340000      4.3199644E-16
   5.400000     -1.8316914E-15
   5.460000     -4.0656362E-15
   5.520000     -5.3699390E-15
   5.580000     -4.9902662E-15
   5.640000     -2.6569334E-15
   5.700000      1.2074659E-15
   5.760000      5.5222305E-15
   5.820000      8.8473989E-15
   5.880000      9.8609517E-15
   5.940000      7.8452954E-15
   6.000000      2.9977942E-15
   6.060000     -3.5581321E-15
   6.120000     -1.0070498E-14
   6.180000     -1.4657986E-14
   6.240000     -1.5837902E-14
   6.300000     -1.2919434E-14
   6.360000     -6.1717747E-15
   6.420000      3.2303041E-15
   6.480000      1.3416727E-14
   6.540000      2.2114292E-14
   6.600000      2.6986951E-14
   6.660000      2.6038001E-14
   6.720000      1.8096473E-14
   6.780000      3.3552786E-15
   6.840000     -1.6172287E-14
   6.900000     -3.6504765E-14
   6.960000     -5.2099306E-14
   7.020000     -5.6955430E-14
   7.080000     -4.6333356E-14
   7.140000     -1.8715928E-14
   7.200000      2.2604785E-14
   7.260000      6.9024003E-14
   7.320000      1.0775323E-13
   7.380000      1.2470709E-13
   7.440000      1.0866740E-13
   7.500000      5.5636248E-14
   7.560000     -2.8079349E-14
   7.620000     -1.2542608E-13
   7.680000     -2.1155400E-13
   7.740000     -2.5984518E-13
   7.800000     -2.4953889E-13
   7.860000     -1.7264213E-13
   7.920000     -3.7728880E-14
   7.980000      1.3093855E-13
   8.040000      2.9899176E-13
   8.100000      4.3055717E-13
   8.160000      4.9701047E-13
   8.220000      4.8292403E-13
   8.280000      3.8737438E-13
   8.340000      2.2072402E-13
   8.400000     -1.0414945E-15
   8.460000     -2.6125131E-13
   8.520000     -5.4393583E-13
   8.580000     -8.3058322E-13
   8.640000     -1.0936601E-12
   8.700000     -1.2904443E-12
   8.760000     -1.3615531E-12
   8.820000     -1.2375581E-12
   8.880000     -8.5444087E-13
   8.940000     -1.7524567E-13
   9.000000      7.8767304E-13
   9.060000      1.9567781E-12
   9.120000      3.1859860E-12
   9.180000      4.2730203E-12
   9.240000      4.9865567E-12
   9.300000      5.1032021E-12
   9.360000      4.4468201E-12
   9.420000      2.9224915E-12
   9.480000      5.3956427E-13
   9.540000     -2.5781686E-12
   9.600000     -6.1935847E-12
   9.660000     -9.9651364E-12
   9.720000     -1.3460569E-11
   9.780000     -1.6175178E-11
   9.840000     -1.7557861E-11
   9.900000     -1.7050614E-11
   9.960000     -1.4146873E-11
   10.02000     -8.4704709E-12
   10.08000      1.2898788E-13
   10.14000      1.1475303E-11
   10.20000      2.4975699E-11
   10.26000      3.9560445E-11
   10.32000      5.3669909E-11
   10.38000      6.5302812E-11
   10.44000      7.2133043E-11
   10.50000      7.1693977E-11
   10.56000      6.1619723E-11
   10.62000      3.9921660E-11
   10.68000      5.2685087E-12
   10.74000     -4.2770183E-11
   10.80000     -1.0355997E-10
   10.86000     -1.7535516E-10
   10.92000     -2.5539468E-10
   10.98000     -3.4014463E-10
   11.04000     -4.2566717E-10
   11.10000     -5.0807381E-10
   11.16000     -5.8400679E-10
   11.22000     -6.5108741E-10
   11.28000     -7.0828032E-10
   11.34000     -7.5613543E-10
   11.40000     -7.9689078E-10
   11.46000     -8.3443297E-10
   11.52000     -8.7411928E-10
   11.58000     -9.2246710E-10
   11.64000     -9.8671082E-10
   11.70000     -1.0742283E-09
   11.76000     -1.1918484E-09
   11.82000     -1.3450762E-09
   11.88000     -1.5373061E-09
   11.94000     -1.7691257E-09
   12.00000     -2.0378332E-09
   12.06000     -2.3372779E-09
   12.12000     -2.6581033E-09
   12.18000     -2.9883926E-09
   12.24000     -3.3146503E-09
   12.30000     -3.6229768E-09
   12.36000     -3.9002606E-09
   12.42000     -4.1351997E-09
   12.48000     -4.3190176E-09
   12.54000     -4.4457962E-09
   12.60000     -4.5124322E-09
   12.66000     -4.5183013E-09
   12.72000     -4.4647579E-09
   12.78000     -4.3546167E-09
   12.84000     -4.1917403E-09
   12.90000     -3.9808059E-09
   12.96000     -3.7272621E-09
   13.02000     -3.4374101E-09
   13.08000     -3.1185186E-09
   13.14000     -2.7788407E-09
   13.20000     -2.4274567E-09
   13.26000     -2.0739002E-09
   13.32000     -1.7276124E-09
   13.38000     -1.3973290E-09
   13.44000     -1.0905430E-09
   13.50000     -8.1317830E-10
   13.56000     -5.6955146E-10
   13.62000     -3.6260667E-10
   13.68000     -1.9431101E-10
   13.74000     -6.6027961E-11
   13.80000      2.1326824E-11
   13.86000      6.7481347E-11
   13.92000      7.3365022E-11
   13.98000      4.1886120E-11
   14.04000     -2.1342140E-11
   14.10000     -1.0765031E-10
   14.16000     -2.0560205E-10
   14.22000     -3.0202491E-10
   14.28000     -3.8365161E-10
   14.34000     -4.3901935E-10
   14.40000     -4.6014148E-10
   14.46000     -4.4347953E-10
   14.52000     -3.8992073E-10
   14.58000     -3.0375247E-10
   14.64000     -1.9093922E-10
   14.70000     -5.7236590E-11
   14.76000      9.3263619E-11
   14.82000      2.5869837E-10
   14.88000      4.3894782E-10
   14.94000      6.3429761E-10
   15.00000      8.4374768E-10
   15.06000      1.0636030E-09
   15.12000      1.2869016E-09
   15.18000      1.5039608E-09
   15.24000      1.7039475E-09
   15.30000      1.8770216E-09
   15.36000      2.0163906E-09
   15.42000      2.1196129E-09
   15.48000      2.1887183E-09
   15.54000      2.2290865E-09
   15.60000      2.2474218E-09
   15.66000      2.2494804E-09
   15.72000      2.2382871E-09
   15.78000      2.2134432E-09
   15.84000      2.1717688E-09
   15.90000      2.1090831E-09
   15.96000      2.0225290E-09
   16.02000      1.9126352E-09
   16.08000      1.7843690E-09
   16.14000      1.6467476E-09
   16.20000      1.5110436E-09
   16.26000      1.3881105E-09
   16.32000      1.2856723E-09
   16.38000      1.2064678E-09
   16.44000      1.1478779E-09
   16.50000      1.1031911E-09
   16.56000      1.0641122E-09
   16.62000      1.0237073E-09
   16.68000      9.7882202E-10
   16.74000      9.3118535E-10
   16.80000      8.8684182E-10
   16.86000      8.5410817E-10
   16.92000      8.4072876E-10
   16.98000      8.5116081E-10
   17.04000      8.8486451E-10
   17.10000      9.3614028E-10
   17.16000      9.9555109E-10
   17.22000      1.0524664E-09
   17.28000      1.0979208E-09
   17.34000      1.1268971E-09
   17.40000      1.1393444E-09
   17.46000      1.1396412E-09
   17.52000      1.1347017E-09
   17.58000      1.1313279E-09
   17.64000      1.1336325E-09
   17.70000      1.1413185E-09
   17.76000      1.1493372E-09
   17.82000      1.1490239E-09
   17.88000      1.1303565E-09
   17.94000      1.0846388E-09
   18.00000      1.0067700E-09
   18.06000      8.9637409E-10
   18.12000      7.5741080E-10
   18.18000      5.9637140E-10
   18.24000      4.1963258E-10
   18.30000      2.3085485E-10
   18.36000      2.9342969E-11
   18.42000     -1.8998512E-10
   18.48000     -4.3488044E-10
   18.54000     -7.1273681E-10
   18.60000     -1.0271608E-09
   18.66000     -1.3752292E-09
   18.72000     -1.7463677E-09
   18.78000     -2.1233237E-09
   18.84000     -2.4850915E-09
   18.90000     -2.8110563E-09
   18.96000     -3.0852489E-09
   19.02000     -3.2995160E-09
   19.08000     -3.4546823E-09
   19.14000     -3.5593004E-09
   19.20000     -3.6262513E-09
   19.26000     -3.6680912E-09
   19.32000     -3.6924537E-09
   19.38000     -3.6989083E-09
   19.44000     -3.6783190E-09
   19.50000     -3.6150671E-09
   19.56000     -3.4916356E-09
   19.62000     -3.2942662E-09
   19.68000     -3.0179939E-09
   19.74000     -2.6694846E-09
   19.80000     -2.2667515E-09
   19.86000     -1.8358137E-09
   19.92000     -1.4053595E-09
   19.98000     -1.0011171E-09
   20.04000     -6.4171735E-10
   20.10000     -3.3727660E-10
   20.16000     -9.0955292E-11
   20.22000      9.7327826E-11
   20.28000      2.2663962E-10
   20.34000      2.9207176E-10
   20.40000      2.8446837E-10
   20.46000      1.9325568E-10
   20.52000      1.1596927E-11
   20.58000     -2.5788377E-10
   20.64000     -5.9896610E-10
   20.70000     -9.8108754E-10
   20.76000     -1.3627571E-09
   20.82000     -1.6985454E-09
   20.88000     -1.9478532E-09
   20.94000     -2.0830331E-09
   21.00000     -2.0946047E-09
   21.06000     -1.9922006E-09
   21.12000     -1.8011747E-09
   21.18000     -1.5560540E-09
   21.24000     -1.2928216E-09
   21.30000     -1.0421830E-09
   21.36000     -8.2549112E-10
   21.42000     -6.5409966E-10
   21.48000     -5.3185351E-10
   21.54000     -4.5950690E-10
   21.60000     -4.3932336E-10
   21.66000     -4.7810400E-10
   21.72000     -5.8744526E-10
   21.78000     -7.8100099E-10
   21.84000     -1.0696555E-09
   21.90000     -1.4563980E-09
   21.96000     -1.9329824E-09
   22.02000     -2.4799787E-09
   22.08000     -3.0706784E-09
   22.14000     -3.6779175E-09
   22.20000     -4.2817212E-09
   22.26000     -4.8752615E-09
   22.32000     -5.4670761E-09
   22.38000     -6.0786762E-09
   22.44000     -6.7381696E-09
   22.50000     -7.4717681E-09
   22.56000     -8.2956815E-09
   22.62000     -9.2107371E-09
   22.68000     -1.0201201E-08
   22.74000     -1.1237993E-08
   22.80000     -1.2285196E-08
   22.86000     -1.3307803E-08
   22.92000     -1.4278291E-08
   22.98000     -1.5180076E-08
   23.04000     -1.6006945E-08
   23.10000     -1.6758953E-08
   23.16000     -1.7436449E-08
   23.22000     -1.8034559E-08
   23.28000     -1.8540169E-08
   23.34000     -1.8932507E-08
   23.40000     -1.9187118E-08
   23.46000     -1.9281829E-08
   23.52000     -1.9202815E-08
   23.58000     -1.8948876E-08
   23.64000     -1.8532768E-08
   23.70000     -1.7979314E-08
   23.76000     -1.7320827E-08
   23.82000     -1.6591041E-08
   23.88000     -1.5819056E-08
   23.94000     -1.5024799E-08
   24.00000     -1.4217219E-08
   24.06000     -1.3395667E-08
   24.12000     -1.2554046E-08
   24.18000     -1.1686232E-08
   24.24000     -1.0790817E-08
   24.30000     -9.8732906E-09
   24.36000     -8.9447489E-09
   24.42000     -8.0176088E-09
   24.48000     -7.1000503E-09
   24.54000     -6.1915300E-09
   24.60000     -5.2812892E-09
   24.66000     -4.3506372E-09
   24.72000     -3.3783256E-09
   24.78000     -2.3472297E-09
   24.84000     -1.2501459E-09
   24.90000     -9.2928595E-11
   24.96000      1.1058919E-09
   25.02000      2.3187581E-09
   25.08000      3.5148169E-09
   25.14000      4.6660076E-09
   25.20000      5.7517076E-09
   25.26000      6.7606023E-09
   25.32000      7.6893043E-09
   25.38000      8.5383469E-09
   25.44000      9.3071542E-09
   25.50000      9.9899689E-09
   25.56000      1.0574467E-08
   25.62000      1.1043684E-08
   25.68000      1.1380630E-08
   25.74000      1.1573855E-08
   25.80000      1.1621998E-08
   25.86000      1.1535776E-08
   25.92000      1.1336992E-08
   25.98000      1.1055137E-08
   26.04000      1.0722879E-08
   26.10000      1.0371755E-08
   26.16000      1.0029051E-08
   26.22000      9.7162642E-09
   26.28000      9.4490789E-09
   26.34000      9.2384145E-09
   26.40000      9.0918872E-09
   26.46000      9.0149674E-09
   26.52000      9.0112726E-09
   26.58000      9.0818375E-09
   26.64000      9.2238048E-09
   26.70000      9.4294865E-09
   26.76000      9.6867732E-09
   26.82000      9.9813926E-09
   26.88000      1.0300470E-08
   26.94000      1.0636013E-08
   27.00000      1.0986613E-08
   27.06000      1.1356292E-08
   27.12000      1.1750704E-08
   27.18000      1.2172173E-08
   27.24000      1.2615683E-08
   27.30000      1.3067490E-08
   27.36000      1.3506889E-08
   27.42000      1.3910228E-08
   27.48000      1.4255458E-08
   27.54000      1.4525456E-08
   27.60000      1.4709078E-08
   27.66000      1.4799915E-08
   27.72000      1.4793485E-08
   27.78000      1.4684068E-08
   27.84000      1.4462325E-08
   27.90000      1.4114602E-08
   27.96000      1.3624334E-08
   28.02000      1.2975381E-08
   28.08000      1.2156422E-08
   28.14000      1.1164953E-08
   28.20000      1.0009341E-08
   28.26000      8.7078220E-09
   28.32000      7.2845121E-09
   28.38000      5.7637082E-09
   28.44000      4.1645367E-09
   28.50000      2.4979527E-09
   28.56000      7.6704681E-10
   28.62000     -1.0297632E-09
   28.68000     -2.8941911E-09
   28.74000     -4.8240665E-09
   28.80000     -6.8112218E-09
   28.86000     -8.8417194E-09
   28.92000     -1.0897986E-08
   28.98000     -1.2961911E-08
   29.04000     -1.5017912E-08
   29.10000     -1.7055052E-08
   29.16000     -1.9067539E-08
   29.22000     -2.1053228E-08
   29.28000     -2.3010260E-08
   29.34000     -2.4932655E-08
   29.40000     -2.6806379E-08
   29.46000     -2.8607582E-08
   29.52000     -3.0304040E-08
   29.58000     -3.1859674E-08
   29.64000     -3.3240660E-08
   29.70000     -3.4420893E-08
   29.76000     -3.5385032E-08
   29.82000     -3.6128462E-08
   29.88000     -3.6655031E-08
   29.94000     -3.6974061E-08
   30.00000     -3.7098186E-08
   30.06000     -3.7042405E-08
   30.12000     -3.6823931E-08
   30.18000     -3.6461977E-08
   30.24000     -3.5976900E-08
   30.30000     -3.5388741E-08
   30.36000     -3.4715828E-08
   30.42000     -3.3973802E-08
   30.48000     -3.3175109E-08
   30.54000     -3.2328551E-08
   30.60000     -3.1438468E-08
   30.66000     -3.0503898E-08
   30.72000     -2.9518281E-08
   30.78000     -2.8470817E-08
   30.84000     -2.7349557E-08
   30.90000     -2.6145528E-08
   30.96000     -2.4856330E-08
   31.02000     -2.3487726E-08
   31.08000     -2.2052619E-08
   31.14000     -2.0568063E-08
   31.20000     -1.9051766E-08
   31.26000     -1.7519621E-08
   31.32000     -1.5984904E-08
   31.38000     -1.4458895E-08
   31.44000     -1.2951979E-08
   31.50000     -1.1474330E-08
   31.56000     -1.0035810E-08
   31.62000     -8.6452578E-09
   31.68000     -7.3095912E-09
   31.74000     -6.0330900E-09
   31.80000     -4.8170397E-09
   31.86000     -3.6598886E-09
   31.92000     -2.5581661E-09
   31.98000     -1.5083743E-09
   32.04000     -5.0974097E-10
   32.10000      4.3293388E-10
   32.16000      1.3076087E-09
   32.22000      2.0957325E-09
   32.28000      2.7757532E-09
   32.34000      3.3284515E-09
   32.40000      3.7420445E-09
   32.46000      4.0148009E-09
   32.52000      4.1538506E-09
   32.58000      4.1705337E-09
   32.64000      4.0741903E-09
   32.70000      3.8669787E-09
   32.76000      3.5418446E-09
   32.82000      3.0844185E-09
   32.88000      2.4781270E-09
   32.94000      1.7107038E-09
   33.00000      7.7994217E-10
   33.06000     -3.0316114E-10
   33.12000     -1.5149719E-09
   33.18000     -2.8236169E-09
   33.24000     -4.1962593E-09
   33.30000     -5.6072857E-09
   33.36000     -7.0447839E-09
   33.42000     -8.5127896E-09
   33.48000     -1.0027869E-08
   33.54000     -1.1610508E-08
   33.60000     -1.3273835E-08
   33.66000     -1.5013566E-08
   33.72000     -1.6802904E-08
   33.78000     -1.8594553E-08
   33.84000     -2.0329342E-08
   33.90000     -2.1948589E-08
   33.96000     -2.3405985E-08
   34.02000     -2.4674989E-08
   34.08000     -2.5749486E-08
   34.14000     -2.6637718E-08
   34.20000     -2.7351831E-08
   34.26000     -2.7896702E-08
   34.32000     -2.8261962E-08
   34.38000     -2.8420120E-08
   34.44000     -2.8331762E-08
   34.50000     -2.7956457E-08
   34.56000     -2.7265848E-08
   34.62000     -2.6254394E-08
   34.68000     -2.4943636E-08
   34.74000     -2.3377877E-08
   34.80000     -2.1612143E-08
   34.86000     -1.9696204E-08
   34.92000     -1.7660073E-08
   34.98000     -1.5506110E-08
   35.04000     -1.3210683E-08
   35.10000     -1.0735121E-08
   35.16000     -8.0425187E-09
   35.22000     -5.1150462E-09
   35.28000     -1.9662421E-09
   35.34000      1.3556766E-09
   35.40000      4.7746975E-09
   35.46000      8.2021900E-09
   35.52000      1.1555896E-08
   35.58000      1.4776901E-08
   35.64000      1.7839170E-08
   35.70000      2.0748420E-08
   35.76000      2.3530550E-08
   35.82000      2.6213486E-08
   35.88000      2.8808845E-08
   35.94000      3.1300054E-08
   36.00000      3.3641520E-08
   36.06000      3.5769233E-08
   36.12000      3.7619053E-08
   36.18000      3.9145956E-08
   36.24000      4.0337039E-08
   36.30000      4.1213568E-08
   36.36000      4.1821213E-08
   36.42000      4.2211955E-08
   36.48000      4.2423896E-08
   36.54000      4.2466041E-08
   36.60000      4.2313175E-08
   36.66000      4.1912802E-08
   36.72000      4.1201979E-08
   36.78000      4.0128761E-08
   36.84000      3.8671178E-08
   36.90000      3.6847361E-08
   36.96000      3.4713114E-08
   37.02000      3.2347348E-08
   37.08000      2.9830034E-08
   37.14000      2.7220020E-08
   37.20000      2.4540409E-08
   37.26000      2.1776561E-08
   37.32000      1.8887469E-08
   37.38000      1.5826455E-08
   37.44000      1.2563860E-08
   37.50000      9.1038794E-09
   37.56000      5.4898472E-09
   37.62000      1.7964721E-09
   37.68000     -1.8880153E-09
   37.74000     -5.4835483E-09
   37.80000     -8.9364569E-09
   37.86000     -1.2228377E-08
   37.92000     -1.5373226E-08
   37.98000     -1.8403657E-08
   38.04000     -2.1351829E-08
   38.10000     -2.4231163E-08
   38.16000     -2.7025269E-08
   38.22000     -2.9687751E-08
   38.28000     -3.2152801E-08
   38.34000     -3.4352784E-08
   38.40000     -3.6236649E-08
   38.46000     -3.7782964E-08
   38.52000     -3.9003456E-08
   38.58000     -3.9936356E-08
   38.64000     -4.0632436E-08
   38.70000     -4.1138723E-08
   38.76000     -4.1485308E-08
   38.82000     -4.1679112E-08
   38.88000     -4.1705949E-08
   38.94000     -4.1539579E-08
   39.00000     -4.1154351E-08
   39.06000     -4.0537273E-08
   39.12000     -3.9695678E-08
   39.18000     -3.8658168E-08
   39.24000     -3.7468649E-08
   39.30000     -3.6175518E-08
   39.36000     -3.4819710E-08
   39.42000     -3.3425820E-08
   39.48000     -3.1999370E-08
   39.54000     -3.0531027E-08
   39.60000     -2.9005914E-08
   39.66000     -2.7414217E-08
   39.72000     -2.5758990E-08
   39.78000     -2.4058359E-08
   39.84000     -2.2341894E-08
   39.90000     -2.0643192E-08
   39.96000     -1.8991981E-08
   40.02000     -1.7408738E-08
   40.08000     -1.5903248E-08
   40.14000     -1.4476741E-08
   40.20000     -1.3125880E-08
   40.26000     -1.1846680E-08
   40.32000     -1.0636975E-08
   40.38000     -9.4970609E-09
   40.44000     -8.4289811E-09
   40.50000     -7.4352431E-09
   40.56000     -6.5177646E-09
   40.62000     -5.6775100E-09
   40.68000     -4.9149653E-09
   40.74000     -4.2312385E-09
   40.80000     -3.6292946E-09
   40.86000     -3.1146630E-09
   40.92000     -2.6949967E-09
   40.98000     -2.3782571E-09
   41.04000     -2.1699509E-09
   41.10000     -2.0704853E-09
   41.16000     -2.0739688E-09
   41.22000     -2.1694055E-09
   41.28000     -2.3442615E-09
   41.34000     -2.5892175E-09
   41.40000     -2.9021323E-09
   41.46000     -3.2892691E-09
   41.52000     -3.7627683E-09
   41.58000     -4.3348671E-09
   41.64000     -5.0108269E-09
   41.70000     -5.7833134E-09
   41.76000     -6.6307240E-09
   41.82000     -7.5206508E-09
   41.88000     -8.4178158E-09
   41.94000     -9.2940153E-09
   42.00000     -1.0136585E-08
   42.06000     -1.0952158E-08
   42.12000     -1.1763928E-08
   42.18000     -1.2602953E-08
   42.24000     -1.3496286E-08
   42.30000     -1.4456051E-08
   42.36000     -1.5473480E-08
   42.42000     -1.6520168E-08
   42.48000     -1.7556298E-08
   42.54000     -1.8542924E-08
   42.60000     -1.9454081E-08
   42.66000     -2.0284427E-08
   42.72000     -2.1049805E-08
   42.78000     -2.1780515E-08
   42.84000     -2.2509505E-08
   42.90000     -2.3259316E-08
   42.96000     -2.4031998E-08
   43.02000     -2.4805292E-08
   43.08000     -2.5536526E-08
   43.14000     -2.6173312E-08
   43.20000     -2.6668010E-08
   43.26000     -2.6991497E-08
   43.32000     -2.7141857E-08
   43.38000     -2.7144912E-08
   43.44000     -2.7046157E-08
   43.50000     -2.6896382E-08
   43.56000     -2.6735588E-08
   43.62000     -2.6580366E-08
   43.68000     -2.6418761E-08
   43.74000     -2.6214201E-08
   43.80000     -2.5917027E-08
   43.86000     -2.5479773E-08
   43.92000     -2.4871360E-08
   43.98000     -2.4085887E-08
   44.04000     -2.3143492E-08
   44.10000     -2.2083277E-08
   44.16000     -2.0950553E-08
   44.22000     -1.9782373E-08
   44.28000     -1.8595831E-08
   44.34000     -1.7382837E-08
   44.40000     -1.6113194E-08
   44.46000     -1.4745195E-08
   44.52000     -1.3240493E-08
   44.58000     -1.1578500E-08
   44.64000     -9.7654809E-09
   44.70000     -7.8352738E-09
   44.76000     -5.8411906E-09
   44.82000     -3.8416452E-09
   44.88000     -1.8839981E-09
   44.94000      8.3463479E-12
   45.00000      1.8417022E-09
   45.06000      3.6490815E-09
   45.12000      5.4793947E-09
   45.18000      7.3821238E-09
   45.24000      9.3919867E-09
   45.30000      1.1518080E-08
   45.36000      1.3740733E-08
   45.42000      1.6017056E-08
   45.48000      1.8293548E-08
   45.54000      2.0521890E-08
   45.60000      2.2672920E-08
   45.66000      2.4744248E-08
   45.72000      2.6758977E-08
   45.78000      2.8755876E-08
   45.84000      3.0774252E-08
   45.90000      3.2838489E-08
   45.96000      3.4947394E-08
   46.02000      3.7071871E-08
   46.08000      3.9161758E-08
   46.14000      4.1159730E-08
   46.20000      4.3017835E-08
   46.26000      4.4711470E-08
   46.32000      4.6246200E-08
   46.38000      4.7655046E-08
   46.44000      4.8986962E-08
   46.50000      5.0290065E-08
   46.56000      5.1595073E-08
   46.62000      5.2904504E-08
   46.68000      5.4191275E-08
   46.74000      5.5407146E-08
   46.80000      5.6497953E-08
   46.86000      5.7420372E-08
   46.92000      5.8154434E-08
   46.98000      5.8707840E-08
   47.04000      5.9111141E-08
   47.10000      5.9405977E-08
   47.16000      5.9630771E-08
   47.22000      5.9808620E-08
   47.28000      5.9941200E-08
   47.34000      6.0009924E-08
   47.40000      5.9983556E-08
   47.46000      5.9829254E-08
   47.52000      5.9523469E-08
   47.58000      5.9059158E-08
   47.64000      5.8447302E-08
   47.70000      5.7712462E-08
   47.76000      5.6884144E-08
   47.82000      5.5987069E-08
   47.88000      5.5033610E-08
   47.94000      5.4021001E-08
   48.00000      5.2934027E-08
   48.06000      5.1752124E-08
   48.12000      5.0458347E-08
   48.18000      4.9047081E-08
   48.24000      4.7528012E-08
   48.30000      4.5925045E-08
   48.36000      4.4270667E-08
   48.42000      4.2597449E-08
   48.48000      4.0929539E-08
   48.54000      3.9276742E-08
   48.60000      3.7633303E-08
   48.66000      3.5981806E-08
   48.72000      3.4301035E-08
   48.78000      3.2575247E-08
   48.84000      3.0801708E-08
   48.90000      2.8993846E-08
   48.96000      2.7179150E-08
   49.02000      2.5392442E-08
   49.08000      2.3667026E-08
   49.14000      2.2026581E-08
   49.20000      2.0480289E-08
   49.26000      1.9022311E-08
   49.32000      1.7635365E-08
   49.38000      1.6296937E-08
   49.44000      1.4986233E-08
   49.50000      1.3689982E-08
   49.56000      1.2405732E-08
   49.62000      1.1141995E-08
   49.68000      9.9154063E-09
   49.74000      8.7458449E-09
   49.80000      7.6510416E-09
   49.86000      6.6423129E-09
   49.92000      5.7226801E-09
   49.98000      4.8877449E-09
   50.04000      4.1286845E-09
   50.10000      3.4360508E-09
   50.16000      2.8029350E-09
   50.22000      2.2265820E-09
   50.28000      1.7083225E-09
   50.34000      1.2523387E-09
   50.40000      8.6400598E-10
   50.46000      5.4832944E-10
   50.52000      3.0859787E-10
   50.58000      1.4512318E-10
   50.64000      5.3984369E-11
   50.70000      2.5992155E-11
   50.76000      4.6376847E-11
   50.82000      9.5738195E-11
   50.88000      1.5247709E-10
   50.94000      1.9637426E-10
   51.00000      2.1243052E-10
   51.06000      1.9378722E-10
   51.12000      1.4264953E-10
   51.18000      6.8628284E-11
   51.24000     -1.5334813E-11
   51.30000     -9.8512247E-11
   51.36000     -1.7787691E-10
   51.42000     -2.6182514E-10
   51.48000     -3.7077891E-10
   51.54000     -5.3414573E-10
   51.60000     -7.8424622E-10
   51.66000     -1.1488958E-09
   51.72000     -1.6449558E-09
   51.78000     -2.2750635E-09
   51.84000     -3.0288512E-09
   51.90000     -3.8885215E-09
   51.96000     -4.8371520E-09
   52.02000     -5.8671037E-09
   52.08000     -6.9858235E-09
   52.14000     -8.2171754E-09
   52.20000     -9.5979713E-09
   52.26000     -1.1170952E-08
   52.32000     -1.2976590E-08
   52.38000     -1.5046300E-08
   52.44000     -1.7399067E-08
   52.50000     -2.0042206E-08
   52.56000     -2.2975758E-08
   52.62000     -2.6198874E-08
   52.68000     -2.9716112E-08
   52.74000     -3.3541621E-08
   52.80000     -3.7699870E-08
   52.86000     -4.2222563E-08
   52.92000     -4.7142535E-08
   52.98000     -5.2486406E-08
   53.04000     -5.8268203E-08
   53.10000     -6.4486073E-08
   53.16000     -7.1123004E-08
   53.22000     -7.8151430E-08
   53.28000     -8.5539874E-08
   53.34000     -9.3259473E-08
   53.40000     -1.0128776E-07
   53.46000     -1.0960851E-07
   53.52000     -1.1820722E-07
   53.58000     -1.2706359E-07
   53.64000     -1.3614280E-07
   53.70000     -1.4538811E-07
   53.76000     -1.5471630E-07
   53.82000     -1.6401721E-07
   53.88000     -1.7315665E-07
   53.94000     -1.8198136E-07
   54.00000     -1.9032362E-07
   54.06000     -1.9800378E-07
   54.12000     -2.0482956E-07
   54.18000     -2.1059282E-07
   54.24000     -2.1506520E-07
   54.30000     -2.1799468E-07
   54.36000     -2.1910466E-07
   54.42000     -2.1809566E-07
   54.48000     -2.1464943E-07
   54.54000     -2.0843422E-07
   54.60000     -1.9911057E-07
   54.66000     -1.8633715E-07
   54.72000     -1.6977584E-07
   54.78000     -1.4909583E-07
   54.84000     -1.2397591E-07
   54.90000     -9.4105182E-08
   54.96000     -5.9182518E-08
   55.02000     -1.8916975E-08
   55.08000      2.6969071E-08
   55.14000      7.8732803E-08
   55.20000      1.3660015E-07
   55.26000      2.0075315E-07
   55.32000      2.7131799E-07
   55.38000      3.4835546E-07
   55.44000      4.3185486E-07
   55.50000      5.2172999E-07
   55.56000      6.1781674E-07