  -2.400000      0.0000000E+00
  -2.340000      0.0000000E+00
  -2.280000      0.0000000E+00
  -2.220000      0.0000000E+00
  -2.160000      0.0000000E+00
  -2.100000      0.0000000E+00
  -2.040000      0.0000000E+00
  -1.980000      0.0000000E+00
  -1.920000      0.0000000E+00
  -1.860000      0.0000000E+00
  -1.800000      2.0424059E-31
  -1.740000     -2.1199782E-31
  -1.680000     -2.5424216E-29
  -1.620000     -2.3566517E-28
  -1.560000     -1.1988352E-27
  -1.500000     -4.0134724E-27
  -1.440000     -8.8759455E-27
  -1.380000     -9.6224406E-27
  -1.320000      1.5940243E-26
  -1.260000      1.0990028E-25
  -1.200000      3.0583385E-25
  -1.140000      5.3766979E-25
  -1.080000      4.9871629E-25
  -1.020000     -4.2625976E-25
 -0.9600000     -2.9104692E-24
 -0.9000000     -6.8936543E-24
 -0.8400000     -1.0379617E-23
 -0.7800000     -8.6334618E-24
 -0.7200000      4.7955375E-24
 -0.6600000      3.3988280E-23
 -0.6000000      7.3867982E-23
 -0.5400000      1.0384605E-22
 -0.4800000      8.7573917E-23
 -0.4200000     -1.5306091E-23
 -0.3600000     -2.2313285E-22
 -0.3000000     -4.9707244E-22
 -0.2400000     -7.1172591E-22
 -0.1800000     -6.5591697E-22
 -0.1200000     -9.3020623E-23
 -5.9999999E-02  1.0982295E-21
  0.0000000E+00  2.7166164E-21
  5.9999999E-02  4.0491876E-21
  0.1200000      3.8705506E-21
  0.1800000      8.3944504E-22
  0.2400000     -5.6080386E-21
  0.3000000     -1.4089621E-20
  0.3600000     -2.0505292E-20
  0.4200000     -1.8631754E-20
  0.4800000     -2.7864106E-21
  0.5400000      2.7797117E-20
  0.6000000      6.4813007E-20
  0.6600000      9.0029821E-20
  0.7200000      8.0363847E-20
  0.7800000      1.8850551E-20
  0.8400000     -9.2488518E-20
  0.9000000     -2.2481513E-19
  0.9600000     -3.2589724E-19
   1.020000     -3.3587529E-19
   1.080000     -2.0944353E-19
   1.140000      6.5443021E-20
   1.200000      4.5921366E-19
   1.260000      9.0076401E-19
   1.320000      1.2769668E-18
   1.380000      1.4265594E-18
   1.440000      1.1409006E-18
   1.500000      2.0415265E-19
   1.560000     -1.4942403E-18
   1.620000     -3.7799499E-18
   1.680000     -6.0233803E-18
   1.740000     -7.1196899E-18
   1.800000     -5.7587830E-18
   1.860000     -1.0146839E-18
   1.920000      6.9158263E-18
   1.980000      1.6187941E-17
   2.040000      2.3408376E-17
   2.100000      2.4581397E-17
   2.160000      1.6724237E-17
   2.220000     -4.5444010E-19
   2.280000     -2.3626460E-17
   2.340000     -4.6284143E-17
   2.400000     -6.0594851E-17
   2.460000     -6.0032726E-17
   2.520000     -4.1730617E-17
   2.580000     -7.6002926E-18
   2.640000      3.6131140E-17
   2.700000      8.0566975E-17
   2.760000      1.1610909E-16
   2.820000      1.3399531E-16
   2.880000      1.2721391E-16
   2.940000      9.1198324E-17
   3.000000      2.4879315E-17
   3.060000     -6.7716678E-17
   3.120000     -1.7580676E-16
   3.180000     -2.8107208E-16
   3.240000     -3.5862165E-16
   3.300000     -3.8006318E-16
   3.360000     -3.1857608E-16
   3.420000     -1.5577678E-16
   3.480000      1.0980272E-16
   3.540000      4.5338095E-16
   3.600000      8.1626114E-16
   3.660000      1.1048590E-15
   3.720000      1.2027905E-15
   3.780000      1.0001479E-15
   3.840000      4.3704068E-16
   3.900000     -4.5147655E-16
   3.960000     -1.5097223E-15
   4.020000     -2.4749299E-15
   4.080000     -3.0376628E-15
   4.140000     -2.9358577E-15
   4.200000     -2.0494538E-15
   4.260000     -4.5598568E-16
   4.320000      1.5787706E-15
   4.380000      3.6707308E-15
   4.440000      5.4123377E-15
   4.500000      6.4439336E-15
   4.560000      6.4716697E-15
   4.620000      5.2454302E-15
   4.680000      2.5541857E-15
   4.740000     -1.6924457E-15
   4.800000     -7.2696247E-15
   4.860000     -1.3389820E-14
   4.920000     -1.8552232E-14
   4.980000     -2.0672086E-14
   5.040000     -1.7604336E-14
   5.100000     -8.0073472E-15
   5.160000      7.7174400E-15
   5.220000      2.6822443E-14
   5.280000      4.4350134E-14
   5.340000      5.4201811E-14
   5.400000      5.0975300E-14
   5.460000      3.2037720E-14
   5.520000     -9.1581446E-16
   5.580000     -4.1502812E-14
   5.640000     -7.9821464E-14
   5.700000     -1.0493925E-13
   5.760000     -1.0798870E-13
   5.820000     -8.4889988E-14
   5.880000     -3.7814000E-14
   5.940000      2.5073881E-14
   6.000000      9.1460849E-14
   6.060000      1.4768293E-13
   6.120000      1.8159777E-13
   6.180000      1.8478253E-13
   6.240000      1.5369729E-13
   6.300000      8.9912114E-14
   6.360000     -2.0496008E-16
   6.420000     -1.0593976E-13
   6.480000     -2.1269966E-13
   6.540000     -3.0276058E-13
   6.600000     -3.5681430E-13
   6.660000     -3.5676694E-13
   6.720000     -2.8979128E-13
   6.780000     -1.5295066E-13
   6.840000      4.2925905E-14
   6.900000      2.7170822E-13
   6.960000      4.9405375E-13
   7.020000      6.6352344E-13
   7.080000      7.3591729E-13
   7.140000      6.7987629E-13
   7.200000      4.8613197E-13
   7.260000      1.7285343E-13
   7.320000     -2.1465395E-13
   7.380000     -6.1034142E-13
   7.440000     -9.3893892E-13
   7.500000     -1.1305087E-12
   7.560000     -1.1352912E-12
   7.620000     -9.3600214E-13
   7.680000     -5.5504868E-13
   7.740000     -5.4749597E-14
   7.800000      4.7051355E-13
   7.860000      9.1016149E-13
   7.920000      1.1597739E-12
   7.980000      1.1466508E-12
   8.040000      8.5353599E-13
   8.100000      3.3428607E-13
   8.160000     -2.8464744E-13
   8.220000     -8.2114784E-13
   8.280000     -1.0731817E-12
   8.340000     -8.6860684E-13
   8.400000     -1.1910046E-13
   8.460000      1.1352665E-12
   8.520000      2.7044784E-12
   8.580000      4.2598624E-12
   8.640000      5.3805077E-12
   8.700000      5.6278636E-12
   8.760000      4.6335084E-12
   8.820000      2.1809473E-12
   8.880000     -1.7361681E-12
   8.940000     -6.8903494E-12
   9.000000     -1.2832665E-11
   9.060000     -1.8934413E-11
   9.120000     -2.4447165E-11
   9.180000     -2.8571515E-11
   9.240000     -3.0530033E-11
   9.300000     -2.9645324E-11
   9.360000     -2.5425537E-11
   9.420000     -1.7655164E-11
   9.480000     -6.4796133E-12
   9.540000      7.5377291E-12
   9.600000      2.3411896E-11
   9.660000      3.9806648E-11
   9.720000      5.5183517E-11
   9.780000      6.8011971E-11
   9.840000      7.7001773E-11
   9.900000      8.1306205E-11
   9.960000      8.0646788E-11
   10.02000      7.5327418E-11
   10.08000      6.6133050E-11
   10.14000      5.4137493E-11
   10.20000      4.0467216E-11
   10.26000      2.6077373E-11
   10.32000      1.1589760E-11
   10.38000     -2.7756343E-12
   10.44000     -1.7168609E-11
   10.50000     -3.1992121E-11
   10.56000     -4.7732623E-11
   10.62000     -6.4774387E-11
   10.68000     -8.3231276E-11
   10.74000     -1.0282069E-10
   10.80000     -1.2279439E-10
   10.86000     -1.4193346E-10
   10.92000     -1.5861094E-10
   10.98000     -1.7092266E-10
   11.04000     -1.7688315E-10
   11.10000     -1.7467519E-10
   11.16000     -1.6292791E-10
   11.22000     -1.4098357E-10
   11.28000     -1.0910017E-10
   11.34000     -6.8534893E-11
   11.40000     -2.1464547E-11
   11.46000      2.9273684E-11
   11.52000      8.0599749E-11
   11.58000      1.2970505E-10
   11.64000      1.7457094E-10
   11.70000      2.1438756E-10
   11.76000      2.4978281E-10
   11.82000      2.8280669E-10
   11.88000      3.1666583E-10
   11.94000      3.5524941E-10
   12.00000      4.0252232E-10
   12.06000      4.6187495E-10
   12.12000      5.3551369E-10
   12.18000      6.2395999E-10
   12.24000      7.2570988E-10
   12.30000      8.3709384E-10
   12.36000      9.5236774E-10
   12.42000      1.0640570E-09
   12.48000      1.1635516E-09
   12.54000      1.2419120E-09
   12.60000      1.2908035E-09
   12.66000      1.3034381E-09
   12.72000      1.2753825E-09
   12.78000      1.2051125E-09
   12.84000      1.0942336E-09
   12.90000      9.4735297E-10
   12.96000      7.7164164E-10
   13.02000      5.7616556E-10
   13.08000      3.7107456E-10
   13.14000      1.6672430E-10
   13.20000     -2.7208966E-11
   13.26000     -2.0257021E-10
   13.32000     -3.5346376E-10
   13.38000     -4.7680643E-10
   13.44000     -5.7259569E-10
   13.50000     -6.4379924E-10
   13.56000     -6.9581574E-10
   13.62000     -7.3553852E-10
   13.68000     -7.7015361E-10
   13.74000     -8.0588308E-10
   13.80000     -8.4692342E-10
   13.86000     -8.9478686E-10
   13.92000     -9.4815844E-10
   13.98000     -1.0032474E-09
   14.04000     -1.0544968E-09
   14.10000     -1.0954556E-09
   14.16000     -1.1196293E-09
   14.22000     -1.1211989E-09
   14.28000     -1.0955893E-09
   14.34000     -1.0399238E-09
   14.40000     -9.5341401E-10
   14.46000     -8.3767610E-10
   14.52000     -6.9690359E-10
   14.58000     -5.3778026E-10
   14.64000     -3.6903883E-10
   14.70000     -2.0065476E-10
   14.76000     -4.2777677E-11
   14.82000      9.5400320E-11
   14.88000      2.0660786E-10
   14.94000      2.8610669E-10
   15.00000      3.3188183E-10
   15.06000      3.4446510E-10
   15.12000      3.2653708E-10
   15.18000      2.8247335E-10
   15.24000      2.1794477E-10
   15.30000      1.3958559E-10
   15.36000      5.4652883E-11
   15.42000     -2.9432824E-11
   15.48000     -1.0573386E-10
   15.54000     -1.6859214E-10
   15.60000     -2.1442229E-10
   15.66000     -2.4227487E-10
   15.72000     -2.5396299E-10
   15.78000     -2.5366129E-10
   15.84000     -2.4705604E-10
   15.90000     -2.4027438E-10
   15.96000     -2.3888488E-10
   16.02000     -2.4720181E-10
   16.08000     -2.6797861E-10
   16.14000     -3.0240763E-10
   16.20000     -3.5024408E-10
   16.26000     -4.0989040E-10
   16.32000     -4.7839555E-10
   16.38000     -5.5147253E-10
   16.44000     -6.2372080E-10
   16.50000     -6.8919859E-10
   16.56000     -7.4233181E-10
   16.62000     -7.7895024E-10
   16.68000     -7.9710999E-10
   16.74000     -7.9737900E-10
   16.80000     -7.8243101E-10
   16.86000     -7.5605250E-10
   16.92000     -7.2189571E-10
   16.98000     -6.8241662E-10
   17.04000     -6.3836841E-10
   17.10000     -5.8901345E-10
   17.16000     -5.3295873E-10
   17.22000     -4.6930132E-10
   17.28000     -3.9867884E-10
   17.34000     -3.2386349E-10
   17.40000     -2.4970456E-10
   17.46000     -1.8243881E-10
   17.52000     -1.2859250E-10
   17.58000     -9.3822429E-11
   17.64000     -8.2053829E-11
   17.70000     -9.5159845E-11
   17.76000     -1.3323040E-10
   17.82000     -1.9525732E-10
   17.88000     -2.7990332E-10
   17.94000     -3.8599249E-10
   18.00000     -5.1248045E-10
   18.06000     -6.5789474E-10
   18.12000     -8.1948981E-10
   18.18000     -9.9252406E-10
   18.24000     -1.1700624E-09
   18.30000     -1.3435264E-09
   18.36000     -1.5039270E-09
   18.42000     -1.6434326E-09
   18.48000     -1.7567733E-09
   18.54000     -1.8420152E-09
   18.60000     -1.9004580E-09
   18.66000     -1.9357143E-09
   18.72000     -1.9523143E-09
   18.78000     -1.9543358E-09
   18.84000     -1.9445210E-09
   18.90000     -1.9241397E-09
   18.96000     -1.8935495E-09
   19.02000     -1.8531291E-09
   19.08000     -1.8040962E-09
   19.14000     -1.7487812E-09
   19.20000     -1.6901517E-09
   19.26000     -1.6307409E-09
   19.32000     -1.5714406E-09
   19.38000     -1.5107514E-09
   19.44000     -1.4449536E-09
   19.50000     -1.3692981E-09
   19.56000     -1.2798619E-09
   19.62000     -1.1753691E-09
   19.68000     -1.0582220E-09
   19.74000     -9.3426133E-10
   19.80000     -8.1128970E-10
   19.86000     -6.9689898E-10
   19.92000     -5.9643662E-10
   19.98000     -5.1186505E-10
   20.04000     -4.4186954E-10
   20.10000     -3.8304188E-10
   20.16000     -3.3155076E-10
   20.22000     -2.8458844E-10
   20.28000     -2.4107352E-10
   20.34000     -2.0146890E-10
   20.40000     -1.6694429E-10
   20.46000     -1.3831851E-10
   20.52000     -1.1521097E-10
   20.58000     -9.5672886E-11
   20.64000     -7.6368939E-11
   20.70000     -5.3218971E-11
   20.76000     -2.2311066E-11
   20.82000      1.9160191E-11
   20.88000      7.2206061E-11
   20.94000      1.3586238E-10
   21.00000      2.0765749E-10
   21.06000      2.8465336E-10
   21.12000      3.6472028E-10
   21.18000      4.4752932E-10
   21.24000      5.3478183E-10
   21.30000      6.2948274E-10
   21.36000      7.3449585E-10
   21.42000      8.5099289E-10
   21.48000      9.7751185E-10
   21.54000      1.1101037E-09
   21.60000      1.2435630E-09
   21.66000      1.3732383E-09
   21.72000      1.4966497E-09
   21.78000      1.6142186E-09
   21.84000      1.7287878E-09
   21.90000      1.8441010E-09
   21.96000      1.9628017E-09
   22.02000      2.0846764E-09
   22.08000      2.2057682E-09
   22.14000      2.3187126E-09
   22.20000      2.4142717E-09
   22.26000      2.4836735E-09
   22.32000      2.5210680E-09
   22.38000      2.5252886E-09
   22.44000      2.5002340E-09
   22.50000      2.4535804E-09
   22.56000      2.3941202E-09
   22.62000      2.3286066E-09
   22.68000      2.2592652E-09
   22.74000      2.1829767E-09
   22.80000      2.0925210E-09
   22.86000      1.9794559E-09
   22.92000      1.8375402E-09
   22.98000      1.6654127E-09
   23.04000      1.4675725E-09
   23.10000      1.2534178E-09
   23.16000      1.0348358E-09
   23.22000      8.2329610E-10
   23.28000      6.2743893E-10
   23.34000      4.5183049E-10
   23.40000      2.9709193E-10
   23.46000      1.6117634E-10
   23.52000      4.1286453E-11
   23.58000     -6.4194858E-11
   23.64000     -1.5436903E-10
   23.70000     -2.2553354E-10
   23.76000     -2.7209388E-10
   23.82000     -2.8842026E-10
   23.88000     -2.7099892E-10
   23.94000     -2.2003276E-10
   24.00000     -1.3979820E-10
   24.06000     -3.7559164E-11
   24.12000      7.8526657E-11
   24.18000      2.0160792E-10
   24.24000      3.2749842E-10
   24.30000      4.5466239E-10
   24.36000      5.8295302E-10
   24.42000      7.1179862E-10
   24.48000      8.3871898E-10
   24.54000      9.5880270E-10
   24.60000      1.0652659E-09
   24.66000      1.1507276E-09
   24.72000      1.2086278E-09
   24.78000      1.2342962E-09
   24.84000      1.2254657E-09
   24.90000      1.1822754E-09
   24.96000      1.1069375E-09
   25.02000      1.0032334E-09
   25.08000      8.7594315E-10
   25.14000      7.3029682E-10
   25.20000      5.7154670E-10
   25.26000      4.0475837E-10
   25.32000      2.3483424E-10
   25.38000      6.6642594E-11
   25.44000     -9.4979982E-11
   25.50000     -2.4555469E-10
   25.56000     -3.8162809E-10
   25.62000     -5.0154403E-10
   25.68000     -6.0592720E-10
   25.74000     -6.9754769E-10
   25.80000     -7.8050322E-10
   25.86000     -8.5898527E-10
   25.92000     -9.3610264E-10
   25.98000     -1.0132003E-09
   26.04000     -1.0898596E-09
   26.10000     -1.1644504E-09
   26.16000     -1.2348927E-09
   26.22000     -1.2992796E-09
   26.28000     -1.3561745E-09
   26.34000     -1.4046039E-09
   26.40000     -1.4439012E-09
   26.46000     -1.4735565E-09
   26.52000     -1.4931427E-09
   26.58000     -1.5022876E-09
   26.64000     -1.5006293E-09
   26.70000     -1.4877175E-09
   26.76000     -1.4628869E-09
   26.82000     -1.4251672E-09
   26.88000     -1.3732901E-09
   26.94000     -1.3058195E-09
   27.00000     -1.2213933E-09
   27.06000     -1.1190443E-09
   27.12000     -9.9854447E-10
   27.18000     -8.6070906E-10
   27.24000     -7.0757583E-10
   27.30000     -5.4238491E-10
   27.36000     -3.6932798E-10
   27.42000     -1.9311895E-10
   27.48000     -1.8511576E-11
   27.54000      1.5008274E-10
   27.60000      3.0878228E-10
   27.66000      4.5424492E-10
   27.72000      5.8362526E-10
   27.78000      6.9463191E-10
   27.84000      7.8576390E-10
   27.90000      8.5666979E-10
   27.96000      9.0845681E-10
   28.02000      9.4376185E-10
   28.08000      9.6649155E-10
   28.14000      9.8129505E-10
   28.20000      9.9295383E-10
   28.26000      1.0058803E-09
   28.32000      1.0238282E-09
   28.38000      1.0497793E-09
   28.44000      1.0858922E-09
   28.50000      1.1334236E-09
   28.56000      1.1926278E-09
   28.62000      1.2627274E-09
   28.68000      1.3420420E-09
   28.74000      1.4282501E-09
   28.80000      1.5186196E-09
   28.86000      1.6100045E-09
   28.92000      1.6985218E-09
   28.98000      1.7790703E-09
   29.04000      1.8450661E-09
   29.10000      1.8887918E-09
   29.16000      1.9025062E-09
   29.22000      1.8800470E-09
   29.28000      1.8183047E-09
   29.34000      1.7179016E-09
   29.40000      1.5827221E-09
   29.46000      1.4185003E-09
   29.52000      1.2311456E-09
   29.58000      1.0256046E-09
   29.64000      8.0574014E-10
   29.70000      5.7511224E-10
   29.76000      3.3803171E-10
   29.82000      1.0011447E-10
   29.88000     -1.3213261E-10
   29.94000     -3.5260209E-10
   30.00000     -5.5717703E-10
   30.06000     -7.4490214E-10
   30.12000     -9.1825447E-10
   30.18000     -1.0824653E-09
   30.24000     -1.2442101E-09
   30.30000     -1.4100985E-09
   30.36000     -1.5852997E-09
   30.42000     -1.7724634E-09
   30.48000     -1.9710267E-09
   30.54000     -2.1770223E-09
   30.60000     -2.3835460E-09
   30.66000     -2.5819351E-09
   30.72000     -2.7634639E-09
   30.78000     -2.9210898E-09
   30.84000     -3.0506901E-09
   30.90000     -3.1514200E-09
   30.96000     -3.2252105E-09
   31.02000     -3.2757859E-09
   31.08000     -3.3076768E-09
   31.14000     -3.3255383E-09
   31.20000     -3.3337397E-09
   31.26000     -3.3360181E-09
   31.32000     -3.3350316E-09
   31.38000     -3.3319052E-09
   31.44000     -3.3260708E-09
   31.50000     -3.3156442E-09
   31.56000     -3.2983027E-09
   31.62000     -3.2722618E-09
   31.68000     -3.2368477E-09
   31.74000     -3.1923795E-09
   31.80000     -3.1395155E-09
   31.86000     -3.0785285E-09
   31.92000     -3.0089666E-09
   31.98000     -2.9298073E-09
   32.04000     -2.8398244E-09
   32.10000     -2.7377605E-09
   32.16000     -2.6221665E-09
   32.22000     -2.4911846E-09
   32.28000     -2.3427791E-09
   32.34000     -2.1756716E-09
   32.40000     -1.9906476E-09
   32.46000     -1.7914102E-09
   32.52000     -1.5841668E-09
   32.58000     -1.3758051E-09
   32.64000     -1.1714452E-09
   32.70000     -9.7272457E-10
   32.76000     -7.7793366E-10
   32.82000     -5.8409966E-10
   32.88000     -3.8993497E-10
   32.94000     -1.9796617E-10
   33.00000     -1.4561801E-11
   33.06000      1.5223135E-10
   33.12000      2.9587977E-10
   33.18000      4.1387496E-10
   33.24000      5.0832899E-10
   33.30000      5.8456312E-10
   33.36000      6.4868128E-10
   33.42000      7.0549028E-10
   33.48000      7.5765610E-10
   33.54000      8.0608170E-10
   33.60000      8.5079688E-10
   33.66000      8.9157848E-10
   33.72000      9.2799401E-10
   33.78000      9.5914743E-10
   33.84000      9.8364539E-10
   33.90000      1.0000553E-09
   33.96000      1.0076507E-09
   34.02000      1.0069360E-09
   34.08000      9.9955710E-10
   34.14000      9.8763842E-10
   34.20000      9.7297670E-10
   34.26000      9.5658848E-10
   34.32000      9.3879493E-10
   34.38000      9.1962193E-10
   34.44000      8.9910224E-10
   34.50000      8.7724028E-10
   34.56000      8.5376606E-10
   34.62000      8.2804869E-10
   34.68000      7.9943263E-10
   34.74000      7.6788659E-10
   34.80000      7.3449669E-10
   34.86000      7.0131717E-10
   34.92000      6.7045869E-10
   34.98000      6.4281191E-10
   35.04000      6.1711136E-10
   35.10000      5.8990585E-10
   35.16000      5.5651328E-10
   35.22000      5.1251625E-10
   35.28000      4.5512644E-10
   35.34000      3.8392026E-10
   35.40000      3.0083680E-10
   35.46000      2.0965152E-10
   35.52000      1.1520085E-10
   35.58000      2.2494973E-11
   35.64000     -6.4276785E-11
   35.70000     -1.4278728E-10
   35.76000     -2.1339297E-10
   35.82000     -2.7931119E-10
   35.88000     -3.4584244E-10
   35.94000     -4.1873294E-10
   36.00000     -5.0225052E-10
   36.06000     -5.9777411E-10
   36.12000     -7.0349243E-10
   36.18000     -8.1526003E-10
   36.24000     -9.2810232E-10
   36.30000     -1.0376243E-09
   36.36000     -1.1407805E-09
   36.42000     -1.2359241E-09
   36.48000     -1.3224594E-09
   36.54000     -1.4005139E-09
   36.60000     -1.4708472E-09
   36.66000     -1.5348873E-09
   36.72000     -1.5946345E-09
   36.78000     -1.6522513E-09
   36.84000     -1.7094036E-09
   36.90000     -1.7666165E-09
   36.96000     -1.8229304E-09
   37.02000     -1.8759969E-09
   37.08000     -1.9225717E-09
   37.14000     -1.9592561E-09
   37.20000     -1.9833251E-09
   37.26000     -1.9934827E-09
   37.32000     -1.9903439E-09
   37.38000     -1.9763964E-09
   37.44000     -1.9552557E-09
   37.50000     -1.9302973E-09
   37.56000     -1.9031068E-09
   37.62000     -1.8724631E-09
   37.68000     -1.8344669E-09
   37.74000     -1.7839384E-09
   37.80000     -1.7165439E-09
   37.86000     -1.6306662E-09
   37.92000     -1.5281154E-09
   37.98000     -1.4133745E-09
   38.04000     -1.2918495E-09
   38.10000     -1.1680829E-09
   38.16000     -1.0448022E-09
   38.22000     -9.2309504E-10
   38.28000     -8.0332402E-10
   38.34000     -6.8604372E-10
   38.40000     -5.7234423E-10
   38.46000     -4.6354259E-10
   38.52000     -3.6060449E-10
   38.58000     -2.6378449E-10
   38.64000     -1.7270557E-10
   38.70000     -8.6709369E-11
   38.76000     -5.1140888E-12
   38.82000      7.2847645E-11
   38.88000      1.4830073E-10
   38.94000      2.2286020E-10
   39.00000      2.9833858E-10
   39.06000      3.7607822E-10
   39.12000      4.5630680E-10
   39.18000      5.3799593E-10
   39.24000      6.1943151E-10
   39.30000      6.9924766E-10
   39.36000      7.7735457E-10
   39.42000      8.5521623E-10
   39.48000      9.3530061E-10
   39.54000      1.0199864E-09
   39.60000      1.1104808E-09
   39.66000      1.2062438E-09
   39.72000      1.3051118E-09
   39.78000      1.4039693E-09
   39.84000      1.4996383E-09
   39.90000      1.5896677E-09
   39.96000      1.6728293E-09
   40.02000      1.7492489E-09
   40.08000      1.8201688E-09
   40.14000      1.8874033E-09
   40.20000      1.9526325E-09
   40.26000      2.0167872E-09
   40.32000      2.0797941E-09
   40.38000      2.1407893E-09
   40.44000      2.1986526E-09
   40.50000      2.2524904E-09
   40.56000      2.3017106E-09
   40.62000      2.3456215E-09
   40.68000      2.3828737E-09
   40.74000      2.4112785E-09
   40.80000      2.4283526E-09
   40.86000      2.4324580E-09
   40.92000      2.4239009E-09
   40.98000      2.4052267E-09
   41.04000      2.3803259E-09
   41.10000      2.3526716E-09
   41.16000      2.3235793E-09
   41.22000      2.2914419E-09
   41.28000      2.2523787E-09
   41.34000      2.2019482E-09
   41.40000      2.1370226E-09
   41.46000      2.0569260E-09
   41.52000      1.9634558E-09
   41.58000      1.8600688E-09
   41.64000      1.7508616E-09
   41.70000      1.6398498E-09
   41.76000      1.5306251E-09
   41.82000      1.4261138E-09
   41.88000      1.3281912E-09
   41.94000      1.2372379E-09
   42.00000      1.1520612E-09
   42.06000      1.0705784E-09
   42.12000      9.9120778E-10
   42.18000      9.1432317E-10
   42.24000      8.4286000E-10
   42.30000      7.8149637E-10
   42.36000      7.3462419E-10
   42.42000      7.0409317E-10
   42.48000      6.8792844E-10
   42.54000      6.8071676E-10
   42.60000      6.7542305E-10
   42.66000      6.6563949E-10
   42.72000      6.4714856E-10
   42.78000      6.1824290E-10
   42.84000      5.7907062E-10
   42.90000      5.3079080E-10
   42.96000      4.7520948E-10
   43.02000      4.1496773E-10
   43.08000      3.5375899E-10
   43.14000      2.9593625E-10
   43.20000      2.4532593E-10
   43.26000      2.0375657E-10
   43.32000      1.7020102E-10
   43.38000      1.4119435E-10
   43.44000      1.1243979E-10
   43.50000      8.0751530E-11
   43.56000      4.5230850E-11
   43.62000      7.0196596E-12
   43.68000     -3.2155886E-11
   43.74000     -7.1709465E-11
   43.80000     -1.1311246E-10
   43.86000     -1.5945935E-10
   43.92000     -2.1396011E-10
   43.98000     -2.7824304E-10
   44.04000     -3.5139100E-10
   44.10000     -4.3015250E-10
   44.16000     -5.1011556E-10
   44.22000     -5.8720440E-10
   44.28000     -6.5884842E-10
   44.34000     -7.2448064E-10
   44.40000     -7.8538342E-10
   44.46000     -8.4410995E-10
   44.52000     -9.0371838E-10
   44.58000     -9.6698971E-10
   44.64000     -1.0357719E-09
   44.70000     -1.1106189E-09
   44.76000     -1.1908781E-09
   44.82000     -1.2752344E-09
   44.88000     -1.3624684E-09
   44.94000     -1.4519950E-09
   45.00000     -1.5437814E-09
   45.06000     -1.6375581E-09
   45.12000     -1.7316683E-09
   45.18000     -1.8221904E-09
   45.24000     -1.9029067E-09
   45.30000     -1.9662973E-09
   45.36000     -2.0052147E-09
   45.42000     -2.0145634E-09
   45.48000     -1.9923225E-09
   45.54000     -1.9395809E-09
   45.60000     -1.8597099E-09
   45.66000     -1.7571230E-09
   45.72000     -1.6361421E-09
   45.78000     -1.5003481E-09
   45.84000     -1.3525444E-09
   45.90000     -1.1952220E-09
   45.96000     -1.0312406E-09
   46.02000     -8.6435881E-10
   46.08000     -6.9927253E-10
   46.14000     -5.4100718E-10
   46.20000     -3.9381609E-10
   46.26000     -2.6007002E-10
   46.32000     -1.3977047E-10
   46.38000     -3.1119256E-11
   46.44000      6.7942478E-11
   46.50000      1.5790792E-10
   46.56000      2.3657398E-10
   46.62000      2.9934655E-10
   46.68000      3.4100064E-10
   46.74000      3.5809616E-10
   46.80000      3.5083172E-10
   46.86000      3.2337394E-10
   46.92000      2.8250377E-10
   46.98000      2.3530081E-10
   47.04000      1.8702209E-10
   47.10000      1.4008959E-10
   47.16000      9.4386783E-11
   47.22000      4.8359226E-11
   47.28000      1.4443516E-13
   47.34000     -5.1776562E-11
   47.40000     -1.0839440E-10
   47.46000     -1.7009109E-10
   47.52000     -2.3636101E-10
   47.58000     -3.0540018E-10
   47.64000     -3.7395920E-10
   47.70000     -4.3783302E-10
   47.76000     -4.9295973E-10
   47.82000     -5.3662258E-10
   47.88000     -5.6807337E-10
   47.94000     -5.8820704E-10
   48.00000     -5.9852173E-10
   48.06000     -6.0008459E-10
   48.12000     -5.9322186E-10
   48.18000     -5.7814364E-10
   48.24000     -5.5604665E-10
   48.30000     -5.2986238E-10
   48.36000     -5.0401505E-10
   48.42000     -4.8318649E-10
   48.48000     -4.7073506E-10
   48.54000     -4.6765153E-10
   48.60000     -4.7261506E-10
   48.66000     -4.8306542E-10
   48.72000     -4.9665644E-10
   48.78000     -5.1232923E-10
   48.84000     -5.3055521E-10
   48.90000     -5.5280264E-10
   48.96000     -5.8063121E-10
   49.02000     -6.1486433E-10
   49.08000     -6.5507905E-10
   49.14000     -6.9943040E-10
   49.20000     -7.4473738E-10
   49.26000     -7.8681595E-10
   49.32000     -8.2110169E-10
   49.38000     -8.4353613E-10
   49.44000     -8.5150054E-10
   49.50000     -8.4441620E-10
   49.56000     -8.2367074E-10
   49.62000     -7.9180507E-10
   49.68000     -7.5127360E-10
   49.74000     -7.0333733E-10
   49.80000     -6.4760602E-10
   49.86000     -5.8242949E-10
   49.92000     -5.0594062E-10
   49.98000     -4.1728679E-10
   50.04000     -3.1755670E-10
   50.10000     -2.1008241E-10
   50.16000     -1.0003048E-10
   50.22000      6.6020171E-12
   50.28000      1.0433002E-10
   50.34000      1.8949903E-10
   50.40000      2.6115521E-10
   50.46000      3.2109848E-10
   50.52000      3.7299752E-10
   50.58000      4.2085255E-10
   50.64000      4.6746879E-10
   50.70000      5.1369098E-10
   50.76000      5.5880689E-10
   50.82000      6.0187832E-10
   50.88000      6.4317368E-10
   50.94000      6.8475958E-10
   51.00000      7.2979200E-10
   51.06000      7.8088347E-10
   51.12000      8.3857216E-10
   51.18000      9.0092439E-10
   51.24000      9.6460606E-10
   51.30000      1.0267872E-09
   51.36000      1.0866414E-09
   51.42000      1.1454155E-09
   51.48000      1.2049602E-09
   51.54000      1.2656663E-09
   51.60000      1.3251943E-09
   51.66000      1.3789222E-09
   51.72000      1.4219221E-09
   51.78000      1.4512581E-09
   51.84000      1.4671558E-09
   51.90000      1.4723127E-09
   51.96000      1.4698143E-09
   52.02000      1.4610150E-09
   52.08000      1.4447286E-09
   52.14000      1.4181836E-09
   52.20000      1.3790344E-09
   52.26000      1.3270554E-09
   52.32000      1.2644022E-09
   52.38000      1.1942985E-09
   52.44000      1.1190188E-09
   52.50000      1.0384540E-09
   52.56000      9.5011710E-10
   52.62000      8.5053037E-10
   52.68000      7.3714762E-10
   52.74000      6.0976779E-10
   52.80000      4.7082604E-10
   52.86000      3.2462599E-10
   52.92000      1.7606842E-10
   52.98000      2.9473264E-11
   53.04000     -1.1216632E-10
   53.10000     -2.4743441E-10
   53.16000     -3.7631429E-10
   53.22000     -4.9960425E-10
   53.28000     -6.1794625E-10
   53.34000     -7.3064921E-10
   53.40000     -8.3476298E-10
   53.46000     -9.2493135E-10
   53.52000     -9.9430431E-10
   53.58000     -1.0362876E-09
   53.64000     -1.0463697E-09
   53.70000     -1.0231336E-09
   53.76000     -9.6797415E-10
   53.82000     -8.8370655E-10
   53.88000     -7.7274165E-10
   53.94000     -6.3566968E-10
   54.00000     -4.7067306E-10
   54.06000     -2.7367819E-10
   54.12000     -3.8837308E-11
   54.18000      2.4100746E-10
   54.24000      5.7395094E-10
   54.30000      9.6851760E-10
   54.36000      1.4329320E-09
   54.42000      1.9742952E-09
   54.48000      2.5980356E-09
   54.54000      3.3080445E-09
   54.60000      4.1074539E-09
   54.66000      4.9996709E-09
   54.72000      5.9890373E-09
   54.78000      7.0807156E-09
   54.84000      8.2799332E-09
   54.90000      9.5909316E-09
   54.96000      1.1016165E-08
   55.02000      1.2556043E-08
   55.08000      1.4209064E-08
   55.14000      1.5972169E-08
   55.20000      1.7841076E-08
   55.26000      1.9810507E-08
   55.32000      2.1874254E-08
   55.38000      2.4025022E-08
   55.44000      2.6253867E-08
   55.50000      2.8549117E-08
   55.56000      3.0895077E-08