 -0.750000000       0.00000000    
 -0.689999998       0.00000000    
 -0.629999995       0.00000000    
 -0.569999993       0.00000000    
 -0.509999990       0.00000000    
 -0.449999988       0.00000000    
 -0.389999986       0.00000000    
 -0.330000013       0.00000000    
 -0.270000011       0.00000000    
 -0.209999993       0.00000000    
 -0.150000006       0.00000000    
  -9.00000036E-02   0.00000000    
  -2.99999993E-02   7.57132008E-35
   2.99999993E-02   5.31170219E-34
   9.00000036E-02  -2.40248013E-33
  0.150000006      -5.40483956E-32
  0.209999993      -3.90734346E-31
  0.270000011      -1.73850141E-30
  0.330000013      -5.24476578E-30
  0.389999986      -9.94143220E-30
  0.449999988      -3.87474799E-30
  0.509999990       5.19175884E-29
  0.569999993       2.29946767E-28
  0.629999995       5.80437826E-28
  0.689999998       9.31289010E-28
  0.750000000       5.22469983E-28
  0.810000002      -2.28254130E-27
  0.870000005      -9.48731734E-27
  0.930000007      -2.10699062E-26
  0.990000010      -3.01874142E-26
   1.04999995      -1.79305464E-26
   1.11000001       4.60169437E-26
   1.16999996       1.86687101E-25
   1.23000002       3.83728494E-25
   1.28999996       5.16631959E-25
   1.35000002       3.34300837E-25
   1.40999997      -4.82080048E-25
   1.47000003      -2.09792627E-24
   1.52999997      -4.15830277E-24
   1.59000003      -5.44755471E-24
   1.64999998      -3.92434516E-24
   1.71000004       2.48364218E-24
   1.76999998       1.42313757E-23
   1.83000004       2.82275510E-23
   1.88999999       3.69715819E-23
   1.95000005       3.03486213E-23
   2.00999999       6.90166123E-25
   2.06999993      -5.06241925E-23
   2.13000011      -1.09294949E-22
   2.19000006      -1.51646089E-22
   2.25000000      -1.56363137E-22
   2.30999994      -1.17465554E-22
   2.36999989      -4.51142894E-23
   2.43000007       5.57609928E-23
   2.49000001       2.20191627E-22
   2.54999995       5.34534573E-22
   2.60999990       1.07398184E-21
   2.67000008       1.74689378E-21
   2.73000002       2.11506286E-21
   2.78999996       1.36728997E-21
   2.84999990      -1.34300850E-21
   2.91000009      -6.13487347E-21
   2.97000003      -1.15062196E-20
   3.02999997      -1.40093942E-20
   3.08999991      -9.30935395E-21
   3.15000010       5.09242193E-21
   3.21000004       2.64061852E-20
   3.26999998       4.46849009E-20
   3.32999992       4.52890820E-20
   3.39000010       1.68729481E-20
   3.45000005      -3.76120769E-20
   3.50999999      -9.36321860E-20
   3.56999993      -1.09890738E-19
   3.63000011      -4.96295087E-20
   3.69000006       8.73765098E-20
   3.75000000       2.40133427E-19
   3.80999994       2.93029327E-19
   3.86999989       1.28944416E-19
   3.93000007      -2.81651767E-19
   3.99000001      -7.99583024E-19
   4.05000019      -1.10855985E-18
   4.11000013      -8.29807893E-19
   4.17000008       2.48783048E-19
   4.23000002       1.92308739E-18
   4.28999996       3.46316079E-18
   4.34999990       3.79485071E-18
   4.40999985       2.00685080E-18
   4.46999979      -1.98151219E-18
   4.53000021      -6.94361545E-18
   4.59000015      -1.04572884E-17
   4.65000010      -9.81066481E-18
   4.71000004      -3.49759674E-18
   4.76999998       7.36177841E-18
   4.82999992       1.85763093E-17
   4.88999987       2.40869138E-17
   4.94999981       1.87514351E-17
   5.01000023       1.65920850E-18
   5.07000017      -2.17955722E-17
   5.13000011      -4.07643109E-17
   5.19000006      -4.32686267E-17
   5.25000000      -2.26900771E-17
   5.30999994       1.66078842E-17
   5.36999989       5.80812279E-17
   5.42999983       7.84116994E-17
   5.48999977       5.86262340E-17
   5.55000019      -3.50379273E-18
   5.61000013      -8.63651734E-17
   5.67000008      -1.48437640E-16
   5.73000002      -1.44732056E-16
   5.78999996      -5.08584125E-17
   5.84999990       1.15804598E-16
   5.90999985       2.90181444E-16
   5.96999979       3.77107353E-16
   6.03000021       2.91223374E-16
   6.09000015       6.04316070E-18
   6.15000010      -4.09939594E-16
   6.21000004      -7.93090236E-16
   6.26999998      -9.33089165E-16
   6.32999992      -6.62578712E-16
   6.38999987       4.27120301E-17
   6.44999981       1.00009169E-15
   6.51000023       1.83713124E-15
   6.57000017       2.10955567E-15
   6.63000011       1.49515567E-15
   6.69000006      -8.03866941E-18
   6.75000000      -1.97753839E-15
   6.80999994      -3.63892766E-15
   6.86999989      -4.13437374E-15
   6.92999983      -2.91218525E-15
   6.98999977      -7.78894904E-17
   7.05000019       3.47970156E-15
   7.11000013       6.31168888E-15
   7.17000008       6.96160582E-15
   7.23000002       4.65517788E-15
   7.28999996      -1.81135283E-16
   7.34999990      -5.86666581E-15
   7.40999985      -1.00032905E-14
   7.46999979      -1.04587461E-14
   7.53000021      -6.40290120E-15
   7.59000015       1.09446567E-15
   7.65000010       9.26336661E-15
   7.71000004       1.46555013E-14
   7.76999998       1.46158025E-14
   7.82999992       8.56347769E-15
   7.88999987      -1.54286056E-15
   7.94999981      -1.18566791E-14
   8.01000023      -1.82059483E-14
   8.06999969      -1.79070829E-14
   8.13000011      -1.10006693E-14
   8.18999958      -3.00306558E-16
   8.25000000       9.82241174E-15
   8.31000042       1.53933839E-14
   8.36999989       1.46310423E-14
   8.43000031       8.72275969E-15
   8.48999977       1.18575454E-15
   8.55000019      -3.91165490E-15
   8.60999966      -4.02854545E-15
   8.67000008       4.87621992E-16
   8.72999954       6.46516066E-15
   8.78999996       9.43955455E-15
   8.85000038       5.97814594E-15
   8.90999985      -4.30383963E-15
   8.97000027      -1.80628692E-14
   9.02999973      -2.93421259E-14
   9.09000015      -3.21208988E-14
   9.14999962      -2.32262431E-14
   9.21000004      -4.26644778E-15
   9.27000046       1.84270866E-14
   9.32999992       3.60436812E-14
   9.39000034       4.09361435E-14
   9.44999981       3.01615490E-14
   9.51000023       7.31885256E-15
   9.56999969      -1.83027286E-14
   9.63000011      -3.51339238E-14
   9.68999958      -3.40118220E-14
   9.75000000      -1.22029995E-14
   9.81000042       2.49897996E-14
   9.86999989       6.57844954E-14
   9.93000031       9.59867968E-14
   9.98999977       1.03781079E-13
   10.0500002       8.31730382E-14
   10.1099997       3.47677616E-14
   10.1700001      -3.59823052E-14
   10.2299995      -1.21526636E-13
   10.2900000      -2.13878110E-13
   10.3500004      -3.03796620E-13
   10.4099998      -3.77787455E-13
   10.4700003      -4.15031345E-13
   10.5299997      -3.87277423E-13
   10.5900002      -2.64048874E-13
   10.6499996      -2.33005025E-14
   10.7100000       3.35184083E-13
   10.7700005       7.78547420E-13
   10.8299999       1.23703077E-12
   10.8900003       1.61100701E-12
   10.9499998       1.78886636E-12
   11.0100002       1.67197224E-12
   11.0699997       1.20026200E-12
   11.1300001       3.71573106E-13
   11.1899996      -7.50424083E-13
   11.2500000      -2.04141153E-12
   11.3100004      -3.33274315E-12
   11.3699999      -4.43418132E-12
   11.4300003      -5.15745736E-12
   11.4899998      -5.33618809E-12
   11.5500002      -4.84025103E-12
   11.6099997      -3.58567408E-12
   11.6700001      -1.54318225E-12
   11.7299995       1.25107726E-12
   11.7900000       4.68075231E-12
   11.8500004       8.53167797E-12
   11.9099998       1.24761000E-11
   11.9700003       1.60658743E-11
   12.0299997       1.87421051E-11
   12.0900002       1.98666882E-11
   12.1499996       1.87770702E-11
   12.2100000       1.48603022E-11
   12.2700005       7.63723633E-12
   12.3299999      -3.15652170E-12
   12.3900003      -1.75088121E-11
   12.4499998      -3.51041349E-11
   12.5100002      -5.53446525E-11
   12.5699997      -7.74255590E-11
   12.6300001      -1.00462125E-10
   12.6899996      -1.23655350E-10
   12.7500000      -1.46474430E-10
   12.8100004      -1.68829437E-10
   12.8699999      -1.91208896E-10
   12.9300003      -2.14764484E-10
   12.9899998      -2.41335396E-10
   13.0500002      -2.73415068E-10
   13.1099997      -3.14068133E-10
   13.1700001      -3.66805641E-10
   13.2299995      -4.35421449E-10
   13.2900000      -5.23788013E-10
   13.3500004      -6.35608011E-10
   13.4099998      -7.74123321E-10
   13.4700003      -9.41794642E-10
   13.5299997      -1.13997622E-09
   13.5900002      -1.36862355E-09
   13.6499996      -1.62607317E-09
   13.7100000      -1.90892924E-09
   13.7700005      -2.21207852E-09
   13.8299999      -2.52883425E-09
   13.8900003      -2.85119972E-09
   13.9499998      -3.17021853E-09
   14.0100002      -3.47638474E-09
   14.0699997      -3.76007714E-09
   14.1300001      -4.01199385E-09
   14.1899996      -4.22356994E-09
   14.2500000      -4.38735936E-09
   14.3100004      -4.49737403E-09
   14.3699999      -4.54936133E-09
   14.4300003      -4.54100180E-09
   14.4899998      -4.47201343E-09
   14.5500002      -4.34414149E-09
   14.6099997      -4.16104440E-09
   14.6700001      -3.92807165E-09
   14.7299995      -3.65197250E-09
   14.7900000      -3.34055517E-09
   14.8500004      -3.00233260E-09
   14.9099998      -2.64617883E-09
   14.9700003      -2.28100672E-09
   15.0299997      -1.91547689E-09
   15.0900002      -1.55773550E-09
   15.1499996      -1.21518529E-09
   15.2100000      -8.94283148E-10
   15.2700005      -6.00366645E-10
   15.3299999      -3.37508077E-10
   15.3900003      -1.08389887E-10
   15.4499998       8.57991039E-11
   15.5100002       2.45448134E-10
   15.5699997       3.72582132E-10
   15.6300001       4.70876560E-10
   15.6899996       5.45601453E-10
   15.7500000       6.03459172E-10
   15.8100004       6.52279730E-10
   15.8699999       7.00547897E-10
   15.9300003       7.56763929E-10
   15.9899998       8.28679236E-10
   16.0499992       9.22492693E-10
   16.1100006       1.04212949E-09
   16.1700001       1.18873478E-09
   16.2299995       1.36049005E-09
   16.2900009       1.55279944E-09
   16.3500004       1.75881365E-09
   16.4099998       1.97018246E-09
   16.4699993       2.17787832E-09
   16.5300007       2.37293629E-09
   16.5900002       2.54700416E-09
   16.6499996       2.69267542E-09
   16.7099991       2.80365287E-09
   16.7700005       2.87485080E-09
   16.8299999       2.90253799E-09
   16.8899994       2.88458124E-09
   16.9500008       2.82077162E-09
   17.0100002       2.71313239E-09
   17.0699997       2.56606314E-09
   17.1299992       2.38617925E-09
   17.1900005       2.18178031E-09
   17.2500000       1.96198124E-09
   17.3099995       1.73567638E-09
   17.3700008       1.51057022E-09
   17.4300003       1.29253108E-09
   17.4899998       1.08543741E-09
   17.5499992       8.91545282E-10
   17.6100006       7.12238712E-10
   17.6700001       5.48899870E-10
   17.7299995       4.03594547E-10
   17.7900009       2.79336942E-10
   17.8500004       1.79844653E-10
   17.9099998       1.08873126E-10
   17.9699993       6.93648194E-11
   18.0300007       6.27082899E-11
   18.0900002       8.83626367E-11
   18.1499996       1.43976914E-10
   18.2099991       2.25969993E-10
   18.2700005       3.30387356E-10
   18.3299999       4.53765886E-10
   18.3899994       5.93741334E-10
   18.4500008       7.49223850E-10
   18.5100002       9.20115040E-10
   18.5699997       1.10669751E-09
   18.6299992       1.30893985E-09
   18.6900005       1.52598201E-09
   18.7500000       1.75598758E-09
   18.8099995       1.99638772E-09
   18.8700008       2.24436669E-09
   18.9300003       2.49731480E-09
   18.9899998       2.75296697E-09
   19.0499992       3.00907299E-09
   19.1100006       3.26264504E-09
   19.1700001       3.50904461E-09
   19.2299995       3.74128284E-09
   19.2900009       3.94988531E-09
   19.3500004       4.12348111E-09
   19.4099998       4.25004831E-09
   19.4699993       4.31848823E-09
   19.5300007       4.32011094E-09
   19.5900002       4.24965085E-09
   19.6499996       4.10560208E-09
   19.7099991       3.88991639E-09
   19.7700005       3.60729469E-09
   19.8299999       3.26440985E-09
   19.8899994       2.86934099E-09
   19.9500008       2.43136378E-09
   20.0100002       1.96104044E-09
   20.0699997       1.47041790E-09
   20.1299992       9.73079728E-10
   20.1900005       4.83866114E-10
   20.2500000       1.82110143E-11
   20.3099995      -4.08791390E-10
   20.3700008      -7.83368759E-10
   20.4300003      -1.09386034E-09
   20.4899998      -1.33115552E-09
   20.5499992      -1.48877133E-09
   20.6100006      -1.56270086E-09
   20.6700001      -1.55124724E-09
   20.7299995      -1.45502610E-09
   20.7900009      -1.27719624E-09
   20.8500004      -1.02380049E-09
   20.9099998      -7.03963776E-10
   20.9699993      -3.29657274E-10
   21.0300007       8.51521492E-11
   21.0900002       5.25925692E-10
   21.1499996       9.79258119E-10
   21.2099991       1.43439738E-09
   21.2700005       1.88410643E-09
   21.3299999       2.32458852E-09
   21.3899994       2.75451484E-09
   21.4500008       3.17354454E-09
   21.5100002       3.58090424E-09
   21.5699997       3.97458200E-09
   21.6299992       4.35139880E-09
   21.6900005       4.70783190E-09
   21.7500000       5.04111108E-09
   21.8099995       5.34996625E-09
   21.8700008       5.63451419E-09
   21.9300003       5.89518523E-09
   21.9899998       6.13100015E-09
   22.0499992       6.33788888E-09
   22.1100006       6.50781073E-09
   22.1700001       6.62922783E-09
   22.2299995       6.68902356E-09
   22.2900009       6.67542377E-09
   22.3500004       6.58109522E-09
   22.4099998       6.40542908E-09
   22.4699993       6.15526252E-09
   22.5300007       5.84377213E-09
   22.5900002       5.48790124E-09
   22.6499996       5.10524201E-09
   22.7099991       4.71147921E-09
   22.7700005       4.31933067E-09
   22.8299999       3.93929511E-09
   22.8899994       3.58177532E-09
   22.9500008       3.25949023E-09
   23.0100002       2.98889313E-09
   23.0699997       2.78964141E-09
   23.1299992       2.68193046E-09
   23.1900005       2.68239786E-09
   23.2500000       2.79994095E-09
   23.3099995       3.03289061E-09
   23.3700008       3.36855455E-09
   23.4300003       3.78528853E-09
   23.4899998       4.25642011E-09
   23.5499992       4.75476014E-09
   23.6100006       5.25635269E-09
   23.6700001       5.74246339E-09
   23.7299995       6.19947871E-09
   23.7900009       6.61710864E-09
   23.8500004       6.98584435E-09
   23.9099998       7.29487315E-09
   23.9699993       7.53147411E-09
   24.0300007       7.68239516E-09
   24.0900002       7.73692310E-09
   24.1499996       7.69063835E-09
   24.2099991       7.54842588E-09
   24.2700005       7.32542604E-09
   24.3299999       7.04529990E-09
   24.3899994       6.73618006E-09
   24.4500008       6.42557074E-09
   24.5100002       6.13588380E-09
   24.5699997       5.88199667E-09
   24.6299992       5.67137004E-09
   24.6900005       5.50624524E-09
   24.7500000       5.38666045E-09
   24.8099995       5.31288036E-09
   24.8700008       5.28623545E-09
   24.9300003       5.30813526E-09
   24.9899998       5.37779643E-09
   25.0499992       5.48967583E-09
   25.1100006       5.63168978E-09
   25.1700001       5.78500980E-09
   25.2299995       5.92571459E-09
   25.2900009       6.02802075E-09
   25.3500004       6.06829786E-09
   25.4099998       6.02878858E-09
   25.4699993       5.89997207E-09
   25.5300007       5.68092773E-09
   25.5900002       5.37772715E-09
   25.6499996       5.00060615E-09
   25.7099991       4.56107507E-09
   25.7700005       4.07002787E-09
   25.8299999       3.53731733E-09
   25.8899994       2.97251268E-09
   25.9500008       2.38601161E-09
   26.0100002       1.78965986E-09
   26.0699997       1.19649546E-09
   26.1299992       6.19836182E-10
   26.1900005       7.23101440E-11
   26.2500000      -4.34667580E-10
   26.3099995      -8.90911733E-10
   26.3700008      -1.28737265E-09
   26.4300003      -1.61644942E-09
   26.4899998      -1.87293403E-09
   26.5499992      -2.05530526E-09
   26.6100006      -2.16674145E-09
   26.6700001      -2.21526131E-09
   26.7299995      -2.21280794E-09
   26.7900009      -2.17357154E-09
   26.8500004      -2.11210405E-09
   26.9099998      -2.04169304E-09
   26.9699993      -1.97318473E-09
   27.0300007      -1.91423788E-09
   27.0900002      -1.86898896E-09
   27.1499996      -1.83825100E-09
   27.2099991      -1.82041970E-09
   27.2700005      -1.81302717E-09
   27.3299999      -1.81447457E-09
   27.3899994      -1.82516946E-09
   27.4500008      -1.84742033E-09
   27.5100002      -1.88402782E-09
   27.5699997      -1.93627669E-09
   27.6299992      -2.00245842E-09
   27.6900005      -2.07783235E-09
   27.7500000      -2.15612639E-09
   27.8099995      -2.23178698E-09
   27.8700008      -2.30177299E-09
   27.9300003      -2.36601960E-09
   27.9899998      -2.42654319E-09
   28.0499992      -2.48595833E-09
   28.1100006      -2.54640065E-09
   28.1700001      -2.60940825E-09
   28.2299995      -2.67655276E-09
   28.2900009      -2.75011414E-09
   28.3500004      -2.83316814E-09
   28.4099998      -2.92902635E-09
   28.4699993      -3.04054026E-09
   28.5300007      -3.16990634E-09
   28.5900002      -3.31920713E-09
   28.6499996      -3.49130858E-09
   28.7099991      -3.69039665E-09
   28.7700005      -3.92166521E-09
   28.8299999      -4.19026902E-09
   28.8899994      -4.50014204E-09
   28.9500008      -4.85330753E-09
   29.0100002      -5.24978905E-09
   29.0699997      -5.68766856E-09
   29.1299992      -6.16266682E-09
   29.1900005      -6.66709621E-09
   29.2500000      -7.18878646E-09
   29.3099995      -7.71101938E-09
   29.3700008      -8.21422663E-09
   29.4300003      -8.67920136E-09
   29.4899998      -9.09058073E-09
   29.5499992      -9.43901668E-09
   29.6100006      -9.72110392E-09
   29.6700001      -9.93740201E-09
   29.7299995      -1.00899555E-08
   29.7900009      -1.01809077E-08
   29.8500004      -1.02129167E-08
   29.9099998      -1.01908677E-08
   29.9699993      -1.01234630E-08
   30.0300007      -1.00233981E-08
   30.0900002      -9.90575266E-09
   30.1499996      -9.78531034E-09
   30.2099991      -9.67399494E-09
   30.2700005      -9.57933732E-09
   30.3299999      -9.50405710E-09
   30.3899994      -9.44624379E-09
   30.4500008      -9.39962064E-09
   30.5100002      -9.35389188E-09
   30.5699997      -9.29565669E-09
   30.6299992      -9.21034449E-09
   30.6900005      -9.08498254E-09
   30.7500000      -8.91082497E-09
   30.8099995      -8.68461658E-09
   30.8700008      -8.40782377E-09
   30.9300003      -8.08426925E-09
   30.9899998      -7.71754927E-09
   31.0499992      -7.30969996E-09
   31.1100006      -6.86180224E-09
   31.1700001      -6.37598330E-09
   31.2299995      -5.85747717E-09
   31.2900009      -5.31546718E-09
   31.3500004      -4.76226436E-09
   31.4099998      -4.21136059E-09
   31.4699993      -3.67534492E-09
   31.5300007      -3.16444271E-09
   31.5900002      -2.68580735E-09
   31.6499996      -2.24323382E-09
   31.7099991      -1.83703441E-09
   31.7700005      -1.46424350E-09
   31.8299999      -1.11959653E-09
   31.8899994      -7.97496458E-10
   31.9500008      -4.94468244E-10
   32.0099983      -2.10951007E-10
   32.0699997       4.87287363E-11
   32.1300011       2.78531309E-10
   32.1899986       4.74111972E-10
   32.2500000       6.35704434E-10
   32.3100014       7.68852870E-10
   32.3699989       8.82501461E-10
   32.4300003       9.85383553E-10
   32.4900017       1.08254827E-09
   32.5499992       1.17368504E-09
   32.6100006       1.25384192E-09
   32.6699982       1.31587752E-09
   32.7299995       1.35329392E-09
   32.7900009       1.36224731E-09
   32.8499985       1.34224543E-09
   32.9099998       1.29575639E-09
   32.9700012       1.22722388E-09
   33.0299988       1.14183318E-09
   33.0900002       1.04413345E-09
   33.1500015       9.36619671E-10
   33.2099991       8.18645707E-10
   33.2700005       6.86250334E-10
   33.3300018       5.33303957E-10
   33.3899994       3.53760604E-10
   33.4500008       1.44088574E-10
   33.5099983      -9.53275792E-11
   33.5699997      -3.60573210E-10
   33.6300011      -6.46168175E-10
   33.6899986      -9.47499079E-10
   33.7500000      -1.26236221E-09
   33.8100014      -1.59083524E-09
   33.8699989      -1.93370298E-09
   33.9300003      -2.29045849E-09
   33.9900017      -2.65799027E-09
   34.0499992      -3.03048053E-09
   34.1100006      -3.40025341E-09
   34.1699982      -3.75887232E-09
   34.2299995      -4.09793532E-09
   34.2900009      -4.40952652E-09
   34.3499985      -4.68669370E-09
   34.4099998      -4.92425611E-09
   34.4700012      -5.11982634E-09
   34.5299988      -5.27447419E-09
   34.5900002      -5.39243628E-09
   34.6500015      -5.47970425E-09
   34.7099991      -5.54199175E-09
   34.7700005      -5.58293234E-09
   34.8300018      -5.60324498E-09
   34.8899994      -5.60104585E-09
   34.9500008      -5.57293989E-09
   35.0099983      -5.51530688E-09
   35.0699997      -5.42535750E-09
   35.1300011      -5.30183497E-09
   35.1899986      -5.14534992E-09
   35.2500000      -4.95821206E-09
   35.3100014      -4.74348072E-09
   35.3699989      -4.50313520E-09
   35.4300003      -4.23583302E-09
   35.4900017      -3.93538047E-09
   35.5499992      -3.59121466E-09
   35.6100006      -3.19154014E-09
   35.6699982      -2.72842948E-09
   35.7299995      -2.20290164E-09
   35.7900009      -1.62756009E-09
   35.8499985      -1.02519460E-09
   35.9099998      -4.23522162E-10
   35.9700012       1.51973795E-10
   36.0299988       6.84287293E-10
   36.0900002       1.16788557E-09
   36.1500015       1.60762237E-09
   36.2099991       2.01441286E-09
   36.2700005       2.39956610E-09
   36.3300018       2.76979439E-09
   36.3899994       3.12433257E-09
   36.4500008       3.45476381E-09
   36.5099983       3.74743392E-09
   36.5699997       3.98775901E-09
   36.6300011       4.16522283E-09
   36.6899986       4.27742552E-09
   36.7500000       4.33146941E-09
   36.8100014       4.34159642E-09
   36.8699989       4.32337544E-09
   36.9300003       4.28642322E-09
   36.9900017       4.22868940E-09
   37.0499992       4.13509538E-09
   37.1100006       3.98158262E-09
   37.1699982       3.74321640E-09
   37.2299995       3.40307871E-09
   37.2900009       2.95829428E-09
   37.3499985       2.42088460E-09
   37.4099998       1.81342519E-09
   37.4700012       1.16160415E-09
   37.5299988       4.86685470E-10
   37.5900002      -1.99558814E-10
   37.6500015      -8.96217323E-10
   37.7099991      -1.61106561E-09
   37.7700005      -2.35591990E-09
   37.8300018      -3.14096904E-09
   37.8899994      -3.96959265E-09
   37.9500008      -4.83513096E-09
   38.0099983      -5.72080161E-09
   38.0699997      -6.60321975E-09
   38.1300011      -7.45875006E-09
   38.1899986      -8.27056734E-09
   38.2500000      -9.03358810E-09
   38.3100014      -9.75501013E-09
   38.3699989      -1.04499192E-08
   38.4300003      -1.11337028E-08
   38.4900017      -1.18144712E-08
   38.5499992      -1.24887105E-08
   38.6100006      -1.31417943E-08
   38.6699982      -1.37527536E-08
   38.7299995      -1.43010075E-08
   38.7900009      -1.47722723E-08
   38.8499985      -1.51617403E-08
   38.9099998      -1.54740150E-08
   38.9700012      -1.57204365E-08
   39.0299988      -1.59149192E-08
   39.0900002      -1.60693876E-08
   39.1500015      -1.61897997E-08
   39.2099991      -1.62737575E-08
   39.2700005      -1.63107359E-08
   39.3300018      -1.62854068E-08
   39.3899994      -1.61835434E-08
   39.4500008      -1.59985110E-08
   39.5099983      -1.57356599E-08
   39.5699997      -1.54123629E-08
   39.6300011      -1.50532458E-08
   39.6899986      -1.46824091E-08
   39.7500000      -1.43159848E-08
   39.8100014      -1.39581857E-08
   39.8699989      -1.36023228E-08
   39.9300003      -1.32358347E-08
   39.9900017      -1.28466917E-08
   40.0499992      -1.24283233E-08
   40.1100006      -1.19813839E-08
   40.1699982      -1.15124070E-08
   40.2299995      -1.10305809E-08
   40.2900009      -1.05442028E-08
   40.3499985      -1.00578248E-08
   40.4099998      -9.57054080E-09
   40.4700012      -9.07557762E-09
   40.5299988      -8.56143600E-09
   40.5900002      -8.01474975E-09
   40.6500015      -7.42454809E-09
   40.7099991      -6.78675560E-09
   40.7700005      -6.10713924E-09
   40.8300018      -5.40114975E-09
   40.8899994      -4.69029482E-09
   40.9500008      -3.99632327E-09
   41.0099983      -3.33560601E-09
   41.0699997      -2.71604783E-09
   41.1300011      -2.13756235E-09
   41.1899986      -1.59543856E-09
   41.2500000      -1.08470077E-09
   41.3100014      -6.03477102E-10
   41.3699989      -1.54273788E-10
   41.4300003       2.56765637E-10
   41.4900017       6.21763363E-10
   41.5499992       9.33263467E-10
   41.6100006       1.18610854E-09
   41.6699982       1.37885270E-09
   41.7299995       1.51456692E-09
   41.7900009       1.60075353E-09
   41.8499985       1.64812963E-09
   41.9099998       1.66845637E-09
   41.9700012       1.67219838E-09
   42.0299988       1.66709346E-09
   42.0900002       1.65834080E-09
   42.1500015       1.65018021E-09
   42.2099991       1.64771918E-09
   42.2700005       1.65764980E-09
   42.3300018       1.68721348E-09
   42.3899994       1.74199455E-09
   42.4500008       1.82402249E-09
   42.5099983       1.93158156E-09
   42.5699997       2.06105000E-09
   42.6300011       2.20975815E-09
   42.6899986       2.37814723E-09
   42.7500000       2.56994603E-09
   42.8100014       2.79033174E-09
   42.8699989       3.04329295E-09
   42.9300003       3.32978578E-09
   42.9900017       3.64762753E-09
   43.0499992       3.99288735E-09
   43.1100006       4.36167813E-09
   43.1699982       4.75126161E-09
   43.2299995       5.16010967E-09
   43.2900009       5.58736080E-09
   43.3499985       6.03235684E-09
   43.4099998       6.49448584E-09
   43.4700012       6.97289693E-09
   43.5299988       7.46546114E-09
   43.5900002       7.96685917E-09
   43.6500015       8.46664960E-09
   43.7099991       8.94866847E-09
   43.7700005       9.39281719E-09
   43.8300018       9.77897940E-09
   43.8899994       1.00915480E-08
   43.9500008       1.03224709E-08
   44.0099983       1.04714246E-08
   44.0699997       1.05432685E-08
   44.1300011       1.05442606E-08
   44.1899986       1.04790061E-08
   44.2500000       1.03493427E-08
   44.3100014       1.01550848E-08
   44.3699989       9.89554483E-09
   44.4300003       9.57071844E-09
   44.4900017       9.18166787E-09
   44.5499992       8.73044392E-09
   44.6100006       8.22020141E-09
   44.6699982       7.65569119E-09
   44.7299995       7.04368519E-09
   44.7900009       6.39262998E-09
   44.8499985       5.71122438E-09
   44.9099998       5.00647257E-09
   44.9700012       4.28234115E-09
   45.0299988       3.53995966E-09
   45.0900002       2.77940559E-09
   45.1500015       2.00209538E-09
   45.2099991       1.21243338E-09
   45.2700005       4.17883894E-10
   45.3300018      -3.72283260E-10
   45.3899994      -1.14850252E-09
   45.4500008      -1.90160976E-09
   45.5099983      -2.62248379E-09
   45.5699997      -3.30138272E-09
   45.6300011      -3.92810362E-09
   45.6899986      -4.49352067E-09
   45.7500000      -4.99191311E-09
   45.8100014      -5.42261969E-09
   45.8699989      -5.78964965E-09
   45.9300003      -6.09896533E-09
   45.9900017      -6.35460218E-09
   46.0499992      -6.55561028E-09
   46.1100006      -6.69547751E-09
   46.1699982      -6.76439083E-09
   46.2299995      -6.75318157E-09
   46.2900009      -6.65702027E-09
   46.3499985      -6.47720722E-09
   46.4099998      -6.22052987E-09
   46.4700012      -5.89685500E-09
   46.5299988      -5.51625101E-09
   46.5900002      -5.08681097E-09
   46.6500015      -4.61369165E-09
   46.7099991      -4.09929202E-09
   46.7700005      -3.54420315E-09
   46.8300018      -2.94860802E-09
   46.8899994      -2.31394126E-09
   46.9500008      -1.64455682E-09
   47.0099983      -9.48977341E-10
   47.0699997      -2.40154757E-10
   47.1300011       4.65650879E-10
   47.1899986       1.15128695E-09
   47.2500000       1.80173543E-09
   47.3100014       2.40671993E-09
   47.3699989       2.96193869E-09
   47.4300003       3.46847373E-09
   47.4900017       3.93058119E-09
   47.5499992       4.35263470E-09
   47.6100006       4.73625938E-09
   47.6699982       5.07865838E-09
   47.7299995       5.37280131E-09
   47.7900009       5.60963587E-09
   47.8499985       5.78177506E-09
   47.9099998       5.88745719E-09
   47.9700012       5.93318861E-09
   48.0299988       5.93365934E-09
   48.0900002       5.90842486E-09
   48.1500015       5.87616888E-09
   48.2099991       5.84858562E-09
   48.2700005       5.82635407E-09
   48.3300018       5.79897907E-09
   48.3899994       5.74871883E-09
   48.4500008       5.65704772E-09
   48.5099983       5.51104806E-09
   48.5699997       5.30725952E-09
   48.6300011       5.05171993E-09
   48.6899986       4.75657824E-09
   48.7500000       4.43493198E-09
   48.8100014       4.09593204E-09
   48.8699989       3.74176334E-09
   48.9300003       3.36721717E-09
   48.9900017       2.96171909E-09
   49.0499992       2.51312904E-09
   49.1100006       2.01231920E-09
   49.1699982       1.45736045E-09
   49.2299995       8.56047788E-10
   49.2900009       2.25681432E-10
   49.3499985      -4.10331408E-10
   49.4099998      -1.02838860E-09
   49.4700012      -1.61128744E-09
   49.5299988      -2.15304996E-09
   49.5900002      -2.65994715E-09
   49.6500015      -3.14711679E-09
   49.7099991      -3.63201380E-09
   49.7700005      -4.12729451E-09
   49.8300018      -4.63594096E-09
   49.8899994      -5.15035037E-09
   49.9500008      -5.65535441E-09
   50.0099983      -6.13355811E-09
   50.0699997      -6.57071109E-09
   50.1300011      -6.95923408E-09
   50.1899986      -7.29909644E-09
   50.2500000      -7.59634222E-09
   50.3100014      -7.86020848E-09
   50.3699989      -8.09988077E-09
   50.4300003      -8.32169267E-09
   50.4900017      -8.52734772E-09
   50.5499992      -8.71357297E-09
   50.6100006      -8.87339979E-09