 -0.750000000       0.00000000    
 -0.689999998       0.00000000    
 -0.629999995       0.00000000    
 -0.569999993       0.00000000    
 -0.509999990       0.00000000    
 -0.449999988       0.00000000    
 -0.389999986       0.00000000    
 -0.330000013       0.00000000    
 -0.270000011       0.00000000    
 -0.209999993       0.00000000    
 -0.150000006       0.00000000    
  -9.00000036E-02   0.00000000    
  -2.99999993E-02  -1.07701674E-34
   2.99999993E-02  -1.19554057E-33
   9.00000036E-02  -4.92689906E-33
  0.150000006      -8.55999762E-34
  0.209999993       8.87562593E-32
  0.270000011       4.87140611E-31
  0.330000013       1.38845358E-30
  0.389999986       1.91429575E-30
  0.449999988      -1.75997064E-30
  0.509999990      -1.56927902E-29
  0.569999993      -3.68426667E-29
  0.629999995      -2.84193713E-29
  0.689999998       8.73198160E-29
  0.750000000       3.33026871E-28
  0.810000002       4.00899940E-28
  0.870000005      -6.36891359E-28
  0.930000007      -3.93670211E-27
  0.990000010      -8.74373042E-27
   1.04999995      -8.39691358E-27
   1.11000001       1.21837125E-26
   1.16999996       6.93016770E-26
   1.23000002       1.54614346E-25
   1.28999996       1.94047691E-25
   1.35000002       2.46453952E-26
   1.40999997      -5.45176841E-25
   1.47000003      -1.53194027E-24
   1.52999997      -2.46077724E-24
   1.59000003      -2.14700052E-24
   1.64999998       1.04327012E-24
   1.71000004       8.11024031E-24
   1.76999998       1.76046302E-23
   1.83000004       2.39600865E-23
   1.88999999       1.75972370E-23
   1.95000005      -1.15639672E-23
   2.00999999      -6.67848885E-23
   2.06999993      -1.35325062E-22
   2.13000011      -1.81836907E-22
   2.19000006      -1.50217607E-22
   2.25000000       2.05158393E-23
   2.30999994       3.62914664E-22
   2.36999989       8.31677599E-22
   2.43000007       1.24960131E-21
   2.49000001       1.27926743E-21
   2.54999995       4.75249997E-22
   2.60999990      -1.51773799E-21
   2.67000008      -4.59512240E-21
   2.73000002      -7.74883007E-21
   2.78999996      -8.83839415E-21
   2.84999990      -5.01508498E-21
   2.91000009       5.84910155E-21
   2.97000003       2.28713533E-20
   3.02999997       4.00141448E-20
   3.08999991       4.59064851E-20
   3.15000010       2.74598211E-20
   3.21000004      -2.23636195E-20
   3.26999998      -9.51872791E-20
   3.32999992      -1.61902291E-19
   3.39000010      -1.77961253E-19
   3.45000005      -1.02439469E-19
   3.50999999       7.38822924E-20
   3.56999993       3.05300732E-19
   3.63000011       4.90990785E-19
   3.69000006       5.09542327E-19
   3.75000000       2.81962736E-19
   3.80999994      -1.65312330E-19
   3.86999989      -6.78162681E-19
   3.93000007      -1.02314063E-18
   3.99000001      -9.99986294E-19
   4.05000019      -5.65750490E-19
   4.11000013       1.08500195E-19
   4.17000008       7.07323124E-19
   4.23000002       9.55884229E-19
   4.28999996       8.21939131E-19
   4.34999990       5.89565692E-19
   4.40999985       7.02863431E-19
   4.46999979       1.41334851E-18
   4.53000021       2.42658272E-18
   4.59000015       2.82249721E-18
   4.65000010       1.43210855E-18
   4.71000004      -2.40399407E-18
   4.76999998      -8.06724271E-18
   4.82999992      -1.33971405E-17
   4.88999987      -1.52874856E-17
   4.94999981      -1.10588365E-17
   5.01000023      -2.11395618E-20
   5.07000017       1.56077484E-17
   5.13000011       3.10401642E-17
   5.19000006       4.04932108E-17
   5.25000000       3.92890277E-17
   5.30999994       2.54753580E-17
   5.36999989       3.06649605E-19
   5.42999983      -3.22814215E-17
   5.48999977      -6.64057089E-17
   5.55000019      -9.44304027E-17
   5.61000013      -1.06764466E-16
   5.67000008      -9.25410759E-17
   5.73000002      -4.27998866E-17
   5.78999996       4.34414545E-17
   5.84999990       1.52405593E-16
   5.90999985       2.52642214E-16
   5.96999979       3.00729995E-16
   6.03000021       2.57013090E-16
   6.09000015       1.06791155E-16
   6.15000010      -1.23193517E-16
   6.21000004      -3.64273507E-16
   6.26999998      -5.27005689E-16
   6.32999992      -5.38469168E-16
   6.38999987      -3.79132662E-16
   6.44999981      -9.87154431E-17
   6.51000023       2.01931543E-16
   6.57000017       4.18457411E-16
   6.63000011       4.96973235E-16
   6.69000006       4.62722188E-16
   6.75000000       4.01485861E-16
   6.80999994       3.97564390E-16
   6.86999989       4.61367041E-16
   6.92999983       4.94230172E-16
   6.98999977       3.25156996E-16
   7.05000019      -1.84521734E-16
   7.11000013      -1.01839957E-15
   7.17000008      -1.93938951E-15
   7.23000002      -2.54044705E-15
   7.28999996      -2.41368518E-15
   7.34999990      -1.36804577E-15
   7.40999985       4.19558845E-16
   7.46999979       2.41955215E-15
   7.53000021       3.95235356E-15
   7.59000015       4.49228074E-15
   7.65000010       3.91205809E-15
   7.71000004       2.51845426E-15
   7.76999998       8.36489187E-16
   7.82999992      -7.45566235E-16
   7.88999987      -2.24439781E-15
   7.94999981      -4.04708954E-15
   8.01000023      -6.51506403E-15
   8.06999969      -9.40760107E-15
   8.13000011      -1.14956694E-14
   8.18999958      -1.07407954E-14
   8.25000000      -5.17691375E-15
   8.31000042       5.76732706E-15
   8.36999989       2.01367362E-14
   8.43000031       3.32491670E-14
   8.48999977       3.88857037E-14
   8.55000019       3.17135471E-14
   8.60999966       1.00866140E-14
   8.67000008      -2.20536395E-14
   8.72999954      -5.53217106E-14
   8.78999996      -7.74872923E-14
   8.85000038      -7.78651232E-14
   8.90999985      -5.18832583E-14
   8.97000027      -3.88057980E-15
   9.02999973       5.32961093E-14
   9.09000015       1.02089019E-13
   9.14999962       1.26164202E-13
   9.21000004       1.16219426E-13
   9.27000046       7.33361465E-14
   9.32999992       8.51781245E-15
   9.39000034      -6.13318397E-14
   9.44999981      -1.19212054E-13
   9.51000023      -1.53114582E-13
   9.56999969      -1.58361944E-13
   9.63000011      -1.36591801E-13
   9.68999958      -9.25064875E-14
   9.75000000      -3.06394382E-14
   9.81000042       4.56876561E-14
   9.86999989       1.32371219E-13
   9.93000031       2.20605991E-13
   9.98999977       2.93723786E-13
   10.0500002       3.27738569E-13
   10.1099997       2.97153578E-13
   10.1700001       1.85012270E-13
   10.2299995      -6.42532216E-15
   10.2900000      -2.49294590E-13
   10.3500004      -4.92065752E-13
   10.4099998      -6.70896552E-13
   10.4700003      -7.27567746E-13
   10.5299997      -6.28006327E-13
   10.5900002      -3.74537668E-13
   10.6499996      -7.07081378E-15
   10.7100000       4.07288922E-13
   10.7700005       7.92012181E-13
   10.8299999       1.07918351E-12
   10.8900003       1.22102036E-12
   10.9499998       1.19171600E-12
   11.0100002       9.81753958E-13
   11.0699997       5.91169800E-13
   11.1300001       2.91463732E-14
   11.1899996      -6.76196133E-13
   11.2500000      -1.46069322E-12
   11.3100004      -2.20942405E-12
   11.3699999      -2.75724365E-12
   11.4300003      -2.91422615E-12
   11.4899998      -2.51627452E-12
   11.5500002      -1.48874088E-12
   11.6099997       9.91004289E-14
   11.6700001       2.01322249E-12
   11.7299995       3.88416946E-12
   11.7900000       5.28642321E-12
   11.8500004       5.84830621E-12
   11.9099998       5.35867618E-12
   11.9700003       3.83417170E-12
   12.0299997       1.52231797E-12
   12.0900002      -1.16226896E-12
   12.1499996      -3.74734532E-12
   12.2100000      -5.82060225E-12
   12.2700005      -7.11606989E-12
   12.3299999      -7.54397673E-12
   12.3900003      -7.16240999E-12
   12.4499998      -6.11251848E-12
   12.5100002      -4.55182073E-12
   12.5699997      -2.61670156E-12
   12.6300001      -4.26819279E-13
   12.6899996       1.88056840E-12
   12.7500000       4.11775171E-12
   12.8100004       6.05048563E-12
   12.8699999       7.45892237E-12
   12.9300003       8.24686760E-12
   12.9899998       8.55993141E-12
   13.0500002       8.85509981E-12
   13.1099997       9.86940130E-12
   13.1700001       1.24650412E-11
   13.2299995       1.73738333E-11
   13.2900000       2.49079507E-11
   13.3500004       3.47291813E-11
   13.4099998       4.57629178E-11
   13.4700003       5.63056268E-11
   13.5299997       6.43179190E-11
   13.5900002       6.78385820E-11
   13.6499996       6.54190729E-11
   13.7100000       5.64737736E-11
   13.7700005       4.14697721E-11
   13.8299999       2.19266827E-11
   13.8900003       2.45004971E-13
   13.9499998      -2.05869818E-11
   14.0100002      -3.73496824E-11
   14.0699997      -4.69658895E-11
   14.1300001      -4.68643874E-11
   14.1899996      -3.53188832E-11
   14.2500000      -1.17444656E-11
   14.3100004       2.30811689E-11
   14.3699999       6.69237790E-11
   14.4300003       1.16183056E-10
   14.4899998       1.66206784E-10
   14.5500002       2.11824558E-10
   14.6099997       2.48038645E-10
   14.6700001       2.70756417E-10
   14.7299995       2.77418394E-10
   14.7900000       2.67385669E-10
   14.8500004       2.41999226E-10
   14.9099998       2.04297509E-10
   14.9700003       1.58459038E-10
   15.0299997       1.09096565E-10
   15.0900002       6.05534234E-11
   15.1499996       1.63353549E-11
   15.2100000      -2.12379107E-11
   15.2700005      -5.11408867E-11
   15.3299999      -7.35455724E-11
   15.3900003      -8.95889821E-11
   15.4499998      -1.01078153E-10
   15.5100002      -1.10187290E-10
   15.5699997      -1.19171784E-10
   15.6300001      -1.30098987E-10
   15.6899996      -1.44586371E-10
   15.7500000      -1.63547231E-10
   15.8100004      -1.86967483E-10
   15.8699999      -2.13761245E-10
   15.9300003      -2.41765580E-10
   15.9899998      -2.67923878E-10
   16.0499992      -2.88673474E-10
   16.1100006      -3.00499875E-10
   16.1700001      -3.00567710E-10
   16.2299995      -2.87300239E-10
   16.2900009      -2.60773292E-10
   16.3500004      -2.22821525E-10
   16.4099998      -1.76815201E-10
   16.4699993      -1.27142602E-10
   16.5300007      -7.84995818E-11
   16.5900002      -3.51301245E-11
   16.6499996      -1.68492051E-13
   16.7099991       2.47947288E-11
   16.7700005       3.98516532E-11
   16.8299999       4.66113433E-11
   16.8899994       4.77796448E-11
   16.9500008       4.65818634E-11
   17.0100002       4.61548924E-11
   17.0699997       4.90397653E-11
   17.1299992       5.68798515E-11
   17.1900005       7.03742550E-11
   17.2500000       8.94602031E-11
   17.3099995       1.13622375E-10
   17.3700008       1.42180698E-10
   17.4300003       1.74414941E-10
   17.4899998       2.09453024E-10
   17.5499992       2.45961501E-10
   17.6100006       2.81787010E-10
   17.6700001       3.13759102E-10
   17.7299995       3.37836786E-10
   17.7900009       3.49664991E-10
   17.8500004       3.45441176E-10
   17.9099998       3.22841337E-10
   17.9699993       2.81692364E-10
   18.0300007       2.24135113E-10
   18.0900002       1.54191965E-10
   18.1499996       7.68664993E-11
   18.2099991      -2.92086234E-12
   18.2700005      -8.11989156E-11
   18.3299999      -1.55335356E-10
   18.3899994      -2.23870436E-10
   18.4500008      -2.85944990E-10
   18.5100002      -3.40639239E-10
   18.5699997      -3.86568166E-10
   18.6299992      -4.21959218E-10
   18.6900005      -4.45214116E-10
   18.7500000      -4.55726040E-10
   18.8099995      -4.54582400E-10
   18.8700008      -4.44794618E-10
   18.9300003      -4.30859959E-10
   18.9899998      -4.17716722E-10
   19.0499992      -4.09395212E-10
   19.1100006      -4.07809980E-10
   19.1700001      -4.12113316E-10
   19.2299995      -4.18856588E-10
   19.2900009      -4.22940127E-10
   19.3500004      -4.19070639E-10
   19.4099998      -4.03281603E-10
   19.4699993      -3.74053122E-10
   19.5300007      -3.32704309E-10
   19.5900002      -2.82966289E-10
   19.6499996      -2.29903790E-10
   19.7099991      -1.78554393E-10
   19.7700005      -1.32728634E-10
   19.8299999      -9.43445183E-11
   19.8899994      -6.34740871E-11
   19.9500008      -3.90236871E-11
   20.0100002      -1.97416337E-11
   20.0699997      -5.12809500E-12
   20.1299992       4.13826222E-12
   20.1900005       6.44993694E-12
   20.2500000       1.10541052E-13
   20.3099995      -1.55810677E-11
   20.3700008      -3.94837739E-11
   20.4300003      -6.84291859E-11
   20.4899998      -9.78832224E-11
   20.5499992      -1.23300925E-10
   20.6100006      -1.41714349E-10
   20.6700001      -1.52949278E-10
   20.7299995      -1.59954910E-10
   20.7900009      -1.68032463E-10
   20.8500004      -1.83155199E-10
   20.9099998      -2.09928866E-10
   20.9699993      -2.49902599E-10
   21.0300007      -3.00836051E-10
   21.0900002      -3.57191082E-10
   21.1499996      -4.11670198E-10
   21.2099991      -4.57245408E-10
   21.2700005      -4.88952823E-10
   21.3299999      -5.04842945E-10
   21.3899994      -5.05820719E-10
   21.4500008      -4.94546015E-10
   21.5100002      -4.73916517E-10
   21.5699997      -4.45782633E-10
   21.6299992      -4.10402434E-10
   21.6900005      -3.66804420E-10
   21.7500000      -3.13835707E-10
   21.8099995      -2.51397653E-10
   21.8700008      -1.81318446E-10
   21.9300003      -1.07491523E-10
   21.9899998      -3.52276056E-11
   22.0499992       2.99124128E-11
   22.1100006       8.33529912E-11
   22.1700001       1.22368893E-10
   22.2299995       1.46325813E-10
   22.2900009       1.56304886E-10
   22.3500004       1.54343135E-10
   22.4099998       1.42620984E-10
   22.4699993       1.22882399E-10
   22.5300007       9.62250071E-11
   22.5900002       6.32278882E-11
   22.6499996       2.42704138E-11
   22.7099991      -2.01273772E-11
   22.7700005      -6.90553448E-11
   22.8299999      -1.21082741E-10
   22.8899994      -1.74216655E-10
   22.9500008      -2.25921018E-10
   23.0100002      -2.73212702E-10
   23.0699997      -3.12897125E-10
   23.1299992      -3.41999346E-10
   23.1900005      -3.58370833E-10
   23.2500000      -3.61334074E-10
   23.3099995      -3.52131019E-10
   23.3700008      -3.33934991E-10
   23.4300003      -3.11297765E-10
   23.4899998      -2.89101409E-10
   23.5499992      -2.71289297E-10
   23.6100006      -2.59766125E-10
   23.6700001      -2.53828569E-10
   23.7299995      -2.50328674E-10
   23.7900009      -2.44535892E-10
   23.8500004      -2.31453648E-10
   23.9099998      -2.07215953E-10
   23.9699993      -1.70175388E-10
   24.0300007      -1.21378241E-10
   24.0900002      -6.42723513E-11
   24.1499996      -3.68536712E-12
   24.2099991       5.56873749E-11
   24.2700005       1.10870771E-10
   24.3299999       1.61771416E-10
   24.3899994       2.11467843E-10
   24.4500008       2.65420741E-10
   24.5100002       3.29757582E-10
   24.5699997       4.09157375E-10
   24.6299992       5.05071207E-10
   24.6900005       6.14948870E-10
   24.7500000       7.32789718E-10
   24.8099995       8.50828963E-10
   24.8700008       9.61720370E-10
   24.9300003       1.06038112E-09
   24.9899998       1.14480969E-09
   25.0499992       1.21561128E-09
   25.1100006       1.27448174E-09
   25.1700001       1.32230271E-09
   25.2299995       1.35763922E-09
   25.2900009       1.37626455E-09
   25.3500004       1.37195255E-09
   25.4099998       1.33831268E-09
   25.4699993       1.27105415E-09
   25.5300007       1.16988519E-09
   25.5900002       1.03933950E-09
   25.6499996       8.88167540E-10
   25.7099991       7.27420735E-10
   25.7700005       5.67844383E-10
   25.8299999       4.17465257E-10
   25.8899994       2.80209383E-10
   25.9500008       1.55996410E-10
   26.0100002       4.21849430E-11
   26.0699997      -6.42730660E-11
   26.1299992      -1.64847816E-10
   26.1900005      -2.58360139E-10
   26.2500000      -3.41138756E-10
   26.3099995      -4.08212297E-10
   26.3700008      -4.54975363E-10
   26.4300003      -4.78672046E-10
   26.4899998      -4.79200513E-10
   26.5499992      -4.59042027E-10
   26.6100006      -4.22420154E-10
   26.6700001      -3.74013209E-10
   26.7299995      -3.17657317E-10
   26.7900009      -2.55487492E-10
   26.8500004      -1.87863086E-10
   26.9099998      -1.14193779E-10
   26.9699993      -3.44412276E-11
   27.0300007       4.92759410E-11
   27.0900002       1.31726241E-10
   27.1499996       2.04871120E-10
   27.2099991       2.59566452E-10
   27.2700005       2.88151558E-10
   27.3299999       2.86922069E-10
   27.3899994       2.57416893E-10
   27.4500008       2.05899922E-10
   27.5100002       1.41191059E-10
   27.5699997       7.17296431E-11
   27.6299992       3.07489646E-12
   27.6900005      -6.31858593E-11
   27.7500000      -1.28802122E-10
   27.8099995      -1.96914193E-10
   27.8700008      -2.69695072E-10
   27.9300003      -3.46535384E-10
   27.9899998      -4.23409058E-10
   28.0499992      -4.93567576E-10
   28.1100006      -5.49263746E-10
   28.1700001      -5.83927351E-10
   28.2299995      -5.94125527E-10
   28.2900009      -5.80711146E-10
   28.3500004      -5.48768475E-10
   28.4099998      -5.06293563E-10
   28.4699993      -4.61951005E-10
   28.5300007      -4.22615803E-10
   28.5900002      -3.91570915E-10
   28.6499996      -3.68064162E-10
   28.7099991      -3.48434948E-10
   28.7700005      -3.28387872E-10
   28.8299999      -3.05488912E-10
   28.8899994      -2.80839185E-10
   28.9500008      -2.59210736E-10
   29.0100002      -2.47564830E-10
   29.0699997      -2.52538546E-10
   29.1299992      -2.77896234E-10
   29.1900005      -3.22946531E-10
   29.2500000      -3.82544191E-10
   29.3099995      -4.48692306E-10
   29.3700008      -5.13167397E-10
   29.4300003      -5.70209657E-10
   29.4899998      -6.18285090E-10
   29.5499992      -6.60256627E-10
   29.6100006      -7.01894265E-10
   29.6700001      -7.49301621E-10
   29.7299995      -8.06282485E-10
   29.7900009      -8.72705075E-10
   29.8500004      -9.44507028E-10
   29.9099998      -1.01527342E-09
   29.9699993      -1.07864662E-09
   30.0300007      -1.13050269E-09
   30.0900002      -1.16999699E-09
   30.1499996      -1.19916022E-09
   30.2099991      -1.22138688E-09
   30.2700005      -1.23958876E-09
   30.3299999      -1.25481414E-09
   30.3899994      -1.26580757E-09
   30.4500008      -1.26953259E-09
   30.5100002      -1.26231803E-09
   30.5699997      -1.24115362E-09
   30.6299992      -1.20470567E-09
   30.6900005      -1.15376475E-09
   30.7500000      -1.09100073E-09
   30.8099995      -1.02007736E-09
   30.8700008      -9.44374912E-10
   30.9300003      -8.65753191E-10
   30.9899998      -7.83843324E-10
   31.0499992      -6.96207425E-10
   31.1100006      -5.99353678E-10
   31.1700001      -4.90207153E-10
   31.2299995      -3.67433084E-10
   31.2900009      -2.32125985E-10
   31.3500004      -8.77382958E-11
   31.4099998       6.05055797E-11
   31.4699993       2.06333783E-10
   31.5300007       3.43082146E-10
   31.5900002       4.64362909E-10
   31.6499996       5.64958580E-10
   31.7099991       6.41959985E-10
   31.7700005       6.95768221E-10
   31.8299999       7.30316807E-10
   31.8899994       7.52044538E-10
   31.9500008       7.67769959E-10
   32.0099983       7.82337417E-10
   32.0699997       7.97210298E-10
   32.1300011       8.10793377E-10
   32.1899986       8.20331691E-10
   32.2500000       8.24314283E-10
   32.3100014       8.24005253E-10
   32.3699989       8.23257296E-10
   32.4300003       8.26810731E-10
   32.4900017       8.38171366E-10
   32.5499992       8.58328519E-10
   32.6100006       8.85942930E-10
   32.6699982       9.18660037E-10
   32.7299995       9.54553880E-10
   32.7900009       9.92791960E-10
   32.8499985       1.03330544E-09
   32.9099998       1.07599973E-09
   32.9700012       1.12030973E-09
   33.0299988       1.16550447E-09
   33.0900002       1.21145827E-09
   33.1500015       1.25914756E-09
   33.2099991       1.31030697E-09
   33.2700005       1.36632705E-09
   33.3300018       1.42711376E-09
   33.3899994       1.49074109E-09
   33.4500008       1.55421809E-09
   33.5099983       1.61489289E-09
   33.5699997       1.67154324E-09
   33.6300011       1.72438697E-09
   33.6899986       1.77398052E-09
   33.7500000       1.81973103E-09
   33.8100014       1.85901872E-09
   33.8699989       1.88751592E-09
   33.9300003       1.90051530E-09
   33.9900017       1.89447591E-09
   34.0499992       1.86793403E-09
   34.1100006       1.82139948E-09
   34.1699982       1.75648307E-09
   34.2299995       1.67485148E-09
   34.2900009       1.57753033E-09
   34.3499985       1.46472279E-09
   34.4099998       1.33601485E-09
   34.4700012       1.19078514E-09
   34.5299988       1.02876363E-09
   34.5900002       8.50757298E-10
   34.6500015       6.59426902E-10
   34.7099991       4.59738220E-10
   34.7700005       2.58612243E-10
   34.8300018       6.35540717E-11
   34.8899994      -1.19400392E-10
   34.9500008      -2.87565055E-10
   35.0099983      -4.42378689E-10
   35.0699997      -5.88620597E-10
   35.1300011      -7.32393812E-10
   35.1899986      -8.78797646E-10
   35.2500000      -1.03026387E-09
   35.3100014      -1.18604615E-09
   35.3699989      -1.34271394E-09
   35.4300003      -1.49514356E-09
   35.4900017      -1.63758074E-09
   35.5499992      -1.76468595E-09
   35.6100006      -1.87265914E-09
   35.6699982      -1.96035610E-09
   35.7299995      -2.02993222E-09
   35.7900009      -2.08635997E-09
   35.8499985      -2.13554618E-09
   35.9099998      -2.18158336E-09
   35.9700012      -2.22444041E-09
   36.0299988      -2.25946950E-09
   36.0900002      -2.27930830E-09
   36.1500015      -2.27743602E-09
   36.2099991      -2.25161911E-09
   36.2700005      -2.20541563E-09
   36.3300018      -2.14692353E-09
   36.3899994      -2.08543982E-09
   36.4500008      -2.02775952E-09
   36.5099983      -1.97589123E-09
   36.5699997      -1.92704297E-09
   36.6300011      -1.87549176E-09
   36.6899986      -1.81516380E-09
   36.7500000      -1.74177350E-09
   36.8100014      -1.65399638E-09
   36.8699989      -1.55378332E-09
   36.9300003      -1.44614221E-09
   36.9900017      -1.33848932E-09
   37.0499992      -1.23940258E-09
   37.1100006      -1.15669341E-09
   37.1699982      -1.09519471E-09
   37.2299995      -1.05517095E-09
   37.2900009      -1.03228237E-09
   37.3499985      -1.01937692E-09
   37.4099998      -1.00937914E-09
   37.4700012      -9.97832927E-10
   37.5299988      -9.83787163E-10
   37.5900002      -9.68661040E-10
   37.6500015      -9.53918500E-10
   37.7099991      -9.39052502E-10
   37.7700005      -9.21102306E-10
   37.8300018      -8.95914232E-10
   37.8899994      -8.60278182E-10
   37.9500008      -8.13639711E-10
   38.0099983      -7.58489049E-10
   38.0699997      -6.99426794E-10
   38.1300011      -6.41640630E-10
   38.1899986      -5.89658100E-10
   38.2500000      -5.46792944E-10
   38.3100014      -5.15122833E-10
   38.3699989      -4.95582075E-10
   38.4300003      -4.87962060E-10
   38.4900017      -4.91003238E-10
   38.5499992      -5.02909714E-10
   38.6100006      -5.22324684E-10
   38.6699982      -5.49287338E-10
   38.7299995      -5.85416493E-10
   38.7900009      -6.32863928E-10
   38.8499985      -6.92354285E-10
   38.9099998      -7.61371632E-10
   38.9700012      -8.33694502E-10
   39.0299988      -9.00834574E-10
   39.0900002      -9.54839208E-10
   39.1500015      -9.91074001E-10
   39.2099991      -1.00955799E-09
   39.2700005      -1.01422404E-09
   39.3300018      -1.01062270E-09
   39.3899994      -1.00335351E-09
   39.4500008      -9.94475502E-10
   39.5099983      -9.83412574E-10
   39.5699997      -9.67973701E-10
   39.6300011      -9.45643785E-10
   39.6899986      -9.14466114E-10
   39.7500000      -8.73394468E-10
   39.8100014      -8.22436896E-10
   39.8699989      -7.62922392E-10
   39.9300003      -6.97833569E-10
   39.9900017      -6.31768082E-10
   40.0499992      -5.70089975E-10
   40.1100006      -5.17303478E-10
   40.1699982      -4.75292805E-10
   40.2299995      -4.42365811E-10
   40.2900009      -4.13730800E-10
   40.3499985      -3.83280657E-10
   40.4099998      -3.45831225E-10
   40.4700012      -2.98741143E-10
   40.5299988      -2.42265819E-10
   40.5900002      -1.78771761E-10
   40.6500015      -1.11535177E-10
   40.7099991      -4.38911130E-11
   40.7700005       2.09746508E-11
   40.8300018       7.99075389E-11
   40.8899994       1.29914426E-10
   40.9500008       1.68852363E-10
   41.0099983       1.96404629E-10
   41.0699997       2.14650658E-10
   41.1300011       2.27630428E-10
   41.1899986       2.39896436E-10
   41.2500000       2.54739729E-10
   41.3100014       2.73074063E-10
   41.3699989       2.93624458E-10
   41.4300003       3.14287651E-10
   41.4900017       3.33816447E-10
   41.5499992       3.52806701E-10
   41.6100006       3.73429815E-10
   41.6699982       3.98152455E-10
   41.7299995       4.28277996E-10
   41.7900009       4.63172695E-10
   41.8499985       5.00529007E-10
   41.9099998       5.37354827E-10
   41.9700012       5.71019898E-10
   42.0299988       5.99828964E-10
   42.0900002       6.23062602E-10
   42.1500015       6.40829889E-10
   42.2099991       6.54097498E-10
   42.2700005       6.64924671E-10
   42.3300018       6.76538214E-10
   42.3899994       6.92802926E-10
   42.4500008       7.16998683E-10
   42.5099983       7.50373652E-10
   42.5699997       7.91289145E-10
   42.6300011       8.35590874E-10
   42.6899986       8.78198680E-10
   42.7500000       9.15190757E-10
   42.8100014       9.45344025E-10
   42.8699989       9.70387881E-10
   42.9300003       9.93947924E-10
   42.9900017       1.01983599E-09
   43.0499992       1.05056819E-09
   43.1100006       1.08667597E-09
   43.1699982       1.12680876E-09
   43.2299995       1.16821253E-09
   43.2900009       1.20717969E-09
   43.3499985       1.23939359E-09
   43.4099998       1.26041799E-09
   43.4700012       1.26658350E-09
   43.5299988       1.25618038E-09
   43.5900002       1.23044319E-09
   43.6500015       1.19367438E-09
   43.7099991       1.15217635E-09
   43.7700005       1.11228593E-09
   43.8300018       1.07832998E-09
   43.8899994       1.05140585E-09
   43.9500008       1.02947439E-09
   44.0099983       1.00860309E-09
   44.0699997       9.84713200E-10
   44.1300011       9.55106660E-10
   44.1899986       9.19339271E-10
   44.2500000       8.79393114E-10
   44.3100014       8.39320002E-10
   44.3699989       8.04507627E-10
   44.4300003       7.80624121E-10
   44.4900017       7.72311104E-10
   44.5499992       7.81889220E-10
   44.6100006       8.08554057E-10
   44.6699982       8.48537962E-10
   44.7299995       8.96368590E-10
   44.7900009       9.46821177E-10
   44.8499985       9.96739802E-10
   44.9099998       1.04590558E-09
   44.9700012       1.09657283E-09
   45.0299988       1.15194798E-09
   45.0900002       1.21435584E-09
   45.1500015       1.28388589E-09
   45.2099991       1.35796130E-09
   45.2700005       1.43177914E-09
   45.3300018       1.49924773E-09
   45.3899994       1.55400637E-09
   45.4500008       1.59028346E-09
   45.5099983       1.60353530E-09
   45.5699997       1.59086644E-09
   45.6300011       1.55120095E-09
   45.6899986       1.48514978E-09
   45.7500000       1.39459599E-09
   45.8100014       1.28216326E-09
   45.8699989       1.15078691E-09
   45.9300003       1.00352537E-09
   45.9900017       8.43535353E-10
   46.0499992       6.73982536E-10
   46.1100006       4.97708985E-10
   46.1699982       3.16708298E-10
   46.2299995       1.31718261E-10
   46.2900009      -5.77190032E-11
   46.3499985      -2.52611709E-10
   46.4099998      -4.53548782E-10
   46.4700012      -6.59910404E-10
   46.5299988      -8.69688099E-10
   46.5900002      -1.07998033E-09
   46.6500015      -1.28783284E-09
   46.7099991      -1.49093504E-09
   46.7700005      -1.68786629E-09
   46.8300018      -1.87793026E-09
   46.8899994      -2.06086614E-09
   46.9500008      -2.23668306E-09
   47.0099983      -2.40560949E-09
   47.0699997      -2.56792720E-09
   47.1300011      -2.72349432E-09
   47.1899986      -2.87104474E-09
   47.2500000      -3.00764635E-09
   47.3100014      -3.12874349E-09
   47.3699989      -3.22891358E-09
   47.4300003      -3.30301186E-09
   47.4900017      -3.34714323E-09
   47.5499992      -3.35904349E-09
   47.6100006      -3.33789973E-09
   47.6699982      -3.28402283E-09
   47.7299995      -3.19881344E-09
   47.7900009      -3.08506798E-09
   47.8499985      -2.94721869E-09
   47.9099998      -2.79095103E-09
   47.9700012      -2.62201127E-09
   48.0299988      -2.44465337E-09
   48.0900002      -2.26059615E-09
   48.1500015      -2.06921746E-09
   48.2099991      -1.86897298E-09
   48.2700005      -1.65924730E-09
   48.3300018      -1.44151335E-09
   48.3899994      -1.21910892E-09
   48.4500008      -9.95832194E-10
   48.5099983      -7.74312336E-10
   48.5699997      -5.55212154E-10
   48.6300011      -3.37702116E-10
   48.6899986      -1.20777222E-10
   48.7500000       9.55210147E-11
   48.8100014       3.09728743E-10
   48.8699989       5.19486454E-10
   48.9300003       7.22377658E-10
   48.9900017       9.16366483E-10
   49.0499992       1.09958920E-09
   49.1100006       1.26989586E-09
   49.1699982       1.42482648E-09
   49.2299995       1.56238578E-09
   49.2900009       1.68229020E-09
   49.3499985       1.78684478E-09
   49.4099998       1.88067584E-09
   49.4700012       1.96919792E-09
   49.5299988       2.05648099E-09
   49.5900002       2.14356022E-09
   49.6500015       2.22797469E-09
   49.7099991       2.30460806E-09
   49.7700005       2.36727793E-09
   49.8300018       2.41032150E-09
   49.8899994       2.42969977E-09
   49.9500008       2.42357778E-09
   50.0099983       2.39255193E-09
   50.0699997       2.33960962E-09
   50.1300011       2.26969221E-09
   50.1899986       2.18871743E-09
   50.2500000       2.10218776E-09
   50.3100014       2.01388928E-09
   50.3699989       1.92530547E-09
   50.4300003       1.83604076E-09
   50.4900017       1.74495907E-09
   50.5499992       1.65129299E-09
   50.6100006       1.55505298E-09