 -0.750000000       0.00000000    
 -0.689999998       0.00000000    
 -0.629999995       0.00000000    
 -0.569999993       0.00000000    
 -0.509999990       0.00000000    
 -0.449999988       0.00000000    
 -0.389999986       0.00000000    
 -0.330000013       0.00000000    
 -0.270000011       0.00000000    
 -0.209999993       0.00000000    
 -0.150000006       2.91393835E-31
  -9.00000036E-02   8.55559771E-31
  -2.99999993E-02  -1.90848749E-29
   2.99999993E-02  -2.11932413E-28
   9.00000036E-02  -1.13953721E-27
  0.150000006      -3.92972870E-27
  0.209999993      -8.93462166E-27
  0.270000011      -1.04360081E-26
  0.330000013       1.29329601E-26
  0.389999986       1.02742101E-25
  0.449999988       2.95502611E-25
  0.509999990       5.38636691E-25
  0.569999993       5.56415348E-25
  0.629999995      -2.30700424E-25
  0.689999998      -2.52442017E-24
  0.750000000      -6.50216984E-24
  0.810000002      -1.07490708E-23
  0.870000005      -1.12868964E-23
  0.930000007      -1.68976156E-24
  0.990000010       2.46043981E-23
   1.04999995       6.91229839E-23
   1.11000001       1.20686580E-22
   1.16999996       1.47360328E-22
   1.23000002       9.33259180E-23
   1.28999996      -1.09202217E-22
   1.35000002      -4.99392776E-22
   1.40999997      -1.01153465E-21
   1.47000003      -1.38436865E-21
   1.52999997      -1.12823760E-21
   1.59000003       3.32521835E-22
   1.64999998       3.24832877E-21
   1.71000004       6.92857063E-21
   1.76999998       9.26918723E-21
   1.83000004       7.02404941E-21
   1.88999999      -2.64929310E-21
   1.95000005      -1.94832070E-20
   2.00999999      -3.74846750E-20
   2.06999993      -4.46684187E-20
   2.13000011      -2.72525542E-20
   2.19000006       2.16183427E-20
   2.25000000       9.21226654E-20
   2.30999994       1.53592214E-19
   2.36999989       1.62336638E-19
   2.43000007       8.25912635E-20
   2.49000001      -8.72404580E-20
   2.54999995      -2.98345022E-19
   2.60999990      -4.60012613E-19
   2.67000008      -4.76019540E-19
   2.73000002      -2.93718420E-19
   2.78999996       6.25133670E-20
   2.84999990       4.97662255E-19
   2.91000009       8.92259668E-19
   2.97000003       1.15699076E-18
   3.02999997       1.25013140E-18
   3.08999991       1.13415923E-18
   3.15000010       7.01465445E-19
   3.21000004      -2.50050211E-19
   3.26999998      -1.90987029E-18
   3.32999992      -4.20938937E-18
   3.39000010      -6.55488109E-18
   3.45000005      -7.74968641E-18
   3.50999999      -6.29314006E-18
   3.56999993      -1.07128492E-18
   3.63000011       7.79965060E-18
   3.69000006       1.84044940E-17
   3.75000000       2.71431030E-17
   3.80999994       2.96721696E-17
   3.86999989       2.24323789E-17
   3.93000007       4.21817031E-18
   3.99000001      -2.27941744E-17
   4.05000019      -5.29226483E-17
   4.11000013      -7.78042643E-17
   4.17000008      -8.80084901E-17
   4.23000002      -7.52569980E-17
   4.28999996      -3.50786486E-17
   4.34999990       3.04645425E-17
   4.40999985       1.10810253E-16
   4.46999979       1.86959481E-16
   4.53000021       2.34715768E-16
   4.59000015       2.31165720E-16
   4.65000010       1.62698340E-16
   4.71000004       3.13943696E-17
   4.76999998      -1.43327623E-16
   4.82999992      -3.28843760E-16
   4.88999987      -4.87085343E-16
   4.94999981      -5.81599715E-16
   5.01000023      -5.80431180E-16
   5.07000017      -4.55428493E-16
   5.13000011      -1.83465629E-16
   5.19000006       2.43354816E-16
   5.25000000       7.96181271E-16
   5.30999994       1.38438070E-15
   5.36999989       1.84467513E-15
   5.42999983       1.96388062E-15
   5.48999977       1.54328799E-15
   5.55000019       4.90693545E-16
   5.61000013      -1.09597159E-15
   5.67000008      -2.89758473E-15
   5.73000002      -4.42502336E-15
   5.78999996      -5.14840813E-15
   5.84999990      -4.66294136E-15
   5.90999985      -2.82980113E-15
   5.96999979       1.59481693E-16
   6.03000021       3.81080801E-15
   6.09000015       7.42205674E-15
   6.15000010       1.01983944E-14
   6.21000004       1.13558285E-14
   6.26999998       1.02184733E-14
   6.32999992       6.34761451E-15
   6.38999987      -2.64277006E-16
   6.44999981      -8.95550486E-15
   6.51000023      -1.82143797E-14
   6.57000017      -2.57129557E-14
   6.63000011      -2.86922484E-14
   6.69000006      -2.47193555E-14
   6.75000000      -1.26566136E-14
   6.80999994       6.48268153E-15
   6.86999989       2.91787129E-14
   6.92999983       4.98370266E-14
   6.98999977       6.20479959E-14
   7.05000019       6.04019330E-14
   7.11000013       4.23347203E-14
   7.17000008       9.39382832E-15
   7.23000002      -3.25544035E-14
   7.28999996      -7.43452134E-14
   7.34999990      -1.05552231E-13
   7.40999985      -1.17013170E-13
   7.46999979      -1.03174366E-13
   7.53000021      -6.36545802E-14
   7.59000015      -3.67099971E-15
   7.65000010       6.67146324E-14
   7.71000004       1.34299513E-13
   7.76999998       1.85013829E-13
   7.82999992       2.06373709E-13
   7.88999987       1.89793778E-13
   7.94999981       1.32514036E-13
   8.01000023       3.89058801E-14
   8.06999969      -7.91258470E-14
   8.13000011      -2.02965249E-13
   8.18999958      -3.09570783E-13
   8.25000000      -3.75190276E-13
   8.31000042      -3.80043138E-13
   8.36999989      -3.13062727E-13
   8.43000031      -1.75541182E-13
   8.48999977       1.73826255E-14
   8.55000019       2.37975438E-13
   8.60999966       4.49798537E-13
   8.67000008       6.13493848E-13
   8.72999954       6.93383014E-13
   8.78999996       6.63826741E-13
   8.85000038       5.14555466E-13
   8.90999985       2.54431594E-13
   8.97000027      -8.68966289E-14
   9.02999973      -4.60213790E-13
   9.09000015      -8.01771410E-13
   9.14999962      -1.04280365E-12
   9.21000004      -1.12314877E-12
   9.27000046      -1.00691731E-12
   9.32999992      -6.96361913E-13
   9.39000034      -2.39111113E-13
   9.44999981       2.75477991E-13
   9.51000023       7.32663767E-13
   9.56999969       1.01937122E-12
   9.63000011       1.05598462E-12
   9.68999958       8.24216671E-13
   9.75000000       3.82129034E-13
   9.81000042      -1.40066479E-13
   9.86999989      -5.64997918E-13
   9.93000031      -7.09821958E-13
   9.98999977      -4.35609231E-13
   10.0500002       3.07273711E-13
   10.1099997       1.44926410E-12
   10.1700001       2.79550862E-12
   10.2299995       4.04671262E-12
   10.2900000       4.84407349E-12
   10.3500004       4.83016448E-12
   10.4099998       3.71443891E-12
   10.4700003       1.33156593E-12
   10.5299997      -2.31679606E-12
   10.5900002      -7.04197464E-12
   10.6499996      -1.24706608E-11
   10.7100000      -1.80672456E-11
   10.7700005      -2.31727779E-11
   10.8299999      -2.70585793E-11
   10.8900003      -2.89942827E-11
   10.9499998      -2.83302722E-11
   11.0100002      -2.45912561E-11
   11.0699997      -1.75713957E-11
   11.1300001      -7.41382736E-12
   11.1899996       5.34721616E-12
   11.2500000       1.98021547E-11
   11.3100004       3.47505080E-11
   11.3699999       4.88488590E-11
   11.4300003       6.07991019E-11
   11.4899998       6.95395824E-11
   11.5500002       7.43971065E-11
   11.6099997       7.51645968E-11
   11.6700001       7.20861634E-11
   11.7299995       6.57538399E-11
   11.7900000       5.69408271E-11
   11.8500004       4.64106149E-11
   11.9099998       3.47448702E-11
   11.9700003       2.22270240E-11
   12.0299997       8.80437737E-12
   12.0900002      -5.86561008E-12
   12.1499996      -2.22959914E-11
   12.2100000      -4.10014453E-11
   12.2700005      -6.23105179E-11
   12.3299999      -8.61908392E-11
   12.3900003      -1.12115726E-10
   12.4499998      -1.38994483E-10
   12.5100002      -1.65181147E-10
   12.5699997      -1.88568425E-10
   12.6300001      -2.06764619E-10
   12.6899996      -2.17343019E-10
   12.7500000      -2.18140950E-10
   12.8100004      -2.07574721E-10
   12.8699999      -1.84925006E-10
   12.9300003      -1.50540413E-10
   12.9899998      -1.05908338E-10
   13.0500002      -5.35563260E-11
   13.1099997       3.22847283E-12
   13.1700001       6.08385564E-11
   13.2299995       1.15885482E-10
   13.2900000       1.65752315E-10
   13.3500004       2.09060144E-10
   13.4099998       2.45958559E-10
   13.4700003       2.78179563E-10
   13.5299997       3.08836762E-10
   13.5900002       3.41995404E-10
   13.6499996       3.82075482E-10
   13.7100000       4.33169639E-10
   13.7700005       4.98363184E-10
   13.8299999       5.79135684E-10
   13.8900003       6.74912182E-10
   13.9499998       7.82817922E-10
   14.0100002       8.97680985E-10
   14.0699997       1.01230824E-09
   14.1300001       1.11803422E-09
   14.1899996       1.20550891E-09
   14.2500000       1.26564670E-09
   14.3100004       1.29062094E-09
   14.3699999       1.27477096E-09
   14.4300003       1.21529187E-09
   14.4899998       1.11261356E-09
   14.5500002       9.70425629E-10
   14.6099997       7.95360611E-10
   14.6700001       5.96392546E-10
   14.7299995       3.84026116E-10
   14.7900000       1.69360331E-10
   14.8500004      -3.69015200E-11
   14.9099998      -2.25424457E-10
   14.9700003      -3.89118959E-10
   15.0299997      -5.23826982E-10
   15.0900002      -6.28706809E-10
   15.1499996      -7.06213421E-10
   15.2100000      -7.61616048E-10
   15.2700005      -8.02073352E-10
   15.3299999      -8.35389313E-10
   15.3900003      -8.68659589E-10
   15.4499998      -9.07061870E-10
   15.5100002      -9.53021662E-10
   15.5699997      -1.00589437E-09
   15.6300001      -1.06218179E-09
   15.6899996      -1.11618215E-09
   15.7500000      -1.16089915E-09
   15.8100004      -1.18902455E-09
   15.8699999      -1.19385346E-09
   15.9300003      -1.17006160E-09
   15.9899998      -1.11432308E-09
   16.0499992      -1.02577091E-09
   16.1100006      -9.06280329E-10
   16.1700001      -7.60523811E-10
   16.2299995      -5.95737237E-10
   16.2900009      -4.21159357E-10
   16.3500004      -2.47173532E-10
   16.4099998      -8.42601891E-11
   16.4699993       5.80727376E-11
   16.5300007       1.72201184E-10
   16.5900002       2.53002230E-10
   16.6499996       2.98123803E-10
   16.7099991       3.07941506E-10
   16.7700005       2.85297147E-10
   16.8299999       2.35120590E-10
   16.8899994       1.63999148E-10
   16.9500008       7.96942790E-11
   17.0100002      -9.44094802E-12
   17.0699997      -9.51900850E-11
   17.1299992      -1.70336620E-10
   17.1900005      -2.29557151E-10
   17.2500000      -2.70153011E-10
   17.3099995      -2.92403879E-10
   17.3700008      -2.99391928E-10
   17.4300003      -2.96292546E-10
   17.4899998      -2.89299806E-10
   17.5499992      -2.84479218E-10
   17.6100006      -2.86850904E-10
   17.6700001      -2.99895303E-10
   17.7299995      -3.25484056E-10
   17.7900009      -3.64068331E-10
   17.8500004      -4.14887263E-10
   17.9099998      -4.76028494E-10
   17.9699993      -5.44340739E-10
   18.0300007      -6.15369533E-10
   18.0900002      -6.83557433E-10
   18.1499996      -7.42868100E-10
   18.2099991      -7.87790999E-10
   18.2700005      -8.14458390E-10
   18.3299999      -8.21480828E-10
   18.3899994      -8.10156608E-10
   18.4500008      -7.83922316E-10
   18.5100002      -7.47198692E-10
   18.5699997      -7.04022785E-10
   18.6299992      -6.56941612E-10
   18.6900005      -6.06544204E-10
   18.7500000      -5.51772961E-10
   18.8099995      -4.90878893E-10
   18.8700008      -4.22671148E-10
   18.9300003      -3.47625206E-10
   18.9899998      -2.68478517E-10
   19.0499992      -1.90120045E-10
   19.1100006      -1.18816415E-10
   19.1700001      -6.10304099E-11
   19.2299995      -2.22189610E-11
   19.2900009      -5.99645203E-12
   19.3500004      -1.39124164E-11
   19.4099998      -4.58602809E-11
   19.4699993      -1.00887236E-10
   19.5300007      -1.78014464E-10
   19.5900002      -2.76672296E-10
   19.6499996      -3.96524480E-10
   19.7099991      -5.36732159E-10
   19.7700005      -6.94978519E-10
   19.8299999      -8.66715921E-10
   19.8899994      -1.04504394E-09
   19.9500008      -1.22139276E-09
   20.0100002      -1.38686918E-09
   20.0699997      -1.53385948E-09
   20.1299992      -1.65737102E-09
   20.1900005      -1.75568060E-09
   20.2500000      -1.83010718E-09
   20.3099995      -1.88402427E-09
   20.3700008      -1.92148053E-09
   20.4300003      -1.94591254E-09
   20.4899998      -1.95936711E-09
   20.5499992      -1.96244931E-09
   20.6100006      -1.95491978E-09
   20.6700001      -1.93661198E-09
   20.7299995      -1.90820493E-09
   20.7900009      -1.87143412E-09
   20.8500004      -1.82857829E-09
   20.9099998      -1.78139081E-09
   20.9699993      -1.72995362E-09
   21.0300007      -1.67204883E-09
   21.0900002      -1.60347968E-09
   21.1499996      -1.51939572E-09
   21.2099991      -1.41620349E-09
   21.2700005      -1.29333233E-09
   21.3299999      -1.15410592E-09
   21.3899994      -1.00530106E-09
   21.4500008      -8.55509330E-10
   21.5100002      -7.12916060E-10
   21.5699997      -5.83340820E-10
   21.6299992      -4.69246531E-10
   21.6900005      -3.69985154E-10
   21.7500000      -2.83026796E-10
   21.8099995      -2.05555170E-10
   21.8700008      -1.35747871E-10
   21.9300003      -7.32888958E-11
   21.9899998      -1.90406614E-11
   22.0499992       2.58550022E-11
   22.1100006       6.10037784E-11
   22.1700001       8.74945116E-11
   22.2299995       1.08086096E-10
   22.2900009       1.26793534E-10
   22.3500004       1.48003082E-10
   22.4099998       1.75376949E-10
   22.4699993       2.10880577E-10
   22.5300007       2.54268551E-10
   22.5900002       3.03266134E-10
   22.6499996       3.54475810E-10
   22.7099991       4.04762140E-10
   22.7700005       4.52630960E-10
   22.8299999       4.99051189E-10
   22.8899994       5.47341394E-10
   22.9500008       6.02113581E-10
   23.0100002       6.67680633E-10
   23.0699997       7.46580575E-10
   23.1299992       8.38827008E-10
   23.1900005       9.42169898E-10
   23.2500000       1.05320364E-09
   23.3099995       1.16880350E-09
   23.3700008       1.28726907E-09
   23.4300003       1.40871814E-09
   23.4899998       1.53460422E-09
   23.5499992       1.66656777E-09
   23.6100006       1.80504345E-09
   23.6700001       1.94810790E-09
   23.7299995       2.09097051E-09
   23.7900009       2.22635199E-09
   23.8500004       2.34576358E-09
   23.9099998       2.44143439E-09
   23.9699993       2.50834886E-09
   24.0300007       2.54570631E-09
   24.0900002       2.55716426E-09
   24.1499996       2.54958654E-09
   24.2099991       2.53056864E-09
   24.2700005       2.50557508E-09
   24.3299999       2.47576226E-09
   24.3899994       2.43738940E-09
   24.4500008       2.38309639E-09
   24.5100002       2.30458630E-09
   24.5699997       2.19568519E-09
   24.6299992       2.05464845E-09
   24.6900005       1.88494220E-09
   24.7500000       1.69437109E-09
   24.8099995       1.49302104E-09
   24.8700008       1.29082711E-09
   24.9300003       1.09555220E-09
   24.9899998       9.11706710E-10
   25.0499992       7.40582928E-10
   25.1100006       5.81267645E-10
   25.1700001       4.32261699E-10
   25.2299995       2.93194496E-10
   25.2900009       1.66065828E-10
   25.3500004       5.55392780E-11
   25.4099998      -3.19134337E-11
   25.4699993      -8.97984326E-11
   25.5300007      -1.13685117E-10
   25.5900002      -1.02762958E-10
   25.6499996      -6.02062844E-11
   25.7099991       7.82204509E-12
   25.7700005       9.40930389E-11
   25.8299999       1.92315386E-10
   25.8899994       2.98373132E-10
   25.9500008       4.10352918E-10
   26.0100002       5.27503652E-10
   26.0699997       6.48739285E-10
   26.1299992       7.71416042E-10
   26.1900005       8.90885088E-10
   26.2500000       1.00090092E-09
   26.3099995       1.09460430E-09
   26.3700008       1.16564769E-09
   26.4300003       1.20910559E-09
   26.4899998       1.22199750E-09
   26.5499992       1.20341936E-09
   26.6100006       1.15436205E-09
   26.6700001       1.07731790E-09
   26.7299995       9.75784120E-10
   26.7900009       8.53793647E-10
   26.8500004       7.15607851E-10
   26.9099998       5.65647806E-10
   26.9699993       4.08612172E-10
   27.0300007       2.49593263E-10
   27.0900002       9.39524569E-11
   27.1499996      -5.31871838E-11
   27.2099991      -1.87759211E-10
   27.2700005      -3.07593645E-10
   27.3299999      -4.12899159E-10
   27.3899994      -5.06112430E-10
   27.4500008      -5.91091398E-10
   27.5100002      -6.71906308E-10
   27.5699997      -7.51645857E-10
   27.6299992      -8.31636482E-10
   27.6900005      -9.11297482E-10
   27.7500000      -9.88607751E-10
   27.8099995      -1.06095555E-09
   27.8700008      -1.12603926E-09
   27.9300003      -1.18250898E-09
   27.9899998      -1.23016020E-09
   28.0499992      -1.26966393E-09
   28.1100006      -1.30198519E-09
   28.1700001      -1.32774625E-09
   28.2299995      -1.34679057E-09
   28.2900009      -1.35808886E-09
   28.3500004      -1.35995881E-09
   28.4099998      -1.35042721E-09
   28.4699993      -1.32753097E-09
   28.5300007      -1.28944500E-09
   28.5900002      -1.23449240E-09
   28.6499996      -1.16120025E-09
   28.7099991      -1.06854414E-09
   28.7700005      -9.56373536E-10
   28.8299999      -8.25836677E-10
   28.8899994      -6.79548195E-10
   28.9500008      -5.21352961E-10
   29.0100002      -3.55762253E-10
   29.0699997      -1.87338159E-10
   29.1299992      -2.03289365E-11
   29.1900005       1.41320358E-10
   29.2500000       2.93727181E-10
   29.3099995       4.32926028E-10
   29.3700008       5.55099744E-10
   29.4300003       6.57217281E-10
   29.4899998       7.37809258E-10
   29.5499992       7.97471145E-10
   29.6100006       8.38798087E-10
   29.6700001       8.65766903E-10
   29.7299995       8.82880546E-10
   29.7900009       8.94493979E-10
   29.8500004       9.04577468E-10
   29.9099998       9.16857312E-10
   29.9699993       9.35022282E-10
   30.0300007       9.62656399E-10
   30.0900002       1.00277597E-09
   30.1499996       1.05716425E-09
   30.2099991       1.12588161E-09
   30.2700005       1.20726995E-09
   30.3299999       1.29848055E-09
   30.3899994       1.39622081E-09
   30.4500008       1.49726054E-09
   30.5100002       1.59836722E-09
   30.5699997       1.69569969E-09
   30.6299992       1.78406800E-09
   30.6900005       1.85663218E-09
   30.7500000       1.90545424E-09
   30.8099995       1.92288407E-09
   30.8700008       1.90329041E-09
   30.9300003       1.84440052E-09
   30.9899998       1.74763715E-09
   31.0499992       1.61729841E-09
   31.1100006       1.45898427E-09
   31.1700001       1.27803446E-09
   31.2299995       1.07870402E-09
   31.2900009       8.64379734E-10
   31.3500004       6.38556819E-10
   31.4099998       4.05869505E-10
   31.4699993       1.72439688E-10
   31.5300007      -5.48152357E-11
   31.5900002      -2.69700373E-10
   31.6499996      -4.68426298E-10
   31.7099991      -6.50709764E-10
   31.7700005      -8.19839752E-10
   31.8299999      -9.81732695E-10
   31.8899994      -1.14338961E-09
   31.9500008      -1.31127975E-09
   32.0099983      -1.49002644E-09
   32.0699997      -1.68153180E-09
   32.1300011      -1.88452809E-09
   32.1899986      -2.09455409E-09
   32.2500000      -2.30443509E-09
   32.3100014      -2.50533594E-09
   32.3699989      -2.68829869E-09
   32.4300003      -2.84591861E-09
   32.4900017      -2.97365643E-09
   32.5499992      -3.07037751E-09
   32.6100006      -3.13801807E-09
   32.6699982      -3.18064663E-09
   32.7299995      -3.20339089E-09
   32.7900009      -3.21159632E-09
   32.8499985      -3.21031779E-09
   32.9099998      -3.20397864E-09
   32.9700012      -3.19598947E-09
   33.0299988      -3.18830318E-09
   33.0900002      -3.18109761E-09
   33.1500015      -3.17286530E-09
   33.2099991      -3.16101412E-09
   33.2700005      -3.14277337E-09
   33.3300018      -3.11600834E-09
   33.3899994      -3.07959014E-09
   33.4500008      -3.03324499E-09
   33.5099983      -2.97710590E-09
   33.5699997      -2.91129232E-09
   33.6300011      -2.83569257E-09
   33.6899986      -2.74988921E-09
   33.7500000      -2.65305466E-09
   33.8100014      -2.54378940E-09
   33.8699989      -2.42011344E-09
   33.9300003      -2.27993358E-09
   33.9900017      -2.12207829E-09
   34.0499992      -1.94751748E-09
   34.1100006      -1.76002646E-09
   34.1699982      -1.56563851E-09
   34.2299995      -1.37084688E-09
   34.2900009      -1.18034327E-09
   34.3499985      -9.95545868E-10
   34.4099998      -8.14894041E-10
   34.4700012      -6.35930753E-10
   34.5299988      -4.58094729E-10
   34.5900002      -2.84619966E-10
   34.6500015      -1.22357097E-10
   34.7099991       2.05154504E-11
   34.7700005       1.37720904E-10
   34.8300018       2.27373190E-10
   34.8899994       2.92516678E-10
   34.9500008       3.39634237E-10
   35.0099983       3.76107312E-10
   35.0699997       4.07982287E-10
   35.1300011       4.38941772E-10
   35.1899986       4.70496031E-10
   35.2500000       5.02732911E-10
   35.3100014       5.34891631E-10
   35.3699989       5.65492098E-10
   35.4300003       5.92303373E-10
   35.4900017       6.12632778E-10
   35.5499992       6.24122420E-10
   35.6100006       6.25736296E-10
   35.6699982       6.18335994E-10
   35.7299995       6.04424677E-10
   35.7900009       5.87162263E-10
   35.8499985       5.69219560E-10
   35.9099998       5.52106194E-10
   35.9700012       5.36229783E-10
   36.0299988       5.21425458E-10
   36.0900002       5.07428100E-10
   36.1500015       4.93925789E-10
   36.2099991       4.80279982E-10
   36.2700005       4.65341488E-10
   36.3300018       4.47749948E-10
   36.3899994       4.26695568E-10
   36.4500008       4.02671257E-10
   36.5099983       3.77613024E-10
   36.5699997       3.54157204E-10
   36.6300011       3.34317157E-10
   36.6899986       3.18298915E-10
   36.7500000       3.04135939E-10
   36.8100014       2.88355118E-10
   36.8699989       2.67303901E-10
   36.9300003       2.38455006E-10
   36.9900017       2.01124853E-10
   37.0499992       1.56455390E-10
   37.1100006       1.06894334E-10
   37.1699982       5.55224131E-11
   37.2299995       5.42014870E-12
   37.2900009      -4.09490497E-11
   37.3499985      -8.24055130E-11
   37.4099998      -1.19665181E-10
   37.4700012      -1.55577523E-10
   37.5299988      -1.94658484E-10
   37.5900002      -2.41870024E-10
   37.6500015      -3.01030229E-10
   37.7099991      -3.73522102E-10
   37.7700005      -4.57878152E-10
   37.8300018      -5.50385404E-10
   37.8899994      -6.46344034E-10
   37.9500008      -7.41346373E-10
   38.0099983      -8.32068137E-10
   38.0699997      -9.16456078E-10
   38.1300011      -9.93560567E-10
   38.1899986      -1.06335962E-09
   38.2500000      -1.12673315E-09
   38.3100014      -1.18545485E-09
   38.3699989      -1.24194277E-09
   38.4300003      -1.29862976E-09
   38.4900017      -1.35710154E-09
   38.5499992      -1.41737000E-09
   38.6100006      -1.47764001E-09
   38.6699982      -1.53470292E-09
   38.7299995      -1.58480262E-09
   38.7900009      -1.62465286E-09
   38.8499985      -1.65228975E-09
   38.9099998      -1.66756176E-09
   38.9700012      -1.67216396E-09
   39.0299988      -1.66917657E-09
   39.0900002      -1.66212188E-09
   39.1500015      -1.65370506E-09
   39.2099991      -1.64460934E-09
   39.2700005      -1.63287683E-09
   39.3300018      -1.61429958E-09
   39.3899994      -1.58385272E-09
   39.4500008      -1.53766344E-09
   39.5099983      -1.47464763E-09
   39.5699997      -1.39703338E-09
   39.6300011      -1.30952160E-09
   39.6899986      -1.21753418E-09
   39.7500000      -1.12545129E-09
   39.8100014      -1.03566866E-09
   39.8699989      -9.48771728E-10
   39.9300003      -8.64473992E-10
   39.9900017      -7.82608200E-10
   40.0499992      -7.03583469E-10
   40.1100006      -6.28183450E-10
   40.1699982      -5.57033419E-10
   40.2299995      -4.90199992E-10
   40.2900009      -4.27167246E-10
   40.3499985      -3.67071651E-10
   40.4099998      -3.08888054E-10
   40.4700012      -2.51371118E-10
   40.5299988      -1.92860949E-10
   40.5900002      -1.31281111E-10
   40.6500015      -6.45765177E-11
   40.7099991       8.50096816E-12
   40.7700005       8.77018111E-11
   40.8300018       1.71197903E-10
   40.8899994       2.56322713E-10
   40.9500008       3.40841133E-10
   41.0099983       4.24093483E-10
   41.0699997       5.07377917E-10
   41.1300011       5.93347316E-10
   41.1899986       6.84734380E-10
   41.2500000       7.83062115E-10
   41.3100014       8.87952045E-10
   41.3699989       9.97279481E-10
   41.4300003       1.10798948E-09
   41.4900017       1.21712951E-09
   41.5499992       1.32266043E-09
   41.6100006       1.42380896E-09
   41.6699982       1.52095281E-09
   41.7299995       1.61516545E-09
   41.7900009       1.70760606E-09
   41.8499985       1.79894211E-09
   41.9099998       1.88899274E-09
   41.9700012       1.97674277E-09
   42.0299988       2.06073625E-09
   42.0900002       2.13966622E-09
   42.1500015       2.21282703E-09
   42.2099991       2.28011943E-09
   42.2700005       2.34156738E-09
   42.3300018       2.39664111E-09
   42.3899994       2.44388665E-09
   42.4500008       2.48123699E-09
   42.5099983       2.50694465E-09
   42.5699997       2.52061816E-09
   42.6300011       2.52366816E-09
   42.6899986       2.51874854E-09
   42.7500000       2.50837351E-09
   42.8100014       2.49343501E-09
   42.8699989       2.47246690E-09
   42.9300003       2.44209719E-09
   42.9900017       2.39847031E-09
   43.0499992       2.33887931E-09
   43.1100006       2.26280483E-09
   43.1699982       2.17197105E-09
   43.2299995       2.06961692E-09
   43.2900009       1.95953143E-09
   43.3499985       1.84534144E-09
   43.4099998       1.73018178E-09
   43.4700012       1.61653879E-09
   43.5299988       1.50603097E-09
   43.5900002       1.39914613E-09
   43.6500015       1.29523825E-09
   43.7099991       1.19310195E-09
   43.7700005       1.09209042E-09
   43.8300018       9.93259142E-10
   43.8899994       8.99782970E-10
   43.9500008       8.16170520E-10
   44.0099983       7.46465390E-10
   44.0699997       6.92287561E-10
   44.1300011       6.51757648E-10
   44.1899986       6.19906515E-10
   44.2500000       5.90356708E-10
   44.3100014       5.57379531E-10
   44.3699989       5.17324628E-10
   44.4300003       4.68912353E-10
   44.4900017       4.12620466E-10
   44.5499992       3.49878265E-10
   44.6100006       2.82686458E-10
   44.6699982       2.13751530E-10
   44.7299995       1.46675935E-10
   44.7900009       8.56195184E-11
   44.8499985       3.42425359E-11
   44.9099998      -5.63843677E-12
   44.9700012      -3.48789608E-11
   45.0299988      -5.67056159E-11
   45.0900002      -7.53261967E-11
   45.1500015      -9.41834041E-11
   45.2099991      -1.14831825E-10
   45.2700005      -1.37046888E-10
   45.3300018      -1.60010963E-10
   45.3899994      -1.83765198E-10
   45.4500008      -2.09979395E-10
   45.5099983      -2.41543757E-10
   45.5699997      -2.81218410E-10
   45.6300011      -3.30124789E-10
   45.6899986      -3.86920385E-10
   45.7500000      -4.48076409E-10
   45.8100014      -5.09084941E-10
   45.8699989      -5.66004188E-10
   45.9300003      -6.16696749E-10
   45.9900017      -6.61364019E-10
   46.0499992      -7.02321812E-10
   46.1100006      -7.43208550E-10
   46.1699982      -7.87912402E-10
   46.2299995      -8.39509018E-10
   46.2900009      -8.99487262E-10
   46.3499985      -9.67498304E-10
   46.4099998      -1.04174469E-09
   46.4700012      -1.11989074E-09
   46.5299988      -1.20010446E-09
   46.5900002      -1.28170119E-09
   46.6500015      -1.36498979E-09
   46.7099991      -1.45030266E-09
   46.7700005      -1.53665325E-09
   46.8300018      -1.62071556E-09
   46.8899994      -1.69671244E-09
   46.9500008      -1.75737191E-09
   47.0099983      -1.79559345E-09
   47.0699997      -1.80615412E-09
   47.1300011      -1.78680815E-09
   47.1899986      -1.73846515E-09
   47.2500000      -1.66452874E-09
   47.3100014      -1.56977487E-09
   47.3699989      -1.45921553E-09
   47.4300003      -1.33728528E-09
   47.4900017      -1.20752219E-09
   47.5499992      -1.07272646E-09
   47.6100006      -9.35444389E-10
   47.6699982      -7.98509758E-10
   47.7299995      -6.65320687E-10
   47.7900009      -5.39627842E-10
   47.8499985      -4.24838970E-10
   47.9099998      -3.23160665E-10
   47.9700012      -2.35088976E-10
   48.0299988      -1.59667640E-10
   48.0900002      -9.55347260E-11
   48.1500015      -4.22706939E-11
   48.2099991      -1.27344966E-12
   48.2700005       2.44573892E-11
   48.3300018       3.16724390E-11
   48.3899994       1.87321703E-11
   48.4500008      -1.30061057E-11
   48.5099983      -5.90517843E-11
   48.5699997      -1.13010885E-10
   48.6300011      -1.68575570E-10
   48.6899986      -2.21314134E-10
   48.7500000      -2.69506140E-10
   48.8100014      -3.13856746E-10
   48.8699989      -3.56500302E-10
   48.9300003      -3.99926675E-10
   48.9900017      -4.46255283E-10
   49.0499992      -4.96884867E-10
   49.1100006      -5.52283996E-10
   49.1699982      -6.11737327E-10
   49.2299995      -6.73127720E-10
   49.2900009      -7.33038019E-10
   49.3499985      -7.87379995E-10
   49.4099998      -8.32423463E-10
   49.4700012      -8.65761240E-10
   49.5299988      -8.86689611E-10
   49.5900002      -8.95806263E-10
   49.6500015      -8.94123053E-10
   49.7099991      -8.82318496E-10
   49.7700005      -8.60659932E-10
   49.8300018      -8.29658731E-10
   49.8899994      -7.90993437E-10
   49.9500008      -7.48013762E-10
   50.0099983      -7.05371539E-10
   50.0699997      -6.67871980E-10
   50.1300011      -6.39120368E-10
   50.1899986      -6.20659024E-10
   50.2500000      -6.11990236E-10
   50.3100014      -6.11382722E-10
   50.3699989      -6.16979023E-10
   50.4300003      -6.27668473E-10
   50.4900017      -6.43415099E-10
   50.5499992      -6.65046684E-10
   50.6100006      -6.93700763E-10