  -2.400000      0.0000000E+00
  -2.340000      0.0000000E+00
  -2.280000      0.0000000E+00
  -2.220000      0.0000000E+00
  -2.160000      0.0000000E+00
  -2.100000      0.0000000E+00
  -2.040000      0.0000000E+00
  -1.980000      0.0000000E+00
  -1.920000      0.0000000E+00
  -1.860000      0.0000000E+00
  -1.800000      0.0000000E+00
  -1.740000      0.0000000E+00
  -1.680000     -1.0347210E-34
  -1.620000     -1.1480744E-33
  -1.560000     -4.7087729E-33
  -1.500000     -5.0199583E-34
  -1.440000      8.7460059E-32
  -1.380000      4.7717613E-31
  -1.320000      1.3567184E-30
  -1.260000      1.8572702E-30
  -1.200000     -1.7824786E-30
  -1.140000     -1.5418944E-29
  -1.080000     -3.5424776E-29
  -1.020000     -2.3566064E-29
 -0.9600000      9.9777369E-29
 -0.9000000      3.5340150E-28
 -0.8400000      3.9953973E-28
 -0.7800000     -7.7752763E-28
 -0.7200000     -4.4685681E-27
 -0.6600000     -9.8996220E-27
 -0.6000000     -9.6888389E-27
 -0.5400000      1.3376217E-26
 -0.4800000      7.8877690E-26
 -0.4200000      1.7939013E-25
 -0.3600000      2.3095020E-25
 -0.3000000      4.0072575E-26
 -0.2400000     -6.3285134E-25
 -0.1800000     -1.8300618E-24
 -0.1200000     -2.9907790E-24
 -5.9999999E-02 -2.6332727E-24
  0.0000000E+00  1.3658778E-24
  5.9999999E-02  1.0365669E-23
  0.1200000      2.2436817E-23
  0.1800000      2.9906263E-23
  0.2400000      1.9472845E-23
  0.3000000     -2.2289883E-23
  0.3600000     -9.7196284E-23
  0.4200000     -1.8121925E-22
  0.4800000     -2.1706668E-22
  0.5400000     -1.2564838E-22
  0.6000000      1.5568305E-22
  0.6600000      6.1321139E-22
  0.7200000      1.0988781E-21
  0.7800000      1.3134617E-21
  0.8400000      8.7206506E-22
  0.9000000     -5.2676153E-22
  0.9600000     -2.8499413E-21
   1.020000     -5.4779176E-21
   1.080000     -7.0930754E-21
   1.140000     -5.8838585E-21
   1.200000     -2.0692305E-22
   1.260000      1.0298485E-20
   1.320000      2.3437103E-20
   1.380000      3.3687693E-20
   1.440000      3.2859588E-20
   1.500000      1.2944138E-20
   1.560000     -2.8912680E-20
   1.620000     -8.4890147E-20
   1.680000     -1.3357871E-19
   1.740000     -1.4337979E-19
   1.800000     -8.4303159E-20
   1.860000      5.3885030E-20
   1.920000      2.4454052E-19
   1.980000      4.1896677E-19
   2.040000      4.8243738E-19
   2.100000      3.5217473E-19
   2.160000      5.0916194E-21
   2.220000     -4.8776923E-19
   2.280000     -9.6393942E-19
   2.340000     -1.2194956E-18
   2.400000     -1.0919858E-18
   2.460000     -5.3932429E-19
   2.520000      3.2779826E-19
   2.580000      1.2822501E-18
   2.640000      2.0690027E-18
   2.700000      2.4944206E-18
   2.760000      2.4600579E-18
   2.820000      1.9216491E-18
   2.880000      8.1580631E-19
   2.940000     -9.5816125E-19
   3.000000     -3.4287989E-18
   3.060000     -6.3287659E-18
   3.120000     -8.8861871E-18
   3.180000     -9.8272903E-18
   3.240000     -7.7328773E-18
   3.300000     -1.7105161E-18
   3.360000      7.8792469E-18
   3.420000      1.9030359E-17
   3.480000      2.8337729E-17
   3.540000      3.1904882E-17
   3.600000      2.6600827E-17
   3.660000      1.1182194E-17
   3.720000     -1.3085086E-17
   3.780000     -4.2339931E-17
   3.840000     -7.0340084E-17
   3.900000     -8.8809552E-17
   3.960000     -8.8200978E-17
   4.020000     -5.9630722E-17
   4.080000      1.3455422E-18
   4.140000      8.9519544E-17
   4.200000      1.8558603E-16
   4.260000      2.5614091E-16
   4.320000      2.6146623E-16
   4.380000      1.7142784E-16
   4.440000     -1.5245149E-17
   4.500000     -2.5766324E-16
   4.560000     -4.7570006E-16
   4.620000     -5.7422661E-16
   4.680000     -4.8337582E-16
   4.740000     -1.9847642E-16
   4.800000      2.0188943E-16
   4.860000      5.7539605E-16
   4.920000      7.7195396E-16
   4.980000      7.0427994E-16
   5.040000      3.9779759E-16
   5.100000     -1.1383766E-17
   5.160000     -3.3837129E-16
   5.220000     -4.4610700E-16
   5.280000     -3.2636974E-16
   5.340000     -1.1465786E-16
   5.400000     -1.8772005E-17
   5.460000     -1.8961354E-16
   5.520000     -6.0368012E-16
   5.580000     -1.0331514E-15
   5.640000     -1.1403821E-15
   5.700000     -6.6419448E-16
   5.760000      3.9742818E-16
   5.820000      1.7195995E-15
   5.880000      2.7596179E-15
   5.940000      3.0084001E-15
   6.000000      2.2580579E-15
   6.060000      7.3029656E-16
   6.120000     -1.0269162E-15
   6.180000     -2.4355941E-15
   6.240000     -3.2094572E-15
   6.300000     -3.4906531E-15
   6.360000     -3.6782359E-15
   6.420000     -4.0127690E-15
   6.480000     -4.1693545E-15
   6.540000     -3.1778326E-15
   6.600000      1.3864114E-16
   6.660000      6.3044484E-15
   6.720000      1.4321467E-14
   6.780000      2.1348181E-14
   6.840000      2.3346600E-14
   6.900000      1.6691906E-14
   6.960000      2.0428951E-16
   7.020000     -2.3318351E-14
   7.080000     -4.6979442E-14
   7.140000     -6.1515578E-14
   7.200000     -5.8538637E-14
   7.260000     -3.4178847E-14
   7.320000      8.3625454E-15
   7.380000      5.8608690E-14
   7.440000      1.0138958E-13
   7.500000      1.2154760E-13
   7.560000      1.0917381E-13
   7.620000      6.3443439E-14
   7.680000     -6.4462451E-15
   7.740000     -8.3669264E-14
   7.800000     -1.4866087E-13
   7.860000     -1.8472954E-13
   7.920000     -1.8240867E-13
   7.980000     -1.4118307E-13
   8.040000     -6.8389881E-14
   8.100000      2.3725805E-14
   8.160000      1.2117975E-13
   8.220000      2.1022957E-13
   8.280000      2.7771172E-13
   8.340000      3.1048994E-13
   8.400000      2.9556967E-13
   8.460000      2.2230536E-13
   8.520000      8.6999188E-14
   8.580000     -1.0146749E-13
   8.640000     -3.1767847E-13
   8.700000     -5.2032570E-13
   8.760000     -6.5908254E-13
   8.820000     -6.8689173E-13
   8.880000     -5.7424486E-13
   8.940000     -3.2052041E-13
   9.000000      4.2080560E-14
   9.060000      4.5395380E-13
   9.120000      8.4124249E-13
   9.180000      1.1320349E-12
   9.240000      1.2699091E-12
   9.300000      1.2207933E-12
   9.360000      9.7280615E-13
   9.420000      5.3262505E-13
   9.480000     -7.6146947E-14
   9.540000     -8.0861267E-13
   9.600000     -1.5888128E-12
   9.660000     -2.3008288E-12
   9.720000     -2.7906230E-12
   9.780000     -2.8872738E-12
   9.840000     -2.4454752E-12
   9.900000     -1.4008256E-12
   9.960000      1.8019368E-13
   10.02000      2.0775248E-12
   10.08000      3.9390917E-12
   10.14000      5.3499722E-12
   10.20000      5.9347657E-12
   10.26000      5.4637610E-12
   10.32000      3.9280376E-12
   10.38000      1.5561389E-12
   10.44000     -1.2364067E-12
   10.50000     -3.9502663E-12
   10.56000     -6.1251152E-12
   10.62000     -7.4425813E-12
   10.68000     -7.7784229E-12
   10.74000     -7.1933414E-12
   10.80000     -5.8754399E-12
   10.86000     -4.0642260E-12
   10.92000     -1.9890888E-12
   10.98000      1.5695199E-13
   11.04000      2.2090667E-12
   11.10000      4.0097856E-12
   11.16000      5.4069787E-12
   11.22000      6.2945239E-12
   11.28000      6.6964199E-12
   11.34000      6.8657354E-12
   11.40000      7.3478671E-12
   11.46000      8.9552593E-12
   11.52000      1.2623081E-11
   11.58000      1.9156987E-11
   11.64000      2.8930547E-11
   11.70000      4.1622671E-11
   11.76000      5.6089352E-11
   11.82000      7.0434387E-11
   11.88000      8.2288662E-11
   11.94000      8.9245077E-11
   12.00000      8.9349327E-11
   12.06000      8.1530095E-11
   12.12000      6.5872086E-11
   12.18000      4.3681531E-11
   12.24000      1.7348711E-11
   12.30000     -9.9449797E-12
   12.36000     -3.4607733E-11
   12.42000     -5.3044985E-11
   12.48000     -6.2053647E-11
   12.54000     -5.9184532E-11
   12.60000     -4.3062859E-11
   12.66000     -1.3647892E-11
   12.72000      2.7606216E-11
   12.78000      7.7743215E-11
   12.84000      1.3250286E-10
   12.90000      1.8674789E-10
   12.96000      2.3509097E-10
   13.02000      2.7263236E-10
   13.08000      2.9567110E-10
   13.14000      3.0223976E-10
   13.20000      2.9233890E-10
   13.26000      2.6781732E-10
   13.32000      2.3192842E-10
   13.38000      1.8867317E-10
   13.44000      1.4208766E-10
   13.50000      9.5633917E-11
   13.56000      5.1809227E-11
   13.62000      1.2017210E-11
   13.68000     -2.3331760E-11
   13.74000     -5.4575840E-11
   13.80000     -8.2515737E-11
   13.86000     -1.0816785E-10
   13.92000     -1.3259230E-10
   13.98000     -1.5678060E-10
   14.04000     -1.8155683E-10
   14.10000     -2.0744487E-10
   14.16000     -2.3448604E-10
   14.22000     -2.6203822E-10
   14.28000     -2.8863353E-10
   14.34000     -3.1198608E-10
   14.40000     -3.2921879E-10
   14.46000     -3.3731742E-10
   14.52000     -3.3373987E-10
   14.58000     -3.1704112E-10
   14.64000     -2.8734354E-10
   14.70000     -2.4650756E-10
   14.76000     -1.9792973E-10
   14.82000     -1.4599598E-10
   14.88000     -9.5311002E-11
   14.94000     -4.9881693E-11
   15.00000     -1.2440142E-11
   15.06000      1.5950808E-11
   15.12000      3.5939540E-11
   15.18000      4.9587702E-11
   15.24000      5.9816721E-11
   15.30000      6.9732602E-11
   15.36000      8.1982636E-11
   15.42000      9.8286455E-11
   15.48000      1.1924048E-10
   15.54000      1.4442392E-10
   15.60000      1.7274854E-10
   15.66000      2.0291727E-10
   15.72000      2.3381502E-10
   15.78000      2.6467506E-10
   15.84000      2.9494468E-10
   15.90000      3.2389905E-10
   15.96000      3.5016967E-10
   16.02000      3.7141942E-10
   16.08000      3.8436948E-10
   16.14000      3.8526882E-10
   16.20000      3.7072492E-10
   16.26000      3.3865774E-10
   16.32000      2.8905711E-10
   16.38000      2.2426033E-10
   16.44000      1.4861468E-10
   16.50000      6.7601001E-11
   16.56000     -1.3312951E-11
   16.62000     -8.9720224E-11
   16.68000     -1.5889118E-10
   16.74000     -2.1979127E-10
   16.80000     -2.7256217E-10
   16.86000     -3.1773392E-10
   16.92000     -3.5553147E-10
   16.98000     -3.8558429E-10
   17.04000     -4.0716036E-10
   17.10000     -4.1980724E-10
   17.16000     -4.2408677E-10
   17.22000     -4.2202863E-10
   17.28000     -4.1702222E-10
   17.34000     -4.1308840E-10
   17.40000     -4.1372319E-10
   17.46000     -4.2069603E-10
   17.52000     -4.3323201E-10
   17.58000     -4.4790002E-10
   17.64000     -4.5930759E-10
   17.70000     -4.6144330E-10
   17.76000     -4.4929979E-10
   17.82000     -4.2031278E-10
   17.88000     -3.7519376E-10
   17.94000     -3.1790509E-10
   18.00000     -2.5477162E-10
   18.06000     -1.9298237E-10
   18.12000     -1.3892371E-10
   18.18000     -9.6843242E-11
   18.24000     -6.8237527E-11
   18.30000     -5.2112464E-11
   18.36000     -4.5959275E-11
   18.42000     -4.7033825E-11
   18.48000     -5.3425743E-11
   18.54000     -6.4505366E-11
   18.60000     -8.0608402E-11
   18.66000     -1.0215148E-10
   18.72000     -1.2862766E-10
   18.78000     -1.5799539E-10
   18.84000     -1.8681609E-10
   18.90000     -2.1117565E-10
   18.96000     -2.2807531E-10
   19.02000     -2.3674424E-10
   19.08000     -2.3930891E-10
   19.14000     -2.4046792E-10
   19.20000     -2.4618513E-10
   19.26000     -2.6179398E-10
   19.32000     -2.9015312E-10
   19.38000     -3.3050823E-10
   19.44000     -3.7848183E-10
   19.50000     -4.2721310E-10
   19.56000     -4.6925247E-10
   19.62000     -4.9854088E-10
   19.68000     -5.1178967E-10
   19.74000     -5.0882665E-10
   19.80000     -4.9189131E-10
   19.86000     -4.6426993E-10
   19.92000     -4.2888407E-10
   19.98000     -3.8740178E-10
   20.04000     -3.4015518E-10
   20.10000     -2.8676836E-10
   20.16000     -2.2710475E-10
   20.22000     -1.6205365E-10
   20.28000     -9.3817815E-11
   20.34000     -2.5635487E-11
   20.40000      3.8867822E-11
   20.46000      9.6377663E-11
   20.52000      1.4436367E-10
   20.58000      1.8121517E-10
   20.64000      2.0610602E-10
   20.70000      2.1875786E-10
   20.76000      2.1926294E-10
   20.82000      2.0803932E-10
   20.88000      1.8588490E-10
   20.94000      1.5403546E-10
   21.00000      1.1413809E-10
   21.06000      6.8112911E-11
   21.12000      1.7950462E-11
   21.18000     -3.4458218E-11
   21.24000     -8.7368841E-11
   21.30000     -1.3907946E-10
   21.36000     -1.8773731E-10
   21.42000     -2.3119789E-10
   21.48000     -2.6709709E-10
   21.54000     -2.9322786E-10
   21.60000     -3.0817091E-10
   21.66000     -3.1196867E-10
   21.72000     -3.0653297E-10
   21.78000     -2.9551467E-10
   21.84000     -2.8353717E-10
   21.90000     -2.7495156E-10
   21.96000     -2.7249347E-10
   22.02000     -2.7630501E-10
   22.08000     -2.8368882E-10
   22.14000     -2.8971817E-10
   22.20000     -2.8854480E-10
   22.26000     -2.7502697E-10
   22.32000     -2.4620653E-10
   22.38000     -2.0220955E-10
   22.44000     -1.4628934E-10
   22.50000     -8.3940029E-11
   22.56000     -2.1256663E-11
   22.62000      3.7038130E-11
   22.68000      8.9300005E-11
   22.74000      1.3777614E-10
   22.80000      1.8810774E-10
   22.86000      2.4753141E-10
   22.92000      3.2230954E-10
   22.98000      4.1530204E-10
   23.04000      5.2463184E-10
   23.10000      6.4401634E-10
   23.16000      7.6466566E-10
   23.22000      8.7798774E-10
   23.28000      9.7799191E-10
   23.34000      1.0624287E-09
   23.40000      1.1322686E-09
   23.46000      1.1898467E-09
   23.52000      1.2365438E-09
   23.58000      1.2710231E-09
   23.64000      1.2887570E-09
   23.70000      1.2830299E-09
   23.76000      1.2470340E-09
   23.82000      1.1762948E-09
   23.88000      1.0705775E-09
   23.94000      9.3462094E-10
   24.00000      7.7743395E-10
   24.06000      6.1035188E-10
   24.12000      4.4445642E-10
   24.18000      2.8817898E-10
   24.24000      1.4586173E-10
   24.30000      1.7716845E-11
   24.36000     -9.8884088E-11
   24.42000     -2.0735492E-10
   24.48000     -3.0990330E-10
   24.54000     -4.0634851E-10
   24.60000     -4.9410559E-10
   24.66000     -5.6918403E-10
   24.72000     -6.2766525E-10
   24.78000     -6.6701478E-10
   24.84000     -6.8675898E-10
   24.90000     -6.8838052E-10
   24.96000     -6.7458755E-10
   25.02000     -6.4828709E-10
   25.08000     -6.1163274E-10
   25.14000     -5.6546579E-10
   25.20000     -5.0937465E-10
   25.26000     -4.4244008E-10
   25.32000     -3.6450692E-10
   25.38000     -2.7755212E-10
   25.44000     -1.8653719E-10
   25.50000     -9.9182954E-11
   25.56000     -2.4474244E-11
   25.62000      2.9730156E-11
   25.68000      5.9096603E-11
   25.74000      6.4194351E-11
   25.80000      5.0174906E-11
   25.86000      2.4803128E-11
   25.92000     -4.3613420E-12
   25.98000     -3.2450414E-11
   26.04000     -5.8432023E-11
   26.10000     -8.4537238E-11
   26.16000     -1.1435367E-10
   26.22000     -1.5048832E-10
   26.28000     -1.9277645E-10
   26.34000     -2.3768454E-10
   26.40000     -2.7903491E-10
   26.46000     -3.0971725E-10
   26.52000     -3.2378439E-10
   26.58000     -3.1827624E-10
   26.64000     -2.9422223E-10
   26.70000     -2.5649308E-10
   26.76000     -2.1248756E-10
   26.82000     -1.7000917E-10
   26.88000     -1.3501381E-10
   26.94000     -1.1003997E-10
   27.00000     -9.3948738E-11
   27.06000     -8.3114307E-11
   27.12000     -7.3604255E-11
   27.18000     -6.3446345E-11
   27.24000     -5.4023976E-11
   27.30000     -5.0008317E-11
   27.36000     -5.7852709E-11
   27.42000     -8.3458927E-11
   27.48000     -1.2992818E-10
   27.54000     -1.9624036E-10
   27.60000     -2.7733599E-10
   27.66000     -3.6557241E-10
   27.72000     -4.5306303E-10
   27.78000     -5.3410670E-10
   27.84000     -6.0685262E-10
   27.90000     -6.7356204E-10
   27.96000     -7.3929746E-10
   28.02000     -8.0947349E-10
   28.08000     -8.8721630E-10
   28.14000     -9.7164266E-10
   28.20000     -1.0578384E-09
   28.26000     -1.1385821E-09
   28.32000     -1.2070468E-09
   28.38000     -1.2592450E-09
   28.44000     -1.2951206E-09
   28.50000     -1.3178760E-09
   28.56000     -1.3319985E-09
   28.62000     -1.3410267E-09
   28.68000     -1.3461103E-09
   28.74000     -1.3458862E-09
   28.80000     -1.3374923E-09
   28.86000     -1.3180459E-09
   28.92000     -1.2858614E-09
   28.98000     -1.2409972E-09
   29.04000     -1.1851260E-09
   29.10000     -1.1209784E-09
   29.16000     -1.0516226E-09
   29.22000     -9.7973785E-10
   29.28000     -9.0696273E-10
   29.34000     -8.3343543E-10
   29.40000     -7.5770684E-10
   29.46000     -6.7717892E-10
   29.52000     -5.8903904E-10
   29.58000     -4.9141802E-10
   29.64000     -3.8435899E-10
   29.70000     -2.7025573E-10
   29.76000     -1.5365095E-10
   29.82000     -4.0524088E-11
   29.88000      6.2703558E-11
   29.94000      1.5027164E-10
   30.00000      2.1818911E-10
   30.06000      2.6520963E-10
   30.12000      2.9339062E-10
   30.18000      3.0786082E-10
   30.24000      3.1558395E-10
   30.30000      3.2334815E-10
   30.36000      3.3571676E-10
   30.42000      3.5388467E-10
   30.48000      3.7605341E-10
   30.54000      3.9917100E-10
   30.60000      4.2111578E-10
   30.66000      4.4212825E-10
   30.72000      4.6473655E-10
   30.78000      4.9232685E-10
   30.84000      5.2731142E-10
   30.90000      5.7002431E-10
   30.96000      6.1892691E-10
   31.02000      6.7181927E-10
   31.08000      7.2713924E-10
   31.14000      7.8448892E-10
   31.20000      8.4417762E-10
   31.26000      9.0630442E-10
   31.32000      9.7018960E-10
   31.38000      1.0346098E-09
   31.44000      1.0985994E-09
   31.50000      1.1620981E-09
   31.56000      1.2258312E-09
   31.62000      1.2904229E-09
   31.68000      1.3553882E-09
   31.74000      1.4188174E-09
   31.80000      1.4780949E-09
   31.86000      1.5312316E-09
   31.92000      1.5778753E-09
   31.98000      1.6192304E-09
   32.04000      1.6568297E-09
   32.10000      1.6909052E-09
   32.16000      1.7194001E-09
   32.22000      1.7382701E-09
   32.28000      1.7429106E-09
   32.34000      1.7298638E-09
   32.40000      1.6978642E-09
   32.46000      1.6477609E-09
   32.52000      1.5815590E-09
   32.58000      1.5012525E-09
   32.64000      1.4080708E-09
   32.70000      1.3023524E-09
   32.76000      1.1838650E-09
   32.82000      1.0522717E-09
   32.88000      9.0759883E-10
   32.94000      7.5073275E-10
   33.00000      5.8396787E-10
   33.06000      4.1140524E-10
   33.12000      2.3881727E-10
   33.18000      7.2687897E-11
   33.24000     -8.1451408E-11
   33.30000     -2.2077506E-10
   33.36000     -3.4618322E-10
   33.42000     -4.6202933E-10
   33.48000     -5.7460464E-10
   33.54000     -6.9000866E-10
   33.60000     -8.1223700E-10
   33.66000     -9.4207953E-10
   33.72000     -1.0769726E-09
   33.78000     -1.2116228E-09
   33.84000     -1.3391620E-09
   33.90000     -1.4526950E-09
   33.96000     -1.5470838E-09
   34.02000     -1.6205818E-09
   34.08000     -1.6756354E-09
   34.14000     -1.7181886E-09
   34.20000     -1.7553576E-09
   34.26000     -1.7922410E-09
   34.32000     -1.8293371E-09
   34.38000     -1.8620144E-09
   34.44000     -1.8825608E-09
   34.50000     -1.8839621E-09
   34.56000     -1.8635520E-09
   34.62000     -1.8246531E-09
   34.68000     -1.7753921E-09
   34.74000     -1.7253510E-09
   34.80000     -1.6817835E-09
   34.86000     -1.6471627E-09
   34.92000     -1.6189303E-09
   34.98000     -1.5911310E-09
   35.04000     -1.5568626E-09
   35.10000     -1.5104911E-09
   35.16000     -1.4491187E-09
   35.22000     -1.3733390E-09
   35.28000     -1.2874294E-09
   35.34000     -1.1989084E-09
   35.40000     -1.1171964E-09
   35.46000     -1.0513318E-09
   35.52000     -1.0073057E-09
   35.58000     -9.8611619E-10
   35.64000     -9.8360931E-10
   35.70000     -9.9239228E-10
   35.76000     -1.0049704E-09
   35.82000     -1.0165113E-09
   35.88000     -1.0258062E-09
   35.94000     -1.0340528E-09
   36.00000     -1.0423723E-09
   36.06000     -1.0496763E-09
   36.12000     -1.0521884E-09
   36.18000     -1.0448281E-09
   36.24000     -1.0235316E-09
   36.30000     -9.8712372E-10
   36.36000     -9.3779051E-10
   36.42000     -8.8014673E-10
   36.48000     -8.1966250E-10
   36.54000     -7.6134871E-10
   36.60000     -7.0913575E-10
   36.66000     -6.6578137E-10
   36.72000     -6.3288774E-10
   36.78000     -6.1082495E-10
   36.84000     -5.9875538E-10
   36.90000     -5.9510513E-10
   36.96000     -5.9852551E-10
   37.02000     -6.0887062E-10
   37.08000     -6.2744299E-10
   37.14000     -6.5605754E-10
   37.20000     -6.9523459E-10
   37.26000     -7.4254308E-10
   37.32000     -7.9222451E-10
   37.38000     -8.3657675E-10
   37.44000     -8.6853957E-10
   37.50000     -8.8416646E-10
   37.56000     -8.8370355E-10
   37.62000     -8.7081392E-10
   37.68000     -8.5052976E-10
   37.74000     -8.2713547E-10
   37.80000     -8.0300883E-10
   37.86000     -7.7868045E-10
   37.92000     -7.5359391E-10
   37.98000     -7.2679085E-10
   38.04000     -6.9710726E-10
   38.10000     -6.6309186E-10
   38.16000     -6.2320121E-10
   38.22000     -5.7660349E-10
   38.28000     -5.2430693E-10
   38.34000     -4.6982379E-10
   38.40000     -4.1863515E-10
   38.46000     -3.7637451E-10
   38.52000     -3.4648273E-10
   38.58000     -3.2853323E-10
   38.64000     -3.1814246E-10
   38.70000     -3.0853337E-10
   38.76000     -2.9294009E-10
   38.82000     -2.6668245E-10
   38.88000     -2.2808710E-10
   38.94000     -1.7819521E-10
   39.00000     -1.1984237E-10
   39.06000     -5.6820115E-11
   39.12000      6.5642071E-12
   39.18000      6.5749933E-11
   39.24000      1.1645608E-10
   39.30000      1.5567110E-10
   39.36000      1.8275316E-10
   39.42000      1.9993490E-10
   39.48000      2.1168485E-10
   39.54000      2.2300252E-10
   39.60000      2.3742092E-10
   39.66000      2.5576261E-10
   39.72000      2.7632543E-10
   39.78000      2.9636144E-10
   39.84000      3.1397368E-10
   39.90000      3.2935260E-10
   39.96000      3.4472086E-10
   40.02000      3.6314260E-10
   40.08000      3.8697387E-10
   40.14000      4.1681461E-10
   40.20000      4.5138640E-10
   40.26000      4.8815479E-10
   40.32000      5.2416282E-10
   40.38000      5.5663213E-10
   40.44000      5.8326988E-10
   40.50000      6.0253491E-10
   40.56000      6.1409644E-10
   40.62000      6.1938810E-10
   40.68000      6.2181832E-10
   40.74000      6.2617977E-10
   40.80000      6.3719824E-10
   40.86000      6.5775241E-10
   40.92000      6.8764755E-10
   40.98000      7.2365625E-10
   41.04000      7.6089840E-10
   41.10000      7.9490020E-10
   41.16000      8.2331797E-10
   41.22000      8.4654506E-10
   41.28000      8.6707624E-10
   41.34000      8.8814989E-10
   41.40000      9.1242669E-10
   41.46000      9.4121377E-10
   41.52000      9.7425890E-10
   41.58000      1.0098090E-09
   41.64000      1.0446763E-09
   41.70000      1.0743775E-09
   41.76000      1.0936745E-09
   41.82000      1.0977619E-09
   41.88000      1.0839110E-09
   41.94000      1.0528942E-09
   42.00000      1.0093707E-09
   42.06000      9.6079555E-10
   42.12000      9.1514429E-10
   42.18000      8.7837765E-10
   42.24000      8.5272778E-10
   42.30000      8.3646429E-10
   42.36000      8.2507751E-10
   42.42000      8.1322732E-10
   42.48000      7.9664381E-10
   42.54000      7.7341944E-10
   42.60000      7.4452977E-10
   42.66000      7.1368322E-10
   42.72000      6.8661843E-10
   42.78000      6.6990208E-10
   42.84000      6.6932343E-10
   42.90000      6.8822131E-10
   42.96000      7.2633410E-10
   43.02000      7.7978651E-10
   43.08000      8.4243845E-10
   43.14000      9.0818381E-10
   43.20000      9.7324071E-10
   43.26000      1.0373915E-09
   43.32000      1.1036076E-09
   43.38000      1.1762703E-09
   43.44000      1.2588453E-09
   43.50000      1.3520320E-09
   43.56000      1.4530538E-09
   43.62000      1.5561438E-09
   43.68000      1.6537969E-09
   43.74000      1.7382058E-09
   43.80000      1.8024640E-09
   43.86000      1.8413846E-09
   43.92000      1.8519429E-09
   43.98000      1.8333662E-09
   44.04000      1.7868572E-09
   44.10000      1.7149770E-09
   44.16000      1.6208381E-09
   44.22000      1.5073716E-09
   44.28000      1.3769079E-09
   44.34000      1.2311383E-09
   44.40000      1.0713113E-09
   44.46000      8.9843349E-10
   44.52000      7.1333950E-10
   44.58000      5.1668919E-10
   44.64000      3.0906036E-10
   44.70000      9.1231633E-11
   44.76000     -1.3545100E-10
   44.82000     -3.6888009E-10
   44.88000     -6.0636191E-10
   44.94000     -8.4511276E-10
   45.00000     -1.0827774E-09
   45.06000     -1.3176285E-09
   45.12000     -1.5483259E-09
   45.18000     -1.7734483E-09
   45.24000     -1.9911817E-09
   45.30000     -2.1994258E-09
   45.36000     -2.3962290E-09
   45.42000     -2.5801736E-09
   45.48000     -2.7503226E-09
   45.54000     -2.9056781E-09
   45.60000     -3.0444736E-09
   45.66000     -3.1638079E-09
   45.72000     -3.2599055E-09
   45.78000     -3.3288723E-09
   45.84000     -3.3674963E-09
   45.90000     -3.3736853E-09
   45.96000     -3.3464800E-09
   46.02000     -3.2859435E-09
   46.08000     -3.1932839E-09
   46.14000     -3.0712404E-09
   46.20000     -2.9243536E-09
   46.26000     -2.7585829E-09
   46.32000     -2.5800908E-09
   46.38000     -2.3936237E-09
   46.44000     -2.2013662E-09
   46.50000     -2.0030160E-09
   46.56000     -1.7971251E-09
   46.62000     -1.5829400E-09
   46.68000     -1.3616095E-09
   46.74000     -1.1360209E-09
   46.80000     -9.0942431E-10
   46.86000     -6.8380590E-10
   46.92000     -4.5911822E-10
   46.98000     -2.3386237E-10
   47.04000     -6.5997151E-12
   47.10000      2.2261944E-10
   47.16000      4.5178133E-10
   47.22000      6.7753353E-10
   47.28000      8.9630720E-10
   47.34000      1.1051046E-09
   47.40000      1.3015370E-09
   47.46000      1.4833902E-09
   47.52000      1.6484072E-09
   47.58000      1.7947750E-09
   47.64000      1.9221658E-09
   47.70000      2.0326008E-09
   47.76000      2.1303668E-09
   47.82000      2.2207509E-09
   47.88000      2.3081050E-09
   47.94000      2.3941682E-09
   48.00000      2.4774132E-09
   48.06000      2.5535709E-09
   48.12000      2.6169122E-09
   48.18000      2.6616644E-09
   48.24000      2.6831570E-09
   48.30000      2.6786406E-09
   48.36000      2.6478606E-09
   48.42000      2.5933324E-09
   48.48000      2.5200635E-09
   48.54000      2.4345190E-09
   48.60000      2.3429934E-09
   48.66000      2.2500131E-09
   48.72000      2.1575282E-09
   48.78000      2.0652806E-09
   48.84000      1.9720285E-09
   48.90000      1.8767907E-09
   48.96000      1.7793195E-09
   49.02000      1.6796502E-09
   49.08000      1.5773083E-09
   49.14000      1.4710331E-09
   49.20000      1.3594461E-09
   49.26000      1.2422625E-09
   49.32000      1.1210735E-09
   49.38000      9.9890096E-10
   49.44000      8.7859370E-10
   49.50000      7.6106266E-10
   49.56000      6.4463218E-10
   49.62000      5.2612142E-10
   49.68000      4.0308631E-10
   49.74000      2.7577568E-10
   49.80000      1.4745256E-10
   49.86000      2.2779381E-11
   49.92000     -9.4737024E-11
   49.98000     -2.0459455E-10
   50.04000     -3.0925204E-10
   50.10000     -4.1224860E-10
   50.16000     -5.1571297E-10
   50.22000     -6.1880046E-10
   50.28000     -7.1788669E-10
   50.34000     -8.0817364E-10
   50.40000     -8.8556190E-10
   50.46000     -9.4772079E-10
   50.52000     -9.9407715E-10
   50.58000     -1.0252753E-09
   50.64000     -1.0428960E-09
   50.70000     -1.0497371E-09
   50.76000     -1.0502134E-09
   50.82000     -1.0500968E-09
   50.88000     -1.0551983E-09
   50.94000     -1.0694334E-09
   51.00000     -1.0933499E-09
   51.06000     -1.1240805E-09
   51.12000     -1.1568567E-09
   51.18000     -1.1872244E-09
   51.24000     -1.2126714E-09
   51.30000     -1.2328150E-09
   51.36000     -1.2482887E-09
   51.42000     -1.2593134E-09
   51.48000     -1.2650399E-09
   51.54000     -1.2640829E-09
   51.60000     -1.2557418E-09
   51.66000     -1.2409161E-09
   51.72000     -1.2219928E-09
   51.78000     -1.2017831E-09
   51.84000     -1.1822741E-09
   51.90000     -1.1640466E-09
   51.96000     -1.1466521E-09
   52.02000     -1.1294885E-09
   52.08000     -1.1123835E-09
   52.14000     -1.0953927E-09
   52.20000     -1.0780224E-09
   52.26000     -1.0586300E-09
   52.32000     -1.0346747E-09
   52.38000     -1.0038878E-09
   52.44000     -9.6571240E-10
   52.50000     -9.2211216E-10
   52.56000     -8.7722152E-10
   52.62000     -8.3604629E-10
   52.68000     -8.0296547E-10
   52.74000     -7.8078150E-10
   52.80000     -7.7054885E-10
   52.86000     -7.7184459E-10
   52.92000     -7.8295292E-10
   52.98000     -8.0074591E-10
   53.04000     -8.2056467E-10
   53.10000     -8.3662421E-10
   53.16000     -8.4317026E-10
   53.22000     -8.3608220E-10
   53.28000     -8.1411522E-10
   53.34000     -7.7912410E-10
   53.40000     -7.3513251E-10
   53.46000     -6.8678291E-10
   53.52000     -6.3793892E-10
   53.58000     -5.9095601E-10
   53.64000     -5.4651261E-10
   53.70000     -5.0359833E-10
   53.76000     -4.5937426E-10
   53.82000     -4.0906842E-10
   53.88000     -3.4639053E-10
   53.94000     -2.6470073E-10
   54.00000     -1.5865459E-10
   54.06000     -2.5320520E-11
   54.12000      1.3599670E-10
   54.18000      3.2535979E-10
   54.24000      5.4426746E-10
   54.30000      7.9682683E-10
   54.36000      1.0891379E-09
   54.42000      1.4272193E-09
   54.48000      1.8147255E-09
   54.54000      2.2520867E-09
   54.60000      2.7376297E-09
   54.66000      3.2699738E-09
   54.72000      3.8500936E-09
   54.78000      4.4818078E-09
   54.84000      5.1704676E-09
   54.90000      5.9208465E-09
   54.96000      6.7355885E-09
   55.02000      7.6149105E-09
   55.08000      8.5571621E-09
   55.14000      9.5593471E-09
   55.20000      1.0616966E-08
   55.26000      1.1723395E-08
   55.32000      1.2869618E-08
   55.38000      1.4044900E-08
   55.44000      1.5238188E-08
   55.50000      1.6439079E-08
   55.56000      1.7637488E-08