  -2.400000      0.0000000E+00
  -2.340000      0.0000000E+00
  -2.280000      0.0000000E+00
  -2.220000      0.0000000E+00
  -2.160000      0.0000000E+00
  -2.100000      0.0000000E+00
  -2.040000      0.0000000E+00
  -1.980000      0.0000000E+00
  -1.920000      0.0000000E+00
  -1.860000      0.0000000E+00
  -1.800000      4.0459712E-31
  -1.740000      5.7516386E-30
  -1.680000      3.8172067E-29
  -1.620000      1.4981950E-28
  -1.560000      3.4304173E-28
  -1.500000      2.2123080E-28
  -1.440000     -1.4948970E-27
  -1.380000     -6.1600419E-27
  -1.320000     -1.0185049E-26
  -1.260000      4.3229905E-27
  -1.200000      6.9666846E-26
  -1.140000      1.8875932E-25
  -1.080000      2.1785015E-25
  -1.020000     -2.6168481E-25
 -0.9600000     -1.8215846E-24
 -0.9000000     -4.4046656E-24
 -0.8400000     -5.7665212E-24
 -0.7800000     -1.5281139E-25
 -0.7200000      2.0096935E-23
 -0.6600000      5.6743800E-23
 -0.6000000      9.1583577E-23
 -0.5400000      7.4567632E-23
 -0.4800000     -6.7110903E-23
 -0.4200000     -3.7853169E-22
 -0.3600000     -7.8507907E-22
 -0.3000000     -1.0049585E-21
 -0.2400000     -5.6305463E-22
 -0.1800000      9.8960064E-22
 -0.1200000      3.6345286E-21
 -5.9999999E-02  6.3962201E-21
  0.0000000E+00  7.1837437E-21
  5.9999999E-02  3.3936543E-21
  0.1200000     -6.5663621E-21
  0.1800000     -2.1274914E-20
  0.2400000     -3.4929472E-20
  0.3000000     -3.7996244E-20
  0.3600000     -2.0696894E-20
  0.4200000      2.1259600E-20
  0.4800000      8.0965369E-20
  0.5400000      1.3783927E-19
  0.6000000      1.6104143E-19
  0.6600000      1.1934990E-19
  0.7200000     -4.6047129E-21
  0.7800000     -1.9991315E-19
  0.8400000     -4.1781609E-19
  0.9000000     -5.7217970E-19
  0.9600000     -5.5524070E-19
   1.020000     -2.7289640E-19
   1.080000      3.0115283E-19
   1.140000      1.0652606E-18
   1.200000      1.7544081E-18
   1.260000      1.9734261E-18
   1.320000      1.3338265E-18
   1.380000     -3.1585713E-19
   1.440000     -2.6512332E-18
   1.500000     -4.7776269E-18
   1.560000     -5.4353587E-18
   1.620000     -3.5509317E-18
   1.680000      1.0286203E-18
   1.740000      6.9949949E-18
   1.800000      1.1675663E-17
   1.860000      1.2009289E-17
   1.920000      6.1755791E-18
   1.980000     -4.8688012E-18
   2.040000     -1.6946246E-17
   2.100000     -2.3992855E-17
   2.160000     -2.0971940E-17
   2.220000     -7.0819316E-18
   2.280000      1.2652828E-17
   2.340000      2.8905661E-17
   2.400000      3.2645044E-17
   2.460000      2.0754688E-17
   2.520000     -6.7191245E-19
   2.580000     -1.8199330E-17
   2.640000     -1.8366786E-17
   2.700000      2.7897584E-18
   2.760000      3.3723657E-17
   2.820000      5.0042058E-17
   2.880000      2.6911008E-17
   2.940000     -4.3784427E-17
   3.000000     -1.4114192E-16
   3.060000     -2.1724608E-16
   3.120000     -2.1668678E-16
   3.180000     -1.0680129E-16
   3.240000      9.6647247E-17
   3.300000      3.2492147E-16
   3.360000      4.8086770E-16
   3.420000      4.8492689E-16
   3.480000      3.2019195E-16
   3.540000      4.9547050E-17
   3.600000     -2.1113511E-16
   3.660000     -3.5629001E-16
   3.720000     -3.5841725E-16
   3.780000     -2.9749586E-16
   3.840000     -3.2252987E-16
   3.900000     -5.5111405E-16
   3.960000     -9.5462392E-16
   4.020000     -1.3008529E-15
   4.080000     -1.2130681E-15
   4.140000     -3.5185577E-16
   4.200000      1.3462212E-15
   4.260000      3.4944469E-15
   4.320000      5.2692687E-15
   4.380000      5.6668355E-15
   4.440000      3.9417072E-15
   4.500000      5.2290232E-17
   4.560000     -5.1116461E-15
   4.620000     -9.8862391E-15
   4.680000     -1.2384818E-14
   4.740000     -1.1257074E-14
   4.800000     -6.3322328E-15
   4.860000      1.1746538E-15
   4.920000      9.0465609E-15
   4.980000      1.4919098E-14
   5.040000      1.7235218E-14
   5.100000      1.5836026E-14
   5.160000      1.1862961E-14
   5.220000      6.9793334E-15
   5.280000      2.2948988E-15
   5.340000     -2.4037279E-15
   5.400000     -8.5974894E-15
   5.460000     -1.8025537E-14
   5.520000     -3.1126350E-14
   5.580000     -4.5737496E-14
   5.640000     -5.6889877E-14
   5.700000     -5.8101751E-14
   5.760000     -4.3844526E-14
   5.820000     -1.2165626E-14
   5.880000      3.3803137E-14
   5.940000      8.6334985E-14
   6.000000      1.3554624E-13
   6.060000      1.7267473E-13
   6.120000      1.9246621E-13
   6.180000      1.9317982E-13
   6.240000      1.7387875E-13
   6.300000      1.3030202E-13
   6.360000      5.1931756E-14
   6.420000     -7.6905272E-14
   6.480000     -2.7032513E-13
   6.540000     -5.2946428E-13
   6.600000     -8.3001368E-13
   6.660000     -1.1141951E-12
   6.720000     -1.2925057E-12
   6.780000     -1.2581090E-12
   6.840000     -9.1264637E-13
   6.900000     -1.9791380E-13
   6.960000      8.7506310E-13
   7.020000      2.2082761E-12
   7.080000      3.6164227E-12
   7.140000      4.8455784E-12
   7.200000      5.6075522E-12
   7.260000      5.6232614E-12
   7.320000      4.6676747E-12
   7.380000      2.6105364E-12
   7.440000     -5.4994355E-13
   7.500000     -4.6607935E-12
   7.560000     -9.3953205E-12
   7.620000     -1.4243508E-11
   7.680000     -1.8517608E-11
   7.740000     -2.1382335E-11
   7.800000     -2.1920115E-11
   7.860000     -1.9238545E-11
   7.920000     -1.2619284E-11
   7.980000     -1.6962007E-12
   8.040000      1.3361348E-11
   8.100000      3.1693235E-11
   8.160000      5.1657408E-11
   8.220000      7.0833950E-11
   8.280000      8.6142746E-11
   8.340000      9.4075053E-11
   8.400000      9.1019463E-11
   8.460000      7.3646332E-11
   8.520000      3.9303873E-11
   8.580000     -1.3622736E-11
   8.640000     -8.5432300E-11
   8.700000     -1.7494074E-10
   8.760000     -2.7944458E-10
   8.820000     -3.9481970E-10
   8.880000     -5.1574878E-10
   8.940000     -6.3606037E-10
   9.000000     -7.4915629E-10
   9.060000     -8.4849389E-10
   9.120000     -9.2808622E-10
   9.180000     -9.8297959E-10
   9.240000     -1.0096657E-09
   9.300000     -1.0063942E-09
   9.360000     -9.7335795E-10
   9.420000     -9.1273744E-10
   9.480000     -8.2860191E-10
   9.540000     -7.2667844E-10
   9.600000     -6.1400734E-10
   9.660000     -4.9851323E-10
   9.720000     -3.8852468E-10
   9.780000     -2.9228187E-10
   9.840000     -2.1747211E-10
   9.900000     -1.7082968E-10
   9.960000     -1.5782843E-10
   10.02000     -1.8248189E-10
   10.08000     -2.4725108E-10
   10.14000     -3.5304637E-10
   10.20000     -4.9930243E-10
   10.26000     -6.8410128E-10
   10.32000     -9.0431979E-10
   10.38000     -1.1557794E-09
   10.44000     -1.4333785E-09
   10.50000     -1.7311905E-09
   10.56000     -2.0425168E-09
   10.62000     -2.3599060E-09
   10.68000     -2.6751732E-09
   10.74000     -2.9794747E-09
   10.80000     -3.2635195E-09
   10.86000     -3.5179726E-09
   10.92000     -3.7340686E-09
   10.98000     -3.9043764E-09
   11.04000     -4.0235810E-09
   11.10000     -4.0891006E-09
   11.16000     -4.1013615E-09
   11.22000     -4.0636317E-09
   11.28000     -3.9814276E-09
   11.34000     -3.8616346E-09
   11.40000     -3.7115833E-09
   11.46000     -3.5382972E-09
   11.52000     -3.3480785E-09
   11.58000     -3.1464220E-09
   11.64000     -2.9381324E-09
   11.70000     -2.7274267E-09
   11.76000     -2.5178413E-09
   11.82000     -2.3118745E-09
   11.88000     -2.1104816E-09
   11.94000     -1.9126698E-09
   12.00000     -1.7154921E-09
   12.06000     -1.5146522E-09
   12.12000     -1.3057262E-09
   12.18000     -1.0857678E-09
   12.24000     -8.5486151E-10
   12.30000     -6.1712807E-10
   12.36000     -3.8077935E-10
   12.42000     -1.5707410E-10
   12.48000      4.1660439E-11
   12.54000      2.0448343E-10
   12.60000      3.2415581E-10
   12.66000      3.9872089E-10
   12.72000      4.3195766E-10
   12.78000      4.3263512E-10
   12.84000      4.1283152E-10
   12.90000      3.8582890E-10
   12.96000      3.6416681E-10
   13.02000      3.5832412E-10
   13.08000      3.7623532E-10
   13.14000      4.2353193E-10
   13.20000      5.0414956E-10
   13.26000      6.2084093E-10
   13.32000      7.7522694E-10
   13.38000      9.6726382E-10
   13.44000      1.1943082E-09
   13.50000      1.4502056E-09
   13.56000      1.7249130E-09
   13.62000      2.0050410E-09
   13.68000      2.2754203E-09
   13.74000      2.5214288E-09
   13.80000      2.7315314E-09
   13.86000      2.8993439E-09
   13.92000      3.0246370E-09
   13.98000      3.1129781E-09
   14.04000      3.1740961E-09
   14.10000      3.2194187E-09
   14.16000      3.2594383E-09
   14.22000      3.3015817E-09
   14.28000      3.3490679E-09
   14.34000      3.4009184E-09
   14.40000      3.4529573E-09
   14.46000      3.4993695E-09
   14.52000      3.5342953E-09
   14.58000      3.5529923E-09
   14.64000      3.5522953E-09
   14.70000      3.5303647E-09
   14.76000      3.4859520E-09
   14.82000      3.4175485E-09
   14.88000      3.3228162E-09
   14.94000      3.1985732E-09
   15.00000      3.0414200E-09
   15.06000      2.8488638E-09
   15.12000      2.6206162E-09
   15.18000      2.3596687E-09
   15.24000      2.0727762E-09
   15.30000      1.7701318E-09
   15.36000      1.4642204E-09
   15.42000      1.1680515E-09
   15.48000      8.9313118E-10
   15.54000      6.4761807E-10
   15.60000      4.3508280E-10
   15.66000      2.5417993E-10
   15.72000      9.9351090E-11
   15.78000     -3.7555802E-11
   15.84000     -1.6510301E-10
   15.90000     -2.9004901E-10
   15.96000     -4.1570658E-10
   16.02000     -5.4138094E-10
   16.08000     -6.6312811E-10
   16.14000     -7.7568557E-10
   16.20000     -8.7502255E-10
   16.26000     -9.6068775E-10
   16.32000     -1.0371105E-09
   16.38000     -1.1132955E-09
   16.44000     -1.2008718E-09
   16.50000     -1.3110465E-09
   16.56000     -1.4514592E-09
   16.62000     -1.6240455E-09
   16.68000     -1.8247290E-09
   16.74000     -2.0451509E-09
   16.80000     -2.2759243E-09
   16.86000     -2.5103444E-09
   16.92000     -2.7472820E-09
   16.98000     -2.9922500E-09
   17.04000     -3.2562353E-09
   17.10000     -3.5526393E-09
   17.16000     -3.8932835E-09
   17.22000     -4.2847121E-09
   17.28000     -4.7259050E-09
   17.34000     -5.2080198E-09
   17.40000     -5.7161533E-09
   17.46000     -6.2325172E-09
   17.52000     -6.7400387E-09
   17.58000     -7.2253448E-09
   17.64000     -7.6803328E-09
   17.70000     -8.1019982E-09
   17.76000     -8.4907388E-09
   17.82000     -8.8478336E-09
   17.88000     -9.1730694E-09
   17.94000     -9.4634185E-09
   18.00000     -9.7133377E-09
   18.06000     -9.9166622E-09
   18.12000     -1.0069463E-08
   18.18000     -1.0172766E-08
   18.24000     -1.0234020E-08
   18.30000     -1.0266506E-08
   18.36000     -1.0286602E-08
   18.42000     -1.0309621E-08
   18.48000     -1.0345523E-08
   18.54000     -1.0395974E-08
   18.60000     -1.0453883E-08
   18.66000     -1.0505753E-08
   18.72000     -1.0536238E-08
   18.78000     -1.0533520E-08
   18.84000     -1.0493779E-08
   18.90000     -1.0423244E-08
   18.96000     -1.0337095E-08
   19.02000     -1.0255485E-08
   19.08000     -1.0197946E-08
   19.14000     -1.0177978E-08
   19.20000     -1.0199614E-08
   19.26000     -1.0257049E-08
   19.32000     -1.0337425E-08
   19.38000     -1.0425770E-08
   19.44000     -1.0510356E-08
   19.50000     -1.0586669E-08
   19.56000     -1.0658702E-08
   19.62000     -1.0737219E-08
   19.68000     -1.0835692E-08
   19.74000     -1.0965321E-08
   19.80000     -1.1130806E-08
   19.86000     -1.1328238E-08
   19.92000     -1.1545731E-08
   19.98000     -1.1766598E-08
   20.04000     -1.1974090E-08
   20.10000     -1.2156208E-08
   20.16000     -1.2309115E-08
   20.22000     -1.2437992E-08
   20.28000     -1.2554973E-08
   20.34000     -1.2674697E-08
   20.40000     -1.2808834E-08
   20.46000     -1.2961345E-08
   20.52000     -1.3126073E-08
   20.58000     -1.3287491E-08
   20.64000     -1.3424369E-08
   20.70000     -1.3515089E-08
   20.76000     -1.3542815E-08
   20.82000     -1.3498860E-08
   20.88000     -1.3383303E-08
   20.94000     -1.3202998E-08
   21.00000     -1.2967940E-08
   21.06000     -1.2687464E-08
   21.12000     -1.2367583E-08
   21.18000     -1.2010243E-08
   21.24000     -1.1614515E-08
   21.30000     -1.1179119E-08
   21.36000     -1.0705270E-08
   21.42000     -1.0198823E-08
   21.48000     -9.6709600E-09
   21.54000     -9.1371337E-09
   21.60000     -8.6145207E-09
   21.66000     -8.1187244E-09
   21.72000     -7.6606836E-09
   21.78000     -7.2446893E-09
   21.84000     -6.8680133E-09
   21.90000     -6.5221069E-09
   21.96000     -6.1948566E-09
   22.02000     -5.8730931E-09
   22.08000     -5.5446479E-09
   22.14000     -5.1995501E-09
   22.20000     -4.8303481E-09
   22.26000     -4.4318420E-09
   22.32000     -4.0006243E-09
   22.38000     -3.5347600E-09
   22.44000     -3.0338114E-09
   22.50000     -2.4992255E-09
   22.56000     -1.9349793E-09
   22.62000     -1.3482143E-09
   22.68000     -7.4948409E-10
   22.74000     -1.5222969E-10
   22.80000      4.2873272E-10
   22.86000      9.7957431E-10
   22.92000      1.4901000E-09
   22.98000      1.9558422E-09
   23.04000      2.3788391E-09
   23.10000      2.7667890E-09
   23.16000      3.1309353E-09
   23.22000      3.4835559E-09
   23.28000      3.8360382E-09
   23.34000      4.1981290E-09
   23.40000      4.5782529E-09
   23.46000      4.9841749E-09
   23.52000      5.4230807E-09
   23.58000      5.9004543E-09
   23.64000      6.4177996E-09
   23.70000      6.9699335E-09
   23.76000      7.5429289E-09
   23.82000      8.1136999E-09
   23.88000      8.6517211E-09
   23.94000      9.1227088E-09
   24.00000      9.4935020E-09
   24.06000      9.7369890E-09
   24.12000      9.8359454E-09
   24.18000      9.7848458E-09
   24.24000      9.5893267E-09
   24.30000      9.2635917E-09
   24.36000      8.8266665E-09
   24.42000      8.2987111E-09
   24.48000      7.6984783E-09
   24.54000      7.0424528E-09
   24.60000      6.3454659E-09
   24.66000      5.6220300E-09
   24.72000      4.8874322E-09
   24.78000      4.1579518E-09
   24.84000      3.4501337E-09
   24.90000      2.7795402E-09
   24.96000      2.1595801E-09
   25.02000      1.6008542E-09
   25.08000      1.1110879E-09
   25.14000      6.9548883E-10
   25.20000      3.5733708E-10
   25.26000      9.8760673E-11
   25.32000     -7.8247332E-11
   25.38000     -1.7062832E-10
   25.44000     -1.7322295E-10
   25.50000     -7.8512856E-11
   25.56000      1.2227168E-10
   25.62000      4.3651521E-10
   25.68000      8.6655599E-10
   25.74000      1.4060969E-09
   25.80000      2.0379816E-09
   25.86000      2.7343039E-09
   25.92000      3.4591261E-09
   25.98000      4.1732831E-09
   26.04000      4.8401780E-09
   26.10000      5.4311955E-09
   26.16000      5.9294667E-09
   26.22000      6.3310548E-09
   26.28000      6.6432251E-09
   26.34000      6.8801924E-09
   26.40000      7.0575075E-09
   26.46000      7.1868129E-09
   26.52000      7.2727295E-09
   26.58000      7.3129827E-09
   26.64000      7.3016659E-09
   26.70000      7.2342252E-09
   26.76000      7.1119275E-09
   26.82000      6.9436856E-09
   26.88000      6.7442310E-09
   26.94000      6.5291683E-09
   27.00000      6.3088423E-09
   27.06000      6.0834537E-09
   27.12000      5.8414171E-09
   27.18000      5.5616804E-09
   27.24000      5.2193112E-09
   27.30000      4.7925743E-09
   27.36000      4.2693107E-09
   27.42000      3.6507273E-09
   27.48000      2.9515157E-09
   27.54000      2.1962909E-09
   27.60000      1.4134075E-09
   27.66000      6.2804023E-10
   27.72000     -1.4329522E-10
   27.78000     -8.9498681E-10
   27.84000     -1.6306000E-09
   27.90000     -2.3578657E-09
   27.96000     -3.0823264E-09
   28.02000     -3.8021271E-09
   28.08000     -4.5060085E-09
   28.14000     -5.1752949E-09
   28.20000     -5.7891292E-09
   28.26000     -6.3310495E-09
   28.32000     -6.7946027E-09
   28.38000     -7.1862205E-09
   28.44000     -7.5245623E-09
   28.50000     -7.8366735E-09
   28.56000     -8.1521412E-09
   28.62000     -8.4968672E-09
   28.68000     -8.8881036E-09
   28.74000     -9.3320534E-09
   28.80000     -9.8246629E-09
   28.86000     -1.0355312E-08
   28.92000     -1.0912118E-08
   28.98000     -1.1486923E-08
   29.04000     -1.2077994E-08
   29.10000     -1.2689323E-08
   29.16000     -1.3326773E-08
   29.22000     -1.3992655E-08
   29.28000     -1.4681107E-08
   29.34000     -1.5376269E-08
   29.40000     -1.6054114E-08
   29.46000     -1.6687290E-08
   29.52000     -1.7251210E-08
   29.58000     -1.7729343E-08
   29.64000     -1.8116094E-08
   29.70000     -1.8416706E-08
   29.76000     -1.8644528E-08
   29.82000     -1.8816658E-08
   29.88000     -1.8949256E-08
   29.94000     -1.9053726E-08
   30.00000     -1.9134763E-08
   30.06000     -1.9190756E-08
   30.12000     -1.9216351E-08
   30.18000     -1.9206324E-08
   30.24000     -1.9159257E-08
   30.30000     -1.9079533E-08
   30.36000     -1.8976698E-08
   30.42000     -1.8862359E-08
   30.48000     -1.8745801E-08
   30.54000     -1.8630129E-08
   30.60000     -1.8510445E-08
   30.66000     -1.8374722E-08
   30.72000     -1.8206924E-08
   30.78000     -1.7991116E-08
   30.84000     -1.7715189E-08
   30.90000     -1.7373234E-08
   30.96000     -1.6966233E-08
   31.02000     -1.6501325E-08
   31.08000     -1.5990103E-08
   31.14000     -1.5446535E-08
   31.20000     -1.4884916E-08
   31.26000     -1.4318381E-08
   31.32000     -1.3758273E-08
   31.38000     -1.3214545E-08
   31.44000     -1.2696918E-08
   31.50000     -1.2216149E-08
   31.56000     -1.1784556E-08
   31.62000     -1.1415240E-08
   31.68000     -1.1120058E-08
   31.74000     -1.0907073E-08
   31.80000     -1.0778685E-08
   31.86000     -1.0731407E-08
   31.92000     -1.0757650E-08
   31.98000     -1.0848966E-08
   32.04000     -1.0999602E-08
   32.10000     -1.1209067E-08
   32.16000     -1.1482791E-08
   32.22000     -1.1830675E-08
   32.28000     -1.2263985E-08
   32.34000     -1.2791536E-08
   32.40000     -1.3416215E-08
   32.46000     -1.4132761E-08
   32.52000     -1.4927366E-08
   32.58000     -1.5779186E-08
   32.64000     -1.6663362E-08
   32.70000     -1.7554715E-08
   32.76000     -1.8431081E-08
   32.82000     -1.9275362E-08
   32.88000     -2.0075790E-08
   32.94000     -2.0824549E-08
   33.00000     -2.1515451E-08
   33.06000     -2.2141684E-08
   33.12000     -2.2694486E-08
   33.18000     -2.3163221E-08
   33.24000     -2.3536661E-08
   33.30000     -2.3804921E-08
   33.36000     -2.3961201E-08
   33.42000     -2.4002693E-08
   33.48000     -2.3930282E-08
   33.54000     -2.3747139E-08
   33.60000     -2.3456657E-08
   33.66000     -2.3060347E-08
   33.72000     -2.2556367E-08
   33.78000     -2.1939192E-08
   33.84000     -2.1200519E-08
   33.90000     -2.0331218E-08
   33.96000     -1.9323798E-08
   34.02000     -1.8174639E-08
   34.08000     -1.6885362E-08
   34.14000     -1.5462962E-08
   34.20000     -1.3918639E-08
   34.26000     -1.2265718E-08
   34.32000     -1.0517243E-08
   34.38000     -8.6839460E-09
   34.44000     -6.7732056E-09
   34.50000     -4.7892628E-09
   34.56000     -2.7346576E-09
   34.62000     -6.1241900E-10
   34.68000      1.5716811E-09
   34.74000      3.8075303E-09
   34.80000      6.0802474E-09
   34.86000      8.3710701E-09
   34.92000      1.0659279E-08
   34.98000      1.2924616E-08
   35.04000      1.5149483E-08
   35.10000      1.7320357E-08
   35.16000      1.9428006E-08
   35.22000      2.1466407E-08
   35.28000      2.3430577E-08
   35.34000      2.5313852E-08
   35.40000      2.7105463E-08
   35.46000      2.8789277E-08
   35.52000      3.0344438E-08
   35.58000      3.1748055E-08
   35.64000      3.2979266E-08
   35.70000      3.4023369E-08
   35.76000      3.4874457E-08
   35.82000      3.5535319E-08
   35.88000      3.6014526E-08
   35.94000      3.6321534E-08
   36.00000      3.6461582E-08
   36.06000      3.6432219E-08
   36.12000      3.6222708E-08
   36.18000      3.5816431E-08
   36.24000      3.5195580E-08
   36.30000      3.4346591E-08
   36.36000      3.3264758E-08
   36.42000      3.1956695E-08
   36.48000      3.0439896E-08
   36.54000      2.8739372E-08
   36.60000      2.6882065E-08
   36.66000      2.4890648E-08
   36.72000      2.2778556E-08
   36.78000      2.0548171E-08
   36.84000      1.8193168E-08
   36.90000      1.5704620E-08
   36.96000      1.3078941E-08
   37.02000      1.0324769E-08
   37.08000      7.4661006E-09
   37.14000      4.5402113E-09
   37.20000      1.5908934E-09
   37.26000     -1.3407183E-09
   37.32000     -4.2245434E-09
   37.38000     -7.0463280E-09
   37.44000     -9.8072412E-09
   37.50000     -1.2518484E-08
   37.56000     -1.5192631E-08
   37.62000     -1.7834390E-08
   37.68000     -2.0433564E-08
   37.74000     -2.2962510E-08
   37.80000     -2.5379080E-08
   37.86000     -2.7634586E-08
   37.92000     -2.9684529E-08
   37.98000     -3.1498814E-08
   38.04000     -3.3067828E-08
   38.10000     -3.4402021E-08
   38.16000     -3.5524764E-08
   38.22000     -3.6460939E-08
   38.28000     -3.7225423E-08
   38.34000     -3.7815997E-08
   38.40000     -3.8213511E-08
   38.46000     -3.8389317E-08
   38.52000     -3.8317232E-08
   38.58000     -3.7985405E-08
   38.64000     -3.7403712E-08
   38.70000     -3.6603939E-08
   38.76000     -3.5632734E-08
   38.82000     -3.4539763E-08
   38.88000     -3.3364994E-08
   38.94000     -3.2129201E-08
   39.00000     -3.0830698E-08
   39.06000     -2.9449300E-08
   39.12000     -2.7956411E-08
   39.18000     -2.6328070E-08
   39.24000     -2.4556945E-08
   39.30000     -2.2659243E-08
   39.36000     -2.0674143E-08
   39.42000     -1.8655681E-08
   39.48000     -1.6659662E-08
   39.54000     -1.4730005E-08
   39.60000     -1.2889268E-08
   39.66000     -1.1136635E-08
   39.72000     -9.4540162E-09
   39.78000     -7.8179871E-09
   39.84000     -6.2131273E-09
   39.90000     -4.6419562E-09
   39.96000     -3.1278715E-09
   40.02000     -1.7100706E-09
   40.08000     -4.3228920E-10
   40.14000      6.7065709E-10
   40.20000      1.5837694E-09
   40.26000      2.3163258E-09
   40.32000      2.8982359E-09
   40.38000      3.3694310E-09
   40.44000      3.7658734E-09
   40.50000      4.1070103E-09
   40.56000      4.3890553E-09
   40.62000      4.5864668E-09
   40.68000      4.6611350E-09
   40.74000      4.5760835E-09
   40.80000      4.3089643E-09
   40.86000      3.8607788E-09
   40.92000      3.2570222E-09
   40.98000      2.5411011E-09
   41.04000      1.7624262E-09
   41.10000      9.6320418E-10
   41.16000      1.6813598E-10
   41.22000     -6.1992755E-10
   41.28000     -1.4173698E-09
   41.34000     -2.2514577E-09
   41.40000     -3.1492247E-09
   41.46000     -4.1273176E-09
   41.52000     -5.1861058E-09
   41.58000     -6.3098700E-09
   41.64000     -7.4727922E-09
   41.70000     -8.6484464E-09
   41.76000     -9.8192539E-09
   41.82000     -1.0982370E-08
   41.88000     -1.2149767E-08
   41.94000     -1.3342447E-08
   42.00000     -1.4580904E-08
   42.06000     -1.5875333E-08
   42.12000     -1.7219213E-08
   42.18000     -1.8588603E-08
   42.24000     -1.9947404E-08
   42.30000     -2.1256749E-08
   42.36000     -2.2485285E-08
   42.42000     -2.3616849E-08
   42.48000     -2.4653124E-08
   42.54000     -2.5610500E-08
   42.60000     -2.6512414E-08
   42.66000     -2.7379832E-08
   42.72000     -2.8223074E-08
   42.78000     -2.9037615E-08
   42.84000     -2.9805026E-08
   42.90000     -3.0498470E-08
   42.96000     -3.1090604E-08
   43.02000     -3.1560980E-08
   43.08000     -3.1900395E-08
   43.14000     -3.2110851E-08
   43.20000     -3.2201530E-08
   43.26000     -3.2182566E-08
   43.32000     -3.2059219E-08
   43.38000     -3.1828769E-08
   43.44000     -3.1481111E-08
   43.50000     -3.1002738E-08
   43.56000     -3.0382221E-08
   43.62000     -2.9614952E-08
   43.68000     -2.8705264E-08
   43.74000     -2.7665173E-08
   43.80000     -2.6510461E-08
   43.86000     -2.5255831E-08
   43.92000     -2.3911133E-08
   43.98000     -2.2480043E-08
   44.04000     -2.0961465E-08
   44.10000     -1.9352720E-08
   44.16000     -1.7652905E-08
   44.22000     -1.5864961E-08
   44.28000     -1.3995641E-08
   44.34000     -1.2053619E-08
   44.40000     -1.0046807E-08
   44.46000     -7.9802271E-09
   44.52000     -5.8554912E-09
   44.58000     -3.6722709E-09
   44.64000     -1.4312651E-09
   44.70000      8.6239710E-10
   44.76000      3.1966794E-09
   44.82000      5.5522453E-09
   44.88000      7.9047009E-09
   44.94000      1.0229142E-08
   45.00000      1.2505772E-08
   45.06000      1.4724734E-08
   45.12000      1.6888283E-08
   45.18000      1.9009189E-08
   45.24000      2.1105519E-08
   45.30000      2.3193383E-08
   45.36000      2.5280125E-08
   45.42000      2.7360487E-08
   45.48000      2.9417166E-08
   45.54000      3.1425714E-08
   45.60000      3.3362088E-08
   45.66000      3.5210267E-08
   45.72000      3.6967439E-08
   45.78000      3.8645148E-08
   45.84000      4.0266006E-08
   45.90000      4.1857003E-08
   45.96000      4.3441283E-08
   46.02000      4.5030710E-08
   46.08000      4.6621398E-08
   46.14000      4.8193687E-08
   46.20000      4.9716775E-08
   46.26000      5.1156920E-08
   46.32000      5.2486683E-08
   46.38000      5.3692197E-08
   46.44000      5.4775878E-08
   46.50000      5.5753514E-08
   46.56000      5.6646641E-08
   46.62000      5.7472953E-08
   46.68000      5.8238250E-08
   46.74000      5.8932713E-08
   46.80000      5.9532869E-08
   46.86000      6.0008425E-08
   46.92000      6.0331658E-08
   46.98000      6.0486343E-08
   47.04000      6.0473340E-08
   47.10000      6.0311272E-08
   47.16000      6.0031823E-08
   47.22000      5.9670960E-08
   47.28000      5.9258397E-08
   47.34000      5.8808421E-08
   47.40000      5.8314967E-08
   47.46000      5.7752914E-08
   47.52000      5.7085519E-08
   47.58000      5.6275933E-08
   47.64000      5.5299182E-08
   47.70000      5.4150565E-08
   47.76000      5.2847657E-08
   47.82000      5.1425275E-08
   47.88000      4.9925159E-08
   47.94000      4.8383910E-08
   48.00000      4.6823047E-08
   48.06000      4.5244278E-08
   48.12000      4.3631221E-08
   48.18000      4.1956852E-08
   48.24000      4.0194308E-08
   48.30000      3.8327716E-08
   48.36000      3.6359737E-08
   48.42000      3.4313274E-08
   48.48000      3.2226662E-08
   48.54000      3.0143507E-08
   48.60000      2.8100461E-08
   48.66000      2.6117057E-08
   48.72000      2.4191408E-08
   48.78000      2.2303501E-08
   48.84000      2.0425178E-08
   48.90000      1.8533328E-08
   48.96000      1.6621490E-08
   49.02000      1.4705737E-08
   49.08000      1.2822687E-08
   49.14000      1.1020417E-08
   49.20000      9.3453885E-09
   49.26000      7.8296800E-09
   49.32000      6.4825731E-09
   49.38000      5.2889195E-09
   49.44000      4.2146269E-09
   49.50000      3.2174319E-09
   49.56000      2.2596462E-09
   49.62000      1.3190204E-09
   49.68000      3.9446327E-10
   49.74000     -4.9503757E-10
   49.80000     -1.3177682E-09
   49.86000     -2.0403186E-09
   49.92000     -2.6384783E-09
   49.98000     -3.1043221E-09
   50.04000     -3.4472820E-09
   50.10000     -3.6892585E-09
   50.16000     -3.8559591E-09
   50.22000     -3.9678483E-09
   50.28000     -4.0339416E-09
   50.34000     -4.0503911E-09
   50.40000     -4.0039470E-09
   50.46000     -3.8787253E-09
   50.52000     -3.6637466E-09
   50.58000     -3.3587040E-09
   50.64000     -2.9761418E-09
   50.70000     -2.5394773E-09
   50.76000     -2.0775928E-09
   50.82000     -1.6177908E-09
   50.88000     -1.1793881E-09
   50.94000     -7.7000517E-10
   51.00000     -3.8568712E-10
   51.06000     -1.4700553E-11
   51.12000      3.5640471E-10
   51.18000      7.3658502E-10
   51.24000      1.1259758E-09
   51.30000      1.5146718E-09
   51.36000      1.8846638E-09
   51.42000      2.2139313E-09
   51.48000      2.4811226E-09
   51.54000      2.6692932E-09
   51.60000      2.7676876E-09
   51.66000      2.7712912E-09
   51.72000      2.6786018E-09
   51.78000      2.4886047E-09
   51.84000      2.1981450E-09
   51.90000      1.8007451E-09
   51.96000      1.2873496E-09
   52.02000      6.4869848E-10
   52.08000     -1.2174824E-10
   52.14000     -1.0257618E-09
   52.20000     -2.0603339E-09
   52.26000     -3.2199927E-09
   52.32000     -4.5006594E-09
   52.38000     -5.9035163E-09
   52.44000     -7.4373516E-09
   52.50000     -9.1185521E-09
   52.56000     -1.0969030E-08
   52.62000     -1.3013183E-08
   52.68000     -1.5275228E-08
   52.74000     -1.7777761E-08
   52.80000     -2.0541695E-08
   52.86000     -2.3587026E-08
   52.92000     -2.6933728E-08
   52.98000     -3.0602255E-08
   53.04000     -3.4613443E-08
   53.10000     -3.8987832E-08
   53.16000     -4.3744556E-08
   53.22000     -4.8900002E-08
   53.28000     -5.4466572E-08
   53.34000     -6.0452173E-08
   53.40000     -6.6860956E-08
   53.46000     -7.3695446E-08
   53.52000     -8.0959353E-08
   53.58000     -8.8659753E-08
   53.64000     -9.6806914E-08
   53.70000     -1.0541092E-07
   53.76000     -1.1447539E-07
   53.82000     -1.2399009E-07
   53.88000     -1.3392503E-07
   53.94000     -1.4422774E-07
   54.00000     -1.5482486E-07
   54.06000     -1.6562657E-07
   54.12000     -1.7653227E-07
   54.18000     -1.8743458E-07
   54.24000     -1.9822046E-07
   54.30000     -2.0876887E-07
   54.36000     -2.1894539E-07
   54.42000     -2.2859564E-07
   54.48000     -2.3753910E-07
   54.54000     -2.4556496E-07
   54.60000     -2.5243136E-07
   54.66000     -2.5786818E-07
   54.72000     -2.6158233E-07
   54.78000     -2.6326435E-07
   54.84000     -2.6259372E-07
   54.90000     -2.5924101E-07
   54.96000     -2.5286727E-07
   55.02000     -2.4312101E-07
   55.08000     -2.2963549E-07
   55.14000     -2.1202867E-07
   55.20000     -1.8990752E-07
   55.26000     -1.6287679E-07
   55.32000     -1.3055062E-07
   55.38000     -9.2565074E-08
   55.44000     -4.8588849E-08
   55.50000      1.6695302E-09
   55.56000      5.8458543E-08