 -0.750000000       0.00000000    
 -0.689999998       0.00000000    
 -0.629999995       0.00000000    
 -0.569999993       0.00000000    
 -0.509999990       0.00000000    
 -0.449999988       0.00000000    
 -0.389999986       0.00000000    
 -0.330000013       0.00000000    
 -0.270000011       0.00000000    
 -0.209999993       0.00000000    
 -0.150000006       4.53978834E-31
  -9.00000036E-02   6.31372347E-30
  -2.99999993E-02   4.09921189E-29
   2.99999993E-02   1.56590021E-28
   9.00000036E-02   3.40019778E-28
  0.150000006       1.27933520E-28
  0.209999993      -1.91786704E-27
  0.270000011      -7.35916552E-27
  0.330000013      -1.25370020E-26
  0.389999986       1.69698213E-27
  0.449999988       7.19026562E-26
  0.509999990       2.10718183E-25
  0.569999993       2.89581643E-25
  0.629999995      -1.02373641E-25
  0.689999998      -1.58149759E-24
  0.750000000      -4.27500015E-24
  0.810000002      -6.33995361E-24
  0.870000005      -2.51864433E-24
  0.930000007       1.48913967E-23
  0.990000010       4.95302444E-23
   1.04999995       8.82316941E-23
   1.11000001       8.84423452E-23
   1.16999996      -1.84255141E-23
   1.23000002      -2.88526696E-22
   1.28999996      -6.86626450E-22
   1.35000002      -9.97357474E-22
   1.40999997      -8.02898590E-22
   1.47000003       3.76723340E-22
   1.52999997       2.73316388E-21
   1.59000003       5.69732037E-21
   1.64999998       7.61423874E-21
   1.71000004       5.95080357E-21
   1.76999998      -1.66423206E-21
   1.83000004      -1.56332305E-20
   1.88999999      -3.24534749E-20
   1.95000005      -4.38223713E-20
   2.00999999      -3.80955575E-20
   2.06999993      -4.85726151E-21
   2.13000011       5.79599251E-20
   2.19000006       1.36790599E-19
   2.25000000       1.99042299E-19
   2.30999994       1.98198898E-19
   2.36999989       9.04002492E-20
   2.43000007      -1.39025977E-19
   2.49000001      -4.47542245E-19
   2.54999995      -7.21338045E-19
   2.60999990      -7.93214974E-19
   2.67000008      -5.03297630E-19
   2.73000002       2.05895284E-19
   2.78999996       1.19585480E-18
   2.84999990       2.09803216E-18
   2.91000009       2.39575390E-18
   2.97000003       1.63863425E-18
   3.02999997      -2.68436006E-19
   3.08999991      -2.83847627E-18
   3.15000010      -5.00711202E-18
   3.21000004      -5.47794240E-18
   3.26999998      -3.35743160E-18
   3.32999992       1.17541176E-18
   3.39000010       6.55308611E-18
   3.45000005       1.01915972E-17
   3.50999999       9.59635886E-18
   3.56999993       3.81438664E-18
   3.63000011      -5.51429078E-18
   3.69000006      -1.42802939E-17
   3.75000000      -1.75309036E-17
   3.80999994      -1.21142454E-17
   3.86999989       9.36412397E-19
   3.93000007       1.58249164E-17
   3.99000001       2.41609911E-17
   4.05000019       1.94156793E-17
   4.11000013       1.62032781E-18
   4.17000008      -2.05693183E-17
   4.23000002      -3.26377147E-17
   4.28999996      -2.17105298E-17
   4.34999990       1.42981130E-17
   4.40999985       6.10697189E-17
   4.46999979       9.05591511E-17
   4.53000021       7.32446860E-17
   4.59000015      -4.18945515E-18
   4.65000010      -1.24542735E-16
   4.71000004      -2.38801881E-16
   4.76999998      -2.82801405E-16
   4.82999992      -2.07688429E-16
   4.88999987      -1.07189033E-17
   4.94999981       2.51077930E-16
   5.01000023       4.76538777E-16
   5.07000017       5.63482686E-16
   5.13000011       4.60866444E-16
   5.19000006       2.01734039E-16
   5.25000000      -1.06388867E-16
   5.30999994      -3.36478836E-16
   5.36999989      -4.17576285E-16
   5.42999983      -3.86830338E-16
   5.48999977      -3.77475521E-16
   5.55000019      -5.32801512E-16
   5.61000013      -8.82201914E-16
   5.67000008      -1.25212349E-15
   5.73000002      -1.28620566E-15
   5.78999996      -6.03661429E-16
   5.84999990       9.52768494E-16
   5.90999985       3.10006690E-15
   5.96999979       5.07149712E-15
   6.03000021       5.83216362E-15
   6.09000015       4.51719494E-15
   6.15000010       9.21805098E-16
   6.21000004      -4.20090734E-15
   6.26999998      -9.23544586E-15
   6.32999992      -1.22323950E-14
   6.38999987      -1.16938878E-14
   6.44999981      -7.27671605E-15
   6.51000023      -6.07061499E-17
   6.57000017       7.79992068E-15
   6.63000011       1.39330211E-14
   6.69000006       1.67294902E-14
   6.75000000       1.59593747E-14
   6.80999994       1.26788677E-14
   6.86999989       8.43668786E-15
   6.92999983       4.18515676E-15
   6.98999977      -4.72540041E-16
   7.05000019      -7.16480776E-15
   7.11000013      -1.76499965E-14
   7.17000008      -3.21786461E-14
   7.23000002      -4.81820564E-14
   7.28999996      -6.01588007E-14
   7.34999990      -6.11563480E-14
   7.40999985      -4.54604243E-14
   7.46999979      -1.13826998E-14
   7.53000021       3.72163848E-14
   7.59000015       9.15987596E-14
   7.65000010       1.40931890E-13
   7.71000004       1.75963926E-13
   7.76999998       1.91702272E-13
   7.82999992       1.87467988E-13
   7.88999987       1.63936966E-13
   7.94999981       1.18523735E-13
   8.01000023       4.18879612E-14
   8.06999969      -8.13974200E-14
   8.13000011      -2.66287670E-13
   8.18999958      -5.15683470E-13
   8.25000000      -8.07578722E-13
   8.31000042      -1.08657571E-12
   8.36999989      -1.26521710E-12
   8.43000031      -1.23803799E-12
   8.48999977      -9.07050693E-13
   8.55000019      -2.13036498E-13
   8.60999966       8.35772478E-13
   8.67000008       2.14612182E-12
   8.72999954       3.53905186E-12
   8.78999996       4.76738050E-12
   8.85000038       5.54808716E-12
   8.90999985       5.60341617E-12
   8.97000027       4.70408044E-12
   9.02999973       2.70969250E-12
   9.09000015      -3.95870240E-13
   9.14999962      -4.47473395E-12
   9.21000004      -9.21182228E-12
   9.27000046      -1.41016695E-11
   9.32999992      -1.84524011E-11
   9.39000034      -2.14169203E-11
   9.44999981      -2.20612938E-11
   9.51000023      -1.94762002E-11
   9.56999969      -1.29290224E-11
   9.63000011      -2.04330303E-12
   9.68999958       1.30185914E-11
   9.75000000       3.14016556E-11
   9.81000042       5.14677190E-11
   9.86999989       7.07979231E-11
   9.93000031       8.63065522E-11
   9.98999977       9.44677461E-11
   10.0500002       9.16385648E-11
   10.1099997       7.44444575E-11
   10.1700001       4.01823678E-11
   10.2299995      -1.28085303E-11
   10.2900000      -8.48543735E-11
   10.3500004      -1.74768741E-10
   10.4099998      -2.79811618E-10
   10.4700003      -3.95791566E-10
   10.5299997      -5.17303533E-10
   10.5900002      -6.38082309E-10
   10.6499996      -7.51442464E-10
   10.7100000      -8.50769177E-10
   10.7700005      -9.30021560E-10
   10.8299999      -9.84208826E-10
   10.8900003      -1.00980180E-09
   10.9499998      -1.00504716E-09
   11.0100002      -9.70160285E-10
   11.0699997      -9.07378950E-10
   11.1300001      -8.20873980E-10
   11.1899996      -7.16519066E-10
   11.2500000      -6.01538486E-10
   11.3100004      -4.84059182E-10
   11.3699999      -3.72604586E-10
   11.4300003      -2.75576534E-10
   11.4899998      -2.00769970E-10
   11.5500002      -1.54962515E-10
   11.6099997      -1.43606335E-10
   11.6700001      -1.70633771E-10
   11.7299995      -2.38371406E-10
   11.7900000      -3.47545021E-10
   11.8500004      -4.97352437E-10
   11.9099998      -6.85581980E-10
   11.9700003      -9.08757902E-10
   12.0299997      -1.16229615E-09
   12.0900002      -1.44065471E-09
   12.1499996      -1.73746129E-09
   12.2100000      -2.04560568E-09
   12.2700005      -2.35730280E-09
   12.3299999      -2.66415023E-09
   12.3900003      -2.95724267E-09
   12.4499998      -3.22741012E-09
   12.5100002      -3.46564288E-09
   12.5699997      -3.66371555E-09
   12.6300001      -3.81494702E-09
   12.6899996      -3.91495814E-09
   12.7500000      -3.96223587E-09
   12.8100004      -3.95833011E-09
   12.8699999      -3.90757782E-09
   12.9300003      -3.81638898E-09
   12.9899998      -3.69225850E-09
   13.0500002      -3.54274676E-09
   13.1099997      -3.37469053E-09
   13.1700001      -3.19379234E-09
   13.2299995      -3.00459346E-09
   13.2900000      -2.81068591E-09
   13.3500004      -2.61493804E-09
   13.4099998      -2.41952725E-09
   13.4700003      -2.22571472E-09
   13.5299997      -2.03346162E-09
   13.5900002      -1.84113058E-09
   13.6499996      -1.64555980E-09
   13.7100000      -1.44270340E-09
   13.7700005      -1.22882848E-09
   13.8299999      -1.00202269E-09
   13.8900003      -7.63587471E-10
   13.9499998      -5.18844023E-10
   14.0100002      -2.76995010E-10
   14.0699997      -4.99382757E-11
   14.1300001       1.49768212E-10
   14.1899996       3.11325743E-10
   14.2500000       4.27905822E-10
   14.3100004       4.98102781E-10
   14.3699999       5.26284294E-10
   14.4300003       5.21799381E-10
   14.4899998       4.97308694E-10
   14.5500002       4.66715777E-10
   14.6099997       4.43234449E-10
   14.6700001       4.38019676E-10
   14.7299995       4.59555199E-10
   14.7900000       5.13717402E-10
   14.8500004       6.04218786E-10
   14.9099998       7.33045513E-10
   14.9700003       9.00577612E-10
   15.0299997       1.10527743E-09
   15.0900002       1.34308153E-09
   15.1499996       1.60682989E-09
   15.2100000       1.88613281E-09
   15.2700005       2.16798046E-09
   15.3299999       2.43816722E-09
   15.3900003       2.68331557E-09
   15.4499998       2.89303825E-09
   15.5100002       3.06168024E-09
   15.5699997       3.18915538E-09
   15.6300001       3.28062355E-09
   15.6899996       3.34507533E-09
   15.7500000       3.39318307E-09
   15.8100004       3.43496653E-09
   15.8699999       3.47783380E-09
   15.9300003       3.52542928E-09
   15.9899998       3.57745922E-09
   16.0499992       3.63040509E-09
   16.1100006       3.67881081E-09
   16.1700001       3.71672493E-09
   16.2299995       3.73889719E-09
   16.2900009       3.74145248E-09
   16.3500004       3.72195608E-09
   16.4099998       3.67897601E-09
   16.4699993       3.61138852E-09
   16.5300007       3.51774809E-09
   16.5900002       3.39599948E-09
   16.6499996       3.24369731E-09
   16.7099991       3.05873171E-09
   16.7700005       2.84037083E-09
   16.8299999       2.59032595E-09
   16.8899994       2.31348096E-09
   16.9500008       2.01800376E-09
   17.0100002       1.71469849E-09
   17.0699997       1.41564549E-09
   17.1299992       1.13238308E-09
   17.1900005       8.74016470E-10
   17.2500000       6.45707821E-10
   17.3099995       4.47942794E-10
   17.3700008       2.76817680E-10
   17.4300003       1.25349439E-10
   17.4899998      -1.44687153E-11
   17.5499992      -1.49386309E-10
   17.6100006      -2.83041979E-10
   17.6700001      -4.15137563E-10
   17.7299995      -5.41985290E-10
   17.7900009      -6.58356258E-10
   17.8500004      -7.60103980E-10
   17.9099998      -8.46699877E-10
   17.9699993      -9.22753485E-10
   18.0300007      -9.97853133E-10
   18.0900002      -1.08461151E-09
   18.1499996      -1.19544341E-09
   18.2099991      -1.33911515E-09
   18.2700005      -1.51827106E-09
   18.3299999      -1.72887094E-09
   18.3899994      -1.96184646E-09
   18.4500008      -2.20650320E-09
   18.5100002      -2.45456566E-09
   18.5699997      -2.70350098E-09
   18.6299992      -2.95797031E-09
   18.6900005      -3.22888272E-09
   18.7500000      -3.53031537E-09
   18.8099995      -3.87525922E-09
   18.8700008      -4.27151514E-09
   18.9300003      -4.71897632E-09
   18.9899998      -5.20907451E-09
   19.0499992      -5.72646641E-09
   19.1100006      -6.25236796E-09
   19.1700001      -6.76848000E-09
   19.2299995      -7.26033456E-09
   19.2900009      -7.71913466E-09
   19.3500004      -8.14168288E-09
   19.4099998      -8.52861159E-09
   19.4699993      -8.88166785E-09
   19.5300007      -9.20113763E-09
   19.5900002      -9.48438306E-09
   19.6499996      -9.72611502E-09
   19.7099991      -9.92035609E-09
   19.7700005      -1.00634034E-08
   19.8299999      -1.01566551E-08
   19.8899994      -1.02081037E-08
   19.9500008      -1.02316804E-08
   20.0100002      -1.02443902E-08
   20.0699997      -1.02619797E-08
   20.1299992      -1.02944915E-08
   20.1900005      -1.03432516E-08
   20.2500000      -1.04004219E-08
   20.3099995      -1.04514823E-08
   20.3700008      -1.04800115E-08
   20.4300003      -1.04733067E-08
   20.4899998      -1.04270681E-08
   20.5499992      -1.03475672E-08
   20.6100006      -1.02505338E-08
   20.6700001      -1.01570521E-08
   20.7299995      -1.00877413E-08
   20.7900009      -1.00570912E-08
   20.8500004      -1.00697823E-08
   20.9099998      -1.01201598E-08
   20.9699993      -1.01949844E-08
   21.0300007      -1.02784607E-08
   21.0900002      -1.03578461E-08
   21.1499996      -1.04277493E-08
   21.2099991      -1.04917355E-08
   21.2700005      -1.05607878E-08
   21.3299999      -1.06492273E-08
   21.3899994      -1.07694751E-08
   21.4500008      -1.09274216E-08
   21.5100002      -1.11198659E-08
   21.5699997      -1.13348664E-08
   21.6299992      -1.15548806E-08
   21.6900005      -1.17617409E-08
   21.7500000      -1.19419328E-08
   21.8099995      -1.20905046E-08
   21.8700008      -1.22123227E-08
   21.9300003      -1.23201991E-08
   21.9899998      -1.24303616E-08
   22.0499992      -1.25566668E-08
   22.1100006      -1.27053807E-08
   22.1700001      -1.28722357E-08
   22.2299995      -1.30427358E-08
   22.2900009      -1.31955620E-08
   22.3500004      -1.33079423E-08
   22.4099998      -1.33611540E-08
   22.4699993      -1.33444251E-08
   22.5300007      -1.32561118E-08
   22.5900002      -1.31020776E-08
   22.6499996      -1.28921158E-08
   22.7099991      -1.26358897E-08
   22.7700005      -1.23398296E-08
   22.8299999      -1.20060148E-08
   22.8899994      -1.16332286E-08
   22.9500008      -1.12196492E-08
   23.0100002      -1.07660760E-08
   23.0699997      -1.02784448E-08
   23.1299992      -9.76864367E-09
   23.1900005      -9.25325061E-09
   23.2500000      -8.75050965E-09
   23.3099995      -8.27645330E-09
   23.3700008      -7.84142884E-09
   23.4300003      -7.44808126E-09
   23.4899998      -7.09135373E-09
   23.5499992      -6.76036027E-09
   23.6100006      -6.44136922E-09
   23.6700001      -6.12085227E-09
   23.7299995      -5.78768145E-09
   23.7900009      -5.43401280E-09
   23.8500004      -5.05493780E-09
   23.9099998      -4.64742023E-09
   23.9699993      -4.20918811E-09
   24.0300007      -3.73815423E-09
   24.0900002      -3.23263083E-09
   24.1499996      -2.69230438E-09
   24.2099991      -2.11959428E-09
   24.2700005      -1.52086388E-09
   24.3299999      -9.06903774E-10
   24.3899994      -2.92246921E-10
   24.4500008       3.06783904E-10
   24.5100002       8.74949169E-10
   24.5699997       1.40112200E-09
   24.6299992       1.88052995E-09
   24.6900005       2.31545472E-09
   24.7500000       2.71417111E-09
   24.8099995       3.08857584E-09
   24.8700008       3.45145468E-09
   24.9300003       3.81439724E-09
   24.9899998       4.18696189E-09
   25.0499992       4.57699967E-09
   25.1100006       4.99144459E-09
   25.1700001       5.43662404E-09
   25.2299995       5.91741767E-09
   25.2900009       6.43521147E-09
   25.3500004       6.98525504E-09
   25.4099998       7.55447260E-09
   25.4699993       8.12076273E-09
   25.5300007       8.65440164E-09
   25.5900002       9.12153553E-09
   25.6499996       9.48904422E-09
   25.7099991       9.72964642E-09
   25.7700005       9.82595338E-09
   25.8299999       9.77248682E-09
   25.8899994       9.57520463E-09
   25.9500008       9.24886390E-09
   26.0100002       8.81314843E-09
   26.0699997       8.28883717E-09
   26.1299992       7.69510144E-09
   26.1900005       7.04850311E-09
   26.2500000       6.36348840E-09
   26.3099995       5.65367264E-09
   26.3700008       4.93301355E-09
   26.4300003       4.21626201E-09
   26.4899998       3.51857743E-09
   26.5499992       2.85461743E-09
   26.6100006       2.23757857E-09
   26.6700001       1.67852277E-09
   26.7299995       1.18607824E-09
   26.7900009       7.66438968E-10
   26.8500004       4.23604679E-10
   26.9099998       1.59927960E-10
   26.9699993      -2.29361218E-11
   27.0300007      -1.22754626E-10
   27.0900002      -1.35513156E-10
   27.1499996      -5.49450277E-11
   27.2099991       1.26590557E-10
   27.2700005       4.15682738E-10
   27.3299999       8.14357526E-10
   27.3899994       1.31652544E-09
   27.4500008       1.90565408E-09
   27.5100002       2.55466492E-09
   27.5699997       3.22841842E-09
   27.6299992       3.88838339E-09
   27.6900005       4.49845805E-09
   27.7500000       5.03057018E-09
   27.8099995       5.46867041E-09
   27.8700008       5.81007686E-09
   27.9300003       6.06371975E-09
   27.9899998       6.24569241E-09
   28.0499992       6.37334230E-09
   28.1100006       6.45974252E-09
   28.1700001       6.51040155E-09
   28.2299995       6.52332854E-09
   28.2900009       6.49235066E-09
   28.3500004       6.41220455E-09
   28.4099998       6.28314334E-09
   28.4699993       6.11293105E-09
   28.5300007       5.91519234E-09
   28.5900002       5.70463010E-09
   28.6499996       5.49098189E-09
   28.7099991       5.27411892E-09
   28.7700005       5.04226083E-09
   28.8299999       4.77409134E-09
   28.8899994       4.44416104E-09
   28.9500008       4.02989020E-09
   29.0100002       3.51801388E-09
   29.0699997       2.90856428E-09
   29.1299992       2.21523466E-09
   29.1900005       1.46204404E-09
   29.2500000       6.77305545E-10
   29.3099995      -1.13247141E-10
   29.3700008      -8.91991481E-10
   29.4300003      -1.65180303E-09
   29.4899998      -2.39452835E-09
   29.5499992      -3.12620263E-09
   29.6100006      -3.85091337E-09
   29.6700001      -4.56576732E-09
   29.7299995      -5.25899502E-09
   29.7900009      -5.91198202E-09
   29.8500004      -6.50448140E-09
   29.9099998      -7.02107661E-09
   29.9699993      -7.45660333E-09
   30.0300007      -7.81872789E-09
   30.0900002      -8.12695866E-09
   30.1499996      -8.40854586E-09
   30.2099991      -8.69255956E-09
   30.2700005      -9.00387942E-09
   30.3299999      -9.35867295E-09
   30.3899994      -9.76253478E-09
   30.4500008      -1.02116529E-08
   30.5100002      -1.06965441E-08
   30.5699997      -1.12070362E-08
   30.6299992      -1.17366987E-08
   30.6900005      -1.22850539E-08
   30.7500000      -1.28566677E-08
   30.8099995      -1.34574440E-08
   30.8700008      -1.40896166E-08
   30.9300003      -1.47475365E-08
   30.9899998      -1.54160382E-08
   31.0499992      -1.60721569E-08
   31.1100006      -1.66896346E-08
   31.1700001      -1.72446306E-08
   31.2299995      -1.77207671E-08
   31.2900009      -1.81119724E-08
   31.3500004      -1.84225257E-08
   31.4099998      -1.86645455E-08
   31.4699993      -1.88538394E-08
   31.5300007      -1.90054017E-08
   31.5900002      -1.91297378E-08
   31.6499996      -1.92310328E-08
   31.7099991      -1.93075991E-08
   31.7700005      -1.93543794E-08
   31.8299999      -1.93665848E-08
   31.8899994      -1.93430729E-08
   31.9500008      -1.92880520E-08
   32.0099983      -1.92103276E-08
   32.0699997      -1.91203053E-08
   32.1300011      -1.90259222E-08
   32.1899986      -1.89291374E-08
   32.2500000      -1.88243909E-08
   32.3100014      -1.86995486E-08
   32.3699989      -1.85389073E-08
   32.4300003      -1.83270661E-08
   32.4900017      -1.80523951E-08
   32.5499992      -1.77092527E-08
   32.6100006      -1.72986088E-08
   32.6699982      -1.68273644E-08
   32.7299995      -1.63067906E-08
   32.7900009      -1.57506097E-08
   32.8499985      -1.51731303E-08
   32.9099998      -1.45878518E-08
   32.9700012      -1.40068366E-08
   33.0299988      -1.34409639E-08
   33.0900002      -1.29008466E-08
   33.1500015      -1.23978525E-08
   33.2099991      -1.19444934E-08
   33.2700005      -1.15536842E-08
   33.3300018      -1.12369225E-08
   33.3899994      -1.10020624E-08
   33.4500008      -1.08516813E-08
   33.5099983      -1.07829639E-08
   33.5699997      -1.07893685E-08
   33.6300011      -1.08636105E-08
   33.6899986      -1.10008891E-08
   33.7500000      -1.12011787E-08
   33.8100014      -1.14697691E-08
   33.8699989      -1.18158452E-08
   33.9300003      -1.22495694E-08
   33.9900017      -1.27785329E-08
   34.0499992      -1.34045512E-08
   34.1100006      -1.41216496E-08
   34.1699982      -1.49157184E-08
   34.2299995      -1.57659272E-08
   34.2900009      -1.66475473E-08
   34.3499985      -1.75354273E-08
   34.4099998      -1.84071869E-08
   34.4700012      -1.92453022E-08
   34.5299988      -2.00375343E-08
   34.5900002      -2.07758095E-08
   34.6500015      -2.14541078E-08
   34.7099991      -2.20662972E-08
   34.7700005      -2.26047039E-08
   34.8300018      -2.30599362E-08
   34.8899994      -2.34218653E-08
   34.9500008      -2.36812561E-08
   35.0099983      -2.38313298E-08
   35.0699997      -2.38686333E-08
   35.1300011      -2.37928859E-08
   35.1899986      -2.36058852E-08
   35.2500000      -2.33098376E-08
   35.3100014      -2.29056720E-08
   35.3699989      -2.23918502E-08
   35.4300003      -2.17640164E-08
   35.4900017      -2.10156177E-08
   35.5499992      -2.01392982E-08
   35.6100006      -1.91286968E-08
   35.6699982      -1.79801827E-08
   35.7299995      -1.66940683E-08
   35.7900009      -1.52749742E-08
   35.8499985      -1.37312757E-08
   35.9099998      -1.20737589E-08
   35.9700012      -1.03138742E-08
   36.0299988      -8.46208703E-09
   36.0900002      -6.52682974E-09
   36.1500015      -4.51438043E-09
   36.2099991      -2.42973841E-09
   36.2700005      -2.78219919E-10
   36.3300018       1.93275018E-09
   36.3899994       4.19226609E-09
   36.4500008       6.48546017E-09
   36.5099983       8.79410411E-09
   36.5699997       1.10981393E-08
   36.6300011       1.33777007E-08
   36.6899986       1.56150950E-08
   36.7500000       1.77961947E-08
   36.8100014       1.99108499E-08
   36.8699989       2.19521610E-08
   36.9300003       2.39146747E-08
   36.9900017       2.57919037E-08
   37.0499992       2.75739360E-08
   37.1100006       2.92459514E-08
   37.1699982       3.07884704E-08
   37.2299995       3.21795781E-08
   37.2900009       3.33986634E-08
   37.3499985       3.44304922E-08
   37.4099998       3.52681013E-08
   37.4700012       3.59132635E-08
   37.5299988       3.63741108E-08
   37.5900002       3.66606407E-08
   37.6500015       3.67795998E-08
   37.7099991       3.67305546E-08
   37.7700005       3.65045807E-08
   37.8300018       3.60859858E-08
   37.8899994       3.54565977E-08
   37.9500008       3.46013245E-08
   38.0099983       3.35132846E-08
   38.0699997       3.21970219E-08
   38.1300011       3.06687369E-08
   38.1899986       2.89532149E-08
   38.2500000       2.70781975E-08
   38.3100014       2.50677257E-08
   38.3699989       2.29366588E-08
   38.4300003       2.06884216E-08
   38.4900017       1.83171522E-08
   38.5499992       1.58138480E-08
   38.6100006       1.31745175E-08
   38.6699982       1.04073568E-08
   38.7299995       7.53611040E-09
   38.7900009       4.59811789E-09
   38.8499985       1.63753089E-09
   38.9099998      -1.30400213E-09
   38.9700012      -4.19594492E-09
   39.0299988      -7.02384995E-09
   39.0900002      -9.78906645E-09
   39.1500015      -1.25033068E-08
   39.2099991      -1.51798147E-08
   39.2700005      -1.78238473E-08
   39.3300018      -2.04254107E-08
   39.3899994      -2.29566020E-08
   39.4500008      -2.53746748E-08
   39.5099983      -2.76302323E-08
   39.5699997      -2.96783167E-08
   39.6300011      -3.14888631E-08
   39.6899986      -3.30529026E-08
   39.7500000      -3.43820474E-08
   39.8100014      -3.55011167E-08
   39.8699989      -3.64364290E-08
   39.9300003      -3.72039892E-08
   39.9900017      -3.78022413E-08
   40.0499992      -3.82121570E-08
   40.1100006      -3.84047425E-08
   40.1699982      -3.83531464E-08
   40.2299995      -3.80447389E-08
   40.2900009      -3.74886966E-08
   40.3499985      -3.67163082E-08
   40.4099998      -3.57739331E-08
   40.4700012      -3.47110571E-08
   40.5299988      -3.35673995E-08
   40.5900002      -3.23632996E-08
   40.6500015      -3.10964232E-08
   40.7099991      -2.97458751E-08
   40.7700005      -2.82824910E-08
   40.8300018      -2.66821374E-08
   40.8899994      -2.49378047E-08
   40.9500008      -2.30664323E-08
   41.0099983      -2.11080557E-08
   41.0699997      -1.91173211E-08
   41.1300011      -1.71501213E-08
   41.1899986      -1.52498565E-08
   41.2500000      -1.34381093E-08
   41.3100014      -1.17129639E-08
   41.3699989      -1.00554693E-08
   41.4300003      -8.44181614E-09
   41.4900017      -6.85675650E-09
   41.5499992      -5.30341504E-09
   41.6100006      -3.80598975E-09
   41.6699982      -2.40441533E-09
   41.7299995      -1.14287557E-09
   41.7900009      -5.62119587E-11
   41.8499985       8.40998549E-10
   41.9099998       1.55880131E-09
   41.9700012       2.12799334E-09
   42.0299988       2.58920418E-09
   42.0900002       2.97860936E-09
   42.1500015       3.31522965E-09
   42.2099991       3.59429730E-09
   42.2700005       3.78908283E-09
   42.3300018       3.86057453E-09
   42.3899994       3.77161147E-09
   42.4500008       3.50054274E-09
   42.5099983       3.04974623E-09
   42.5699997       2.44627141E-09
   42.6300011       1.73466030E-09
   42.6899986       9.64609503E-10
   42.7500000       1.77666645E-10
   42.8100014      -6.02810857E-10
   42.8699989      -1.37552092E-09
   42.9300003      -2.15810214E-09
   42.9900017      -2.97844349E-09
   43.0499992      -3.86346510E-09
   43.1100006      -4.82908646E-09
   43.1699982      -5.87460613E-09
   43.2299995      -6.98322333E-09
   43.2900009      -8.12834600E-09
   43.3499985      -9.28332966E-09
   43.4099998      -1.04310276E-08
   43.4700012      -1.15695729E-08
   43.5299988      -1.27121771E-08
   43.5900002      -1.38809204E-08
   43.6500015      -1.50968287E-08
   43.7099991      -1.63698939E-08
   43.7700005      -1.76927415E-08
   43.8300018      -1.90402556E-08
   43.8899994      -2.03752712E-08
   43.9500008      -2.16583089E-08
   44.0099983      -2.28579733E-08
   44.0699997      -2.39585329E-08
   44.1300011      -2.49622722E-08
   44.1899986      -2.58861004E-08
   44.2500000      -2.67536944E-08
   44.3100014      -2.75859620E-08
   44.3699989      -2.83929591E-08
   44.4300003      -2.91698257E-08
   44.4900017      -2.98978868E-08
   44.5499992      -3.05502681E-08
   44.6100006      -3.10997983E-08
   44.6699982      -3.15263833E-08
   44.7299995      -3.18212336E-08
   44.7900009      -3.19866800E-08
   44.8499985      -3.20320126E-08
   44.9099998      -3.19673283E-08
   44.9700012      -3.17978603E-08
   45.0299988      -3.15210826E-08
   45.0900002      -3.11275059E-08
   45.1500015      -3.06045536E-08
   45.2099991      -2.99417913E-08
   45.2700005      -2.91352666E-08
   45.3300018      -2.81892945E-08
   45.3899994      -2.71152221E-08
   45.4500008      -2.59278448E-08
   45.5099983      -2.46411176E-08
   45.5699997      -2.32648532E-08
   45.6300011      -2.18035616E-08
   45.6899986      -2.02575681E-08
   45.7500000      -1.86256344E-08
   45.8100014      -1.69077055E-08
   45.8699989      -1.51066288E-08
   45.9300003      -1.32281741E-08
   45.9900017      -1.12795666E-08
   46.0499992      -9.26740107E-09
   46.1100006      -7.19602866E-09
   46.1699982      -5.06728215E-09
   46.2299995      -2.88185853E-09
   46.2900009      -6.41932618E-10
   46.3499985       1.64594083E-09
   46.4099998       3.96883104E-09
   46.4700012       6.30736352E-09
   46.5299988       8.63803074E-09
   46.5900002       1.09375247E-08
   46.6500015       1.31879085E-08
   46.7099991       1.53808806E-08
   46.7700005       1.75194739E-08
   46.8300018       1.96162286E-08
   46.8899994       2.16880789E-08
   46.9500008       2.37495321E-08
   47.0099983       2.58064663E-08
   47.0699997       2.78528596E-08
   47.1300011       2.98717211E-08
   47.1899986       3.18400133E-08
   47.2500000       3.37358763E-08
   47.3100014       3.55457104E-08
   47.3699989       3.72687552E-08
   47.4300003       3.89176193E-08
   47.4900017       4.05147738E-08
   47.5499992       4.20858441E-08
   47.6100006       4.36517986E-08
   47.6699982       4.52221443E-08
   47.7299995       4.67911612E-08
   47.7900009       4.83384213E-08
   47.8499985       4.98336661E-08
   47.9099998       5.12447933E-08
   47.9700012       5.25466071E-08
   48.0299988       5.37273657E-08
   48.0900002       5.47908670E-08
   48.1500015       5.57530981E-08
   48.2099991       5.66346081E-08
   48.2700005       5.74512136E-08
   48.3300018       5.82064885E-08
   48.3899994       5.88887019E-08
   48.4500008       5.94732938E-08
   48.5099983       5.99299952E-08
   48.5699997       6.02321606E-08
   48.6300011       6.03653092E-08
   48.6899986       6.03321197E-08
   48.7500000       6.01525159E-08
   48.8100014       5.98585856E-08
   48.8699989       5.94856395E-08
   48.9300003       5.90620068E-08
   48.9900017       5.86002926E-08
   49.0499992       5.80930930E-08
   49.1100006       5.75147538E-08
   49.1699982       5.68289913E-08
   49.2299995       5.60002960E-08
   49.2900009       5.50054757E-08
   49.3499985       5.38414362E-08
   49.4099998       5.25266337E-08
   49.4700012       5.10956859E-08
   49.5299988       4.95891044E-08
   49.5900002       4.80416240E-08
   49.6500015       4.64729517E-08
   49.7099991       4.48836914E-08
   49.7700005       4.32574652E-08
   49.8300018       4.15682919E-08
   49.8899994       3.97909119E-08
   49.9500008       3.79109260E-08
   50.0099983       3.59317056E-08
   50.0699997       3.38758745E-08
   50.1300011       3.17806226E-08
   50.1899986       2.96880707E-08
   50.2500000       2.76336785E-08
   50.3100014       2.56366128E-08
   50.3699989       2.36956694E-08
   50.4300003       2.17925518E-08
   50.4900017       1.99015222E-08
   50.5499992       1.80020798E-08
   50.6100006       1.60900093E-08