 -0.750000000       0.00000000    
 -0.689999998       0.00000000    
 -0.629999995       0.00000000    
 -0.569999993       0.00000000    
 -0.509999990       0.00000000    
 -0.449999988       0.00000000    
 -0.389999986       0.00000000    
 -0.330000013       0.00000000    
 -0.270000011       0.00000000    
 -0.209999993       0.00000000    
 -0.150000006      -2.90963510E-31
  -9.00000036E-02   3.56837993E-30
  -2.99999993E-02   7.97251279E-29
   2.99999993E-02   6.06555169E-28
   9.00000036E-02   2.68957812E-27
  0.150000006       7.58921554E-27
  0.209999993       1.16699314E-26
  0.270000011      -6.63276021E-27
  0.330000013      -9.98360606E-26
  0.389999986      -3.26933492E-25
  0.449999988      -6.27186476E-25
  0.509999990      -5.73549851E-25
  0.569999993       8.11393238E-25
  0.629999995       4.67424068E-24
  0.689999998       1.07719099E-23
  0.750000000       1.48105795E-23
  0.810000002       6.58359409E-24
  0.870000005      -2.70393214E-23
  0.930000007      -9.02362086E-23
  0.990000010      -1.58712137E-22
   1.04999995      -1.64758346E-22
   1.11000001      -9.85196236E-24
   1.16999996       3.74299909E-22
   1.23000002       9.22056068E-22
   1.28999996       1.34200361E-21
   1.35000002       1.13441561E-21
   1.40999997      -1.94433917E-22
   1.47000003      -2.73133685E-21
   1.52999997      -5.74455206E-21
   1.59000003      -7.57451145E-21
   1.64999998      -6.11139939E-21
   1.71000004       1.28146655E-22
   1.76999998       1.07434678E-20
   1.83000004       2.27508402E-20
   1.88999999       3.10832373E-20
   1.95000005       3.03104923E-20
   2.00999999       1.67731226E-20
   2.06999993      -1.00739928E-20
   2.13000011      -4.77383703E-20
   2.19000006      -9.14113482E-20
   2.25000000      -1.33387294E-19
   2.30999994      -1.59794453E-19
   2.36999989      -1.46251426E-19
   2.43000007      -5.81901205E-20
   2.49000001       1.36600387E-19
   2.54999995       4.39946297E-19
   2.60999990       7.87853603E-19
   2.67000008       1.02953753E-18
   2.73000002       9.49313003E-19
   2.78999996       3.48905325E-19
   2.84999990      -8.23137767E-19
   2.91000009      -2.34841829E-18
   2.97000003      -3.70176642E-18
   3.02999997      -4.16746538E-18
   3.08999991      -3.11406328E-18
   3.15000010      -3.41247571E-19
   3.21000004       3.66387493E-18
   3.26999998       7.73008637E-18
   3.32999992       1.03419720E-17
   3.39000010       1.02272520E-17
   3.45000005       6.94123069E-18
   3.50999999       1.14226033E-18
   3.56999993      -5.63523410E-18
   3.63000011      -1.16485005E-17
   3.69000006      -1.57196709E-17
   3.75000000      -1.76559816E-17
   3.80999994      -1.80021782E-17
   3.86999989      -1.71942080E-17
   3.93000007      -1.46171599E-17
   3.99000001      -8.28105235E-18
   4.05000019       4.38272011E-18
   4.11000013       2.47074994E-17
   4.17000008       5.07739607E-17
   4.23000002       7.63888590E-17
   4.28999996       9.19987829E-17
   4.34999990       8.75928219E-17
   4.40999985       5.65675204E-17
   4.46999979      -1.11482585E-18
   4.53000021      -7.78864331E-17
   4.59000015      -1.59971410E-16
   4.65000010      -2.30254234E-16
   4.71000004      -2.71059358E-16
   4.76999998      -2.65904500E-16
   4.82999992      -2.00808840E-16
   4.88999987      -6.70145535E-17
   4.94999981       1.33286802E-16
   5.01000023       3.78925827E-16
   5.07000017       6.23441872E-16
   5.13000011       7.96589859E-16
   5.19000006       8.18407416E-16
   5.25000000       6.25238694E-16
   5.30999994       1.99904580E-16
   5.36999989      -4.06762321E-16
   5.42999983      -1.07475511E-15
   5.48999977      -1.63805933E-15
   5.55000019      -1.92516592E-15
   5.61000013      -1.80228325E-15
   5.67000008      -1.20546817E-15
   5.73000002      -1.57287891E-16
   5.78999996       1.22514560E-15
   5.84999990       2.72074458E-15
   5.90999985       3.99445322E-15
   5.96999979       4.60825226E-15
   6.03000021       4.08988546E-15
   6.09000015       2.08683528E-15
   6.15000010      -1.40950613E-15
   6.21000004      -5.84818864E-15
   6.26999998      -1.00408116E-14
   6.32999992      -1.23462489E-14
   6.38999987      -1.11596337E-14
   6.44999981      -5.60130140E-15
   6.51000023       3.84644014E-15
   6.57000017       1.50732054E-14
   6.63000011       2.46851185E-14
   6.69000006       2.89761670E-14
   6.75000000       2.52522477E-14
   6.80999994       1.30118592E-14
   6.86999989      -5.53817797E-15
   6.92999983      -2.59337721E-14
   6.98999977      -4.27776982E-14
   7.05000019      -5.14463350E-14
   7.11000013      -4.94904512E-14
   7.17000008      -3.71643837E-14
   7.23000002      -1.69288835E-14
   7.28999996       7.72126520E-15
   7.34999990       3.34193258E-14
   7.40999985       5.74334552E-14
   7.46999979       7.73037708E-14
   7.53000021       9.00060327E-14
   7.59000015       9.14806290E-14
   7.65000010       7.73287684E-14
   7.71000004       4.48771540E-14
   7.76999998      -4.11671650E-15
   7.82999992      -6.16194243E-14
   7.88999987      -1.13940392E-13
   7.94999981      -1.45595030E-13
   8.01000023      -1.45639672E-13
   8.06999969      -1.14072123E-13
   8.13000011      -6.50306360E-14
   8.18999958      -2.40949178E-14
   8.25000000      -1.90779941E-14
   8.31000042      -6.66498649E-14
   8.36999989      -1.59738813E-13
   8.43000031      -2.61621887E-13
   8.48999977      -3.11161470E-13
   8.55000019      -2.39954595E-13
   8.60999966       2.55480998E-15
   8.67000008       4.23843957E-13
   8.72999954       9.72138060E-13
   8.78999996       1.53639655E-12
   8.85000038       1.96456957E-12
   8.90999985       2.09612536E-12
   8.97000027       1.79999169E-12
   9.02999973       1.00748609E-12
   9.09000015      -2.67816991E-13
   9.14999962      -1.92600189E-12
   9.21000004      -3.78940802E-12
   9.27000046      -5.61724408E-12
   9.32999992      -7.12017424E-12
   9.39000034      -7.97348038E-12
   9.44999981      -7.83395918E-12
   9.51000023      -6.37046145E-12
   9.56999969      -3.31760747E-12
   9.63000011       1.44485064E-12
   9.68999958       7.79673288E-12
   9.75000000       1.52889923E-11
   9.81000042       2.30931038E-11
   9.86999989       3.00177938E-11
   9.93000031       3.46100787E-11
   9.98999977       3.53364421E-11
   10.0500002       3.08168942E-11
   10.1099997       2.00674373E-11
   10.1700001       2.70117739E-12
   10.2299995      -2.09524152E-11
   10.2900000      -4.98305772E-11
   10.3500004      -8.22189747E-11
   10.4099998      -1.15908658E-10
   10.4700003      -1.48395823E-10
   10.5299997      -1.77094867E-10
   10.5900002      -1.99546449E-10
   10.6499996      -2.13614348E-10
   10.7100000      -2.17671742E-10
   10.7700005      -2.10773718E-10
   10.8299999      -1.92802371E-10
   10.8900003      -1.64558145E-10
   10.9499998      -1.27765618E-10
   11.0100002      -8.49694828E-11
   11.0699997      -3.93174764E-11
   11.1300001       5.74382729E-12
   11.1899996       4.68069784E-11
   11.2500000       8.08078326E-11
   11.3100004       1.05232968E-10
   11.3699999       1.18191651E-10
   11.4300003       1.18349552E-10
   11.4899998       1.04758383E-10
   11.5500002       7.66408811E-11
   11.6099997       3.31972436E-11
   11.6700001      -2.65134824E-11
   11.7299995      -1.03590601E-10
   11.7900000      -1.99211161E-10
   11.8500004      -3.14480164E-10
   11.9099998      -4.50250809E-10
   11.9700003      -6.06951989E-10
   12.0299997      -7.84444676E-10
   12.0900002      -9.81913661E-10
   12.1499996      -1.19778798E-09
   12.2100000      -1.42968004E-09
   12.2700005      -1.67434067E-09
   12.3299999      -1.92764338E-09
   12.3900003      -2.18461738E-09
   12.4499998      -2.43955278E-09
   12.5100002      -2.68619305E-09
   12.5699997      -2.91800339E-09
   12.6300001      -3.12848680E-09
   12.6899996      -3.31149841E-09
   12.7500000      -3.46151818E-09
   12.8100004      -3.57384922E-09
   12.8699999      -3.64474895E-09
   12.9300003      -3.67151842E-09
   12.9899998      -3.65259178E-09
   13.0500002      -3.58765861E-09
   13.1099997      -3.47781848E-09
   13.1700001      -3.32573991E-09
   13.2299995      -3.13575321E-09
   13.2900000      -2.91381297E-09
   13.3500004      -2.66728062E-09
   13.4099998      -2.40451259E-09
   13.4700003      -2.13430096E-09
   13.5299997      -1.86524662E-09
   13.5900002      -1.60516433E-09
   13.6499996      -1.36061451E-09
   13.7100000      -1.13661558E-09
   13.7700005      -9.36551170E-10
   13.8299999      -7.62238161E-10
   13.8900003      -6.14095441E-10
   13.9499998      -4.91346575E-10
   14.0100002      -3.92205712E-10
   14.0699997      -3.14028914E-10
   14.1300001      -2.53444071E-10
   14.1899996      -2.06498929E-10
   14.2500000      -1.68866962E-10
   14.3100004      -1.36128331E-10
   14.3699999      -1.04103448E-10
   14.4300003      -6.91733545E-11
   14.4899998      -2.84946008E-11
   14.5500002       1.99753304E-11
   14.6099997       7.76776143E-11
   14.6700001       1.45835441E-10
   14.7299995       2.25899147E-10
   14.7900000       3.19882926E-10
   14.8500004       4.30430802E-10
   14.9099998       5.60525737E-10
   14.9700003       7.12875092E-10
   15.0299997       8.89129381E-10
   15.0900002       1.08916864E-09
   15.1499996       1.31068756E-09
   15.2100000       1.54921975E-09
   15.2700005       1.79859849E-09
   15.3299999       2.05170547E-09
   15.3900003       2.30127006E-09
   15.4499998       2.54049359E-09
   15.5100002       2.76335355E-09
   15.5699997       2.96460234E-09
   15.6300001       3.13960213E-09
   15.6899996       3.28420291E-09
   15.7500000       3.39485084E-09
   15.8100004       3.46899620E-09
   15.8699999       3.50570906E-09
   15.9300003       3.50628482E-09
   15.9899998       3.47455509E-09
   16.0499992       3.41668627E-09
   16.1100006       3.34039485E-09
   16.1700001       3.25371707E-09
   16.2299995       3.16364757E-09
   16.2900009       3.07503467E-09
   16.3500004       2.99006331E-09
   16.4099998       2.90846458E-09
   16.4699993       2.82834445E-09
   16.5300007       2.74731304E-09
   16.5900002       2.66350542E-09
   16.6499996       2.57615262E-09
   16.7099991       2.48557530E-09
   16.7700005       2.39272069E-09
   16.8299999       2.29856512E-09
   16.8899994       2.20374385E-09
   16.9500008       2.10865525E-09
   17.0100002       2.01405448E-09
   17.0699997       1.92189598E-09
   17.1299992       1.83604409E-09
   17.1900005       1.76248061E-09
   17.2500000       1.70881709E-09
   17.3099995       1.68317782E-09
   17.3700008       1.69276171E-09
   17.4300003       1.74251646E-09
   17.4899998       1.83431192E-09
   17.5499992       1.96681782E-09
   17.6100006       2.13604023E-09
   17.6700001       2.33626229E-09
   17.7299995       2.56104182E-09
   17.7900009       2.80396595E-09
   17.8500004       3.05902725E-09
   17.9099998       3.32068040E-09
   17.9699993       3.58376750E-09
   18.0300007       3.84352772E-09
   18.0900002       4.09581746E-09
   18.1499996       4.33751701E-09
   18.2099991       4.56696414E-09
   18.2700005       4.78420770E-09
   18.3299999       4.99092634E-09
   18.3899994       5.18997156E-09
   18.4500008       5.38464429E-09
   18.5100002       5.57787994E-09
   18.5699997       5.77154102E-09
   18.6299992       5.96594241E-09
   18.6900005       6.15964524E-09
   18.7500000       6.34949071E-09
   18.8099995       6.53080168E-09
   18.8700008       6.69768463E-09
   18.9300003       6.84339918E-09
   18.9899998       6.96079194E-09
   19.0499992       7.04280634E-09
   19.1100006       7.08308390E-09
   19.1700001       7.07665615E-09
   19.2299995       7.02069292E-09
   19.2900009       6.91521773E-09
   19.3500004       6.76365675E-09
   19.4099998       6.57305632E-09
   19.4699993       6.35383524E-09
   19.5300007       6.11902129E-09
   19.5900002       5.88306159E-09
   19.6499996       5.66043834E-09
   19.7099991       5.46439516E-09
   19.7700005       5.30603295E-09
   19.8299999       5.19393950E-09
   19.8899994       5.13428766E-09
   19.9500008       5.13120213E-09
   20.0100002       5.18710763E-09
   20.0699997       5.30282396E-09
   20.1299992       5.47733414E-09
   20.1900005       5.70733949E-09
   20.2500000       5.98686789E-09
   20.3099995       6.30722585E-09
   20.3700008       6.65749633E-09
   20.4300003       7.02557479E-09
   20.4899998       7.39952366E-09
   20.5499992       7.76886289E-09
   20.6100006       8.12539547E-09
   20.6700001       8.46330739E-09
   20.7299995       8.77852102E-09
   20.7900009       9.06754494E-09
   20.8500004       9.32625710E-09
   20.9099998       9.54903356E-09
   20.9699993       9.72856284E-09
   21.0300007       9.85638060E-09
   21.0900002       9.92399318E-09
   21.1499996       9.92424720E-09
   21.2099991       9.85261117E-09
   21.2700005       9.70805569E-09
   21.3299999       9.49338297E-09
   21.3899994       9.21492482E-09
   21.4500008       8.88171137E-09
   21.5100002       8.50430659E-09
   21.5699997       8.09359602E-09
   21.6299992       7.65983899E-09
   21.6900005       7.21222593E-09
   21.7500000       6.75895961E-09
   21.8099995       6.30770458E-09
   21.8700008       5.86604010E-09
   21.9300003       5.44155965E-09
   21.9899998       5.04146280E-09
   22.0499992       4.67173322E-09
   22.1100006       4.33624914E-09
   22.1700001       4.03619982E-09
   22.2299995       3.77004605E-09
   22.2900009       3.53397356E-09
   22.3500004       3.32258887E-09
   22.4099998       3.12955906E-09
   22.4699993       2.94803559E-09
   22.5300007       2.77091905E-09
   22.5900002       2.59113420E-09
   22.6499996       2.40204856E-09
   22.7099991       2.19800445E-09
   22.7700005       1.97477834E-09
   22.8299999       1.72976800E-09
   22.8899994       1.46185863E-09
   22.9500008       1.17112464E-09
   23.0100002       8.58641991E-10
   23.0699997       5.26606314E-10
   23.1299992       1.78724896E-10
   23.1900005      -1.79392182E-10
   23.2500000      -5.40203215E-10
   23.3099995      -8.94806562E-10
   23.3700008      -1.23408306E-09
   23.4300003      -1.55012791E-09
   23.4899998      -1.83758453E-09
   23.5499992      -2.09456741E-09
   23.6100006      -2.32302866E-09
   23.6700001      -2.52858112E-09
   23.7299995      -2.71987322E-09
   23.7900009      -2.90763236E-09
   23.8500004      -3.10352055E-09
   23.9099998      -3.31899996E-09
   23.9699993      -3.56443675E-09
   24.0300007      -3.84859744E-09
   24.0900002      -4.17848645E-09
   24.1499996      -4.55923121E-09
   24.2099991      -4.99360775E-09
   24.2700005      -5.48095302E-09
   24.3299999      -6.01563599E-09
   24.3899994      -6.58572663E-09
   24.4500008      -7.17273974E-09
   24.5100002      -7.75309594E-09
   24.5699997      -8.30131430E-09
   24.6299992      -8.79417872E-09
   24.6900005      -9.21464238E-09
   24.7500000      -9.55424717E-09
   24.8099995      -9.81343717E-09
   24.8700008      -9.99992533E-09
   24.9300003      -1.01259596E-08
   24.9899998      -1.02055360E-08
   25.0499992      -1.02524158E-08
   25.1100006      -1.02792388E-08
   25.1700001      -1.02975353E-08
   25.2299995      -1.03181366E-08
   25.2900009      -1.03513722E-08
   25.3500004      -1.04066773E-08
   25.4099998      -1.04914371E-08
   25.4699993      -1.06092326E-08
   25.5300007      -1.07579288E-08
   25.5900002      -1.09282805E-08
   25.6499996      -1.11037153E-08
   25.7099991      -1.12617524E-08
   25.7700005      -1.13769927E-08
   25.8299999      -1.14250343E-08
   25.8899994      -1.13862590E-08
   25.9500008      -1.12483995E-08
   26.0100002      -1.10072405E-08
   26.0699997      -1.06654898E-08
   26.1299992      -1.02305355E-08
   26.1900005      -9.71210046E-09
   26.2500000      -9.12070153E-09
   26.3099995      -8.46734860E-09
   26.3700008      -7.76438647E-09
   26.4300003      -7.02690794E-09
   26.4899998      -6.27405283E-09
   26.5499992      -5.52949686E-09
   26.6100006      -4.82070339E-09
   26.6700001      -4.17680335E-09
   26.7299995      -3.62538843E-09
   26.7900009      -3.18887405E-09
   26.8500004      -2.88136670E-09
   26.9099998      -2.70695266E-09
   26.9699993      -2.65994538E-09
   27.0300007      -2.72697731E-09
   27.0900002      -2.89016189E-09
   27.1499996      -3.13021586E-09
   27.2099991      -3.42858453E-09
   27.2700005      -3.76820974E-09
   27.3299999      -4.13326262E-09
   27.3899994      -4.50859217E-09
   27.4500008      -4.87959007E-09
   27.5100002      -5.23274934E-09
   27.5699997      -5.55667645E-09
   27.6299992      -5.84304516E-09
   27.6900005      -6.08706907E-09
   27.7500000      -6.28738261E-09
   27.8099995      -6.44551079E-09
   27.8700008      -6.56517107E-09
   27.9300003      -6.65151800E-09
   27.9899998      -6.71027012E-09
   28.0499992      -6.74665079E-09
   28.1100006      -6.76428780E-09
   28.1700001      -6.76444190E-09
   28.2299995      -6.74600154E-09
   28.2900009      -6.70640032E-09
   28.3500004      -6.64317135E-09
   28.4099998      -6.55546417E-09
   28.4699993      -6.44480469E-09
   28.5300007      -6.31476382E-09
   28.5900002      -6.16973717E-09
   28.6499996      -6.01349104E-09
   28.7099991      -5.84817617E-09
   28.7700005      -5.67420111E-09
   28.8299999      -5.49086776E-09
   28.8899994      -5.29734123E-09
   28.9500008      -5.09344700E-09
   29.0100002      -4.88001595E-09
   29.0699997      -4.65873073E-09
   29.1299992      -4.43163728E-09
   29.1900005      -4.20048174E-09
   29.2500000      -3.96603594E-09
   29.3099995      -3.72754538E-09
   29.3700008      -3.48250384E-09
   29.4300003      -3.22695271E-09
   29.4899998      -2.95639779E-09
   29.5499992      -2.66714184E-09
   29.6100006      -2.35758635E-09
   29.6700001      -2.02896899E-09
   29.7299995      -1.68521475E-09
   29.7900009      -1.33198619E-09
   29.8500004      -9.75402648E-10
   29.9099998      -6.21011131E-10
   29.9699993      -2.73369272E-10
   30.0300007       6.37786213E-11
   30.0900002       3.87068821E-10
   30.1499996       6.93197444E-10
   30.2099991       9.78860770E-10
   30.2700005       1.24083421E-09
   30.3299999       1.47596535E-09
   30.3899994       1.68100667E-09
   30.4500008       1.85247961E-09
   30.5100002       1.98691064E-09
   30.5699997       2.08163131E-09
   30.6299992       2.13596940E-09
   30.6900005       2.15229679E-09
   30.7500000       2.13632645E-09
   30.8099995       2.09633733E-09
   30.8700008       2.04153494E-09
   30.9300003       1.98017691E-09
   30.9899998       1.91817762E-09
   31.0499992       1.85859816E-09
   31.1100006       1.80194382E-09
   31.1700001       1.74681580E-09
   31.2299995       1.69040903E-09
   31.2900009       1.62860048E-09
   31.3500004       1.55573276E-09
   31.4099998       1.46444101E-09
   31.4699993       1.34586720E-09
   31.5300007       1.19042498E-09
   31.5900002       9.89030524E-10
   31.6499996       7.34562300E-10
   31.7099991       4.23249574E-10
   31.7700005       5.57009161E-11
   31.8299999      -3.62695818E-10
   31.8899994      -8.22210910E-10
   31.9500008      -1.31010247E-09
   32.0099983      -1.81262549E-09
   32.0699997      -2.31720021E-09
   32.1300011      -2.81404988E-09
   32.1899986      -3.29673022E-09
   32.2500000      -3.76138809E-09
   32.3100014      -4.20514157E-09
   32.3699989      -4.62437777E-09
   32.4300003      -5.01380981E-09
   32.4900017      -5.36674749E-09
   32.5499992      -5.67648906E-09
   32.6100006      -5.93819260E-09
   32.6699982      -6.15041795E-09
   32.7299995      -6.31571195E-09
   32.7900009      -6.44002185E-09
   32.8499985      -6.53117338E-09
   32.9099998      -6.59691901E-09
   32.9700012      -6.64313982E-09
   33.0299988      -6.67265354E-09
   33.0900002      -6.68491040E-09
   33.1500015      -6.67660061E-09
   33.2099991      -6.64297506E-09
   33.2700005      -6.57942589E-09
   33.3300018      -6.48278187E-09
   33.3899994      -6.35180264E-09
   33.4500008      -6.18664808E-09
   33.5099983      -5.98753092E-09
   33.5699997      -5.75316905E-09
   33.6300011      -5.47979528E-09
   33.6899986      -5.16132648E-09
   33.7500000      -4.79080198E-09
   33.8100014      -4.36268444E-09
   33.8699989      -3.87524457E-09
   33.9300003      -3.33221717E-09
   33.9900017      -2.74320566E-09
   34.0499992      -2.12273354E-09
   34.1100006      -1.48826196E-09
   34.1699982      -8.57713178E-10
   34.2299995      -2.47092014E-10
   34.2900009       3.31313393E-10
   34.3499985       8.69860739E-10
   34.4099998       1.36554446E-09
   34.4700012       1.81919646E-09
   34.5299988       2.23421992E-09
   34.5900002       2.61524824E-09
   34.6500015       2.96706304E-09
   34.7099991       3.29391381E-09
   34.7700005       3.59917252E-09
   34.8300018       3.88511667E-09
   34.8899994       4.15266843E-09
   34.9500008       4.40106085E-09
   35.0099983       4.62757654E-09
   35.0699997       4.82755969E-09
   35.1300011       4.99480235E-09
   35.1899986       5.12223686E-09
   35.2500000       5.20272092E-09
   35.3100014       5.22974686E-09
   35.3699989       5.19802956E-09
   35.4300003       5.10411358E-09
   35.4900017       4.94710051E-09
   35.5499992       4.72943062E-09
   35.6100006       4.45737713E-09
   35.6699982       4.14078372E-09
   35.7299995       3.79175935E-09
   35.7900009       3.42246809E-09
   35.8499985       3.04264658E-09
   35.9099998       2.65773892E-09
   35.9700012       2.26834906E-09
   36.0299988       1.87119831E-09
   36.0900002       1.46113277E-09
   36.1500015       1.03334441E-09
   36.2099991       5.84975457E-10
   36.2700005       1.15669772E-10
   36.3300018      -3.72851222E-10
   36.3899994      -8.77737549E-10
   36.4500008      -1.39594414E-09
   36.5099983      -1.92477012E-09
   36.5699997      -2.46188381E-09
   36.6300011      -3.00491365E-09
   36.6899986      -3.55078922E-09
   36.7500000      -4.09504208E-09
   36.8100014      -4.63131444E-09
   36.8699989      -5.15131005E-09
   36.9300003      -5.64538283E-09
   36.9900017      -6.10373840E-09
   37.0499992      -6.51794441E-09
   37.1100006      -6.88221169E-09
   37.1699982      -7.19389437E-09
   37.2299995      -7.45295203E-09
   37.2900009      -7.66058150E-09
   37.3499985      -7.81767540E-09
   37.4099998      -7.92381893E-09
   37.4700012      -7.97731481E-09
   37.5299988      -7.97616284E-09
   37.5900002      -7.91944998E-09
   37.6500015      -7.80844722E-09
   37.7099991      -7.64687691E-09
   37.7700005      -7.44028750E-09
   37.8300018      -7.19485183E-09
   37.8899994      -6.91615387E-09
   37.9500008      -6.60838273E-09
   38.0099983      -6.27417496E-09
   38.0699997      -5.91503602E-09
   38.1300011      -5.53213875E-09
   38.1899986      -5.12720577E-09
   38.2500000      -4.70319472E-09
   38.3100014      -4.26453317E-09
   38.3699989      -3.81676557E-09
   38.4300003      -3.36567663E-09
   38.4900017      -2.91625057E-09
   38.5499992      -2.47199550E-09
   38.6100006      -2.03511030E-09
   38.6699982      -1.60758296E-09
   38.7299995      -1.19276855E-09
   38.7900009      -7.96583077E-10
   38.8499985      -4.27474667E-10
   38.9099998      -9.48657750E-11
   38.9700012       1.93448105E-10
   39.0299988       4.33834607E-10
   39.0900002       6.28112395E-10
   39.1500015       7.82963527E-10
   39.2099991       9.07731279E-10
   39.2700005       1.01159880E-09
   39.3300018       1.10132414E-09
   39.3899994       1.18028221E-09
   39.4500008       1.24881061E-09
   39.5099983       1.30525268E-09
   39.5699997       1.34692557E-09
   39.6300011       1.37054512E-09
   39.6899986       1.37212519E-09
   39.7500000       1.34672196E-09
   39.8100014       1.28840727E-09
   39.8699989       1.19063381E-09
   39.9300003       1.04689390E-09
   39.9900017       8.51479665E-10
   40.0499992       6.00221151E-10
   40.1100006       2.91196289E-10
   40.1699982      -7.46041007E-11
   40.2299995      -4.92804408E-10
   40.2900009      -9.55646229E-10
   40.3499985      -1.45270274E-09
   40.4099998      -1.97227523E-09
   40.4700012      -2.50308929E-09
   40.5299988      -3.03569925E-09
   40.5900002      -3.56313712E-09
   40.6500015      -4.08071754E-09
   40.7099991      -4.58531613E-09
   40.7700005      -5.07461273E-09
   40.8300018      -5.54663604E-09
   40.8899994      -5.99957328E-09
   40.9500008      -6.43159037E-09
   41.0099983      -6.84044554E-09
   41.0699997      -7.22297822E-09
   41.1300011      -7.57484830E-09
   41.1899986      -7.89092258E-09
   41.2500000      -8.16630052E-09
   41.3100014      -8.39751557E-09
   41.3699989      -8.58313953E-09
   41.4300003      -8.72326034E-09
   41.4900017      -8.81793660E-09
   41.5499992      -8.86542129E-09
   41.6100006      -8.86124241E-09
   41.6699982      -8.79884610E-09
   41.7299995      -8.67173977E-09
   41.7900009      -8.47620818E-09
   41.8499985      -8.21336599E-09
   41.9099998      -7.88962851E-09
   41.9700012      -7.51545759E-09
   42.0299988      -7.10303949E-09
   42.0900002      -6.66389433E-09
   42.1500015      -6.20727203E-09
   42.2099991      -5.73964209E-09
   42.2700005      -5.26507415E-09
   42.3300018      -4.78604312E-09
   42.3899994      -4.30424008E-09
   42.4500008      -3.82118248E-09
   42.5099983      -3.33856742E-09
   42.5699997      -2.85836510E-09
   42.6300011      -2.38261322E-09
   42.6899986      -1.91289473E-09
   42.7500000      -1.44962542E-09
   42.8100014      -9.91443705E-10
   42.8699989      -5.35063660E-10
   42.9300003      -7.58309457E-11
   42.9900017       3.91082389E-10
   43.0499992       8.69211259E-10
   43.1100006       1.35958556E-09
   43.1699982       1.86021676E-09
   43.2299995       2.36646014E-09
   43.2900009       2.87211877E-09
   43.3499985       3.37091954E-09
   43.4099998       3.85789889E-09
   43.4700012       4.33028102E-09
   43.5299988       4.78755702E-09
   43.5900002       5.23069232E-09
   43.6500015       5.66064928E-09
   43.7099991       6.07665918E-09
   43.7700005       6.47487131E-09
   43.8300018       6.84794221E-09
   43.8899994       7.18583681E-09
   43.9500008       7.47765672E-09
   44.0099983       7.71388464E-09
   44.0699997       7.88828025E-09
   44.1300011       7.99881317E-09
   44.1899986       8.04747202E-09
   44.2500000       8.03923861E-09
   44.3100014       7.98075650E-09
   44.3699989       7.87920307E-09
   44.4300003       7.74163311E-09
   44.4900017       7.57474528E-09
   44.5499992       7.38492067E-09
   44.6100006       7.17832105E-09
   44.6699982       6.96094027E-09
   44.7299995       6.73851286E-09
   44.7900009       6.51621512E-09
   44.8499985       6.29807095E-09
   44.9099998       6.08610362E-09
   44.9700012       5.87946536E-09
   45.0299988       5.67394176E-09
   45.0900002       5.46225776E-09
   45.1500015       5.23535970E-09
   45.2099991       4.98442887E-09
   45.2700005       4.70299621E-09
   45.3300018       4.38839276E-09
   45.3899994       4.04198852E-09
   45.4500008       3.66815045E-09
   45.5099983       3.27233729E-09
   45.5699997       2.85907831E-09
   45.6300011       2.43055864E-09
   45.6899986       1.98626982E-09
   45.7500000       1.52380342E-09
   45.8100014       1.04048103E-09
   45.8699989       5.35267219E-10
   45.9300003       1.02895973E-11
   45.9900017      -5.28644739E-10
   46.0499992      -1.07288367E-09
   46.1100006      -1.61301716E-09
   46.1699982      -2.14159335E-09
   46.2299995      -2.65545519E-09
   46.2900009      -3.15667359E-09
   46.3499985      -3.65150021E-09
   46.4099998      -4.14757029E-09
   46.4700012      -4.65036987E-09
   46.5299988      -5.16038678E-09
   46.5900002      -5.67213698E-09
   46.6500015      -6.17547702E-09
   46.7099991      -6.65864652E-09
   46.7700005      -7.11179515E-09
   46.8300018      -7.52961071E-09
   46.8899994      -7.91210653E-09
   46.9500008      -8.26342461E-09
   47.0099983      -8.58925553E-09
   47.0699997      -8.89388030E-09
   47.1300011      -9.17787801E-09
   47.1899986      -9.43722966E-09
   47.2500000      -9.66405800E-09
   47.3100014      -9.84876269E-09
   47.3699989      -9.98289895E-09
   47.4300003      -1.00618909E-08
   47.4900017      -1.00866782E-08
   47.5499992      -1.00636566E-08
   47.6100006      -1.00028359E-08
   47.6699982      -9.91478455E-09
   47.7299995      -9.80743220E-09
   47.7900009      -9.68391234E-09
   47.8499985      -9.54223811E-09
   47.9099998      -9.37692413E-09
   47.9700012      -9.18184373E-09
   48.0299988      -8.95320529E-09
   48.0900002      -8.69152039E-09
   48.1500015      -8.40190495E-09
   48.2099991      -8.09279133E-09
   48.2700005      -7.77370968E-09
   48.3300018      -7.45306661E-09
   48.3899994      -7.13675075E-09
   48.4500008      -6.82794532E-09
   48.5099983      -6.52802434E-09
   48.5699997      -6.23801855E-09
   48.6300011      -5.95997385E-09
   48.6899986      -5.69767655E-09
   48.7500000      -5.45652679E-09
   48.8100014      -5.24269694E-09
   48.8699989      -5.06197972E-09
   48.9300003      -4.91874186E-09
   48.9900017      -4.81527795E-09
   49.0499992      -4.75159467E-09
   49.1100006      -4.72550532E-09
   49.1699982      -4.73287631E-09
   49.2299995      -4.76799444E-09
   49.2900009      -4.82414020E-09
   49.3499985      -4.89445107E-09
   49.4099998      -4.97300245E-09
   49.4700012      -5.05577713E-09
   49.5299988      -5.14107201E-09
   49.5900002      -5.22901900E-09
   49.6500015      -5.32027755E-09
   49.7099991      -5.41441558E-09
   49.7700005      -5.50872370E-09
   49.8300018      -5.59807090E-09
   49.8899994      -5.67589531E-09
   49.9500008      -5.73585002E-09
   50.0099983      -5.77326231E-09
   50.0699997      -5.78567905E-09
   50.1300011      -5.77227643E-09
   50.1899986      -5.73251535E-09
   50.2500000      -5.66483127E-09
   50.3100014      -5.56609603E-09
   50.3699989      -5.43217382E-09
   50.4300003      -5.25934984E-09
   50.4900017      -5.04601205E-09
   50.5499992      -4.79391549E-09
   50.6100006      -4.50858684E-09