 -0.750000000       0.00000000    
 -0.689999998       0.00000000    
 -0.629999995       0.00000000    
 -0.569999993       0.00000000    
 -0.509999990       0.00000000    
 -0.449999988       0.00000000    
 -0.389999986       0.00000000    
 -0.330000013       0.00000000    
 -0.270000011       0.00000000    
 -0.209999993       0.00000000    
 -0.150000006       0.00000000    
  -9.00000036E-02   0.00000000    
  -2.99999993E-02  -6.36509815E-35
   2.99999993E-02  -1.23504756E-33
   9.00000036E-02  -1.12094752E-32
  0.150000006      -6.18489056E-32
  0.209999993      -2.18684573E-31
  0.270000011      -4.20153937E-31
  0.330000013       3.14371082E-31
  0.389999986       5.76651186E-30
  0.449999988       2.40301048E-29
  0.509999990       6.11559795E-29
  0.569999993       9.10605557E-29
  0.629999995      -1.01383999E-29
  0.689999998      -5.29014774E-28
  0.750000000      -1.82541277E-27
  0.810000002      -3.80227181E-27
  0.870000005      -4.71945974E-27
  0.930000007       2.23780998E-28
  0.990000010       1.87137929E-26
   1.04999995       5.62118800E-26
   1.11000001       1.02975930E-25
   1.16999996       1.15596485E-25
   1.23000002       6.99076285E-27
   1.28999996      -3.27957508E-25
   1.35000002      -9.22427481E-25
   1.40999997      -1.58352388E-24
   1.47000003      -1.74281817E-24
   1.52999997      -4.68068104E-25
   1.59000003       3.16501349E-24
   1.64999998       9.23582413E-24
   1.71000004       1.58604792E-23
   1.76999998       1.84044862E-23
   1.83000004       9.98879423E-24
   1.88999999      -1.58125228E-23
   1.95000005      -5.99404347E-23
   2.00999999      -1.11783357E-22
   2.06999993      -1.45064856E-22
   2.13000011      -1.19838586E-22
   2.19000006       5.50230126E-24
   2.25000000       2.50645015E-22
   2.30999994       5.81543715E-22
   2.36999989       8.81205644E-22
   2.43000007       9.42942277E-22
   2.49000001       5.12615397E-22
   2.54999995      -5.97733969E-22
   2.60999990      -2.32887067E-21
   2.67000008      -4.18475882E-21
   2.73000002      -5.16268502E-21
   2.78999996      -3.97035264E-21
   2.84999990       3.63100432E-22
   2.91000009       7.58423405E-21
   2.97000003       1.54427867E-20
   3.02999997       1.97283465E-20
   3.08999991       1.57134331E-20
   3.15000010       9.67498899E-22
   3.21000004      -2.15833927E-20
   3.26999998      -4.24634525E-20
   3.32999992      -4.84254472E-20
   3.39000010      -2.96064646E-20
   3.45000005       1.16867098E-20
   3.50999999       5.63163431E-20
   3.56999993       7.38484297E-20
   3.63000011       4.00217445E-20
   3.69000006      -4.05057001E-20
   3.75000000      -1.21011806E-19
   3.80999994      -1.25438592E-19
   3.86999989       7.33265725E-21
   3.93000007       2.63302911E-19
   3.99000001       5.14595935E-19
   4.05000019       5.45043368E-19
   4.11000013       1.59338910E-19
   4.17000008      -6.56302469E-19
   4.23000002      -1.60983192E-18
   4.28999996      -2.12521125E-18
   4.34999990      -1.57530530E-18
   4.40999985       3.22606488E-19
   4.46999979       3.13288184E-18
   4.53000021       5.60854015E-18
   4.59000015       6.07466429E-18
   4.65000010       3.26171543E-18
   4.71000004      -2.73819716E-18
   4.76999998      -9.93424311E-18
   4.82999992      -1.48183021E-17
   4.88999987      -1.37917792E-17
   4.94999981      -5.17618939E-18
   5.01000023       9.16791322E-18
   5.07000017       2.36859562E-17
   5.13000011       3.09965288E-17
   5.19000006       2.53358308E-17
   5.25000000       6.09847799E-18
   5.30999994      -2.04719310E-17
   5.36999989      -4.28613792E-17
   5.42999983      -4.90885338E-17
   5.48999977      -3.29037327E-17
   5.55000019       1.61894631E-18
   5.61000013       3.98926942E-17
   5.67000008       6.20983147E-17
   5.73000002       5.24017661E-17
   5.78999996       8.30731616E-18
   5.84999990      -5.44399689E-17
   5.90999985      -1.04758262E-16
   5.96999979      -1.07411249E-16
   6.03000021      -3.94544870E-17
   6.09000015       9.39027078E-17
   6.15000010       2.51058422E-16
   6.21000004       3.59427473E-16
   6.26999998       3.37118028E-16
   6.32999992       1.27884187E-16
   6.38999987      -2.60556387E-16
   6.44999981      -7.30866402E-16
   6.51000023      -1.10101387E-15
   6.57000017      -1.15174701E-15
   6.63000011      -7.13294280E-16
   6.69000006       2.33460041E-16
   6.75000000       1.48481625E-15
   6.80999994       2.61878680E-15
   6.86999989       3.10458412E-15
   6.92999983       2.50317824E-15
   6.98999977       6.94359705E-16
   7.05000019      -1.96902634E-15
   7.11000013      -4.67405232E-15
   7.17000008      -6.36826475E-15
   7.23000002      -6.13982589E-15
   7.28999996      -3.62327449E-15
   7.34999990       7.42600720E-16
   7.40999985       5.74260725E-15
   7.46999979       9.73038754E-15
   7.53000021       1.11873037E-14
   7.59000015       9.28819653E-15
   7.65000010       4.24875072E-15
   7.71000004      -2.68979717E-15
   7.76999998      -9.63564945E-15
   7.82999992      -1.46321503E-14
   7.88999987      -1.62290750E-14
   7.94999981      -1.38425106E-14
   8.01000023      -7.82011479E-15
   8.06999969       7.34126367E-16
   8.13000011       1.02342578E-14
   8.18999958       1.88513874E-14
   8.25000000       2.46747897E-14
   8.31000042       2.58687301E-14
   8.36999989       2.09600912E-14
   8.43000031       9.34287675E-15
   8.48999977      -8.06965748E-15
   8.55000019      -2.83076937E-14
   8.60999966      -4.63072980E-14
   8.67000008      -5.57105597E-14
   8.72999954      -5.05873352E-14
   8.78999996      -2.77580286E-14
   8.85000038       1.10127726E-14
   8.90999985       5.79051645E-14
   8.97000027       9.98439477E-14
   9.02999973       1.21514696E-13
   9.09000015       1.10089482E-13
   9.14999962       6.03284241E-14
   9.21000004      -2.17695616E-14
   9.27000046      -1.18456270E-13
   9.32999992      -2.03696584E-13
   9.39000034      -2.50066515E-13
   9.44999981      -2.37146023E-13
   9.51000023      -1.58618466E-13
   9.56999969      -2.54468941E-14
   9.63000011       1.36258233E-13
   9.68999958       2.92137706E-13
   9.75000000       4.08850986E-13
   9.81000042       4.62351999E-13
   9.86999989       4.42236227E-13
   9.93000031       3.50938273E-13
   9.98999977       1.98860812E-13
   10.0500002      -1.61874772E-15
   10.1099997      -2.39794756E-13
   10.1700001      -5.05600119E-13
   10.2299995      -7.83933736E-13
   10.2900000      -1.04697392E-12
   10.3500004      -1.24872443E-12
   10.4099998      -1.32591832E-12
   10.4700003      -1.20746978E-12
   10.5299997      -8.31624537E-13
   10.5900002      -1.66958339E-13
   10.6499996       7.68474639E-13
   10.7100000       1.89559154E-12
   10.7700005       3.07435002E-12
   10.8299999       4.11660463E-12
   10.8900003       4.80986388E-12
   10.9499998       4.94775965E-12
   11.0100002       4.36205108E-12
   11.0699997       2.95146655E-12
   11.1300001       7.04206170E-13
   11.1899996      -2.28717306E-12
   11.2500000      -5.81835882E-12
   11.3100004      -9.57288328E-12
   11.3699999      -1.31290959E-11
   11.4300003      -1.59764701E-11
   11.4899998      -1.75446949E-11
   11.5500002      -1.72492871E-11
   11.6099997      -1.45560421E-11
   11.6700001      -9.06344270E-12
   11.7299995      -5.97759635E-13
   11.7900000       1.06887667E-11
   11.8500004       2.42299670E-11
   11.9099998       3.89834554E-11
   11.9700003       5.34100993E-11
   12.0299997       6.55100488E-11
   12.0900002       7.29266439E-11
   12.1499996       7.31226121E-11
   12.2100000       6.36229402E-11
   12.2700005       4.23052114E-11
   12.3299999       7.70379854E-12
   12.3900003      -4.07172664E-11
   12.4499998      -1.02372874E-10
   12.5100002      -1.75491593E-10
   12.5699997      -2.57205424E-10
   12.6300001      -3.43798490E-10
   12.6899996      -4.31092412E-10
   12.7500000      -5.14920828E-10
   12.8100004      -5.91634186E-10
   12.8699999      -6.58570920E-10
   12.9300003      -7.14443726E-10
   12.9899998      -7.59604823E-10
   13.0500002      -7.96172350E-10
   13.1099997      -8.28012714E-10
   13.1700001      -8.60580218E-10
   13.2299995      -9.00613084E-10
   13.2900000      -9.55683088E-10
   13.3500004      -1.03360043E-09
   13.4099998      -1.14168874E-09
   13.4700003      -1.28597477E-09
   13.5299997      -1.47036949E-09
   13.5900002      -1.69594860E-09
   13.6499996      -1.96045669E-09
   13.7100000      -2.25813857E-09
   13.7700005      -2.57996779E-09
   13.8299999      -2.91426372E-09
   13.8900003      -3.24763327E-09
   13.9499998      -3.56609209E-09
   14.0100002      -3.85620913E-09
   14.0699997      -4.10609635E-09
   14.1300001      -4.30613234E-09
   14.1899996      -4.44933601E-09
   14.2500000      -4.53140991E-09
   14.3100004      -4.55050664E-09
   14.3699999      -4.50684112E-09
   14.4300003      -4.40227410E-09
   14.4899998      -4.23997859E-09
   14.5500002      -4.02426537E-09
   14.6099997      -3.76057541E-09
   14.6700001      -3.45558271E-09
   14.7299995      -3.11730641E-09
   14.7900000      -2.75510881E-09
   14.8500004      -2.37947706E-09
   14.9099998      -2.00155159E-09
   14.9700003      -1.63243963E-09
   15.0299997      -1.28243460E-09
   15.0900002      -9.60306945E-10
   15.1499996      -6.72833289E-10
   15.2100000      -4.24664554E-10
   15.2700005      -2.18538174E-10
   15.3299999      -5.57235022E-11
   15.3900003       6.34948830E-11
   15.4499998       1.39514220E-10
   15.5100002       1.73451739E-10
   15.5699997       1.67557204E-10
   15.6300001       1.25872340E-10
   15.6899996       5.48721034E-11
   15.7500000      -3.62366630E-11
   15.8100004      -1.35827627E-10
   15.8699999      -2.30880315E-10
   15.9300003      -3.08586712E-10
   15.9899998      -3.58184676E-10
   16.0499992      -3.72534475E-10
   16.1100006      -3.48976681E-10
   16.1700001      -2.89192392E-10
   16.2299995      -1.98080607E-10
   16.2900009      -8.19777232E-11
   16.3500004       5.32359781E-11
   16.4099998       2.03549524E-10
   16.4699993       3.67313291E-10
   16.5300007       5.44673362E-10
   16.5900002       7.36173789E-10
   16.6499996       9.41043132E-10
   16.7099991       1.15580268E-09
   16.7700005       1.37373657E-09
   16.8299999       1.58547997E-09
   16.8899994       1.78059767E-09
   16.9500008       1.94968530E-09
   17.0100002       2.08632756E-09
   17.0699997       2.18828444E-09
   17.1299992       2.25751084E-09
   17.1900005       2.29900143E-09
   17.2500000       2.31883313E-09
   17.3099995       2.32204989E-09
   17.3700008       2.31108710E-09
   17.4300003       2.28526642E-09
   17.4899998       2.24152941E-09
   17.5499992       2.17617124E-09
   17.6100006       2.08698792E-09
   17.6700001       1.97509453E-09
   17.7299995       1.84575544E-09
   17.7900009       1.70788550E-09
   17.8500004       1.57231173E-09
   17.9099998       1.44930601E-09
   17.9699993       1.34616474E-09
   18.0300007       1.26561439E-09
   18.0900002       1.20557264E-09
   18.1499996       1.16035181E-09
   18.2099991       1.12291476E-09
   18.2700005       1.08744647E-09
   18.3299999       1.05139319E-09
   18.3899994       1.01631059E-09
   18.4500008       9.87255833E-10
   18.5100002       9.70947989E-10
   18.5699997       9.73319758E-10
   18.6299992       9.97267269E-10
   18.6900005       1.04132225E-09
   18.7500000       1.09965648E-09
   18.8099995       1.16339804E-09
   18.8700008       1.22283261E-09
   18.9300003       1.26980904E-09
   18.9899998       1.29963629E-09
   19.0499992       1.31193001E-09
   19.1100006       1.31019973E-09
   19.1700001       1.30033317E-09
   19.2299995       1.28844735E-09
   19.2900009       1.27873745E-09
   19.3500004       1.27194100E-09
   19.4099998       1.26484578E-09
   19.4699993       1.25096788E-09
   19.5300007       1.22218269E-09
   19.5900002       1.17081433E-09
   19.6499996       1.09154519E-09
   19.7099991       9.82553594E-10
   19.7700005       8.45513048E-10
   19.8299999       6.84443668E-10
   19.8899994       5.03781683E-10
   19.9500008       3.06316084E-10
   20.0100002       9.17339399E-11
   20.0699997      -1.43640572E-10
   20.1299992      -4.05682932E-10
   20.1900005      -7.00116465E-10
   20.2500000      -1.02962783E-09
   20.3099995      -1.39134404E-09
   20.3700008      -1.77553072E-09
   20.4300003      -2.16606799E-09
   20.4899998      -2.54275623E-09
   20.5499992      -2.88496604E-09
   20.6100006      -3.17570370E-09
   20.6700001      -3.40498407E-09
   20.7299995      -3.57151708E-09
   20.7900009      -3.68213215E-09
   20.8500004      -3.74898601E-09
   20.9099998      -3.78523968E-09
   20.9699993      -3.80040310E-09
   21.0300007      -3.79673981E-09
   21.0900002      -3.76790021E-09
   21.1499996      -3.70034892E-09
   21.2099991      -3.57733931E-09
   21.2700005      -3.38434458E-09
   21.3299999      -3.11435033E-09
   21.3899994      -2.77136247E-09
   21.4500008      -2.37099806E-09
   21.5100002      -1.93791538E-09
   21.5699997      -1.50087009E-09
   21.6299992      -1.08694953E-09
   21.6900005      -7.16809778E-10
   21.7500000      -4.02373745E-10
   21.8099995      -1.47579698E-10
   21.8700008       4.83285183E-11
   21.9300003       1.86406487E-10
   21.9899998       2.64373579E-10
   22.0499992       2.75353268E-10
   22.1100006       2.09742959E-10
   22.1700001       5.97806041E-11
   22.2299995      -1.74720766E-10
   22.2900009      -4.81592488E-10
   22.3500004      -8.34462721E-10
   22.4099998      -1.19495547E-09
   22.4699993      -1.51875279E-09
   22.5300007      -1.76404469E-09
   22.5900002      -1.90007099E-09
   22.6499996      -1.91336746E-09
   22.7099991      -1.81000581E-09
   22.7700005      -1.61331459E-09
   22.8299999      -1.35787681E-09
   22.8899994      -1.08162868E-09
   22.9500008      -8.18315193E-10
   23.0100002      -5.92313476E-10
   23.0699997      -4.17012147E-10
   23.1299992      -2.96788455E-10
   23.1900005      -2.31501512E-10
   23.2500000      -2.21652724E-10
   23.3099995      -2.72193018E-10
   23.3700008      -3.93469285E-10
   23.4300003      -5.98859295E-10
   23.4899998      -8.99910757E-10
   23.5499992      -1.30083044E-09
   23.6100006      -1.79456106E-09
   23.6700001      -2.36224706E-09
   23.7299995      -2.97673974E-09
   23.7900009      -3.60933150E-09
   23.8500004      -4.23768443E-09
   23.9099998      -4.85237983E-09
   23.9699993      -5.45986811E-09
   24.0300007      -6.08072215E-09
   24.0900002      -6.74357459E-09
   24.1499996      -7.47648166E-09
   24.2099991      -8.29824121E-09
   24.2700005      -9.21219190E-09
   24.3299999      -1.02042748E-08
   24.3899994      -1.12458105E-08
   24.4500008      -1.23000534E-08
   24.5100002      -1.33303981E-08
   24.5699997      -1.43076608E-08
   24.6299992      -1.52142103E-08
   24.6900005      -1.60438258E-08
   24.7500000      -1.67976175E-08
   24.8099995      -1.74777686E-08
   24.8700008      -1.80814741E-08
   24.9300003      -1.85973636E-08
   24.9899998      -1.90056735E-08
   25.0499992      -1.92820409E-08
   25.1100006      -1.94036254E-08
   25.1700001      -1.93554772E-08
   25.2299995      -1.91352161E-08
   25.2900009      -1.87546050E-08
   25.3500004      -1.82376763E-08
   25.4099998      -1.76159212E-08
   25.4699993      -1.69219003E-08
   25.5300007      -1.61829341E-08
   25.5900002      -1.54166333E-08
   25.6499996      -1.46294568E-08
   25.7099991      -1.38187159E-08
   25.7700005      -1.29772761E-08
   25.8299999      -1.20992976E-08
   25.8899994      -1.11848708E-08
   25.9500008      -1.02417301E-08
   26.0100002      -9.28334831E-09
   26.0699997      -8.32410407E-09
   26.1299992      -7.37346229E-09
   26.1900005      -6.43151798E-09
   26.2500000      -5.48775247E-09
   26.3099995      -4.52361837E-09
   26.3700008      -3.51814844E-09
   26.4300003      -2.45472953E-09
   26.4899998      -1.32687672E-09
   26.5499992      -1.41263931E-10
   26.6100006       1.08279596E-09
   26.6700001       2.31713027E-09
   26.7299995       3.53053431E-09
   26.7900009       4.69487960E-09
   26.8500004       5.78969139E-09
   26.9099998       6.80387080E-09
   26.9699993       7.73414932E-09
   27.0300007       8.58099636E-09
   27.0900002       9.34362454E-09
   27.1499996       1.00161035E-08
   27.2099991       1.05861719E-08
   27.2700005       1.10372893E-08
   27.3299999       1.13531735E-08
   27.3899994       1.15231513E-08
   27.4500008       1.15464385E-08
   27.5100002       1.14340200E-08
   27.5699997       1.12077840E-08
   27.6299992       1.08974758E-08
   27.6900005       1.05365707E-08
   27.7500000       1.01581961E-08
   27.8099995       9.79188375E-09
   27.8700008       9.46159417E-09
   27.9300003       9.18507759E-09
   27.9899998       8.97437147E-09
   28.0499992       8.83697204E-09
   28.1100006       8.77708306E-09
   28.1700001       8.79629170E-09
   28.2299995       8.89338914E-09
   28.2900009       9.06358721E-09
   28.3500004       9.29792954E-09
   28.4099998       9.58381374E-09
   28.4699993       9.90708138E-09
   28.5300007       1.02552349E-08
   28.5900002       1.06204689E-08
   28.6499996       1.10009992E-08
   28.7099991       1.13997576E-08
   28.7700005       1.18207391E-08
   28.8299999       1.22644783E-08
   28.8899994       1.27245832E-08
   28.9500008       1.31868267E-08
   29.0100002       1.36310554E-08
   29.0699997       1.40349750E-08
   29.1299992       1.43781484E-08
   29.1900005       1.46446926E-08
   29.2500000       1.48238879E-08
   29.3099995       1.49088351E-08
   29.3700008       1.48939492E-08
   29.4300003       1.47723354E-08
   29.4899998       1.45339607E-08
   29.5499992       1.41653249E-08
   29.6100006       1.36509062E-08
   29.6700001       1.29762130E-08
   29.7299995       1.21316619E-08
   29.7900009       1.11160059E-08
   29.8500004       9.93791716E-09
   29.9099998       8.61479243E-09
   29.9699993       7.16891613E-09
   30.0300007       5.62224889E-09
   30.0900002       3.99179267E-09
   30.1499996       2.28728858E-09
   30.2099991       5.11971687E-10
   30.2700005      -1.33422873E-09
   30.3299999      -3.25059624E-09
   30.3899994      -5.23234567E-09
   30.4500008      -7.26922789E-09
   30.5100002      -9.34616651E-09
   30.5699997      -1.14453229E-08
   30.6299992      -1.35487257E-08
   30.6900005      -1.56406923E-08
   30.7500000      -1.77094730E-08
   30.8099995      -1.97476986E-08
   30.8700008      -2.17512444E-08
   30.9300003      -2.37165292E-08
   30.9899998      -2.56367620E-08
   31.0499992      -2.74984142E-08
   31.1100006      -2.92794269E-08
   31.1700001      -3.09502433E-08
   31.2299995      -3.24777396E-08
   31.2900009      -3.38306485E-08
   31.3500004      -3.49846054E-08
   31.4099998      -3.59249483E-08
   31.4699993      -3.66467816E-08
   31.5300007      -3.71529971E-08
   31.5900002      -3.74517555E-08
   31.6499996      -3.75547167E-08
   31.7099991      -3.74764326E-08
   31.7700005      -3.72343401E-08
   31.8299999      -3.68484123E-08
   31.8899994      -3.63399835E-08
   31.9500008      -3.57299292E-08
   32.0099983      -3.50369334E-08
   32.0699997      -3.42764004E-08
   32.1300011      -3.34601218E-08
   32.1899986      -3.25960734E-08
   32.2500000      -3.16880353E-08
   32.3100014      -3.07349133E-08
   32.3699989      -2.97305665E-08
   32.4300003      -2.86649442E-08
   32.4900017      -2.75269016E-08
   32.5499992      -2.63079922E-08
   32.6100006      -2.50058605E-08
   32.6699982      -2.36257947E-08
   32.7299995      -2.21797958E-08
   32.7900009      -2.06838120E-08
   32.8499985      -1.91544878E-08
   32.9099998      -1.76068902E-08
   32.9700012      -1.60538338E-08
   33.0299988      -1.45065391E-08
   33.0900002      -1.29757041E-08
   33.1500015      -1.14721272E-08
   33.2099991      -1.00065449E-08
   33.2700005      -8.58886651E-09
   33.3300018      -7.22719573E-09
   33.3899994      -5.92696026E-09
   33.4500008      -4.69032813E-09
   33.5099983      -3.51609208E-09
   33.5699997      -2.40036702E-09
   33.6300011      -1.33846001E-09
   33.6899986      -3.27873839E-10
   33.7500000       6.28319674E-10
   33.8100014       1.51917134E-09
   33.8699989       2.32607711E-09
   33.9300003       3.02614556E-09
   33.9900017       3.59786045E-09
   34.0499992       4.02689260E-09
   34.1100006       4.30953717E-09
   34.1699982       4.45212711E-09
   34.2299995       4.46652715E-09
   34.2900009       4.36357350E-09
   34.3499985       4.14721324E-09
   34.4099998       3.81175980E-09
   34.4700012       3.34333095E-09
   34.5299988       2.72489498E-09
   34.5900002       1.94308658E-09
   34.6500015       9.94466176E-10
   34.7099991      -1.10836680E-10
   34.7700005      -1.34935974E-09
   34.8300018      -2.68863021E-09
   34.8899994      -4.09460643E-09
   34.9500008      -5.54020962E-09
   35.0099983      -7.01222413E-09
   35.0699997      -8.51393001E-09
   35.1300011      -1.00619015E-08
   35.1899986      -1.16773489E-08
   35.2500000      -1.33745131E-08
   35.3100014      -1.51500821E-08
   35.3699989      -1.69775838E-08
   35.4300003      -1.88091196E-08
   35.4900017      -2.05841033E-08
   35.5499992      -2.22421139E-08
   35.6100006      -2.37354136E-08
   35.6699982      -2.50368508E-08
   35.7299995      -2.61405830E-08
   35.7900009      -2.70556679E-08
   35.8499985      -2.77949521E-08
   35.9099998      -2.83632993E-08
   35.9700012      -2.87493620E-08
   36.0299988      -2.89239228E-08
   36.0900002      -2.88456992E-08
   36.1500015      -2.84729467E-08
   36.2099991      -2.77770962E-08
   36.2700005      -2.67536340E-08
   36.3300018      -2.54261554E-08
   36.3899994      -2.38415137E-08
   36.4500008      -2.20571952E-08
   36.5099983      -2.01247943E-08
   36.5699997      -1.80751520E-08
   36.6300011      -1.59103237E-08
   36.6899986      -1.36054163E-08
   36.7500000      -1.11199467E-08
   36.8100014      -8.41526671E-09
   36.8699989      -5.47250378E-09
   36.9300003      -2.30527020E-09
   36.9900017       1.03699815E-09
   37.0499992       4.47633886E-09
   37.1100006       7.92215982E-09
   37.1699982       1.12909619E-08
   37.2299995       1.45237724E-08
   37.2900009       1.75956867E-08
   37.3499985       2.05143387E-08
   37.4099998       2.33076776E-08
   37.4700012       2.60052087E-08
   37.5299988       2.86192900E-08
   37.5900002       3.11331831E-08
   37.6500015       3.35003953E-08
   37.7099991       3.56556242E-08
   37.7700005       3.75334785E-08
   37.8300018       3.90880466E-08
   37.8899994       4.03062046E-08
   37.9500008       4.12097911E-08
   38.0099983       4.18456629E-08
   38.0699997       4.22671746E-08
   38.1300011       4.25134630E-08
   38.1899986       4.25936868E-08
   38.2500000       4.24817088E-08
   38.3100014       4.21232222E-08
   38.3699989       4.14531698E-08
   38.4300003       4.04178238E-08
   38.4900017       3.89943224E-08
   38.5499992       3.72008948E-08
   38.6100006       3.50941995E-08
   38.6699982       3.27542935E-08
   38.7299995       3.02620542E-08
   38.7900009       2.76766734E-08
   38.8499985       2.50208529E-08
   38.9099998       2.22788969E-08
   38.9700012       1.94083043E-08
   39.0299988       1.63608167E-08
   39.0900002       1.31055620E-08
   39.1500015       9.64633262E-09
   39.2099991       6.02715078E-09
   39.2700005       2.32443842E-09
   39.3300018      -1.37131728E-09
   39.3899994      -4.97801089E-09
   39.4500008      -8.44088888E-09
   39.5099983      -1.17418022E-08
   39.5699997      -1.48959449E-08
   39.6300011      -1.79375430E-08
   39.6899986      -2.08997335E-08
   39.7500000      -2.37956996E-08
   39.8100014      -2.66076405E-08
   39.8699989      -2.92871949E-08
   39.9300003      -3.17669624E-08
   39.9900017      -3.39788393E-08
   40.0499992      -3.58726737E-08
   40.1100006      -3.74289435E-08
   40.1699982      -3.86615895E-08
   40.2299995      -3.96105797E-08
   40.2900009      -4.03274818E-08
   40.3499985      -4.08590566E-08
   40.4099998      -4.12343262E-08
   40.4700012      -4.14587795E-08
   40.5299988      -4.15169197E-08
   40.5900002      -4.13816714E-08
   40.6500015      -4.10272385E-08
   40.7099991      -4.04412113E-08
   40.7700005      -3.96320416E-08
   40.8300018      -3.86296257E-08
   40.8899994      -3.74788947E-08
   40.9500008      -3.62285775E-08
   41.0099983      -3.49191147E-08
   41.0699997      -3.35738726E-08
   41.1300011      -3.21967519E-08
   41.1899986      -3.07768495E-08
   41.2500000      -2.92981124E-08
   41.3100014      -2.77501098E-08
   41.3699989      -2.61357318E-08
   41.4300003      -2.44732448E-08
   41.4900017      -2.27924559E-08
   41.5499992      -2.11271605E-08
   41.6100006      -1.95071994E-08
   41.6699982      -1.79530666E-08
   41.7299995      -1.64744982E-08
   41.7900009      -1.50726134E-08
   41.8499985      -1.37439571E-08
   41.9099998      -1.24844153E-08
   41.9700012      -1.12917045E-08
   42.0299988      -1.01660040E-08
   42.0900002      -9.10920672E-09
   42.1500015      -8.12365641E-09
   42.2099991      -7.21115434E-09
   42.2700005      -6.37271613E-09
   42.3300018      -5.60915225E-09
   42.3899994      -4.92217422E-09
   42.4500008      -4.31548264E-09
   42.5099983      -3.79520948E-09
   42.5699997      -3.36921580E-09
   42.6300011      -3.04517234E-09
   42.6899986      -2.82792523E-09
   42.7500000      -2.71716627E-09
   42.8100014      -2.70658185E-09
   42.8699989      -2.78524470E-09
   42.9300003      -2.94112956E-09
   42.9900017      -3.16560178E-09
   43.0499992      -3.45705886E-09
   43.1100006      -3.82195120E-09
   43.1699982      -4.27226610E-09
   43.2299995      -4.81994311E-09
   43.2900009      -5.47004397E-09
   43.3499985      -6.21528162E-09
   43.4099998      -7.03429892E-09
   43.4700012      -7.89493093E-09
   43.5299988      -8.76188455E-09
   43.5900002      -9.60652446E-09
   43.6500015      -1.04153948E-08
   43.7099991      -1.11942349E-08
   43.7700005      -1.19656525E-08
   43.8300018      -1.27608226E-08
   43.8899994      -1.36078331E-08
   43.9500008      -1.45206940E-08
   44.0099983      -1.54929918E-08
   44.0699997      -1.64985856E-08
   44.1300011      -1.74992412E-08
   44.1899986      -1.84566034E-08
   44.2500000      -1.93443164E-08
   44.3100014      -2.01560244E-08
   44.3699989      -2.09064854E-08
   44.4300003      -2.16253007E-08
   44.4900017      -2.23453007E-08
   44.5499992      -2.30893562E-08
   44.6100006      -2.38599309E-08
   44.6699982      -2.46348719E-08
   44.7299995      -2.53711185E-08
   44.7900009      -2.60154458E-08
   44.8499985      -2.65191602E-08
   44.9099998      -2.68521969E-08
   44.9700012      -2.70120086E-08
   45.0299988      -2.70241607E-08
   45.0900002      -2.69341811E-08
   45.1500015      -2.67930567E-08
   45.2099991      -2.66410183E-08
   45.2700005      -2.64948348E-08
   45.3300018      -2.63426383E-08
   45.3899994      -2.61478288E-08
   45.4500008      -2.58605617E-08
   45.5099983      -2.54330477E-08
   45.5699997      -2.48337546E-08
   45.6300011      -2.40562397E-08
   45.6899986      -2.31200712E-08
   45.7500000      -2.20637855E-08
   45.8100014      -2.09321680E-08
   45.8699989      -1.97618348E-08
   45.9300003      -1.85695903E-08
   45.9900017      -1.73473147E-08
   46.0499992      -1.60650959E-08
   46.1100006      -1.46818291E-08
   46.1699982      -1.31600055E-08
   46.2299995      -1.14798944E-08
   46.2900009      -9.64843583E-09
   46.3499985      -7.69978303E-09
   46.4099998      -5.68719161E-09
   46.4700012      -3.66878905E-09
   46.5299988      -1.69168657E-09
   46.5900002       2.20627377E-10
   46.6500015       2.07384843E-09
   46.7099991       3.89983335E-09
   46.7700005       5.74604631E-09
   46.8300018       7.66067210E-09
   46.8899994       9.67777236E-09
   46.9500008       1.18067875E-08
   47.0099983       1.40294265E-08
   47.0699997       1.63048703E-08
   47.1300011       1.85817246E-08
   47.1899986       2.08130810E-08
   47.2500000       2.29699459E-08
   47.3100014       2.50487400E-08
   47.3699989       2.70703584E-08
   47.4300003       2.90710620E-08
   47.4900017       3.10881418E-08
   47.5499992       3.31450813E-08
   47.6100006       3.52411469E-08
   47.6699982       3.73488653E-08
   47.7299995       3.94203319E-08
   47.7900009       4.14004298E-08
   47.8499985       4.32427711E-08
   47.9099998       4.49232651E-08
   47.9700012       4.64469281E-08
   48.0299988       4.78455355E-08
   48.0900002       4.91666476E-08
   48.1500015       5.04574906E-08
   48.2099991       5.17488097E-08
   48.2700005       5.30441291E-08
   48.3300018       5.43179937E-08
   48.3899994       5.55237705E-08
   48.4500008       5.66082470E-08
   48.5099983       5.75279948E-08
   48.5699997       5.82618860E-08
   48.6300011       5.88158038E-08
   48.6899986       5.92184115E-08
   48.7500000       5.95099827E-08
   48.8100014       5.97284711E-08
   48.8699989       5.98976087E-08
   48.9300003       6.00205752E-08
   48.9900017       6.00808647E-08
   49.0499992       6.00492100E-08
   49.1100006       5.98940630E-08
   49.1699982       5.95919012E-08
   49.2299995       5.91341980E-08
   49.2900009       5.85291424E-08
   49.3499985       5.77978945E-08
   49.4099998       5.69669538E-08
   49.4700012       5.60593101E-08
   49.5299988       5.50874439E-08
   49.5900002       5.40503571E-08
   49.6500015       5.29355724E-08
   49.7099991       5.17252126E-08
   49.7700005       5.04040862E-08
   49.8300018       4.89669461E-08
   49.8899994       4.74226240E-08
   49.9500008       4.57936160E-08
   50.0099983       4.41111858E-08
   50.0699997       4.24076099E-08
   50.1300011       4.07078709E-08
   50.1899986       3.90236039E-08
   50.2500000       3.73512812E-08
   50.3100014       3.56753880E-08
   50.3699989       3.39757094E-08
   50.4300003       3.22363185E-08
   50.4900017       3.04532470E-08
   50.5499992       2.86382011E-08
   50.6100006       2.68170854E-08