  -2.400000      0.0000000E+00
  -2.340000      0.0000000E+00
  -2.280000      0.0000000E+00
  -2.220000      0.0000000E+00
  -2.160000      0.0000000E+00
  -2.100000      0.0000000E+00
  -2.040000      0.0000000E+00
  -1.980000      0.0000000E+00
  -1.920000      0.0000000E+00
  -1.860000      0.0000000E+00
  -1.800000     -3.3001919E-31
  -1.740000      3.2766523E-30
  -1.680000      8.0376760E-29
  -1.620000      6.2633721E-28
  -1.560000      2.8249221E-27
  -1.500000      8.1182277E-27
  -1.440000      1.2908519E-26
  -1.380000     -5.6911954E-27
  -1.320000     -1.0539453E-25
  -1.260000     -3.5533815E-25
  -1.200000     -7.0021838E-25
  -1.140000     -6.8046387E-25
  -1.080000      8.0406112E-25
  -1.020000      5.1227546E-24
 -0.9600000      1.2186816E-23
 -0.9000000      1.7318016E-23
 -0.8400000      8.7593971E-24
 -0.7800000     -2.9403762E-23
 -0.7200000     -1.0365275E-22
 -0.6600000     -1.8724867E-22
 -0.6000000     -2.0005908E-22
 -0.5400000     -2.0423847E-23
 -0.4800000      4.4214990E-22
 -0.4200000      1.1155802E-21
 -0.3600000      1.6402744E-21
 -0.3000000      1.3786173E-21
 -0.2400000     -3.1411962E-22
 -0.1800000     -3.5524851E-21
 -0.1200000     -7.3443161E-21
 -5.9999999E-02 -9.4203601E-21
  0.0000000E+00 -6.9144165E-21
  5.9999999E-02  2.0365629E-21
  0.1200000      1.6378976E-20
  0.1800000      3.1117000E-20
  0.2400000      3.8348471E-20
  0.3000000      3.0572411E-20
  0.3600000      4.9037222E-21
  0.4200000     -3.4332235E-20
  0.4800000     -7.6723018E-20
  0.5400000     -1.1033272E-19
  0.6000000     -1.2635298E-19
  0.6600000     -1.1927576E-19
  0.7200000     -8.0890806E-20
  0.7800000      7.0566681E-21
  0.8400000      1.7073016E-19
  0.9000000      4.2271194E-19
  0.9600000      7.2313137E-19
   1.020000      9.4470788E-19
   1.080000      8.7758600E-19
   1.140000      3.0405360E-19
   1.200000     -8.6084066E-19
   1.260000     -2.4188196E-18
   1.320000     -3.8244691E-18
   1.380000     -4.2973836E-18
   1.440000     -3.1282455E-18
   1.500000     -8.1771876E-20
   1.560000      4.2984767E-18
   1.620000      8.6881658E-18
   1.680000      1.1373589E-17
   1.740000      1.0924583E-17
   1.800000      6.8519200E-18
   1.860000     -9.3660614E-20
   1.920000     -8.1700761E-18
   1.980000     -1.5335042E-17
   2.040000     -2.0005229E-17
   2.100000     -2.1447951E-17
   2.160000     -1.9593892E-17
   2.220000     -1.4461642E-17
   2.280000     -5.7096617E-18
   2.340000      7.1752004E-18
   2.400000      2.3951178E-17
   2.460000      4.2456699E-17
   2.520000      5.8101504E-17
   2.580000      6.4748284E-17
   2.640000      5.6972640E-17
   2.700000      3.2737622E-17
   2.760000     -5.0119746E-18
   2.820000     -4.8964440E-17
   2.880000     -9.0174664E-17
   2.940000     -1.2141377E-16
   3.000000     -1.3898772E-16
   3.060000     -1.4164749E-16
   3.120000     -1.2719771E-16
   3.180000     -8.9483849E-17
   3.240000     -1.9100439E-17
   3.300000      9.0502129E-17
   3.360000      2.3335882E-16
   3.420000      3.8310633E-16
   3.480000      4.9321929E-16
   3.540000      5.0883831E-16
   3.600000      3.8770940E-16
   3.660000      1.2177777E-16
   3.720000     -2.5119935E-16
   3.780000     -6.5285885E-16
   3.840000     -9.8468417E-16
   3.900000     -1.1538943E-15
   3.960000     -1.0926298E-15
   4.020000     -7.6455544E-16
   4.080000     -1.6473724E-16
   4.140000      6.7262876E-16
   4.200000      1.6473555E-15
   4.260000      2.5541705E-15
   4.320000      3.0631291E-15
   4.380000      2.7653089E-15
   4.440000      1.3148578E-15
   4.500000     -1.3501478E-15
   4.560000     -4.7915464E-15
   4.620000     -7.9903405E-15
   4.680000     -9.5209248E-15
   4.740000     -8.0118932E-15
   4.800000     -2.7820058E-15
   4.860000      5.5956779E-15
   4.920000      1.5097703E-14
   4.980000      2.2627597E-14
   5.040000      2.4951002E-14
   5.100000      1.9905091E-14
   5.160000      7.4129562E-15
   5.220000     -1.0158630E-14
   5.280000     -2.8528181E-14
   5.340000     -4.2773405E-14
   5.400000     -4.8865988E-14
   5.460000     -4.4848413E-14
   5.520000     -3.1195298E-14
   5.580000     -1.0298353E-14
   5.640000      1.4550562E-14
   5.700000      4.0069056E-14
   5.760000      6.3293717E-14
   5.820000      8.1229071E-14
   5.880000      9.0294356E-14
   5.940000      8.6314480E-14
   6.000000      6.5624399E-14
   6.060000      2.7216134E-14
   6.120000     -2.4961929E-14
   6.180000     -8.0984014E-14
   6.240000     -1.2648847E-13
   6.300000     -1.4711164E-13
   6.360000     -1.3467916E-13
   6.420000     -9.2688098E-14
   6.480000     -3.8144204E-14
   6.540000      2.3293730E-15
   6.600000      2.1083381E-15
   6.660000     -5.2716867E-14
   6.720000     -1.5222536E-13
   6.780000     -2.5834112E-13
   6.840000     -3.1088481E-13
   6.900000     -2.4420480E-13
   6.960000     -1.0537413E-14
   7.020000      3.9693262E-13
   7.080000      9.2929993E-13
   7.140000      1.4815784E-12
   7.200000      1.9086815E-12
   7.260000      2.0545740E-12
   7.320000      1.7873278E-12
   7.380000      1.0312491E-12
   7.440000     -2.1118010E-13
   7.500000     -1.8508502E-12
   7.560000     -3.7157911E-12
   7.620000     -5.5628314E-12
   7.680000     -7.0927929E-12
   7.740000     -7.9679518E-12
   7.800000     -7.8351848E-12
   7.860000     -6.3617978E-12
   7.920000     -3.2908255E-12
   7.980000      1.4829172E-12
   8.040000      7.8245986E-12
   8.100000      1.5278589E-11
   8.160000      2.3022358E-11
   8.220000      2.9882059E-11
   8.280000      3.4426871E-11
   8.340000      3.5140765E-11
   8.400000      3.0648966E-11
   8.460000      1.9958438E-11
   8.520000      2.6640706E-12
   8.580000     -2.0922139E-11
   8.640000     -4.9744216E-11
   8.700000     -8.2079316E-11
   8.760000     -1.1569865E-10
   8.820000     -1.4807942E-10
   8.880000     -1.7663325E-10
   8.940000     -1.9892633E-10
   9.000000     -2.1287866E-10
   9.060000     -2.1694029E-10
   9.120000     -2.1024384E-10
   9.180000     -1.9272588E-10
   9.240000     -1.6519933E-10
   9.300000     -1.2935181E-10
   9.360000     -8.7648458E-11
   9.420000     -4.3133202E-11
   9.480000      8.5249142E-13
   9.540000      4.0987862E-11
   9.600000      7.4266530E-11
   9.660000      9.8203820E-11
   9.720000      1.1091498E-10
   9.780000      1.1105466E-10
   9.840000      9.7644885E-11
   9.900000      6.9848495E-11
   9.960000      2.6757461E-11
   10.02000     -3.2741664E-11
   10.08000     -1.0998752E-10
   10.14000     -2.0644501E-10
   10.20000     -3.2351496E-10
   10.26000     -4.6230000E-10
   10.32000     -6.2337774E-10
   10.38000     -8.0662005E-10
   10.44000     -1.0110753E-09
   10.50000     -1.2349085E-09
   10.56000     -1.4753809E-09
   10.62000     -1.7288521E-09
   10.68000     -1.9908000E-09
   10.74000     -2.2558693E-09
   10.80000     -2.5179783E-09
   10.86000     -2.7705032E-09
   10.92000     -3.0065499E-09
   10.98000     -3.2192946E-09
   11.04000     -3.4023460E-09
   11.10000     -3.5500740E-09
   11.16000     -3.6578571E-09
   11.22000     -3.7222283E-09
   11.28000     -3.7409347E-09
   11.34000     -3.7129591E-09
   11.40000     -3.6385550E-09
   11.46000     -3.5193222E-09
   11.52000     -3.3583250E-09
   11.58000     -3.1601961E-09
   11.64000     -2.9311447E-09
   11.70000     -2.6787927E-09
   11.76000     -2.4117952E-09
   11.82000     -2.1392594E-09
   11.88000     -1.8700432E-09
   11.94000     -1.6120595E-09
   12.00000     -1.3717193E-09
   12.06000     -1.1536088E-09
   12.12000     -9.6043751E-10
   12.18000     -7.9321522E-10
   12.24000     -6.5155692E-10
   12.30000     -5.3400651E-10
   12.36000     -4.3828591E-10
   12.42000     -3.6144285E-10
   12.48000     -2.9993227E-10
   12.54000     -2.4971203E-10
   12.60000     -2.0643423E-10
   12.66000     -1.6576955E-10
   12.72000     -1.2382770E-10
   12.78000     -7.7565281E-11
   12.84000     -2.5036412E-11
   12.90000      3.4636675E-11
   12.96000      1.0161551E-10
   13.02000      1.7594622E-10
   13.08000      2.5822813E-10
   13.14000      3.5011355E-10
   13.20000      4.5442808E-10
   13.26000      5.7481125E-10
   13.32000      7.1493433E-10
   13.38000      8.7750984E-10
   13.44000      1.0633913E-09
   13.50000      1.2710513E-09
   13.56000      1.4966018E-09
   13.62000      1.7343376E-09
   13.68000      1.9776045E-09
   13.74000      2.2196940E-09
   13.80000      2.4544726E-09
   13.86000      2.6765934E-09
   13.92000      2.8813159E-09
   13.98000      3.0641474E-09
   14.04000      3.2205885E-09
   14.10000      3.3462351E-09
   14.16000      3.4373158E-09
   14.22000      3.4915448E-09
   14.28000      3.5089827E-09
   14.34000      3.4925385E-09
   14.40000      3.4478345E-09
   14.46000      3.3823540E-09
   14.52000      3.3040626E-09
   14.58000      3.2198972E-09
   14.64000      3.1345910E-09
   14.70000      3.0501963E-09
   14.76000      2.9664355E-09
   14.82000      2.8817002E-09
   14.88000      2.7942999E-09
   14.94000      2.7034814E-09
   15.00000      2.6098619E-09
   15.06000      2.5151772E-09
   15.12000      2.4215425E-09
   15.18000      2.3306281E-09
   15.24000      2.2431819E-09
   15.30000      2.1591644E-09
   15.36000      2.0784829E-09
   15.42000      2.0020290E-09
   15.48000      1.9325697E-09
   15.54000      1.8750754E-09
   15.60000      1.8362785E-09
   15.66000      1.8235541E-09
   15.72000      1.8434769E-09
   15.78000      1.9005217E-09
   15.84000      1.9963073E-09
   15.90000      2.1295690E-09
   15.96000      2.2967657E-09
   16.02000      2.4930251E-09
   16.08000      2.7130460E-09
   16.14000      2.9516771E-09
   16.20000      3.2040743E-09
   16.26000      3.4655543E-09
   16.32000      3.7313823E-09
   16.38000      3.9967403E-09
   16.44000      4.2570001E-09
   16.50000      4.5082520E-09
   16.56000      4.7479105E-09
   16.62000      4.9751447E-09
   16.68000      5.1909583E-09
   16.74000      5.3978439E-09
   16.80000      5.5990932E-09
   16.86000      5.7979275E-09
   16.92000      5.9966605E-09
   16.98000      6.1960437E-09
   17.04000      6.3949037E-09
   17.10000      6.5900920E-09
   17.16000      6.7767019E-09
   17.22000      6.9484827E-09
   17.28000      7.0983663E-09
   17.34000      7.2190240E-09
   17.40000      7.3034196E-09
   17.46000      7.3453581E-09
   17.52000      7.3400441E-09
   17.58000      7.2846960E-09
   17.64000      7.1791701E-09
   17.70000      7.0265158E-09
   17.76000      6.8332917E-09
   17.82000      6.6094747E-09
   17.88000      6.3678609E-09
   17.94000      6.1229901E-09
   18.00000      5.8897860E-09
   18.06000      5.6821894E-09
   18.12000      5.5121032E-09
   18.18000      5.3888174E-09
   18.24000      5.3189453E-09
   18.30000      5.3067080E-09
   18.36000      5.3543125E-09
   18.42000      5.4621712E-09
   18.48000      5.6288387E-09
   18.54000      5.8507084E-09
   18.60000      6.1216854E-09
   18.66000      6.4331220E-09
   18.72000      6.7742398E-09
   18.78000      7.1330888E-09
   18.84000      7.4978708E-09
   18.90000      7.8582376E-09
   18.96000      8.2061478E-09
   19.02000      8.5359702E-09
   19.08000      8.8437870E-09
   19.14000      9.1261532E-09
   19.20000      9.3787929E-09
   19.26000      9.5956993E-09
   19.32000      9.7690140E-09
   19.38000      9.8896971E-09
   19.44000      9.9488213E-09
   19.50000      9.9390975E-09
   19.56000      9.8562403E-09
   19.62000      9.6998640E-09
   19.68000      9.4737347E-09
   19.74000      9.1853396E-09
   19.80000      8.8448626E-09
   19.86000      8.4637977E-09
   19.92000      8.0535143E-09
   19.98000      7.6241680E-09
   20.04000      7.1842341E-09
   20.10000      6.7407502E-09
   20.16000      6.3000343E-09
   20.22000      5.8684502E-09
   20.28000      5.4527431E-09
   20.34000      5.0596940E-09
   20.40000      4.6951931E-09
   20.46000      4.3631481E-09
   20.52000      4.0647237E-09
   20.58000      3.7982444E-09
   20.64000      3.5597312E-09
   20.70000      3.3437668E-09
   20.76000      3.1442771E-09
   20.82000      2.9549954E-09
   20.88000      2.7696296E-09
   20.94000      2.5819547E-09
   21.00000      2.3860489E-09
   21.06000      2.1767119E-09
   21.12000      1.9499071E-09
   21.18000      1.7029954E-09
   21.24000      1.4346637E-09
   21.30000      1.1446626E-09
   21.36000      8.3362728E-10
   21.42000      5.0320337E-10
   21.48000      1.5648671E-10
   21.54000     -2.0147913E-10
   21.60000     -5.6352140E-10
   21.66000     -9.2074953E-10
   21.72000     -1.2635833E-09
   21.78000     -1.5831616E-09
   21.84000     -1.8727735E-09
   21.90000     -2.1289948E-09
   21.96000     -2.3523512E-09
   22.02000     -2.5474565E-09
   22.08000     -2.7226288E-09
   22.14000     -2.8890281E-09
   22.20000     -3.0594107E-09
   22.26000     -3.2467165E-09
   22.32000     -3.4628067E-09
   22.38000     -3.7176260E-09
   22.44000     -4.0188577E-09
   22.50000     -4.3718282E-09
   22.56000     -4.7792281E-09
   22.62000     -5.2403024E-09
   22.68000     -5.7495546E-09
   22.74000     -6.2955396E-09
   22.80000     -6.8605712E-09
   22.86000     -7.4220425E-09
   22.92000     -7.9554425E-09
   22.98000     -8.4383576E-09
   23.04000     -8.8542595E-09
   23.10000     -9.1948653E-09
   23.16000     -9.4604040E-09
   23.22000     -9.6579926E-09
   23.28000     -9.7989323E-09
   23.34000     -9.8960271E-09
   23.40000     -9.9617541E-09
   23.46000     -1.0007563E-08
   23.52000     -1.0044078E-08
   23.58000     -1.0081608E-08
   23.64000     -1.0130377E-08
   23.70000     -1.0200033E-08
   23.76000     -1.0298356E-08
   23.82000     -1.0429323E-08
   23.88000     -1.0591058E-08
   23.94000     -1.0774344E-08
   24.00000     -1.0962410E-08
   24.06000     -1.1132391E-08
   24.12000     -1.1258393E-08
   24.18000     -1.1315479E-08
   24.24000     -1.1283484E-08
   24.30000     -1.1149603E-08
   24.36000     -1.0909105E-08
   24.42000     -1.0564271E-08
   24.48000     -1.0122275E-08
   24.54000     -9.5929984E-09
   24.60000     -8.9876435E-09
   24.66000     -8.3184801E-09
   24.72000     -7.5995574E-09
   24.78000     -6.8478405E-09
   24.84000     -6.0841261E-09
   24.90000     -5.3332161E-09
   24.96000     -4.6230002E-09
   25.02000     -3.9824144E-09
   25.08000     -3.4384902E-09
   25.14000     -3.0130554E-09
   25.20000     -2.7198734E-09
   25.26000     -2.5630489E-09
   25.32000     -2.5372136E-09
   25.38000     -2.6294513E-09
   25.44000     -2.8222642E-09
   25.50000     -3.0965521E-09
   25.56000     -3.4336669E-09
   25.62000     -3.8161612E-09
   25.68000     -4.2275268E-09
   25.74000     -4.6516595E-09
   25.80000     -5.0727560E-09
   25.86000     -5.4759388E-09
   25.92000     -5.8483693E-09
   25.98000     -6.1803109E-09
   26.04000     -6.4657013E-09
   26.10000     -6.7021060E-09
   26.16000     -6.8902417E-09
   26.22000     -7.0333588E-09
   26.28000     -7.1365744E-09
   26.34000     -7.2060602E-09
   26.40000     -7.2479449E-09
   26.46000     -7.2670114E-09
   26.52000     -7.2655832E-09
   26.58000     -7.2431470E-09
   26.64000     -7.1970470E-09
   26.70000     -7.1240955E-09
   26.76000     -7.0224306E-09
   26.82000     -6.8927823E-09
   26.88000     -6.7385582E-09
   26.94000     -6.5647723E-09
   27.00000     -6.3764047E-09
   27.06000     -6.1770020E-09
   27.12000     -5.9681442E-09
   27.18000     -5.7498850E-09
   27.24000     -5.5217932E-09
   27.30000     -5.2840092E-09
   27.36000     -5.0378195E-09
   27.42000     -4.7855742E-09
   27.48000     -4.5300537E-09
   27.54000     -4.2735762E-09
   27.60000     -4.0171546E-09
   27.66000     -3.7599657E-09
   27.72000     -3.4993004E-09
   27.78000     -3.2310821E-09
   27.84000     -2.9508744E-09
   27.90000     -2.6551359E-09
   27.96000     -2.3423270E-09
   28.02000     -2.0134774E-09
   28.08000     -1.6720142E-09
   28.14000     -1.3229636E-09
   28.20000     -9.7189579E-10
   28.26000     -6.2405026E-10
   28.32000     -2.8390806E-10
   28.38000      4.4800365E-11
   28.44000      3.5887388E-10
   28.50000      6.5544026E-10
   28.56000      9.3185770E-10
   28.62000      1.1856305E-09
   28.68000      1.4142268E-09
   28.74000      1.6148277E-09
   28.80000      1.7842274E-09
   28.86000      1.9191575E-09
   28.92000      2.0171225E-09
   28.98000      2.0775059E-09
   29.04000      2.1024367E-09
   29.10000      2.0969173E-09
   29.16000      2.0680326E-09
   29.22000      2.0235016E-09
   29.28000      1.9701598E-09
   29.34000      1.9129287E-09
   29.40000      1.8545180E-09
   29.46000      1.7956823E-09
   29.52000      1.7356138E-09
   29.58000      1.6721105E-09
   29.64000      1.6014395E-09
   29.70000      1.5181214E-09
   29.76000      1.4149635E-09
   29.82000      1.2835574E-09
   29.88000      1.1152144E-09
   29.94000      9.0212815E-10
   30.00000      6.3852851E-10
   30.06000      3.2166270E-10
   30.12000     -4.7480762E-11
   30.18000     -4.6381879E-10
   30.24000     -9.1837399E-10
   30.30000     -1.3992061E-09
   30.36000     -1.8930677E-09
   30.42000     -2.3874338E-09
   30.48000     -2.8722686E-09
   30.54000     -3.3408527E-09
   30.60000     -3.7893417E-09
   30.66000     -4.2153014E-09
   30.72000     -4.6159672E-09
   30.78000     -4.9871320E-09
   30.84000     -5.3232436E-09
   30.90000     -5.6186713E-09
   30.96000     -5.8695053E-09
   31.02000     -6.0750081E-09
   31.08000     -6.2380443E-09
   31.14000     -6.3643077E-09
   31.20000     -6.4607022E-09
   31.26000     -6.5335084E-09
   31.32000     -6.5869394E-09
   31.38000     -6.6224328E-09
   31.44000     -6.6387327E-09
   31.50000     -6.6325923E-09
   31.56000     -6.5998402E-09
   31.62000     -6.5365131E-09
   31.68000     -6.4397492E-09
   31.74000     -6.3081624E-09
   31.80000     -6.1415242E-09
   31.86000     -5.9398153E-09
   31.92000     -5.7019998E-09
   31.98000     -5.4250866E-09
   32.04000     -5.1040336E-09
   32.10000     -4.7327684E-09
   32.16000     -4.3061497E-09
   32.22000     -3.8222789E-09
   32.28000     -3.2843599E-09
   32.34000     -2.7014335E-09
   32.40000     -2.0876965E-09
   32.46000     -1.4605744E-09
   32.52000     -8.3810681E-10
   32.58000     -2.3635105E-10
   32.64000      3.3255870E-10
   32.70000      8.6132829E-10
   32.76000      1.3473517E-09
   32.82000      1.7917445E-09
   32.88000      2.1979907E-09
   32.94000      2.5706441E-09
   33.00000      2.9143798E-09
   33.06000      3.2334553E-09
   33.12000      3.5314363E-09
   33.18000      3.8109409E-09
   33.24000      4.0732564E-09
   33.30000      4.3178607E-09
   33.36000      4.5420689E-09
   33.42000      4.7410484E-09
   33.48000      4.9083111E-09
   33.54000      5.0365605E-09
   33.60000      5.1186033E-09
   33.66000      5.1480757E-09
   33.72000      5.1199178E-09
   33.78000      5.0307651E-09
   33.84000      4.8794946E-09
   33.90000      4.6679651E-09
   33.96000      4.4016870E-09
   34.02000      4.0898840E-09
   34.08000      3.7445012E-09
   34.14000      3.3781098E-09
   34.20000      3.0012499E-09
   34.26000      2.6201592E-09
   34.32000      2.2358100E-09
   34.38000      1.8446654E-09
   34.44000      1.4408349E-09
   34.50000      1.0187045E-09
   34.56000      5.7498878E-10
   34.62000      1.0951296E-10
   34.68000     -3.7531994E-10
   34.74000     -8.7584234E-10
   34.80000     -1.3884452E-09
   34.86000     -1.9103066E-09
   34.92000     -2.4393210E-09
   34.98000     -2.9734202E-09
   35.04000     -3.5096821E-09
   35.10000     -4.0436108E-09
   35.16000     -4.5688315E-09
   35.22000     -5.0773004E-09
   35.28000     -5.5599996E-09
   35.34000     -6.0079905E-09
   35.40000     -6.4135874E-09
   35.46000     -6.7713155E-09
   35.52000     -7.0783064E-09
   35.58000     -7.3339534E-09
   35.64000     -7.5389153E-09
   35.70000     -7.6938900E-09
   35.76000     -7.7987163E-09
   35.82000     -7.8522175E-09
   35.88000     -7.8528863E-09
   35.94000     -7.8000495E-09
   36.00000     -7.6949647E-09
   36.06000     -7.5413009E-09
   36.12000     -7.3447750E-09
   36.18000     -7.1120771E-09
   36.24000     -6.8495294E-09
   36.30000     -6.5619652E-09
   36.36000     -6.2522041E-09
   36.42000     -5.9212555E-09
   36.48000     -5.5691434E-09
   36.54000     -5.1960365E-09
   36.60000     -4.8032831E-09
   36.66000     -4.3939550E-09
   36.72000     -3.9726560E-09
   36.78000     -3.5446706E-09
   36.84000     -3.1148339E-09
   36.90000     -2.6867286E-09
   36.96000     -2.2627344E-09
   37.02000     -1.8450471E-09
   37.08000     -1.4372145E-09
   37.14000     -1.0453207E-09
   37.20000     -6.7796629E-10
   37.26000     -3.4470657E-10
   37.32000     -5.3423811E-11
   37.38000      1.9226125E-10
   37.44000      3.9432130E-10
   37.50000      5.5972088E-10
   37.56000      6.9810741E-10
   37.62000      8.1880541E-10
   37.68000      9.2836877E-10
   37.74000      1.0295440E-09
   37.80000      1.1217185E-09
   37.86000      1.2022227E-09
   37.92000      1.2676007E-09
   37.98000      1.3142244E-09
   38.04000      1.3381664E-09
   38.10000      1.3347186E-09
   38.16000      1.2980821E-09
   38.22000      1.2215702E-09
   38.28000      1.0983320E-09
   38.34000      9.2236835E-10
   38.40000      6.8954870E-10
   38.46000      3.9842230E-10
   38.52000      5.0712809E-11
   38.58000     -3.4858549E-10
   38.64000     -7.9158302E-10
   38.70000     -1.2683616E-09
   38.76000     -1.7682026E-09
   38.82000     -2.2808793E-09
   38.88000     -2.7976459E-09
   38.94000     -3.3116780E-09
   39.00000     -3.8179793E-09
   39.06000     -4.3129811E-09
   39.12000     -4.7941224E-09
   39.18000     -5.2595310E-09
   39.24000     -5.7077068E-09
   39.30000     -6.1370420E-09
   39.36000     -6.5451529E-09
   39.42000     -6.9282842E-09
   39.48000     -7.2812201E-09
   39.54000     -7.5979862E-09
   39.60000     -7.8731901E-09
   39.66000     -8.1033615E-09
   39.72000     -8.2875182E-09
   39.78000     -8.4264826E-09
   39.84000     -8.5211642E-09
   39.90000     -8.5707041E-09
   39.96000     -8.5715097E-09
   40.02000     -8.5178398E-09
   40.08000     -8.4037941E-09
   40.14000     -8.2257809E-09
   40.20000     -7.9843616E-09
   40.26000     -7.6846858E-09
   40.32000     -7.3354718E-09
   40.38000     -6.9471313E-09
   40.44000     -6.5298842E-09
   40.50000     -6.0924790E-09
   40.56000     -5.6416840E-09
   40.62000     -5.1823483E-09
   40.68000     -4.7177244E-09
   40.74000     -4.2498876E-09
   40.80000     -3.7802148E-09
   40.86000     -3.3099228E-09
   40.92000     -2.8405209E-09
   40.98000     -2.3739275E-09
   41.04000     -1.9120459E-09
   41.10000     -1.4558732E-09
   41.16000     -1.0045463E-09
   41.22000     -5.5489291E-10
   41.28000     -1.0190072E-10
   41.34000      3.5989411E-10
   41.40000      8.3456797E-10
   41.46000      1.3232383E-09
   41.52000      1.8233886E-09
   41.58000      2.3293460E-09
   41.64000      2.8337204E-09
   41.70000      3.3292644E-09
   41.76000      3.8105363E-09
   41.82000      4.2748289E-09
   41.88000      4.7220992E-09
   41.94000      5.1539208E-09
   42.00000      5.5717675E-09
   42.06000      5.9751795E-09
   42.12000      6.3604473E-09
   42.18000      6.7203416E-09
   42.24000      7.0450796E-09
   42.30000      7.3242461E-09
   42.36000      7.5490227E-09
   42.42000      7.7139157E-09
   42.48000      7.8174658E-09
   42.54000      7.8618356E-09
   42.60000      7.8516740E-09
   42.66000      7.7928703E-09
   42.72000      7.6916802E-09
   42.78000      7.5543873E-09
   42.84000      7.3873268E-09
   42.90000      7.1969706E-09
   42.96000      6.9898545E-09
   43.02000      6.7723103E-09
   43.08000      6.5500947E-09
   43.14000      6.3279946E-09
   43.20000      6.1093890E-09
   43.26000      5.8957119E-09
   43.32000      5.6858811E-09
   43.38000      5.4759273E-09
   43.44000      5.2592011E-09
   43.50000      5.0273941E-09
   43.56000      4.7722923E-09
   43.62000      4.4877595E-09
   43.68000      4.1712203E-09
   43.74000      3.8240326E-09
   43.80000      3.4505752E-09
   43.86000      3.0564025E-09
   43.92000      2.6462144E-09
   43.98000      2.2224058E-09
   44.04000      1.7847065E-09
   44.10000      1.3309603E-09
   44.16000      8.5870294E-10
   44.22000      3.6694517E-10
   44.28000     -1.4246555E-10
   44.34000     -6.6441386E-10
   44.40000     -1.1912628E-09
   44.46000     -1.7146717E-09
   44.52000     -2.2279802E-09
   44.58000     -2.7283347E-09
   44.64000     -3.2176686E-09
   44.70000     -3.7019496E-09
   44.76000     -4.1887436E-09
   44.82000     -4.6838822E-09
   44.88000     -5.1885083E-09
   44.94000     -5.6977325E-09
   45.00000     -6.2015335E-09
   45.06000     -6.6875971E-09
   45.12000     -7.1449691E-09
   45.18000     -7.5670705E-09
   45.24000     -7.9529245E-09
   45.30000     -8.3062206E-09
   45.36000     -8.6327114E-09
   45.42000     -8.9370467E-09
   45.48000     -9.2202370E-09
   45.54000     -9.4786312E-09
   45.60000     -9.7046744E-09
   45.66000     -9.8891011E-09
   45.72000     -1.0023816E-08
   45.78000     -1.0104508E-08
   45.84000     -1.0132161E-08
   45.90000     -1.0112927E-08
   45.96000     -1.0056382E-08
   46.02000     -9.9726201E-09
   46.08000     -9.8692059E-09
   46.14000     -9.7490105E-09
   46.20000     -9.6097930E-09
   46.26000     -9.4456860E-09
   46.32000     -9.2500834E-09
   46.38000     -9.0187999E-09
   46.44000     -8.7523153E-09
   46.50000     -8.4562686E-09
   46.56000     -8.1401224E-09
   46.62000     -7.8146556E-09
   46.68000     -7.4893656E-09
   46.74000     -7.1708048E-09
   46.80000     -6.8623760E-09
   46.86000     -6.5654358E-09
   46.92000     -6.2810352E-09
   46.98000     -6.0114473E-09
   47.04000     -5.7608571E-09
   47.10000     -5.5350444E-09
   47.16000     -5.3403495E-09
   47.22000     -5.1824220E-09
   47.28000     -5.0652176E-09
   47.34000     -4.9904507E-09
   47.40000     -4.9574576E-09
   47.46000     -4.9632956E-09
   47.52000     -5.0029700E-09
   47.58000     -5.0698197E-09
   47.64000     -5.1561937E-09
   47.70000     -5.2544680E-09
   47.76000     -5.3582334E-09
   47.82000     -5.4632516E-09
   47.88000     -5.5677303E-09
   47.94000     -5.6716702E-09
   48.00000     -5.7754583E-09
   48.06000     -5.8782823E-09
   48.12000     -5.9770957E-09
   48.18000     -6.0666392E-09
   48.24000     -6.1405321E-09
   48.30000     -6.1929004E-09
   48.36000     -6.2197314E-09
   48.42000     -6.2192833E-09
   48.48000     -6.1913670E-09
   48.54000     -6.1358922E-09
   48.60000     -6.0514713E-09
   48.66000     -5.9348166E-09
   48.72000     -5.7813252E-09
   48.78000     -5.5866431E-09
   48.84000     -5.3486011E-09
   48.90000     -5.0687543E-09
   48.96000     -4.7529487E-09
   49.02000     -4.4107322E-09
   49.08000     -4.0538208E-09
   49.14000     -3.6941019E-09
   49.20000     -3.3417455E-09
   49.26000     -3.0038876E-09
   49.32000     -2.6841664E-09
   49.38000     -2.3831530E-09
   49.44000     -2.0994815E-09
   49.50000     -1.8312908E-09
   49.56000     -1.5774836E-09
   49.62000     -1.3383430E-09
   49.68000     -1.1152329E-09
   49.74000     -9.0941926E-10
   49.80000     -7.2039019E-10
   49.86000     -5.4430843E-10
   49.92000     -3.7327891E-10
   49.98000     -1.9591999E-10
   50.04000      6.9047410E-13
   50.10000      2.2813154E-10
   50.16000      4.9368359E-10
   50.22000      7.9832135E-10
   50.28000      1.1364543E-09
   50.34000      1.4976327E-09
   50.40000      1.8696993E-09
   50.46000      2.2422570E-09
   50.52000      2.6091544E-09
   50.58000      2.9690650E-09
   50.64000      3.3240595E-09
   50.70000      3.6769483E-09
   50.76000      4.0287245E-09
   50.82000      4.3773607E-09
   50.88000      4.7185473E-09
   50.94000      5.0480295E-09
   51.00000      5.3644587E-09
   51.06000      5.6714540E-09
   51.12000      5.9779595E-09
   51.18000      6.2967369E-09
   51.24000      6.6415811E-09
   51.30000      7.0242989E-09
   51.36000      7.4525017E-09
   51.42000      7.9289393E-09
   51.48000      8.4526235E-09
   51.54000      9.0215000E-09
   51.60000      9.6360360E-09
   51.66000      1.0302795E-08
   51.72000      1.1037005E-08
   51.78000      1.1863301E-08
   51.84000      1.2814357E-08
   51.90000      1.3927852E-08
   51.96000      1.5242943E-08
   52.02000      1.6797737E-08
   52.08000      1.8628917E-08
   52.14000      2.0773898E-08
   52.20000      2.3274644E-08
   52.26000      2.6181576E-08
   52.32000      2.9555849E-08
   52.38000      3.3469004E-08
   52.44000      3.8000149E-08
   52.50000      4.3232067E-08
   52.56000      4.9247955E-08
   52.62000      5.6130393E-08
   52.68000      6.3962993E-08
   52.74000      7.2833934E-08
   52.80000      8.2839961E-08
   52.86000      9.4089060E-08
   52.92000      1.0670073E-07
   52.98000      1.2080388E-07
   53.04000      1.3653289E-07
   53.10000      1.5402362E-07
   53.16000      1.7340967E-07
   53.22000      1.9482030E-07
   53.28000      2.1837920E-07
   53.34000      2.4420390E-07
   53.40000      2.7240478E-07
   53.46000      3.0308331E-07
   53.52000      3.3632912E-07
   53.58000      3.7221523E-07
   53.64000      4.1079286E-07
   53.70000      4.5208483E-07
   53.76000      4.9607866E-07
   53.82000      5.4271976E-07
   53.88000      5.9190569E-07
   53.94000      6.4348069E-07
   54.00000      6.9723097E-07
   54.06000      7.5288006E-07
   54.12000      8.1008261E-07
   54.18000      8.6841806E-07
   54.24000      9.2738213E-07
   54.30000      9.8637929E-07
   54.36000      1.0447168E-06
   54.42000      1.1015997E-06
   54.48000      1.1561284E-06
   54.54000      1.2072991E-06
   54.60000      1.2540022E-06
   54.66000      1.2950235E-06
   54.72000      1.3290439E-06
   54.78000      1.3546428E-06
   54.84000      1.3703013E-06
   54.90000      1.3744099E-06
   54.96000      1.3652768E-06
   55.02000      1.3411410E-06
   55.08000      1.3001850E-06
   55.14000      1.2405504E-06
   55.20000      1.1603565E-06
   55.26000      1.0577211E-06
   55.32000      9.3078432E-07
   55.38000      7.7773456E-07
   55.44000      5.9683458E-07
   55.50000      3.8644887E-07
   55.56000      1.4507083E-07