  -2.400000      0.0000000E+00
  -2.340000      0.0000000E+00
  -2.280000      0.0000000E+00
  -2.220000      0.0000000E+00
  -2.160000      0.0000000E+00
  -2.100000      0.0000000E+00
  -2.040000      0.0000000E+00
  -1.980000     -4.9743301E-25
  -1.920000     -4.6472628E-24
  -1.860000     -1.9981437E-23
  -1.800000     -4.5597164E-23
  -1.740000     -1.9058524E-23
  -1.680000      2.7965768E-22
  -1.620000      1.2744234E-21
  -1.560000      3.3544010E-21
  -1.500000      6.0747155E-21
  -1.440000      6.8095931E-21
  -1.380000     -3.9268910E-22
  -1.320000     -2.4064870E-20
  -1.260000     -7.0549640E-20
  -1.200000     -1.3401854E-19
  -1.140000     -1.8308664E-19
  -1.080000     -1.5072532E-19
  -1.020000      6.0309357E-20
 -0.9600000      5.4109730E-19
 -0.9000000      1.2980048E-18
 -0.8400000      2.1392367E-18
 -0.7800000      2.5709588E-18
 -0.7200000      1.7960463E-18
 -0.6600000     -1.0611975E-18
 -0.6000000     -6.4208712E-18
 -0.5400000     -1.3478261E-17
 -0.4800000     -1.9539960E-17
 -0.4200000     -2.0058189E-17
 -0.3600000     -9.9651697E-18
 -0.3000000      1.3551819E-17
 -0.2400000      4.7640329E-17
 -0.1800000      8.1594525E-17
 -0.1200000      9.8152021E-17
 -5.9999999E-02  7.9552401E-17
  0.0000000E+00  1.7126427E-17
  5.9999999E-02 -7.9860589E-17
  0.1200000     -1.8201051E-16
  0.1800000     -2.4841078E-16
  0.2400000     -2.4479546E-16
  0.3000000     -1.6306761E-16
  0.3600000     -3.0025574E-17
  0.4200000      1.0377842E-16
  0.4800000      1.9335042E-16
  0.5400000      2.3142661E-16
  0.6000000      2.6059368E-16
  0.6600000      3.4870840E-16
  0.7200000      5.3173510E-16
  0.7800000      7.5377944E-16
  0.8400000      8.4815855E-16
  0.9000000      5.9194823E-16
  0.9600000     -1.7106659E-16
   1.020000     -1.3908727E-15
   1.080000     -2.7352005E-15
   1.140000     -3.6439180E-15
   1.200000     -3.5244531E-15
   1.260000     -2.0239293E-15
   1.320000      7.3968211E-16
   1.380000      4.1040910E-15
   1.440000      7.0033616E-15
   1.500000      8.2882199E-15
   1.560000      7.1157332E-15
   1.620000      3.2739609E-15
   1.680000     -2.6599789E-15
   1.740000     -9.3661964E-15
   1.800000     -1.5012953E-14
   1.860000     -1.7623271E-14
   1.920000     -1.5522014E-14
   1.980000     -7.8029344E-15
   2.040000      5.2621172E-15
   2.100000      2.1967750E-14
   2.160000      3.9160512E-14
   2.220000      5.2503957E-14
   2.280000      5.6999415E-14
   2.340000      4.7716331E-14
   2.400000      2.0738883E-14
   2.460000     -2.5577361E-14
   2.520000     -8.8948102E-14
   2.580000     -1.6124378E-13
   2.640000     -2.2694169E-13
   2.700000     -2.6312484E-13
   2.760000     -2.4243276E-13
   2.820000     -1.3986628E-13
   2.880000      5.7034686E-14
   2.940000      3.3705504E-13
   3.000000      6.5731329E-13
   3.060000      9.4298430E-13
   3.120000      1.0978864E-12
   3.180000      1.0258762E-12
   3.240000      6.5896708E-13
   3.300000     -1.5196289E-14
   3.360000     -9.3496098E-13
   3.420000     -1.9620518E-12
   3.480000     -2.8972202E-12
   3.540000     -3.5116554E-12
   3.600000     -3.5876766E-12
   3.660000     -2.9606732E-12
   3.720000     -1.5553303E-12
   3.780000      5.8808850E-13
   3.840000      3.2989462E-12
   3.900000      6.2733213E-12
   3.960000      9.0842342E-12
   4.020000      1.1208311E-11
   4.080000      1.2073548E-11
   4.140000      1.1131719E-11
   4.200000      7.9542397E-12
   4.260000      2.3427683E-12
   4.320000     -5.5625461E-12
   4.380000     -1.5200384E-11
   4.440000     -2.5555683E-11
   4.500000     -3.5196946E-11
   4.560000     -4.2393141E-11
   4.620000     -4.5306495E-11
   4.680000     -4.2244225E-11
   4.740000     -3.1941557E-11
   4.800000     -1.3842034E-11
   4.860000      1.1660251E-11
   4.920000      4.3049387E-11
   4.980000      7.7614172E-11
   5.040000      1.1149136E-10
   5.100000      1.3983451E-10
   5.160000      1.5710565E-10
   5.220000      1.5747538E-10
   5.280000      1.3530344E-10
   5.340000      8.5661554E-11
   5.400000      4.8516824E-12
   5.460000     -1.0913149E-10
   5.520000     -2.5624391E-10
   5.580000     -4.3418552E-10
   5.640000     -6.3837607E-10
   5.700000     -8.6213175E-10
   5.760000     -1.0970403E-09
   5.820000     -1.3335120E-09
   5.880000     -1.5614627E-09
   5.940000     -1.7710660E-09
   6.000000     -1.9534947E-09
   6.060000     -2.1015731E-09
   6.120000     -2.2102560E-09
   6.180000     -2.2768827E-09
   6.240000     -2.3011744E-09
   6.300000     -2.2849866E-09
   6.360000     -2.2318674E-09
   6.420000     -2.1464968E-09
   6.480000     -2.0341056E-09
   6.540000     -1.8999609E-09
   6.600000     -1.7489864E-09
   6.660000     -1.5855554E-09
   6.720000     -1.4134602E-09
   6.780000     -1.2360332E-09
   6.840000     -1.0563753E-09
   6.900000     -8.7763491E-10
   6.960000     -7.0327100E-10
   7.020000     -5.3723426E-10
   7.080000     -3.8400194E-10
   7.140000     -2.4842212E-10
   7.200000     -1.3536199E-10
   7.260000     -4.9204595E-11
   7.320000      6.7061278E-12
   7.380000      3.0538568E-11
   7.440000      2.2234797E-11
   7.500000     -1.6519550E-11
   7.560000     -8.2611265E-11
   7.620000     -1.7200577E-10
   7.680000     -2.8028821E-10
   7.740000     -4.0308668E-10
   7.800000     -5.3628929E-10
   7.860000     -6.7607236E-10
   7.920000     -8.1885237E-10
   7.980000     -9.6131392E-10
   8.040000     -1.1006239E-09
   8.100000     -1.2348267E-09
   8.160000     -1.3632752E-09
   8.220000     -1.4868634E-09
   8.280000     -1.6078227E-09
   8.340000     -1.7289682E-09
   8.400000     -1.8524842E-09
   8.460000     -1.9785460E-09
   8.520000     -2.1042170E-09
   8.580000     -2.2230437E-09
   8.640000     -2.3256090E-09
   8.700000     -2.4010200E-09
   8.760000     -2.4390001E-09
   8.820000     -2.4320330E-09
   8.880000     -2.3769489E-09
   8.940000     -2.2754862E-09
   9.000000     -2.1336599E-09
   9.060000     -1.9601287E-09
   9.120000     -1.7640714E-09
   9.180000     -1.5532289E-09
   9.240000     -1.3326916E-09
   9.300000     -1.1047618E-09
   9.360000     -8.6982826E-10
   9.420000     -6.2784211E-10
   9.480000     -3.7977410E-10
   9.540000     -1.2845222E-10
   9.600000      1.2157253E-10
   9.660000      3.6510175E-10
   9.720000      5.9789296E-10
   9.780000      8.1814816E-10
   9.840000      1.0272589E-09
   9.900000      1.2294422E-09
   9.960000      1.4303174E-09
   10.02000      1.6348898E-09
   10.08000      1.8456490E-09
   10.14000      2.0614697E-09
   10.20000      2.2777178E-09
   10.26000      2.4875129E-09
   10.32000      2.6836722E-09
   10.38000      2.8606200E-09
   10.44000      3.0155849E-09
   10.50000      3.1487095E-09
   10.56000      3.2621255E-09
   10.62000      3.3584331E-09
   10.68000      3.4392118E-09
   10.74000      3.5041035E-09
   10.80000      3.5507566E-09
   10.86000      3.5755658E-09
   10.92000      3.5748964E-09
   10.98000      3.5463865E-09
   11.04000      3.4899734E-09
   11.10000      3.4084269E-09
   11.16000      3.3072924E-09
   11.22000      3.1942293E-09
   11.28000      3.0777738E-09
   11.34000      2.9656588E-09
   11.40000      2.8629688E-09
   11.46000      2.7705855E-09
   11.52000      2.6844627E-09
   11.58000      2.5961395E-09
   11.64000      2.4945606E-09
   11.70000      2.3687952E-09
   11.76000      2.2108557E-09
   11.82000      2.0177005E-09
   11.88000      1.7917717E-09
   11.94000      1.5399536E-09
   12.00000      1.2714195E-09
   12.06000      9.9520858E-10
   12.12000      7.1835937E-10
   12.18000      4.4508444E-10
   12.24000      1.7697049E-10
   12.30000     -8.6203648E-11
   12.36000     -3.4557335E-10
   12.42000     -6.0262673E-10
   12.48000     -8.5910618E-10
   12.54000     -1.1172600E-09
   12.60000     -1.3802199E-09
   12.66000     -1.6523006E-09
   12.72000     -1.9390851E-09
   12.78000     -2.2472040E-09
   12.84000     -2.5837321E-09
   12.90000     -2.9551646E-09
   12.96000     -3.3660714E-09
   13.02000     -3.8177475E-09
   13.08000     -4.3073536E-09
   13.14000     -4.8280588E-09
   13.20000     -5.3704170E-09
   13.26000     -5.9247571E-09
   13.32000     -6.4838717E-09
   13.38000     -7.0450592E-09
   13.44000     -7.6107369E-09
   13.50000     -8.1873353E-09
   13.56000     -8.7828393E-09
   13.62000     -9.4037986E-09
   13.68000     -1.0052798E-08
   13.74000     -1.0727101E-08
   13.80000     -1.1418745E-08
   13.86000     -1.2115920E-08
   13.92000     -1.2805135E-08
   13.98000     -1.3473601E-08
   14.04000     -1.4111270E-08
   14.10000     -1.4712073E-08
   14.16000     -1.5274045E-08
   14.22000     -1.5798269E-08
   14.28000     -1.6286871E-08
   14.34000     -1.6740723E-08
   14.40000     -1.7157754E-08
   14.46000     -1.7532690E-08
   14.52000     -1.7858635E-08
   14.58000     -1.8130136E-08
   14.64000     -1.8346666E-08
   14.70000     -1.8515134E-08
   14.76000     -1.8650168E-08
   14.82000     -1.8771756E-08
   14.88000     -1.8900851E-08
   14.94000     -1.9054237E-08
   15.00000     -1.9240447E-08
   15.06000     -1.9458042E-08
   15.12000     -1.9696831E-08
   15.18000     -1.9941583E-08
   15.24000     -2.0176980E-08
   15.30000     -2.0392266E-08
   15.36000     -2.0584149E-08
   15.42000     -2.0757190E-08
   15.48000     -2.0921725E-08
   15.54000     -2.1090164E-08
   15.60000     -2.1273003E-08
   15.66000     -2.1475884E-08
   15.72000     -2.1698588E-08
   15.78000     -2.1936062E-08
   15.84000     -2.2180743E-08
   15.90000     -2.2424997E-08
   15.96000     -2.2662544E-08
   16.02000     -2.2888377E-08
   16.08000     -2.3097416E-08
   16.14000     -2.3282837E-08
   16.20000     -2.3435172E-08
   16.26000     -2.3542796E-08
   16.32000     -2.3593749E-08
   16.38000     -2.3578162E-08
   16.44000     -2.3490275E-08
   16.50000     -2.3329324E-08
   16.56000     -2.3099146E-08
   16.62000     -2.2806892E-08
   16.68000     -2.2461579E-08
   16.74000     -2.2072996E-08
   16.80000     -2.1651166E-08
   16.86000     -2.1206148E-08
   16.92000     -2.0747825E-08
   16.98000     -2.0285404E-08
   17.04000     -1.9826610E-08
   17.10000     -1.9376854E-08
   17.16000     -1.8938705E-08
   17.22000     -1.8512052E-08
   17.28000     -1.8095024E-08
   17.34000     -1.7685654E-08
   17.40000     -1.7283892E-08
   17.46000     -1.6893415E-08
   17.52000     -1.6522581E-08
   17.58000     -1.6183888E-08
   17.64000     -1.5891739E-08
   17.70000     -1.5658808E-08
   17.76000     -1.5491961E-08
   17.82000     -1.5389036E-08
   17.88000     -1.5337632E-08
   17.94000     -1.5316516E-08
   18.00000     -1.5299310E-08
   18.06000     -1.5259280E-08
   18.12000     -1.5173786E-08
   18.18000     -1.5027096E-08
   18.24000     -1.4811067E-08
   18.30000     -1.4523906E-08
   18.36000     -1.4167883E-08
   18.42000     -1.3746998E-08
   18.48000     -1.3265339E-08
   18.54000     -1.2726486E-08
   18.60000     -1.2133870E-08
   18.66000     -1.1491762E-08
   18.72000     -1.0806453E-08
   18.78000     -1.0087180E-08
   18.84000     -9.3464578E-09
   18.90000     -8.5995646E-09
   18.96000     -7.8631937E-09
   19.02000     -7.1534769E-09
   19.08000     -6.4838472E-09
   19.14000     -5.8632508E-09
   19.20000     -5.2951314E-09
   19.26000     -4.7773865E-09
   19.32000     -4.3032382E-09
   19.38000     -3.8627839E-09
   19.44000     -3.4449239E-09
   19.50000     -3.0393448E-09
   19.56000     -2.6382272E-09
   19.62000     -2.2373343E-09
   19.68000     -1.8361789E-09
   19.74000     -1.4371454E-09
   19.80000     -1.0437438E-09
   19.86000     -6.5851319E-10
   19.92000     -2.8128619E-10
   19.98000      9.1562986E-11
   20.04000      4.6660908E-10
   20.10000      8.5179908E-10
   20.16000      1.2543653E-09
   20.22000      1.6788944E-09
   20.28000      2.1260795E-09
   20.34000      2.5924054E-09
   20.40000      3.0707659E-09
   20.46000      3.5518390E-09
   20.52000      4.0259338E-09
   20.58000      4.4849142E-09
   20.64000      4.9236886E-09
   20.70000      5.3407638E-09
   20.76000      5.7375735E-09
   20.82000      6.1167613E-09
   20.88000      6.4801067E-09
   20.94000      6.8270678E-09
   21.00000      7.1547546E-09
   21.06000      7.4594864E-09
   21.12000      7.7393052E-09
   21.18000      7.9962810E-09
   21.24000      8.2374587E-09
   21.30000      8.4739629E-09
   21.36000      8.7185974E-09
   21.42000      8.9829797E-09
   21.48000      9.2753281E-09
   21.54000      9.5996073E-09
   21.60000      9.9560440E-09
   21.66000      1.0342460E-08
   21.72000      1.0755715E-08
   21.78000      1.1192702E-08
   21.84000      1.1650699E-08
   21.90000      1.2127186E-08
   21.96000      1.2619284E-08
   22.02000      1.3123064E-08
   22.08000      1.3632892E-08
   22.14000      1.4141073E-08
   22.20000      1.4637981E-08
   22.26000      1.5112844E-08
   22.32000      1.5555043E-08
   22.38000      1.5955607E-08
   22.44000      1.6308464E-08
   22.50000      1.6611162E-08
   22.56000      1.6865007E-08
   22.62000      1.7074807E-08
   22.68000      1.7248405E-08
   22.74000      1.7396014E-08
   22.80000      1.7529221E-08
   22.86000      1.7659604E-08
   22.92000      1.7797111E-08
   22.98000      1.7948848E-08
   23.04000      1.8118872E-08
   23.10000      1.8309354E-08
   23.16000      1.8522700E-08
   23.22000      1.8763552E-08
   23.28000      1.9039495E-08
   23.34000      1.9359623E-08
   23.40000      1.9731168E-08
   23.46000      2.0155312E-08
   23.52000      2.0623739E-08
   23.58000      2.1117245E-08
   23.64000      2.1606962E-08
   23.70000      2.2057884E-08
   23.76000      2.2433767E-08
   23.82000      2.2702251E-08
   23.88000      2.2839206E-08
   23.94000      2.2831514E-08
   24.00000      2.2677803E-08
   24.06000      2.2386969E-08
   24.12000      2.1974882E-08
   24.18000      2.1460151E-08
   24.24000      2.0860226E-08
   24.30000      2.0188992E-08
   24.36000      1.9456344E-08
   24.42000      1.8669340E-08
   24.48000      1.7833790E-08
   24.54000      1.6955036E-08
   24.60000      1.6037310E-08
   24.66000      1.5081953E-08
   24.72000      1.4085552E-08
   24.78000      1.3039140E-08
   24.84000      1.1929038E-08
   24.90000      1.0739139E-08
   24.96000      9.4538155E-09
   25.02000      8.0606055E-09
   25.08000      6.5521575E-09
   25.14000      4.9273492E-09
   25.20000      3.1917247E-09
   25.26000      1.3572684E-09
   25.32000     -5.5860627E-10
   25.38000     -2.5349520E-09
   25.44000     -4.5498778E-09
   25.50000     -6.5832801E-09
   25.56000     -8.6190228E-09
   25.62000     -1.0646123E-08
   25.68000     -1.2658999E-08
   25.74000     -1.4657193E-08
   25.80000     -1.6644934E-08
   25.86000     -1.8630530E-08
   25.92000     -2.0625031E-08
   25.98000     -2.2639711E-08
   26.04000     -2.4682254E-08
   26.10000     -2.6752591E-08
   26.16000     -2.8839743E-08
   26.22000     -3.0921111E-08
   26.28000     -3.2964696E-08
   26.34000     -3.4933567E-08
   26.40000     -3.6791100E-08
   26.46000     -3.8505291E-08
   26.52000     -4.0051155E-08
   26.58000     -4.1411141E-08
   26.64000     -4.2574225E-08
   26.70000     -4.3534534E-08
   26.76000     -4.4290161E-08
   26.82000     -4.4842395E-08
   26.88000     -4.5195492E-08
   26.94000     -4.5356952E-08
   27.00000     -4.5338190E-08
   27.06000     -4.5155350E-08
   27.12000     -4.4829587E-08
   27.18000     -4.4386077E-08
   27.24000     -4.3851315E-08
   27.30000     -4.3249027E-08
   27.36000     -4.2595861E-08
   27.42000     -4.1898396E-08
   27.48000     -4.1152862E-08
   27.54000     -4.0347718E-08
   27.60000     -3.9468450E-08
   27.66000     -3.8502947E-08
   27.72000     -3.7445972E-08
   27.78000     -3.6301643E-08
   27.84000     -3.5083698E-08
   27.90000     -3.3813649E-08
   27.96000     -3.2517466E-08
   28.02000     -3.1221301E-08
   28.08000     -2.9947117E-08
   28.14000     -2.8709207E-08
   28.20000     -2.7512602E-08
   28.26000     -2.6353895E-08
   28.32000     -2.5224086E-08
   28.38000     -2.4112204E-08
   28.44000     -2.3008019E-08
   28.50000     -2.1902668E-08
   28.56000     -2.0787244E-08
   28.62000     -1.9650523E-08
   28.68000     -1.8477650E-08
   28.74000     -1.7250953E-08
   28.80000     -1.5953001E-08
   28.86000     -1.4570666E-08
   28.92000     -1.3098593E-08
   28.98000     -1.1540854E-08
   29.04000     -9.9105755E-09
   29.10000     -8.2282172E-09
   29.16000     -6.5192665E-09
   29.22000     -4.8117927E-09
   29.28000     -3.1337322E-09
   29.34000     -1.5096792E-09
   29.40000      4.2529945E-11
   29.46000      1.5144740E-09
   29.52000      2.9077718E-09
   29.58000      4.2319104E-09
   29.64000      5.4996656E-09
   29.70000      6.7216708E-09
   29.76000      7.9021438E-09
   29.82000      9.0372332E-09
   29.88000      1.0116179E-08
   29.94000      1.1124263E-08
   30.00000      1.2045944E-08
   30.06000      1.2866914E-08
   30.12000      1.3574654E-08
   30.18000      1.4157894E-08
   30.24000      1.4605692E-08
   30.30000      1.4906730E-08
   30.36000      1.5048998E-08
   30.42000      1.5019898E-08
   30.48000      1.4806841E-08
   30.54000      1.4398521E-08
   30.60000      1.3786966E-08
   30.66000      1.2970070E-08
   30.72000      1.1953802E-08
   30.78000      1.0753138E-08
   30.84000      9.3910844E-09
   30.90000      7.8959133E-09
   30.96000      6.2975536E-09
   31.02000      4.6243782E-09
   31.08000      2.9012959E-09
   31.14000      1.1493666E-09
   31.20000     -6.1353977E-10
   31.26000     -2.3717388E-09
   31.32000     -4.1108312E-09
   31.38000     -5.8169523E-09
   31.44000     -7.4759887E-09
   31.50000     -9.0727781E-09
   31.56000     -1.0590668E-08
   31.62000     -1.2011971E-08
   31.68000     -1.3319598E-08
   31.74000     -1.4499419E-08
   31.80000     -1.5542309E-08
   31.86000     -1.6444655E-08
   31.92000     -1.7206807E-08
   31.98000     -1.7829871E-08
   32.04000     -1.8312276E-08
   32.10000     -1.8647681E-08
   32.16000     -1.8825189E-08
   32.22000     -1.8831688E-08
   32.28000     -1.8655170E-08
   32.34000     -1.8287487E-08
   32.40000     -1.7725455E-08
   32.46000     -1.6970137E-08
   32.52000     -1.6024954E-08
   32.58000     -1.4893661E-08
   32.64000     -1.3579093E-08
   32.70000     -1.2083003E-08
   32.76000     -1.0406841E-08
   32.82000     -8.5530099E-09
   32.88000     -6.5261050E-09
   32.94000     -4.3338098E-09
   33.00000     -1.9873285E-09
   33.06000      4.9860754E-10
   33.12000      3.1059737E-09
   33.18000      5.8137046E-09
   33.24000      8.5977785E-09
   33.30000      1.1431121E-08
   33.36000      1.4283557E-08
   33.42000      1.7122211E-08
   33.48000      1.9912678E-08
   33.54000      2.2620981E-08
   33.60000      2.5215849E-08
   33.66000      2.7670557E-08
   33.72000      2.9963662E-08
   33.78000      3.2078411E-08
   33.84000      3.4001253E-08
   33.90000      3.5720237E-08
   33.96000      3.7223977E-08
   34.02000      3.8501426E-08
   34.08000      3.9542087E-08
   34.14000      4.0335969E-08
   34.20000      4.0873001E-08
   34.26000      4.1141931E-08
   34.32000      4.1129496E-08
   34.38000      4.0820481E-08
   34.44000      4.0199069E-08
   34.50000      3.9251198E-08
   34.56000      3.7967180E-08
   34.62000      3.6343916E-08
   34.68000      3.4386240E-08
   34.74000      3.2107362E-08
   34.80000      2.9528575E-08
   34.86000      2.6678283E-08
   34.92000      2.3590266E-08
   34.98000      2.0301231E-08
   35.04000      1.6847903E-08
   35.10000      1.3264426E-08
   35.16000      9.5808490E-09
   35.22000      5.8231739E-09
   35.28000      2.0147237E-09
   35.34000     -1.8220604E-09
   35.40000     -5.6644622E-09
   35.46000     -9.4895780E-09
   35.52000     -1.3275489E-08
   35.58000     -1.7002705E-08
   35.64000     -2.0654969E-08
   35.70000     -2.4218940E-08
   35.76000     -2.7682917E-08
   35.82000     -3.1035245E-08
   35.88000     -3.4263010E-08
   35.94000     -3.7351366E-08
   36.00000     -4.0283592E-08
   36.06000     -4.3041737E-08
   36.12000     -4.5607948E-08
   36.18000     -4.7966363E-08
   36.24000     -5.0105349E-08
   36.30000     -5.2019253E-08
   36.36000     -5.3708700E-08
   36.42000     -5.5178845E-08
   36.48000     -5.6435717E-08
   36.54000     -5.7482083E-08
   36.60000     -5.8314548E-08
   36.66000     -5.8923348E-08
   36.72000     -5.9294951E-08
   36.78000     -5.9416308E-08
   36.84000     -5.9278985E-08
   36.90000     -5.8881540E-08
   36.96000     -5.8229734E-08
   37.02000     -5.7335118E-08
   37.08000     -5.6212958E-08
   37.14000     -5.4880235E-08
   37.20000     -5.3353904E-08
   37.26000     -5.1649192E-08
   37.32000     -4.9778293E-08
   37.38000     -4.7749953E-08
   37.44000     -4.5570836E-08
   37.50000     -4.3248722E-08
   37.56000     -4.0796539E-08
   37.62000     -3.8235186E-08
   37.68000     -3.5593317E-08
   37.74000     -3.2903468E-08
   37.80000     -3.0195938E-08
   37.86000     -2.7492964E-08
   37.92000     -2.4805864E-08
   37.98000     -2.2136367E-08
   38.04000     -1.9481394E-08
   38.10000     -1.6839129E-08
   38.16000     -1.4214059E-08
   38.22000     -1.1619520E-08
   38.28000     -9.0774348E-09
   38.34000     -6.6157688E-09
   38.40000     -4.2643742E-09
   38.46000     -2.0498645E-09
   38.52000      9.6175680E-12
   38.58000      1.9083244E-09
   38.64000      3.6537326E-09
   38.70000      5.2629998E-09
   38.76000      6.7553896E-09
   38.82000      8.1431279E-09
   38.88000      9.4244959E-09
   38.94000      1.0582532E-08
   39.00000      1.1590354E-08
   39.06000      1.2421014E-08
   39.12000      1.3057572E-08
   39.18000      1.3499038E-08
   39.24000      1.3759959E-08
   39.30000      1.3864487E-08
   39.36000      1.3838052E-08
   39.42000      1.3700192E-08
   39.48000      1.3460787E-08
   39.54000      1.3119917E-08
   39.60000      1.2670220E-08
   39.66000      1.2100371E-08
   39.72000      1.1398839E-08
   39.78000      1.0557675E-08
   39.84000      9.5759116E-09
   39.90000      8.4616669E-09
   39.96000      7.2316912E-09
   40.02000      5.9077458E-09
   40.08000      4.5105928E-09
   40.14000      3.0538889E-09
   40.20000      1.5407142E-09
   40.26000     -3.5532331E-11
   40.32000     -1.6861763E-09
   40.38000     -3.4204759E-09
   40.44000     -5.2399391E-09
   40.50000     -7.1358750E-09
   40.56000     -9.0905825E-09
   40.62000     -1.1081010E-08
   40.68000     -1.3083122E-08
   40.74000     -1.5075619E-08
   40.80000     -1.7042476E-08
   40.86000     -1.8974253E-08
   40.92000     -2.0868066E-08
   40.98000     -2.2725832E-08
   41.04000     -2.4550557E-08
   41.10000     -2.6341228E-08
   41.16000     -2.8088005E-08
   41.22000     -2.9770023E-08
   41.28000     -3.1357423E-08
   41.34000     -3.2817621E-08
   41.40000     -3.4123520E-08
   41.46000     -3.5260378E-08
   41.52000     -3.6228140E-08
   41.58000     -3.7038195E-08
   41.64000     -3.7705732E-08
   41.70000     -3.8240881E-08
   41.76000     -3.8641961E-08
   41.82000     -3.8893354E-08
   41.88000     -3.8968352E-08
   41.94000     -3.8835879E-08
   42.00000     -3.8468755E-08
   42.06000     -3.7851112E-08
   42.12000     -3.6982915E-08
   42.18000     -3.5880397E-08
   42.24000     -3.4572025E-08
   42.30000     -3.3090817E-08
   42.36000     -3.1464900E-08
   42.42000     -2.9709078E-08
   42.48000     -2.7820249E-08
   42.54000     -2.5778780E-08
   42.60000     -2.3555934E-08
   42.66000     -2.1125430E-08
   42.72000     -1.8475356E-08
   42.78000     -1.5616349E-08
   42.84000     -1.2582992E-08
   42.90000     -9.4276666E-09
   42.96000     -6.2087513E-09
   43.02000     -2.9769862E-09
   43.08000      2.3556038E-10
   43.14000      3.4204439E-09
   43.20000      6.5903323E-09
   43.26000      9.7701367E-09
   43.32000      1.2984890E-08
   43.38000      1.6248366E-08
   43.44000      1.9556015E-08
   43.50000      2.2884265E-08
   43.56000      2.6196137E-08
   43.62000      2.9451215E-08
   43.68000      3.2616668E-08
   43.74000      3.5675850E-08
   43.80000      3.8631669E-08
   43.86000      4.1503668E-08
   43.92000      4.4319510E-08
   43.98000      4.7103491E-08
   44.04000      4.9865701E-08
   44.10000      5.2595389E-08
   44.16000      5.5260863E-08
   44.22000      5.7816226E-08
   44.28000      6.0212969E-08
   44.34000      6.2412632E-08
   44.40000      6.4396595E-08
   44.46000      6.6169676E-08
   44.52000      6.7756474E-08
   44.58000      6.9191863E-08
   44.64000      7.0508499E-08
   44.70000      7.1725609E-08
   44.76000      7.2842305E-08
   44.82000      7.3837434E-08
   44.88000      7.4676066E-08
   44.94000      7.5320443E-08
   45.00000      7.5742051E-08
   45.06000      7.5930892E-08
   45.12000      7.5898740E-08
   45.18000      7.5675231E-08
   45.24000      7.5297663E-08
   45.30000      7.4798173E-08
   45.36000      7.4192698E-08
   45.42000      7.3476016E-08
   45.48000      7.2624722E-08
   45.54000      7.1607332E-08
   45.60000      7.0397711E-08
   45.66000      6.8987021E-08
   45.72000      6.7389884E-08
   45.78000      6.5642752E-08
   45.84000      6.3795255E-08
   45.90000      6.1897580E-08
   45.96000      5.9988011E-08
   46.02000      5.8084428E-08
   46.08000      5.6182039E-08
   46.14000      5.4257853E-08
   46.20000      5.2280257E-08
   46.26000      5.0220841E-08
   46.32000      4.8064877E-08
   46.38000      4.5817117E-08
   46.44000      4.3501149E-08
   46.50000      4.1152397E-08
   46.56000      3.8807293E-08
   46.62000      3.6492381E-08
   46.68000      3.4217237E-08
   46.74000      3.1973592E-08
   46.80000      2.9740690E-08
   46.86000      2.7494556E-08
   46.92000      2.5217707E-08
   46.98000      2.2905933E-08
   47.04000      2.0570267E-08
   47.10000      1.8234033E-08
   47.16000      1.5926382E-08
   47.22000      1.3674486E-08
   47.28000      1.1496533E-08
   47.34000      9.3972945E-09
   47.40000      7.3673290E-09
   47.46000      5.3861662E-09
   47.52000      3.4288716E-09
   47.58000      1.4743895E-09
   47.64000     -4.8671694E-10
   47.70000     -2.4476270E-09
   47.76000     -4.3854165E-09
   47.82000     -6.2661267E-09
   47.88000     -8.0531253E-09
   47.94000     -9.7159729E-09
   48.00000     -1.1236979E-08
   48.06000     -1.2613615E-08
   48.12000     -1.3856574E-08
   48.18000     -1.4984622E-08
   48.24000     -1.6018131E-08
   48.30000     -1.6973127E-08
   48.36000     -1.7857163E-08
   48.42000     -1.8667668E-08
   48.48000     -1.9392868E-08
   48.54000     -2.0014944E-08
   48.60000     -2.0514545E-08
   48.66000     -2.0875383E-08
   48.72000     -2.1087510E-08
   48.78000     -2.1148157E-08
   48.84000     -2.1059989E-08
   48.90000     -2.0827684E-08
   48.96000     -2.0454538E-08
   49.02000     -1.9940682E-08
   49.08000     -1.9283643E-08
   49.14000     -1.8480693E-08
   49.20000     -1.7531505E-08
   49.26000     -1.6439749E-08
   49.32000     -1.5212908E-08
   49.38000     -1.3860948E-08
   49.44000     -1.2394952E-08
   49.50000     -1.0826777E-08
   49.56000     -9.1697938E-09
   49.62000     -7.4398483E-09
   49.68000     -5.6552536E-09
   49.74000     -3.8352050E-09
   49.80000     -1.9971302E-09
   49.86000     -1.5442199E-10
   49.92000      1.6839578E-09
   49.98000      3.5113987E-09
   50.04000      5.3198441E-09
   50.10000      7.0960304E-09
   50.16000      8.8195797E-09
   50.22000      1.0463859E-08
   50.28000      1.1999222E-08
   50.34000      1.3397262E-08
   50.40000      1.4634557E-08
   50.46000      1.5694932E-08
   50.52000      1.6570048E-08
   50.58000      1.7258694E-08
   50.64000      1.7765128E-08
   50.70000      1.8096681E-08
   50.76000      1.8260678E-08
   50.82000      1.8261154E-08
   50.88000      1.8096328E-08
   50.94000      1.7758131E-08
   51.00000      1.7234644E-08
   51.06000      1.6515184E-08
   51.12000      1.5596392E-08
   51.18000      1.4486851E-08
   51.24000      1.3208092E-08
   51.30000      1.1791103E-08
   51.36000      1.0269424E-08
   51.42000      8.6711998E-09
   51.48000      7.0130053E-09
   51.54000      5.2974642E-09
   51.60000      3.5152443E-09
   51.66000      1.6506179E-09
   51.72000     -3.1112535E-10
   51.78000     -2.3764011E-09
   51.84000     -4.5380042E-09
   51.90000     -6.7731185E-09
   51.96000     -9.0454240E-09
   52.02000     -1.1311180E-08
   52.08000     -1.3527996E-08
   52.14000     -1.5663968E-08
   52.20000     -1.7704295E-08
   52.26000     -1.9653044E-08
   52.32000     -2.1529281E-08
   52.38000     -2.3358828E-08
   52.44000     -2.5164562E-08
   52.50000     -2.6958647E-08
   52.56000     -2.8739237E-08
   52.62000     -3.0492309E-08
   52.68000     -3.2197448E-08
   52.74000     -3.3835239E-08
   52.80000     -3.5393825E-08
   52.86000     -3.6872891E-08
   52.92000     -3.8284409E-08
   52.98000     -3.9650477E-08
   53.04000     -4.0999023E-08
   53.10000     -4.2358760E-08
   53.16000     -4.3754671E-08
   53.22000     -4.5205358E-08
   53.28000     -4.6723294E-08
   53.34000     -4.8317911E-08
   53.40000     -5.0000875E-08
   53.46000     -5.1791588E-08
   53.52000     -5.3721077E-08
   53.58000     -5.5832576E-08
   53.64000     -5.8178337E-08
   53.70000     -6.0813491E-08
   53.76000     -6.3788704E-08
   53.82000     -6.7143887E-08
   53.88000     -7.0904697E-08
   53.94000     -7.5082887E-08
   54.00000     -7.9680014E-08
   54.06000     -8.4693362E-08
   54.12000     -9.0121873E-08
   54.18000     -9.5970208E-08
   54.24000     -1.0224937E-07
   54.30000     -1.0897368E-07
   54.36000     -1.1615502E-07
   54.42000     -1.2379589E-07
   54.48000     -1.3188314E-07
   54.54000     -1.4038372E-07
   54.60000     -1.4924304E-07
   54.66000     -1.5838562E-07
   54.72000     -1.6771740E-07
   54.78000     -1.7712843E-07
   54.84000     -1.8649500E-07
   54.90000     -1.9568046E-07
   54.96000     -2.0453406E-07
   55.02000     -2.1288858E-07
   55.08000     -2.2055733E-07
   55.14000     -2.2733214E-07
   55.20000     -2.3298333E-07
   55.26000     -2.3726166E-07
   55.32000     -2.3990174E-07
   55.38000     -2.4062501E-07
   55.44000     -2.3914154E-07
   55.50000     -2.3514997E-07
   55.56000     -2.2833680E-07