  -2.400000      0.0000000E+00
  -2.340000      0.0000000E+00
  -2.280000      0.0000000E+00
  -2.220000      0.0000000E+00
  -2.160000      0.0000000E+00
  -2.100000      0.0000000E+00
  -2.040000      0.0000000E+00
  -1.980000      1.5543591E-25
  -1.920000      5.5354991E-25
  -1.860000     -3.3470307E-24
  -1.800000     -3.5045846E-23
  -1.740000     -1.5073728E-22
  -1.680000     -4.0673762E-22
  -1.620000     -7.2973880E-22
  -1.560000     -7.4081910E-22
  -1.500000      2.4369625E-22
  -1.440000      2.8296978E-21
  -1.380000      7.0497647E-21
  -1.320000      1.2632709E-20
  -1.260000      2.0470972E-20
  -1.200000      3.3198409E-20
  -1.140000      4.9675353E-20
  -1.080000      4.9686933E-20
  -1.020000     -2.3177703E-20
 -0.9600000     -2.5347807E-19
 -0.9000000     -6.8557231E-19
 -0.8400000     -1.1897981E-18
 -0.7800000     -1.3362870E-18
 -0.7200000     -4.3687218E-19
 -0.6600000      2.0811701E-18
 -0.6000000      5.9791659E-18
 -0.5400000      9.5372097E-18
 -0.4800000      9.5684878E-18
 -0.4200000      2.7272482E-18
 -0.3600000     -1.1930204E-17
 -0.3000000     -3.0285881E-17
 -0.2400000     -4.2479774E-17
 -0.1800000     -3.6104210E-17
 -0.1200000     -3.3417019E-18
 -5.9999999E-02  5.0842438E-17
  0.0000000E+00  1.0472789E-16
  5.9999999E-02  1.2506819E-16
  0.1200000      8.2478874E-17
  0.1800000     -2.8519517E-17
  0.2400000     -1.7563010E-16
  0.3000000     -2.9200587E-16
  0.3600000     -3.0058751E-16
  0.4200000     -1.5211016E-16
  0.4800000      1.4050960E-16
  0.5400000      4.9043695E-16
  0.6000000      7.5801010E-16
  0.6600000      7.9926352E-16
  0.7200000      5.2271885E-16
  0.7800000     -6.8673633E-17
  0.8400000     -8.6563485E-16
  0.9000000     -1.6715685E-15
  0.9600000     -2.2420189E-15
   1.020000     -2.3322480E-15
   1.080000     -1.7470260E-15
   1.140000     -3.9355115E-16
   1.200000      1.6624135E-15
   1.260000      4.1468734E-15
   1.320000      6.5556826E-15
   1.380000      8.1852317E-15
   1.440000      8.2319880E-15
   1.500000      5.9614784E-15
   1.560000      9.3350485E-16
   1.620000     -6.7395371E-15
   1.680000     -1.6140262E-14
   1.740000     -2.5373934E-14
   1.800000     -3.1600963E-14
   1.860000     -3.1430282E-14
   1.920000     -2.1783731E-14
   1.980000     -1.1762973E-15
   2.040000      2.8905203E-14
   2.100000      6.3091900E-14
   2.160000      9.2331931E-14
   2.220000      1.0560824E-13
   2.280000      9.3052268E-14
   2.340000      4.9675562E-14
   2.400000     -2.1537700E-14
   2.460000     -1.0846484E-13
   2.520000     -1.9138571E-13
   2.580000     -2.4713209E-13
   2.640000     -2.5485460E-13
   2.700000     -2.0187667E-13
   2.760000     -8.8100263E-14
   2.820000      7.2124117E-14
   2.880000      2.5112348E-13
   2.940000      4.1194102E-13
   3.000000      5.1483421E-13
   3.060000      5.2546433E-13
   3.120000      4.2357559E-13
   3.180000      2.1039629E-13
   3.240000     -8.7434868E-14
   3.300000     -4.1945278E-13
   3.360000     -7.1941021E-13
   3.420000     -9.1881667E-13
   3.480000     -9.6291226E-13
   3.540000     -8.2468223E-13
   3.600000     -5.1273368E-13
   3.660000     -7.0715982E-14
   3.720000      4.3124350E-13
   3.780000      9.1013135E-13
   3.840000      1.2846540E-12
   3.900000      1.4875704E-12
   3.960000      1.4743623E-12
   4.020000      1.2286724E-12
   4.080000      7.6556182E-13
   4.140000      1.3279869E-13
   4.200000     -5.9114248E-13
   4.260000     -1.3045161E-12
   4.320000     -1.8963670E-12
   4.380000     -2.2657440E-12
   4.440000     -2.3415065E-12
   4.500000     -2.0966074E-12
   4.560000     -1.5520314E-12
   4.620000     -7.6949954E-13
   4.680000      1.6327853E-13
   4.740000      1.1481509E-12
   4.800000      2.0870103E-12
   4.860000      2.8854679E-12
   4.920000      3.4530783E-12
   4.980000      3.7063078E-12
   5.040000      3.5788792E-12
   5.100000      3.0385909E-12
   5.160000      2.1033685E-12
   5.220000      8.4624603E-13
   5.280000     -6.1811716E-13
   5.340000     -2.1644106E-12
   5.400000     -3.6944827E-12
   5.460000     -5.1654501E-12
   5.520000     -6.5934207E-12
   5.580000     -8.0274312E-12
   5.640000     -9.5009903E-12
   5.700000     -1.0978753E-11
   5.760000     -1.2318875E-11
   5.820000     -1.3266455E-11
   5.880000     -1.3483431E-11
   5.940000     -1.2609701E-11
   6.000000     -1.0343303E-11
   6.060000     -6.5246554E-12
   6.120000     -1.2097138E-12
   6.180000      5.2828623E-12
   6.240000      1.2364706E-11
   6.300000      1.9221926E-11
   6.360000      2.4912863E-11
   6.420000      2.8507733E-11
   6.480000      2.9243268E-11
   6.540000      2.6656474E-11
   6.600000      2.0665730E-11
   6.660000      1.1585673E-11
   6.720000      8.7223441E-14
   6.780000     -1.2866984E-11
   6.840000     -2.6080429E-11
   6.900000     -3.8162341E-11
   6.960000     -4.7569483E-11
   7.020000     -5.2695386E-11
   7.080000     -5.2051752E-11
   7.140000     -4.4553507E-11
   7.200000     -2.9862321E-11
   7.260000     -8.6888665E-12
   7.320000      1.7068760E-11
   7.380000      4.4446228E-11
   7.440000      6.9815521E-11
   7.500000      8.9495772E-11
   7.560000      1.0042262E-10
   7.620000      1.0070105E-10
   7.680000      8.9904847E-11
   7.740000      6.9071755E-11
   7.800000      4.0440377E-11
   7.860000      7.0426677E-12
   7.920000     -2.7720432E-11
   7.980000     -6.0430008E-11
   8.040000     -8.7899223E-11
   8.100000     -1.0734680E-10
   8.160000     -1.1653471E-10
   8.220000     -1.1389045E-10
   8.280000     -9.8598775E-11
   8.340000     -7.0626872E-11
   8.400000     -3.0660620E-11
   8.460000      2.0028418E-11
   8.520000      7.9720584E-11
   8.580000      1.4631227E-10
   8.640000      2.1726197E-10
   8.700000      2.8944386E-10
   8.760000      3.5900369E-10
   8.820000      4.2133971E-10
   8.880000      4.7129756E-10
   8.940000      5.0358523E-10
   9.000000      5.1332699E-10
   9.060000      4.9662374E-10
   9.120000      4.5100454E-10
   9.180000      3.7571204E-10
   9.240000      2.7183633E-10
   9.300000      1.4234038E-10
   9.360000     -7.9965687E-12
   9.420000     -1.7274342E-10
   9.480000     -3.4414990E-10
   9.540000     -5.1369403E-10
   9.600000     -6.7282308E-10
   9.660000     -8.1378226E-10
   9.720000     -9.3037555E-10
   9.780000     -1.0185188E-09
   9.840000     -1.0765207E-09
   9.900000     -1.1051121E-09
   9.960000     -1.1072910E-09
   10.02000     -1.0880291E-09
   10.08000     -1.0538292E-09
   10.14000     -1.0120891E-09
   10.20000     -9.7024444E-10
   10.26000     -9.3477448E-10
   10.32000     -9.1026164E-10
   10.38000     -8.9875901E-10
   10.44000     -8.9966279E-10
   10.50000     -9.1013380E-10
   10.56000     -9.2591645E-10
   10.62000     -9.4228336E-10
   10.68000     -9.5482389E-10
   10.74000     -9.5991504E-10
   10.80000     -9.5487007E-10
   10.86000     -9.3788488E-10
   10.92000     -9.0792573E-10
   10.98000     -8.6465168E-10
   11.04000     -8.0837537E-10
   11.10000     -7.4002160E-10
   11.16000     -6.6104883E-10
   11.22000     -5.7333654E-10
   11.28000     -4.7906706E-10
   11.34000     -3.8061554E-10
   11.40000     -2.8042224E-10
   11.46000     -1.8080476E-10
   11.52000     -8.3705737E-11
   11.58000      9.5488279E-12
   11.64000      9.8346012E-11
   11.70000      1.8262644E-10
   11.76000      2.6248409E-10
   11.82000      3.3770686E-10
   11.88000      4.0753950E-10
   11.94000      4.7089577E-10
   12.00000      5.2703353E-10
   12.06000      5.7643851E-10
   12.12000      6.2149058E-10
   12.18000      6.6652556E-10
   12.24000      7.1715628E-10
   12.30000      7.7904894E-10
   12.36000      8.5659518E-10
   12.42000      9.5194685E-10
   12.48000      1.0646831E-09
   12.54000      1.1920863E-09
   12.60000      1.3297687E-09
   12.66000      1.4723381E-09
   12.72000      1.6138966E-09
   12.78000      1.7483420E-09
   12.84000      1.8695663E-09
   12.90000      1.9716526E-09
   12.96000      2.0491231E-09
   13.02000      2.0972315E-09
   13.08000      2.1123083E-09
   13.14000      2.0922029E-09
   13.20000      2.0368613E-09
   13.26000      1.9489501E-09
   13.32000      1.8342455E-09
   13.38000      1.7013844E-09
   13.44000      1.5606677E-09
   13.50000      1.4219879E-09
   13.56000      1.2924604E-09
   13.62000      1.1747038E-09
   13.68000      1.0666541E-09
   13.74000      9.6323616E-10
   13.80000      8.5935958E-10
   13.86000      7.5297918E-10
   13.92000      6.4678540E-10
   13.98000      5.4762922E-10
   14.04000      4.6383034E-10
   14.10000      4.0156301E-10
   14.16000      3.6201236E-10
   14.22000      3.4067377E-10
   14.28000      3.2916414E-10
   14.34000      3.1872621E-10
   14.40000      3.0382413E-10
   14.46000      2.8422448E-10
   14.52000      2.6470345E-10
   14.58000      2.5262278E-10
   14.64000      2.5453653E-10
   14.70000      2.7332103E-10
   14.76000      3.0697678E-10
   14.82000      3.4945694E-10
   14.88000      3.9303089E-10
   14.94000      4.3113915E-10
   15.00000      4.6060958E-10
   15.06000      4.8244370E-10
   15.12000      5.0096971E-10
   15.18000      5.2177190E-10
   15.24000      5.4925237E-10
   15.30000      5.8482053E-10
   15.36000      6.2647820E-10
   15.42000      6.7002132E-10
   15.48000      7.1137873E-10
   15.54000      7.4903800E-10
   15.60000      7.8535178E-10
   15.66000      8.2592716E-10
   15.72000      8.7716173E-10
   15.78000      9.4293795E-10
   15.84000      1.0220341E-09
   15.90000      1.1076279E-09
   15.96000      1.1893674E-09
   16.02000      1.2572714E-09
   16.08000      1.3057938E-09
   16.14000      1.3362359E-09
   16.20000      1.3564123E-09
   16.26000      1.3777238E-09
   16.32000      1.4109357E-09
   16.38000      1.4624592E-09
   16.44000      1.5325674E-09
   16.50000      1.6160053E-09
   16.56000      1.7043624E-09
   16.62000      1.7889330E-09
   16.68000      1.8627915E-09
   16.74000      1.9214002E-09
   16.80000      1.9618569E-09
   16.86000      1.9815101E-09
   16.92000      1.9768567E-09
   16.98000      1.9433997E-09
   17.04000      1.8766324E-09
   17.10000      1.7737629E-09
   17.16000      1.6354166E-09
   17.22000      1.4664782E-09
   17.28000      1.2754867E-09
   17.34000      1.0725297E-09
   17.40000      8.6621554E-10
   17.46000      6.6080252E-10
   17.52000      4.5469017E-10
   17.58000      2.4109112E-10
   17.64000      1.0897953E-11
   17.70000     -2.4316602E-10
   17.76000     -5.2265064E-10
   17.82000     -8.2128804E-10
   17.88000     -1.1256002E-09
   17.94000     -1.4180371E-09
   18.00000     -1.6814823E-09
   18.06000     -1.9034689E-09
   18.12000     -2.0786677E-09
   18.18000     -2.2089890E-09
   18.24000     -2.3016253E-09
   18.30000     -2.3660969E-09
   18.36000     -2.4115649E-09
   18.42000     -2.4453357E-09
   18.48000     -2.4727771E-09
   18.54000     -2.4981661E-09
   18.60000     -2.5255913E-09
   18.66000     -2.5590923E-09
   18.72000     -2.6016982E-09
   18.78000     -2.6537086E-09
   18.84000     -2.7111107E-09
   18.90000     -2.7651617E-09
   18.96000     -2.8037850E-09
   19.02000     -2.8146261E-09
   19.08000     -2.7887936E-09
   19.14000     -2.7238340E-09
   19.20000     -2.6246796E-09
   19.26000     -2.5021032E-09
   19.32000     -2.3692779E-09
   19.38000     -2.2378375E-09
   19.44000     -2.1149926E-09
   19.50000     -2.0026947E-09
   19.56000     -1.8988624E-09
   19.62000     -1.7998162E-09
   19.68000     -1.7026960E-09
   19.74000     -1.6068930E-09
   19.80000     -1.5141652E-09
   19.86000     -1.4277372E-09
   19.92000     -1.3509925E-09
   19.98000     -1.2863052E-09
   20.04000     -1.2342753E-09
   20.10000     -1.1934016E-09
   20.16000     -1.1601531E-09
   20.22000     -1.1294452E-09
   20.28000     -1.0955363E-09
   20.34000     -1.0532307E-09
   20.40000     -9.9906217E-10
   20.46000     -9.3200969E-10
   20.52000     -8.5340884E-10
   20.58000     -7.6606899E-10
   20.64000     -6.7300382E-10
   20.70000     -5.7640032E-10
   20.76000     -4.7732851E-10
   20.82000     -3.7630490E-10
   20.88000     -2.7436997E-10
   20.94000     -1.7407452E-10
   21.00000     -7.9801013E-11
   21.06000      2.8635898E-12
   21.12000      6.8600021E-11
   21.18000      1.1424022E-10
   21.24000      1.4044084E-10
   21.30000      1.5250658E-10
   21.36000      1.5987976E-10
   21.42000      1.7415965E-10
   21.48000      2.0602323E-10
   21.54000      2.6195129E-10
   21.60000      3.4197886E-10
   21.66000      4.3952730E-10
   21.72000      5.4366506E-10
   21.78000      6.4310318E-10
   21.84000      7.3033879E-10
   21.90000      8.0411416E-10
   21.96000      8.6898938E-10
   22.02000      9.3210484E-10
   22.08000      9.9853636E-10
   22.14000      1.0673488E-09
   22.20000      1.1301784E-09
   22.26000      1.1730377E-09
   22.32000      1.1806250E-09
   22.38000      1.1413885E-09
   22.44000      1.0513816E-09
   22.50000      9.1556118E-10
   22.56000      7.4625678E-10
   22.62000      5.5956473E-10
   22.68000      3.7104403E-10
   22.74000      1.9215292E-10
   22.80000      2.8466783E-11
   22.86000     -1.1994089E-10
   22.92000     -2.5629460E-10
   22.98000     -3.8401621E-10
   23.04000     -5.0394600E-10
   23.10000     -6.1297639E-10
   23.16000     -7.0463813E-10
   23.22000     -7.7137530E-10
   23.28000     -8.0750984E-10
   23.34000     -8.1157958E-10
   23.40000     -7.8701751E-10
   23.46000     -7.4090772E-10
   23.52000     -6.8143352E-10
   23.58000     -6.1519440E-10
   23.64000     -5.4554172E-10
   23.70000     -4.7252513E-10
   23.76000     -3.9427031E-10
   23.82000     -3.0901928E-10
   23.88000     -2.1688752E-10
   23.94000     -1.2063650E-10
   24.00000     -2.5224345E-11
   24.06000      6.3649711E-11
   24.12000      1.4148666E-10
   24.18000      2.0676974E-10
   24.24000      2.6196845E-10
   24.30000      3.1332090E-10
   24.36000      3.6928144E-10
   24.42000      4.3798576E-10
   24.48000      5.2453458E-10
   24.54000      6.2911454E-10
   24.60000      7.4677103E-10
   24.66000      8.6902280E-10
   24.72000      9.8671205E-10
   24.78000      1.0929081E-09
   24.84000      1.1846550E-09
   24.90000      1.2629086E-09
   24.96000      1.3308904E-09
   25.02000      1.3918247E-09
   25.08000      1.4472387E-09
   25.14000      1.4966252E-09
   25.20000      1.5384904E-09
   25.26000      1.5721077E-09
   25.32000      1.5989753E-09
   25.38000      1.6231961E-09
   25.44000      1.6505616E-09
   25.50000      1.6867288E-09
   25.56000      1.7352455E-09
   25.62000      1.7961593E-09
   25.68000      1.8656441E-09
   25.74000      1.9366646E-09
   25.80000      2.0003712E-09
   25.86000      2.0477906E-09
   25.92000      2.0714295E-09
   25.98000      2.0665623E-09
   26.04000      2.0321009E-09
   26.10000      1.9709949E-09
   26.16000      1.8900776E-09
   26.22000      1.7992382E-09
   26.28000      1.7098698E-09
   26.34000      1.6327398E-09
   26.40000      1.5757341E-09
   26.46000      1.5421453E-09
   26.52000      1.5301556E-09
   26.58000      1.5338135E-09
   26.64000      1.5452303E-09
   26.70000      1.5571739E-09
   26.76000      1.5650470E-09
   26.82000      1.5675119E-09
   26.88000      1.5656906E-09
   26.94000      1.5615472E-09
   27.00000      1.5564076E-09
   27.06000      1.5503592E-09
   27.12000      1.5426588E-09
   27.18000      1.5326223E-09
   27.24000      1.5201901E-09
   27.30000      1.5056238E-09
   27.36000      1.4884306E-09
   27.42000      1.4662167E-09
   27.48000      1.4343485E-09
   27.54000      1.3869185E-09
   27.60000      1.3187856E-09
   27.66000      1.2278206E-09
   27.72000      1.1163023E-09
   27.78000      9.9079966E-10
   27.84000      8.6059920E-10
   27.90000      7.3538814E-10
   27.96000      6.2316668E-10
   28.02000      5.2910176E-10
   28.08000      4.5548240E-10
   28.14000      4.0240333E-10
   28.20000      3.6857672E-10
   28.26000      3.5181549E-10
   28.32000      3.4910574E-10
   28.38000      3.5653208E-10
   28.44000      3.6943171E-10
   28.50000      3.8299522E-10
   28.56000      3.9322329E-10
   28.62000      3.9788861E-10
   28.68000      3.9709253E-10
   28.74000      3.9316761E-10
   28.80000      3.8995421E-10
   28.86000      3.9171102E-10
   28.92000      4.0199527E-10
   28.98000      4.2276649E-10
   29.04000      4.5382259E-10
   29.10000      4.9258525E-10
   29.16000      5.3426064E-10
   29.22000      5.7245736E-10
   29.28000      6.0032745E-10
   29.34000      6.1213179E-10
   29.40000      6.0485650E-10
   29.46000      5.7929145E-10
   29.52000      5.4001148E-10
   29.58000      4.9405835E-10
   29.64000      4.4868051E-10
   29.70000      4.0897222E-10
   29.76000      3.7637629E-10
   29.82000      3.4866904E-10
   29.88000      3.2138420E-10
   29.94000      2.8999461E-10
   30.00000      2.5188188E-10
   30.06000      2.0731543E-10
   30.12000      1.5919292E-10
   30.18000      1.1185187E-10
   30.24000      6.9576928E-11
   30.30000      3.5396137E-11
   30.36000      1.0498058E-11
   30.42000     -5.6958227E-12
   30.48000     -1.4952999E-11
   30.54000     -1.9363981E-11
   30.60000     -2.0421524E-11
   30.66000     -1.8301484E-11
   30.72000     -1.1598739E-11
   30.78000      2.3399288E-12
   30.84000      2.6584514E-11
   30.90000      6.3659071E-11
   30.96000      1.1492671E-10
   31.02000      1.8062661E-10
   31.08000      2.6046690E-10
   31.14000      3.5429795E-10
   31.20000      4.6230403E-10
   31.26000      5.8446448E-10
   31.32000      7.1956141E-10
   31.38000      8.6439494E-10
   31.44000      1.0138180E-09
   31.50000      1.1617231E-09
   31.56000      1.3025129E-09
   31.62000      1.4322799E-09
   31.68000      1.5491263E-09
   31.74000      1.6526349E-09
   31.80000      1.7430404E-09
   31.86000      1.8207676E-09
   31.92000      1.8866215E-09
   31.98000      1.9423243E-09
   32.04000      1.9907400E-09
   32.10000      2.0352922E-09
   32.16000      2.0786344E-09
   32.22000      2.1212052E-09
   32.28000      2.1604594E-09
   32.34000      2.1912132E-09
   32.40000      2.2069409E-09
   32.46000      2.2014062E-09
   32.52000      2.1699953E-09
   32.58000      2.1104622E-09
   32.64000      2.0231685E-09
   32.70000      1.9110393E-09
   32.76000      1.7792758E-09
   32.82000      1.6346650E-09
   32.88000      1.4843480E-09
   32.94000      1.3342454E-09
   33.00000      1.1877268E-09
   33.06000      1.0451887E-09
   33.12000      9.0479196E-10
   33.18000      7.6391588E-10
   33.24000      6.2040989E-10
   33.30000      4.7285476E-10
   33.36000      3.1977451E-10
   33.42000      1.5857798E-10
   33.48000     -1.4670768E-11
   33.54000     -2.0405178E-10
   33.60000     -4.1159612E-10
   33.66000     -6.3541056E-10
   33.72000     -8.6948460E-10
   33.78000     -1.1056561E-09
   33.84000     -1.3369179E-09
   33.90000     -1.5603754E-09
   33.96000     -1.7782998E-09
   34.02000     -1.9967796E-09
   34.08000     -2.2227753E-09
   34.14000     -2.4611317E-09
   34.20000     -2.7128810E-09
   34.26000     -2.9752429E-09
   34.32000     -3.2427598E-09
   34.38000     -3.5086007E-09
   34.44000     -3.7653809E-09
   34.50000     -4.0054973E-09
   34.56000     -4.2214290E-09
   34.62000     -4.4063815E-09
   34.68000     -4.5552286E-09
   34.74000     -4.6652802E-09
   34.80000     -4.7364064E-09
   34.86000     -4.7704134E-09
   34.92000     -4.7700426E-09
   34.98000     -4.7381312E-09
   35.04000     -4.6772777E-09
   35.10000     -4.5899107E-09
   35.16000     -4.4784003E-09
   35.22000     -4.3449058E-09
   35.28000     -4.1909640E-09
   35.34000     -4.0170942E-09
   35.40000     -3.8226990E-09
   35.46000     -3.6063097E-09
   35.52000     -3.3660039E-09
   35.58000     -3.0998215E-09
   35.64000     -2.8062255E-09
   35.70000     -2.4848308E-09
   35.76000     -2.1375097E-09
   35.82000     -1.7695339E-09
   35.88000     -1.3899818E-09
   35.94000     -1.0106399E-09
   36.00000     -6.4326094E-10
   36.06000     -2.9604888E-10
   36.12000      2.9042060E-11
   36.18000      3.3670047E-10
   36.24000      6.3587619E-10
   36.30000      9.3556973E-10
   36.36000      1.2407264E-09
   36.42000      1.5501233E-09
   36.48000      1.8570896E-09
   36.54000      2.1524640E-09
   36.60000      2.4281972E-09
   36.66000      2.6799343E-09
   36.72000      2.9076752E-09
   36.78000      3.1146410E-09
   36.84000      3.3051826E-09
   36.90000      3.4826837E-09
   36.96000      3.6480963E-09
   37.02000      3.7993662E-09
   37.08000      3.9317833E-09
   37.14000      4.0392178E-09
   37.20000      4.1160542E-09
   37.26000      4.1593475E-09
   37.32000      4.1704102E-09
   37.38000      4.1550061E-09
   37.44000      4.1217909E-09
   37.50000      4.0794417E-09
   37.56000      4.0336192E-09
   37.62000      3.9851038E-09
   37.68000      3.9299235E-09
   37.74000      3.8613370E-09
   37.80000      3.7727363E-09
   37.86000      3.6602161E-09
   37.92000      3.5239283E-09
   37.98000      3.3680008E-09
   38.04000      3.1993626E-09
   38.10000      3.0260339E-09
   38.16000      2.8553344E-09
   38.22000      2.6923097E-09
   38.28000      2.5386275E-09
   38.34000      2.3922631E-09
   38.40000      2.2482414E-09
   38.46000      2.1004174E-09
   38.52000      1.9438042E-09
   38.58000      1.7765828E-09
   38.64000      1.6009543E-09
   38.70000      1.4224658E-09
   38.76000      1.2481295E-09
   38.82000      1.0841690E-09
   38.88000      9.3429853E-10
   38.94000      7.9907181E-10
   39.00000      6.7632538E-10
   39.06000      5.6235899E-10
   39.12000      4.5340889E-10
   39.18000      3.4704847E-10
   39.24000      2.4324434E-10
   39.30000      1.4479749E-10
   39.36000      5.6919421E-11
   39.42000     -1.4129462E-11
   39.48000     -6.3033953E-11
   39.54000     -8.7357614E-11
   39.60000     -8.8604561E-11
   39.66000     -7.1920088E-11
   39.72000     -4.4571076E-11
   39.78000     -1.3921775E-11
   39.84000      1.4217483E-11
   39.90000      3.6326085E-11
   39.96000      5.1028095E-11
   40.02000      5.8515505E-11
   40.08000      5.9990519E-11
   40.14000      5.7258524E-11
   40.20000      5.2300081E-11
   40.26000      4.6655686E-11
   40.32000      4.0768475E-11
   40.38000      3.3732430E-11
   40.44000      2.3837663E-11
   40.50000      9.8153170E-12
   40.56000     -7.9176839E-12
   40.62000     -2.6935338E-11
   40.68000     -4.3882380E-11
   40.74000     -5.6546445E-11
   40.80000     -6.5755894E-11
   40.86000     -7.5889642E-11
   40.92000     -9.3555462E-11
   40.98000     -1.2511112E-10
   41.04000     -1.7441897E-10
   41.10000     -2.4204483E-10
   41.16000     -3.2615122E-10
   41.22000     -4.2425924E-10
   41.28000     -5.3459459E-10
   41.34000     -6.5618344E-10
   41.40000     -7.8785878E-10
   41.46000     -9.2714841E-10
   41.52000     -1.0700681E-09
   41.58000     -1.2121395E-09
   41.64000     -1.3500367E-09
   41.70000     -1.4828023E-09
   41.76000     -1.6118727E-09
   41.82000     -1.7399537E-09
   41.88000     -1.8694744E-09
   41.94000     -2.0014701E-09
   42.00000     -2.1352877E-09
   42.06000     -2.2688786E-09
   42.12000     -2.3991653E-09
   42.18000     -2.5221634E-09
   42.24000     -2.6330005E-09
   42.30000     -2.7262197E-09
   42.36000     -2.7965876E-09
   42.42000     -2.8401692E-09
   42.48000     -2.8551166E-09
   42.54000     -2.8417479E-09
   42.60000     -2.8019755E-09
   42.66000     -2.7385898E-09
   42.72000     -2.6549232E-09
   42.78000     -2.5549494E-09
   42.84000     -2.4433393E-09
   42.90000     -2.3248707E-09
   42.96000     -2.2030713E-09
   43.02000     -2.0787532E-09
   43.08000     -1.9495263E-09
   43.14000     -1.8110007E-09
   43.20000     -1.6593665E-09
   43.26000     -1.4940269E-09
   43.32000     -1.3187218E-09
   43.38000     -1.1403828E-09
   43.44000     -9.6631847E-10
   43.50000     -8.0133855E-10
   43.56000     -6.4639860E-10
   43.62000     -4.9930143E-10
   43.68000     -3.5668338E-10
   43.74000     -2.1585214E-10
   43.80000     -7.5462088E-11
   43.86000      6.4886395E-11
   43.92000      2.0513974E-10
   43.98000      3.4442885E-10
   44.04000      4.7984566E-10
   44.10000      6.0544203E-10
   44.16000      7.1283091E-10
   44.22000      7.9389612E-10
   44.28000      8.4458890E-10
   44.34000      8.6767887E-10
   44.40000      8.7253565E-10
   44.46000      8.7154378E-10
   44.52000      8.7471586E-10
   44.58000      8.8521207E-10
   44.64000      8.9806929E-10
   44.70000      9.0272623E-10
   44.76000      8.8796481E-10
   44.82000      8.4681778E-10
   44.88000      7.7932949E-10
   44.94000      6.9239037E-10
   45.00000      5.9728877E-10
   45.06000      5.0632470E-10
   45.12000      4.2966558E-10
   45.18000      3.7303238E-10
   45.24000      3.3637876E-10
   45.30000      3.1371944E-10
   45.36000      2.9440902E-10
   45.42000      2.6602617E-10
   45.48000      2.1836870E-10
   45.54000      1.4723606E-10
   45.60000      5.6308777E-11
   45.66000     -4.4011447E-11
   45.72000     -1.4057948E-10
   45.78000     -2.2263962E-10
   45.84000     -2.8579142E-10
   45.90000     -3.3302938E-10
   45.96000     -3.7257500E-10
   46.02000     -4.1377221E-10
   46.08000     -4.6308005E-10
   46.14000     -5.2184551E-10
   46.20000     -5.8642236E-10
   46.26000     -6.5005706E-10
   46.32000     -7.0540412E-10
   46.38000     -7.4668732E-10
   46.44000     -7.7106238E-10
   46.50000     -7.7917534E-10
   46.56000     -7.7501533E-10
   46.62000     -7.6503820E-10
   46.68000     -7.5650847E-10
   46.74000     -7.5525997E-10
   46.80000     -7.6351525E-10
   46.86000     -7.7867085E-10
   46.92000     -7.9376766E-10
   46.98000     -7.9969803E-10
   47.04000     -7.8838625E-10
   47.10000     -7.5567674E-10
   47.16000     -7.0276218E-10
   47.22000     -6.3563788E-10
   47.28000     -5.6291855E-10
   47.34000     -4.9298143E-10
   47.40000     -4.3153245E-10
   47.46000     -3.8036727E-10
   47.52000     -3.3753011E-10
   47.58000     -2.9855723E-10
   47.64000     -2.5820041E-10
   47.70000     -2.1200888E-10
   47.76000     -1.5733477E-10
   47.82000     -9.3607955E-11
   47.88000     -2.1998374E-11
   47.94000      5.5243209E-11
   48.00000      1.3544743E-10
   48.06000      2.1598448E-10
   48.12000      2.9448688E-10
   48.18000      3.6893999E-10
   48.24000      4.3775941E-10
   48.30000      4.9988691E-10
   48.36000      5.5484106E-10
   48.42000      6.0266248E-10
   48.48000      6.4380307E-10
   48.54000      6.7912925E-10
   48.60000      7.1018852E-10
   48.66000      7.3968076E-10
   48.72000      7.7179313E-10
   48.78000      8.1194318E-10
   48.84000      8.6568802E-10
   48.90000      9.3705643E-10
   48.96000      1.0270358E-09
   49.02000      1.1330442E-09
   49.08000      1.2497773E-09
   49.14000      1.3710543E-09
   49.20000      1.4916643E-09
   49.26000      1.6081805E-09
   49.32000      1.7183399E-09
   49.38000      1.8195301E-09
   49.44000      1.9075477E-09
   49.50000      1.9766915E-09
   49.56000      2.0214210E-09
   49.62000      2.0387805E-09
   49.68000      2.0301973E-09
   49.74000      2.0015209E-09
   49.80000      1.9610895E-09
   49.86000      1.9166873E-09
   49.92000      1.8728081E-09
   49.98000      1.8294453E-09
   50.04000      1.7828221E-09
   50.10000      1.7275973E-09
   50.16000      1.6595439E-09
   50.22000      1.5777065E-09
   50.28000      1.4853890E-09
   50.34000      1.3897860E-09
   50.40000      1.3004124E-09
   50.46000      1.2267418E-09
   50.52000      1.1756658E-09
   50.58000      1.1495529E-09
   50.64000      1.1456496E-09
   50.70000      1.1571990E-09
   50.76000      1.1759914E-09
   50.82000      1.1953755E-09
   50.88000      1.2124757E-09
   50.94000      1.2286963E-09
   51.00000      1.2484317E-09
   51.06000      1.2767744E-09
   51.12000      1.3174029E-09
   51.18000      1.3715367E-09
   51.24000      1.4380777E-09
   51.30000      1.5143780E-09
   51.36000      1.5968886E-09
   51.42000      1.6813489E-09
   51.48000      1.7627603E-09
   51.54000      1.8356939E-09
   51.60000      1.8952229E-09
   51.66000      1.9381670E-09
   51.72000      1.9638773E-09
   51.78000      1.9739130E-09
   51.84000      1.9706348E-09
   51.90000      1.9555420E-09
   51.96000      1.9284896E-09
   52.02000      1.8884425E-09
   52.08000      1.8354166E-09
   52.14000      1.7723785E-09
   52.20000      1.7057405E-09
   52.26000      1.6438503E-09
   52.32000      1.5940798E-09
   52.38000      1.5600036E-09
   52.44000      1.5401378E-09
   52.50000      1.5288164E-09
   52.56000      1.5185742E-09
   52.62000      1.5026487E-09
   52.68000      1.4763339E-09
   52.74000      1.4367855E-09
   52.80000      1.3818581E-09
   52.86000      1.3090373E-09
   52.92000      1.2152613E-09
   52.98000      1.0976748E-09
   53.04000      9.5469643E-10
   53.10000      7.8661955E-10
   53.16000      5.9536442E-10
   53.22000      3.8357617E-10
   53.28000      1.5359569E-10
   53.34000     -9.3271696E-11
   53.40000     -3.5713013E-10
   53.46000     -6.3975508E-10
   53.52000     -9.4491359E-10
   53.58000     -1.2786044E-09
   53.64000     -1.6488112E-09
   53.70000     -2.0644686E-09
   53.76000     -2.5338116E-09
   53.82000     -3.0628220E-09
   53.88000     -3.6546237E-09
   53.94000     -4.3102490E-09
   54.00000     -5.0304365E-09
   54.06000     -5.8174838E-09
   54.12000     -6.6761632E-09
   54.18000     -7.6133162E-09
   54.24000     -8.6366816E-09
   54.30000     -9.7539248E-09
   54.36000     -1.0972657E-08
   54.42000     -1.2301456E-08
   54.48000     -1.3751089E-08
   54.54000     -1.5334903E-08
   54.60000     -1.7067844E-08
   54.66000     -1.8964464E-08
   54.72000     -2.1036980E-08
   54.78000     -2.3294307E-08
   54.84000     -2.5742454E-08
   54.90000     -2.8385651E-08
   54.96000     -3.1227433E-08
   55.02000     -3.4271007E-08
   55.08000     -3.7518983E-08
   55.14000     -4.0973056E-08
   55.20000     -4.4634085E-08
   55.26000     -4.8502450E-08
   55.32000     -5.2578027E-08
   55.38000     -5.6859115E-08
   55.44000     -6.1340273E-08
   55.50000     -6.6009974E-08
   55.56000     -7.0849197E-08