  -2.400000      0.0000000E+00
  -2.340000      0.0000000E+00
  -2.280000      0.0000000E+00
  -2.220000      0.0000000E+00
  -2.160000      0.0000000E+00
  -2.100000      0.0000000E+00
  -2.040000      0.0000000E+00
  -1.980000     -1.2040697E-24
  -1.920000     -1.1335328E-23
  -1.860000     -5.0874517E-23
  -1.800000     -1.3590506E-22
  -1.740000     -1.9953426E-22
  -1.680000      3.0766355E-23
  -1.620000      1.0262460E-21
  -1.560000      3.0170621E-21
  -1.500000      5.0276268E-21
  -1.440000      4.0744821E-21
  -1.380000     -3.8234832E-21
  -1.320000     -1.9292035E-20
  -1.260000     -3.3019703E-20
  -1.200000     -2.3033683E-20
  -1.140000      3.4380935E-20
  -1.080000      1.3434520E-19
  -1.020000      2.0425939E-19
 -0.9600000      9.0918704E-20
 -0.9000000     -3.7665961E-19
 -0.8400000     -1.2208863E-18
 -0.7800000     -2.0913202E-18
 -0.7200000     -2.1336805E-18
 -0.6600000     -1.7385103E-19
 -0.6000000      4.6209667E-18
 -0.5400000      1.1693282E-17
 -0.4800000      1.8142329E-17
 -0.4200000      1.8684473E-17
 -0.3600000      7.3098414E-18
 -0.3000000     -1.9227944E-17
 -0.2400000     -5.7157519E-17
 -0.1800000     -9.3003007E-17
 -0.1200000     -1.0525392E-16
 -5.9999999E-02 -7.2014516E-17
  0.0000000E+00  1.6687341E-17
  5.9999999E-02  1.4697029E-16
  0.1200000      2.7699388E-16
  0.1800000      3.4692569E-16
  0.2400000      3.0341300E-16
  0.3000000      1.3015467E-16
  0.3600000     -1.3129346E-16
  0.4200000     -3.8692137E-16
  0.4800000     -5.2857371E-16
  0.5400000     -4.9368378E-16
  0.6000000     -3.1656967E-16
  0.6600000     -1.3468588E-16
  0.7200000     -1.2726175E-16
  0.7800000     -3.9806996E-16
  0.8400000     -8.5501560E-16
  0.9000000     -1.1637741E-15
  0.9600000     -8.3929874E-16
   1.020000      5.1856813E-16
   1.080000      2.9227810E-15
   1.140000      5.7774830E-15
   1.200000      7.8959403E-15
   1.260000      7.8437631E-15
   1.320000      4.5488071E-15
   1.380000     -2.0403406E-15
   1.440000     -1.0559884E-14
   1.500000     -1.8375047E-14
   1.560000     -2.2351001E-14
   1.620000     -2.0058462E-14
   1.680000     -1.0964370E-14
   1.740000      2.9450741E-15
   1.800000      1.7523670E-14
   1.860000      2.7853379E-14
   1.920000      3.0233838E-14
   1.980000      2.3968905E-14
   2.040000      1.2068261E-14
   2.100000      3.0843548E-16
   2.160000     -5.2368905E-15
   2.220000     -1.3240158E-15
   2.280000      1.0066151E-14
   2.340000      2.1420787E-14
   2.400000      2.2133987E-14
   2.460000      3.1782144E-15
   2.520000     -3.7693969E-14
   2.580000     -9.2556679E-14
   2.640000     -1.4372359E-13
   2.700000     -1.6860944E-13
   2.760000     -1.4776819E-13
   2.820000     -7.3180048E-14
   2.880000      4.6691946E-14
   2.940000      1.8755742E-13
   3.000000      3.1585528E-13
   3.060000      3.9876696E-13
   3.120000      4.1354648E-13
   3.180000      3.5225848E-13
   3.240000      2.2029127E-13
   3.300000      3.0372542E-14
   3.360000     -2.0345642E-13
   3.420000     -4.6702057E-13
   3.480000     -7.4000631E-13
   3.540000     -9.8510327E-13
   3.600000     -1.1391842E-12
   3.660000     -1.1151965E-12
   3.720000     -8.2073416E-13
   3.780000     -1.9237361E-13
   3.840000      7.6362864E-13
   3.900000      1.9398517E-12
   3.960000      3.1214031E-12
   4.020000      4.0141284E-12
   4.080000      4.3049531E-12
   4.140000      3.7396874E-12
   4.200000      2.1960402E-12
   4.260000     -2.6980620E-13
   4.320000     -3.4158221E-12
   4.380000     -6.8452522E-12
   4.440000     -1.0063355E-11
   4.500000     -1.2541220E-11
   4.560000     -1.3771330E-11
   4.620000     -1.3309577E-11
   4.680000     -1.0810153E-11
   4.740000     -6.0666897E-12
   4.800000      9.2884511E-13
   4.860000      9.9089417E-12
   4.920000      2.0250171E-11
   4.980000      3.0918323E-11
   5.040000      4.0472143E-11
   5.100000      4.7150259E-11
   5.160000      4.9045813E-11
   5.220000      4.4347154E-11
   5.280000      3.1600372E-11
   5.340000      9.9384355E-12
   5.400000     -2.0771827E-11
   5.460000     -5.9891661E-11
   5.520000     -1.0607674E-10
   5.580000     -1.5741505E-10
   5.640000     -2.1158926E-10
   5.700000     -2.6602198E-10
   5.760000     -3.1798611E-10
   5.820000     -3.6469222E-10
   5.880000     -4.0338741E-10
   5.940000     -4.3149775E-10
   6.000000     -4.4682300E-10
   6.060000     -4.4774856E-10
   6.120000     -4.3340559E-10
   6.180000     -4.0369821E-10
   6.240000     -3.5914813E-10
   6.300000     -3.0057071E-10
   6.360000     -2.2867136E-10
   6.420000     -1.4370342E-10
   6.480000     -4.5329410E-11
   6.540000      6.7230610E-11
   6.600000      1.9478028E-10
   6.660000      3.3757605E-10
   6.720000      4.9478371E-10
   6.780000      6.6413403E-10
   6.840000      8.4187407E-10
   6.900000      1.0230047E-09
   6.960000      1.2016963E-09
   7.020000      1.3717413E-09
   7.080000      1.5269288E-09
   7.140000      1.6613089E-09
   7.200000      1.7693984E-09
   7.260000      1.8464308E-09
   7.320000      1.8887214E-09
   7.380000      1.8941515E-09
   7.440000      1.8626707E-09
   7.500000      1.7966501E-09
   7.560000      1.7009223E-09
   7.620000      1.5824145E-09
   7.680000      1.4493973E-09
   7.740000      1.3104936E-09
   7.800000      1.1736553E-09
   7.860000      1.0453186E-09
   7.920000      9.2987801E-10
   7.980000      8.2951834E-10
   8.040000      7.4434764E-10
   8.100000      6.7271677E-10
   8.160000      6.1160776E-10
   8.220000      5.5701521E-10
   8.280000      5.0430599E-10
   8.340000      4.4859205E-10
   8.400000      3.8516401E-10
   8.460000      3.1000569E-10
   8.520000      2.2034694E-10
   8.580000      1.1515099E-10
   8.640000     -4.6012105E-12
   8.700000     -1.3594328E-10
   8.760000     -2.7430580E-10
   8.820000     -4.1416817E-10
   8.880000     -5.4980043E-10
   8.940000     -6.7587597E-10
   9.000000     -7.8779022E-10
   9.060000     -8.8164848E-10
   9.120000     -9.5404629E-10
   9.180000     -1.0018755E-09
   9.240000     -1.0223918E-09
   9.300000     -1.0136572E-09
   9.360000     -9.7525954E-10
   9.420000     -9.0901947E-10
   9.480000     -8.1930324E-10
   9.540000     -7.1265088E-10
   9.600000     -5.9667382E-10
   9.660000     -4.7848975E-10
   9.720000     -3.6319475E-10
   9.780000     -2.5291960E-10
   9.840000     -1.4681975E-10
   9.900000     -4.1993742E-11
   9.960000      6.5054587E-11
   10.02000      1.7701611E-10
   10.08000      2.9501021E-10
   10.14000      4.1873729E-10
   10.20000      5.4742177E-10
   10.26000      6.8106432E-10
   10.32000      8.2138790E-10
   10.38000      9.7200459E-10
   10.44000      1.1376827E-09
   10.50000      1.3229944E-09
   10.56000      1.5308937E-09
   10.62000      1.7618019E-09
   10.68000      2.0135564E-09
   10.74000      2.2822262E-09
   10.80000      2.5634457E-09
   10.86000      2.8537361E-09
   10.92000      3.1513059E-09
   10.98000      3.4560441E-09
   11.04000      3.7687435E-09
   11.10000      4.0898640E-09
   11.16000      4.4183288E-09
   11.22000      4.7507949E-09
   11.28000      5.0816662E-09
   11.34000      5.4038432E-09
   11.40000      5.7099241E-09
   11.46000      5.9934546E-09
   11.52000      6.2498375E-09
   11.58000      6.4766863E-09
   11.64000      6.6736434E-09
   11.70000      6.8418609E-09
   11.76000      6.9834205E-09
   11.82000      7.1008803E-09
   11.88000      7.1970008E-09
   11.94000      7.2745849E-09
   12.00000      7.3363471E-09
   12.06000      7.3847741E-09
   12.12000      7.4220514E-09
   12.18000      7.4501174E-09
   12.24000      7.4708577E-09
   12.30000      7.4862951E-09
   12.36000      7.4985751E-09
   12.42000      7.5095876E-09
   12.48000      7.5202991E-09
   12.54000      7.5300708E-09
   12.60000      7.5363733E-09
   12.66000      7.5351814E-09
   12.72000      7.5220159E-09
   12.78000      7.4932300E-09
   12.84000      7.4469613E-09
   12.90000      7.3832505E-09
   12.96000      7.3032167E-09
   13.02000      7.2075936E-09
   13.08000      7.0952755E-09
   13.14000      6.9624924E-09
   13.20000      6.8030066E-09
   13.26000      6.6093042E-09
   13.32000      6.3744316E-09
   13.38000      6.0939587E-09
   13.44000      5.7675735E-09
   13.50000      5.3999103E-09
   13.56000      5.0003788E-09
   13.62000      4.5819166E-09
   13.68000      4.1588071E-09
   13.74000      3.7439905E-09
   13.80000      3.3465415E-09
   13.86000      2.9701057E-09
   13.92000      2.6128755E-09
   13.98000      2.2692168E-09
   14.04000      1.9324373E-09
   14.10000      1.5977303E-09
   14.16000      1.2642517E-09
   14.22000      9.3566133E-10
   14.28000      6.1909211E-10
   14.34000      3.2310279E-10
   14.40000      5.5449617E-11
   14.46000     -1.7861124E-10
   14.52000     -3.7715225E-10
   14.58000     -5.4159655E-10
   14.64000     -6.7619904E-10
   14.70000     -7.8724138E-10
   14.76000     -8.8207164E-10
   14.82000     -9.6804376E-10
   14.88000     -1.0514465E-09
   14.94000     -1.1366078E-09
   15.00000     -1.2253774E-09
   15.06000     -1.3170639E-09
   15.12000     -1.4086918E-09
   15.18000     -1.4952954E-09
   15.24000     -1.5700427E-09
   15.30000     -1.6242409E-09
   15.36000     -1.6475801E-09
   15.42000     -1.6290475E-09
   15.48000     -1.5586864E-09
   15.54000     -1.4298631E-09
   15.60000     -1.2412402E-09
   15.66000     -9.9755693E-10
   15.72000     -7.0871858E-10
   15.78000     -3.8744158E-10
   15.84000     -4.6392775E-11
   15.90000      3.0397532E-10
   15.96000      6.5603378E-10
   16.02000      1.0039352E-09
   16.08000      1.3416140E-09
   16.14000      1.6609258E-09
   16.20000      1.9508533E-09
   16.26000      2.1981137E-09
   16.32000      2.3888347E-09
   16.38000      2.5105704E-09
   16.44000      2.5539748E-09
   16.50000      2.5138038E-09
   16.56000      2.3893267E-09
   16.62000      2.1844342E-09
   16.68000      1.9076647E-09
   16.74000      1.5721344E-09
   16.80000      1.1951728E-09
   16.86000      7.9746221E-10
   16.92000      4.0167458E-10
   16.98000      3.0827493E-11
   17.04000     -2.9329794E-10
   17.10000     -5.5141519E-10
   17.16000     -7.2761447E-10
   17.22000     -8.1000245E-10
   17.28000     -7.9126850E-10
   17.34000     -6.6920020E-10
   17.40000     -4.4696949E-10
   17.46000     -1.3289778E-10
   17.52000      2.6049363E-10
   17.58000      7.1806577E-10
   17.64000      1.2238900E-09
   17.70000      1.7627826E-09
   17.76000      2.3211126E-09
   17.82000      2.8867768E-09
   17.88000      3.4486094E-09
   17.94000      3.9957295E-09
   18.00000      4.5172888E-09
   18.06000      5.0028106E-09
   18.12000      5.4429456E-09
   18.18000      5.8302172E-09
   18.24000      6.1593330E-09
   18.30000      6.4268595E-09
   18.36000      6.6304029E-09
   18.42000      6.7676962E-09
   18.48000      6.8360473E-09
   18.54000      6.8324204E-09
   18.60000      6.7541035E-09
   18.66000      6.5996453E-09
   18.72000      6.3696470E-09
   18.78000      6.0671042E-09
   18.84000      5.6972591E-09
   18.90000      5.2671685E-09
   18.96000      4.7852691E-09
   19.02000      4.2611306E-09
   19.08000      3.7053243E-09
   19.14000      3.1291265E-09
   19.20000      2.5437688E-09
   19.26000      1.9591520E-09
   19.32000      1.3823409E-09
   19.38000      8.1646634E-10
   19.44000      2.6070243E-10
   19.50000     -2.8833108E-10
   19.56000     -8.3399643E-10
   19.62000     -1.3767300E-09
   19.68000     -1.9119109E-09
   19.74000     -2.4294060E-09
   19.80000     -2.9150706E-09
   19.86000     -3.3537175E-09
   19.92000     -3.7325334E-09
   19.98000     -4.0438253E-09
   20.04000     -4.2863371E-09
   20.10000     -4.4649742E-09
   20.16000     -4.5892978E-09
   20.22000     -4.6714246E-09
   20.28000     -4.7239155E-09
   20.34000     -4.7580588E-09
   20.40000     -4.7827386E-09
   20.46000     -4.8039692E-09
   20.52000     -4.8250977E-09
   20.58000     -4.8475850E-09
   20.64000     -4.8721063E-09
   20.70000     -4.8995812E-09
   20.76000     -4.9317435E-09
   20.82000     -4.9710613E-09
   20.88000     -5.0201585E-09
   20.94000     -5.0811222E-09
   21.00000     -5.1551177E-09
   21.06000     -5.2424465E-09
   21.12000     -5.3428688E-09
   21.18000     -5.4557820E-09
   21.24000     -5.5800133E-09
   21.30000     -5.7133378E-09
   21.36000     -5.8521832E-09
   21.42000     -5.9920096E-09
   21.48000     -6.1284897E-09
   21.54000     -6.2590546E-09
   21.60000     -6.3840151E-09
   21.66000     -6.5065828E-09
   21.72000     -6.6316814E-09
   21.78000     -6.7641506E-09
   21.84000     -6.9072947E-09
   21.90000     -7.0625390E-09
   21.96000     -7.2302639E-09
   22.02000     -7.4111908E-09
   22.08000     -7.6073707E-09
   22.14000     -7.8221287E-09
   22.20000     -8.0589615E-09
   22.26000     -8.3200282E-09
   22.32000     -8.6050607E-09
   22.38000     -8.9112042E-09
   22.44000     -9.2337480E-09
   22.50000     -9.5672537E-09
   22.56000     -9.9065192E-09
   22.62000     -1.0247065E-08
   22.68000     -1.0585182E-08
   22.74000     -1.0917773E-08
   22.80000     -1.1242214E-08
   22.86000     -1.1556286E-08
   22.92000     -1.1858192E-08
   22.98000     -1.2146698E-08
   23.04000     -1.2421455E-08
   23.10000     -1.2683524E-08
   23.16000     -1.2935838E-08
   23.22000     -1.3183171E-08
   23.28000     -1.3431201E-08
   23.34000     -1.3684642E-08
   23.40000     -1.3945026E-08
   23.46000     -1.4209097E-08
   23.52000     -1.4468638E-08
   23.58000     -1.4711940E-08
   23.64000     -1.4926275E-08
   23.70000     -1.5100273E-08
   23.76000     -1.5225277E-08
   23.82000     -1.5295493E-08
   23.88000     -1.5307441E-08
   23.94000     -1.5259635E-08
   24.00000     -1.5152947E-08
   24.06000     -1.4991471E-08
   24.12000     -1.4783090E-08
   24.18000     -1.4539073E-08
   24.24000     -1.4272528E-08
   24.30000     -1.3996368E-08
   24.36000     -1.3721657E-08
   24.42000     -1.3456916E-08
   24.48000     -1.3208204E-08
   24.54000     -1.2979263E-08
   24.60000     -1.2771076E-08
   24.66000     -1.2580816E-08
   24.72000     -1.2400903E-08
   24.78000     -1.2219148E-08
   24.84000     -1.2020489E-08
   24.90000     -1.1789970E-08
   24.96000     -1.1515807E-08
   25.02000     -1.1191390E-08
   25.08000     -1.0815643E-08
   25.14000     -1.0392085E-08
   25.20000     -9.9274562E-09
   25.26000     -9.4306447E-09
   25.32000     -8.9121173E-09
   25.38000     -8.3834522E-09
   25.44000     -7.8565341E-09
   25.50000     -7.3423556E-09
   25.56000     -6.8498642E-09
   25.62000     -6.3854535E-09
   25.68000     -5.9532645E-09
   25.74000     -5.5558416E-09
   25.80000     -5.1943303E-09
   25.86000     -4.8676503E-09
   25.92000     -4.5708619E-09
   25.98000     -4.2936983E-09
   26.04000     -4.0204000E-09
   26.10000     -3.7314272E-09
   26.16000     -3.4066612E-09
   26.22000     -3.0289582E-09
   26.28000     -2.5868621E-09
   26.34000     -2.0758468E-09
   26.40000     -1.4982339E-09
   26.46000     -8.6237290E-10
   26.52000     -1.8159416E-10
   26.58000      5.2692173E-10
   26.64000      1.2434571E-09
   26.70000      1.9472350E-09
   26.76000      2.6177183E-09
   26.82000      3.2352570E-09
   26.88000      3.7809555E-09
   26.94000      4.2362887E-09
   27.00000      4.5834816E-09
   27.06000      4.8074340E-09
   27.12000      4.8990279E-09
   27.18000      4.8585238E-09
   27.24000      4.6971893E-09
   27.30000      4.4358814E-09
   27.36000      4.1007495E-09
   27.42000      3.7177121E-09
   27.48000      3.3079837E-09
   27.54000      2.8862552E-09
   27.60000      2.4616356E-09
   27.66000      2.0400652E-09
   27.72000      1.6264839E-09
   27.78000      1.2256749E-09
   27.84000      8.4190022E-10
   27.90000      4.7823662E-10
   27.96000      1.3645875E-10
   28.02000     -1.8244889E-10
   28.08000     -4.7783605E-10
   28.14000     -7.4976897E-10
   28.20000     -1.0003693E-09
   28.26000     -1.2353137E-09
   28.32000     -1.4642874E-09
   28.38000     -1.6996474E-09
   28.44000     -1.9536275E-09
   28.50000     -2.2353563E-09
   28.56000     -2.5491236E-09
   28.62000     -2.8945901E-09
   28.68000     -3.2685490E-09
   28.74000     -3.6670975E-09
   28.80000     -4.0871497E-09
   28.86000     -4.5268931E-09
   28.92000     -4.9854973E-09
   28.98000     -5.4626312E-09
   29.04000     -5.9580070E-09
   29.10000     -6.4707604E-09
   29.16000     -6.9983823E-09
   29.22000     -7.5353794E-09
   29.28000     -8.0724121E-09
   29.34000     -8.5968246E-09
   29.40000     -9.0948582E-09
   29.46000     -9.5547819E-09
   29.52000     -9.9693533E-09
   29.58000     -1.0336127E-08
   29.64000     -1.0655252E-08
   29.70000     -1.0925865E-08
   29.76000     -1.1143108E-08
   29.82000     -1.1297493E-08
   29.88000     -1.1377066E-08
   29.94000     -1.1371243E-08
   30.00000     -1.1274384E-08
   30.06000     -1.1087490E-08
   30.12000     -1.0817510E-08
   30.18000     -1.0474954E-08
   30.24000     -1.0071033E-08
   30.30000     -9.6152846E-09
   30.36000     -9.1140677E-09
   30.42000     -8.5698559E-09
   30.48000     -7.9812974E-09
   30.54000     -7.3442221E-09
   30.60000     -6.6537837E-09
   30.66000     -5.9073977E-09
   30.72000     -5.1074922E-09
   30.78000     -4.2627204E-09
   30.84000     -3.3867797E-09
   30.90000     -2.4951328E-09
   30.96000     -1.6011172E-09
   31.02000     -7.1333522E-10
   31.08000      1.6448075E-10
   31.14000      1.0313559E-09
   31.20000      1.8862021E-09
   31.26000      2.7259675E-09
   31.32000      3.5457690E-09
   31.38000      4.3406438E-09
   31.44000      5.1075815E-09
   31.50000      5.8465277E-09
   31.56000      6.5598891E-09
   31.62000      7.2510997E-09
   31.68000      7.9232514E-09
   31.74000      8.5784322E-09
   31.80000      9.2176595E-09
   31.86000      9.8407682E-09
   31.92000      1.0445829E-08
   31.98000      1.1028337E-08
   32.04000      1.1581014E-08
   32.10000      1.2094940E-08
   32.16000      1.2561932E-08
   32.22000      1.2977062E-08
   32.28000      1.3339829E-08
   32.34000      1.3653112E-08
   32.40000      1.3920331E-08
   32.46000      1.4142383E-08
   32.52000      1.4316190E-08
   32.58000      1.4435731E-08
   32.64000      1.4494993E-08
   32.70000      1.4491121E-08
   32.76000      1.4426018E-08
   32.82000      1.4305576E-08
   32.88000      1.4137158E-08
   32.94000      1.3926740E-08
   33.00000      1.3677142E-08
   33.06000      1.3387872E-08
   33.12000      1.3056149E-08
   33.18000      1.2678185E-08
   33.24000      1.2250050E-08
   33.30000      1.1768003E-08
   33.36000      1.1228694E-08
   33.42000      1.0629646E-08
   33.48000      9.9700133E-09
   33.54000      9.2513064E-09
   33.60000      8.4775751E-09
   33.66000      7.6549389E-09
   33.72000      6.7906893E-09
   33.78000      5.8924545E-09
   33.84000      4.9677267E-09
   33.90000      4.0237613E-09
   33.96000      3.0676217E-09
   34.02000      2.1061879E-09
   34.08000      1.1462017E-09
   34.14000      1.9458581E-10
   34.20000     -7.4084849E-10
   34.26000     -1.6505727E-09
   34.32000     -2.5229860E-09
   34.38000     -3.3450955E-09
   34.44000     -4.1043040E-09
   34.50000     -4.7907189E-09
   34.56000     -5.3989946E-09
   34.62000     -5.9288925E-09
   34.68000     -6.3844019E-09
   34.74000     -6.7720265E-09
   34.80000     -7.0991355E-09
   34.86000     -7.3730519E-09
   34.92000     -7.6008284E-09
   34.98000     -7.7891480E-09
   35.04000     -7.9436937E-09
   35.10000     -8.0678548E-09
   35.16000     -8.1613161E-09
   35.22000     -8.2194234E-09
   35.28000     -8.2339797E-09
   35.34000     -8.1953839E-09
   35.40000     -8.0952676E-09
   35.46000     -7.9284561E-09
   35.52000     -7.6934521E-09
   35.58000     -7.3913871E-09
   35.64000     -7.0241586E-09
   35.70000     -6.5928258E-09
   35.76000     -6.0971228E-09
   35.82000     -5.5363909E-09
   35.88000     -4.9115791E-09
   35.94000     -4.2275392E-09
   36.00000     -3.4946834E-09
   36.06000     -2.7292184E-09
   36.12000     -1.9515485E-09
   36.18000     -1.1830007E-09
   36.24000     -4.4166731E-10
   36.30000      2.6130142E-10
   36.36000      9.2350555E-10
   36.42000      1.5502546E-09
   36.48000      2.1507867E-09
   36.54000      2.7330633E-09
   36.60000      3.2992193E-09
   36.66000      3.8435788E-09
   36.72000      4.3540642E-09
   36.78000      4.8162905E-09
   36.84000      5.2184550E-09
   36.90000      5.5548961E-09
   36.96000      5.8269927E-09
   37.02000      6.0414123E-09
   37.08000      6.2068533E-09
   37.14000      6.3308230E-09
   37.20000      6.4175767E-09
   37.26000      6.4675105E-09
   37.32000      6.4776708E-09
   37.38000      6.4428343E-09
   37.44000      6.3568431E-09
   37.50000      6.2141088E-09
   37.56000      6.0111991E-09
   37.62000      5.7481393E-09
   37.68000      5.4288605E-09
   37.74000      5.0603686E-09
   37.80000      4.6508215E-09
   37.86000      4.2073802E-09
   37.92000      3.7350283E-09
   37.98000      3.2371517E-09
   38.04000      2.7177081E-09
   38.10000      2.1838431E-09
   38.16000      1.6474270E-09
   38.22000      1.1244710E-09
   38.28000      6.3247102E-10
   38.34000      1.8677332E-10
   38.40000     -2.0253450E-10
   38.46000     -5.3210547E-10
   38.52000     -8.0496948E-10
   38.58000     -1.0288774E-09
   38.64000     -1.2141508E-09
   38.70000     -1.3715551E-09
   38.76000     -1.5103065E-09
   38.82000     -1.6362068E-09
   38.88000     -1.7501918E-09
   38.94000     -1.8479797E-09
   39.00000     -1.9215263E-09
   39.06000     -1.9623705E-09
   39.12000     -1.9659057E-09
   39.18000     -1.9347774E-09
   39.24000     -1.8795983E-09
   39.30000     -1.8162049E-09
   39.36000     -1.7602930E-09
   39.42000     -1.7216156E-09
   39.48000     -1.7002381E-09
   39.54000     -1.6864459E-09
   39.60000     -1.6642406E-09
   39.66000     -1.6168474E-09
   39.72000     -1.5319989E-09
   39.78000     -1.4051765E-09
   39.84000     -1.2400870E-09
   39.90000     -1.0467612E-09
   39.96000     -8.3829604E-10
   40.02000     -6.2730782E-10
   40.08000     -4.2290293E-10
   40.14000     -2.2873696E-10
   40.20000     -4.2625545E-11
   40.26000      1.4196186E-10
   40.32000      3.3260480E-10
   40.38000      5.3363414E-10
   40.44000      7.4236467E-10
   40.50000      9.4761987E-10
   40.56000      1.1316817E-09
   40.62000      1.2754168E-09
   40.68000      1.3647882E-09
   40.74000      1.3960828E-09
   40.80000      1.3774969E-09
   40.86000      1.3262079E-09
   40.92000      1.2620190E-09
   40.98000      1.2001692E-09
   41.04000      1.1462264E-09
   41.10000      1.0949910E-09
   41.16000      1.0335591E-09
   41.22000      9.4698382E-10
   41.28000      8.2408669E-10
   41.34000      6.6122530E-10
   41.40000      4.6294066E-10
   41.46000      2.3979513E-10
   41.52000      4.7288675E-12
   41.58000     -2.3047077E-10
   41.64000     -4.5742077E-10
   41.70000     -6.7174905E-10
   41.76000     -8.7242402E-10
   41.82000     -1.0605278E-09
   41.88000     -1.2381146E-09
   41.94000     -1.4074488E-09
   42.00000     -1.5705712E-09
   42.06000     -1.7290044E-09
   42.12000     -1.8835131E-09
   42.18000     -2.0340445E-09
   42.24000     -2.1800719E-09
   42.30000     -2.3214386E-09
   42.36000     -2.4594715E-09
   42.42000     -2.5978297E-09
   42.48000     -2.7424940E-09
   42.54000     -2.9005989E-09
   42.60000     -3.0783607E-09
   42.66000     -3.2788532E-09
   42.72000     -3.5005732E-09
   42.78000     -3.7374517E-09
   42.84000     -3.9803765E-09
   42.90000     -4.2196668E-09
   42.96000     -4.4476161E-09
   43.02000     -4.6602593E-09
   43.08000     -4.8579105E-09
   43.14000     -5.0444098E-09
   43.20000     -5.2253828E-09
   43.26000     -5.4059415E-09
   43.32000     -5.5883858E-09
   43.38000     -5.7705209E-09
   43.44000     -5.9452314E-09
   43.50000     -6.1017542E-09
   43.56000     -6.2286070E-09
   43.62000     -6.3174053E-09
   43.68000     -6.3662600E-09
   43.74000     -6.3813386E-09
   43.80000     -6.3758034E-09
   43.86000     -6.3663825E-09
   43.92000     -6.3688432E-09
   43.98000     -6.3940728E-09
   44.04000     -6.4460730E-09
   44.10000     -6.5222667E-09
   44.16000     -6.6155637E-09
   44.22000     -6.7171775E-09
   44.28000     -6.8193389E-09
   44.34000     -6.9174528E-09
   44.40000     -7.0115789E-09
   44.46000     -7.1070079E-09
   44.52000     -7.2134965E-09
   44.58000     -7.3427397E-09
   44.64000     -7.5042843E-09
   44.70000     -7.7010949E-09
   44.76000     -7.9267535E-09
   44.82000     -8.1661078E-09
   44.88000     -8.3998115E-09
   44.94000     -8.6112539E-09
   45.00000     -8.7928731E-09
   45.06000     -8.9487759E-09
   45.12000     -9.0922407E-09
   45.18000     -9.2391224E-09
   45.24000     -9.4002521E-09
   45.30000     -9.5763291E-09
   45.36000     -9.7574278E-09
   45.42000     -9.9268824E-09
   45.48000     -1.0067277E-08
   45.54000     -1.0165691E-08
   45.60000     -1.0216203E-08
   45.66000     -1.0219407E-08
   45.72000     -1.0179977E-08
   45.78000     -1.0103853E-08
   45.84000     -9.9959951E-09
   45.90000     -9.8590016E-09
   45.96000     -9.6924415E-09
   46.02000     -9.4929709E-09
   46.08000     -9.2555599E-09
   46.14000     -8.9760919E-09
   46.20000     -8.6548759E-09
   46.26000     -8.2997165E-09
   46.32000     -7.9268352E-09
   46.38000     -7.5585813E-09
   46.44000     -7.2183539E-09
   46.50000     -6.9246657E-09
   46.56000     -6.6868444E-09
   46.62000     -6.5041084E-09
   46.68000     -6.3680554E-09
   46.74000     -6.2669958E-09
   46.80000     -6.1899499E-09
   46.86000     -6.1287517E-09
   46.92000     -6.0780487E-09
   46.98000     -6.0341283E-09
   47.04000     -5.9937797E-09
   47.10000     -5.9538259E-09
   47.16000     -5.9111573E-09
   47.22000     -5.8627196E-09
   47.28000     -5.8051945E-09
   47.34000     -5.7347105E-09
   47.40000     -5.6472387E-09
   47.46000     -5.5399227E-09
   47.52000     -5.4128289E-09
   47.58000     -5.2699507E-09
   47.64000     -5.1185087E-09
   47.70000     -4.9665370E-09
   47.76000     -4.8199191E-09
   47.82000     -4.6805795E-09
   47.88000     -4.5469948E-09
   47.94000     -4.4168478E-09
   48.00000     -4.2903676E-09
   48.06000     -4.1724566E-09
   48.12000     -4.0724504E-09
   48.18000     -4.0017127E-09
   48.24000     -3.9703947E-09
   48.30000     -3.9848853E-09
   48.36000     -4.0468016E-09
   48.42000     -4.1533199E-09
   48.48000     -4.2980908E-09
   48.54000     -4.4721244E-09
   48.60000     -4.6646718E-09
   48.66000     -4.8645545E-09
   48.72000     -5.0622049E-09
   48.78000     -5.2519433E-09
   48.84000     -5.4333831E-09
   48.90000     -5.6109073E-09
   48.96000     -5.7911036E-09
   49.02000     -5.9792833E-09
   49.08000     -6.1769492E-09
   49.14000     -6.3816965E-09
   49.20000     -6.5896621E-09
   49.26000     -6.7991239E-09
   49.32000     -7.0130786E-09
   49.38000     -7.2391968E-09
   49.44000     -7.4870172E-09
   49.50000     -7.7637976E-09
   49.56000     -8.0710967E-09
   49.62000     -8.4036396E-09
   49.68000     -8.7507059E-09
   49.74000     -9.0990140E-09
   49.80000     -9.4356087E-09
   49.86000     -9.7496509E-09
   49.92000     -1.0032878E-08
   49.98000     -1.0279259E-08
   50.04000     -1.0484476E-08
   50.10000     -1.0645546E-08
   50.16000     -1.0760496E-08
   50.22000     -1.0827821E-08
   50.28000     -1.0845736E-08
   50.34000     -1.0811528E-08
   50.40000     -1.0721459E-08
   50.46000     -1.0571434E-08
   50.52000     -1.0358192E-08
   50.58000     -1.0080499E-08
   50.64000     -9.7398090E-09
   50.70000     -9.3401642E-09
   50.76000     -8.8874943E-09
   50.82000     -8.3885521E-09
   50.88000     -7.8497724E-09
   50.94000     -7.2761095E-09
   51.00000     -6.6700450E-09
   51.06000     -6.0310894E-09
   51.12000     -5.3562315E-09
   51.18000     -4.6415849E-09
   51.24000     -3.8848493E-09
   51.30000     -3.0875460E-09
   51.36000     -2.2557203E-09
   51.42000     -1.3983310E-09
   51.48000     -5.2372368E-10
   51.54000      3.6423234E-10
   51.60000      1.2683086E-09
   51.66000      2.1970359E-09
   51.72000      3.1609912E-09
   51.78000      4.1680246E-09
   51.84000      5.2198637E-09
   51.90000      6.3118644E-09
   51.96000      7.4360402E-09
   52.02000      8.5858449E-09
   52.08000      9.7604032E-09
   52.14000      1.0966381E-08
   52.20000      1.2217062E-08
   52.26000      1.3529649E-08
   52.32000      1.4922502E-08
   52.38000      1.6413800E-08
   52.44000      1.8022158E-08
   52.50000      1.9768764E-08
   52.56000      2.1680098E-08
   52.62000      2.3790260E-08
   52.68000      2.6142349E-08
   52.74000      2.8788653E-08
   52.80000      3.1789746E-08
   52.86000      3.5212771E-08
   52.92000      3.9129411E-08
   52.98000      4.3614250E-08
   53.04000      4.8744216E-08
   53.10000      5.4599422E-08
   53.16000      6.1265141E-08
   53.22000      6.8834019E-08
   53.28000      7.7407485E-08
   53.34000      8.7095785E-08
   53.40000      9.8016820E-08
   53.46000      1.1029454E-07
   53.52000      1.2405764E-07
   53.58000      1.3943865E-07
   53.64000      1.5657315E-07
   53.70000      1.7559769E-07
   53.76000      1.9664685E-07
   53.82000      2.1984950E-07
   53.88000      2.4532548E-07
   53.94000      2.7318379E-07
   54.00000      3.0352220E-07
   54.06000      3.3642652E-07
   54.12000      3.7196764E-07
   54.18000      4.1019564E-07
   54.24000      4.5113069E-07
   54.30000      4.9475381E-07
   54.36000      5.4099957E-07
   54.42000      5.8975172E-07
   54.48000      6.4084202E-07
   54.54000      6.9404888E-07
   54.60000      7.4909354E-07
   54.66000      8.0563314E-07
   54.72000      8.6325076E-07
   54.78000      9.2144654E-07
   54.84000      9.7963084E-07
   54.90000      1.0371207E-06
   54.96000      1.0931384E-06
   55.02000      1.1468100E-06
   55.08000      1.1971637E-06
   55.14000      1.2431276E-06
   55.20000      1.2835301E-06
   55.26000      1.3171028E-06
   55.32000      1.3424875E-06
   55.38000      1.3582440E-06
   55.44000      1.3628580E-06
   55.50000      1.3547467E-06
   55.56000      1.3322655E-06