 -0.750000000       0.00000000    
 -0.689999998       0.00000000    
 -0.629999995       0.00000000    
 -0.569999993       0.00000000    
 -0.509999990       0.00000000    
 -0.449999988       0.00000000    
 -0.389999986       0.00000000    
 -0.330000013      -1.20598580E-24
 -0.270000011      -1.14070762E-23
 -0.209999993      -5.14562735E-23
 -0.150000006      -1.38193385E-22
  -9.00000036E-02  -2.04114919E-22
  -2.99999993E-02   3.03664716E-23
   2.99999993E-02   1.05308644E-21
   9.00000036E-02   3.10332236E-21
  0.150000006       5.15313569E-21
  0.209999993       4.04418012E-21
  0.270000011      -4.45184769E-21
  0.330000013      -2.09678443E-20
  0.389999986      -3.54187171E-20
  0.449999988      -2.39845849E-20
  0.509999990       3.91552438E-20
  0.569999993       1.49032433E-19
  0.629999995       2.27630023E-19
  0.689999998       1.10212278E-19
  0.750000000      -3.86577508E-19
  0.810000002      -1.28626409E-18
  0.870000005      -2.21522566E-18
  0.930000007      -2.27006505E-18
  0.990000010      -2.22926390E-19
   1.04999995       4.77434587E-18
   1.11000001       1.20988871E-17
   1.16999996       1.86992929E-17
   1.23000002       1.91172673E-17
   1.28999996       7.26014521E-18
   1.35000002      -2.00011296E-17
   1.40999997      -5.85643080E-17
   1.47000003      -9.45419993E-17
   1.52999997      -1.06169704E-16
   1.59000003      -7.16606152E-17
   1.64999998       1.84720498E-17
   1.71000004       1.49721914E-16
   1.76999998       2.79848277E-16
   1.83000004       3.49077021E-16
   1.88999999       3.04459455E-16
   1.95000005       1.30014541E-16
   2.00999999      -1.32876877E-16
   2.06999993      -3.90821002E-16
   2.13000011      -5.36014731E-16
   2.19000006      -5.04983150E-16
   2.25000000      -3.29424507E-16
   2.30999994      -1.43332083E-16
   2.36999989      -1.23853608E-16
   2.43000007      -3.76546538E-16
   2.49000001      -8.15936091E-16
   2.54999995      -1.11722936E-15
   2.60999990      -8.03221121E-16
   2.67000008       5.25195950E-16
   2.73000002       2.88916670E-15
   2.78999996       5.70786111E-15
   2.84999990       7.80964123E-15
   2.91000009       7.76756826E-15
   2.97000003       4.50518148E-15
   3.02999997      -2.04268750E-15
   3.08999991      -1.05276454E-14
   3.15000010      -1.83232640E-14
   3.21000004      -2.22917557E-14
   3.26999998      -1.99924899E-14
   3.32999992      -1.08807252E-14
   3.39000010       3.06130561E-15
   3.45000005       1.76804829E-14
   3.50999999       2.80433229E-14
   3.56999993       3.04297738E-14
   3.63000011       2.41212622E-14
   3.69000006       1.21005179E-14
   3.75000000       1.13362231E-16
   3.80999994      -5.78826868E-15
   3.86999989      -2.34423399E-15
   3.93000007       8.55696316E-15
   3.99000001       1.95950484E-14
   4.05000019       2.04387085E-14
   4.11000013       2.33802693E-15
   4.17000008      -3.68072780E-14
   4.23000002      -8.92029506E-14
   4.28999996      -1.37671721E-13
   4.34999990      -1.60496765E-13
   4.40999985      -1.39283821E-13
   4.46999979      -6.69260586E-14
   4.53000021       4.77333762E-14
   4.59000015       1.80894633E-13
   4.65000010       3.00492975E-13
   4.71000004       3.76032213E-13
   4.76999998       3.87394733E-13
   4.82999992       3.28817621E-13
   4.88999987       2.06617059E-13
   4.94999981       3.26628136E-14
   5.01000023      -1.81710726E-13
   5.07000017      -4.26383890E-13
   5.13000011      -6.85503574E-13
   5.19000006      -9.25539159E-13
   5.25000000      -1.08559277E-12
   5.30999994      -1.07890465E-12
   5.36999989      -8.11562677E-13
   5.42999983      -2.17301966E-13
   5.48999977       7.01336829E-13
   5.55000019       1.84133091E-12
   5.61000013       2.99297783E-12
   5.67000008       3.86825771E-12
   5.73000002       4.16094589E-12
   5.78999996       3.62342990E-12
   5.84999990       2.13790227E-12
   5.90999985      -2.39360913E-13
   5.96999979      -3.27269505E-12
   6.03000021      -6.57919292E-12
   6.09000015      -9.68476774E-12
   6.15000010      -1.20853804E-11
   6.21000004      -1.32983893E-11
   6.26999998      -1.28994948E-11
   6.32999992      -1.05526846E-11
   6.38999987      -6.04757086E-12
   6.44999981       6.43542131E-13
   6.51000023       9.28784653E-12
   6.57000017       1.93085426E-11
   6.63000011       2.97246741E-11
   6.69000006       3.91479904E-11
   6.75000000       4.58623556E-11
   6.80999994       4.79909827E-11
   6.86999989       4.37308315E-11
   6.92999983       3.16108251E-11
   6.98999977       1.07195936E-11
   7.05000019      -1.91455775E-11
   7.11000013      -5.74347687E-11
   7.17000008      -1.02902430E-10
   7.23000002      -1.53733706E-10
   7.28999996      -2.07694903E-10
   7.34999990      -2.62269040E-10
   7.40999985      -3.14760523E-10
   7.46999979      -3.62381930E-10
   7.53000021      -4.02355704E-10
   7.59000015      -4.32061886E-10
   7.65000010      -4.49237397E-10
   7.71000004      -4.52191062E-10
   7.76999998      -4.39964731E-10
   7.82999992      -4.12361867E-10
   7.88999987      -3.69795805E-10
   7.94999981      -3.12972370E-10
   8.01000023      -2.42495968E-10
   8.06999969      -1.58536115E-10
   8.13000011      -6.06935613E-11
   8.18999958       5.18537296E-11
   8.25000000       1.79941451E-10
   8.31000042       3.23861521E-10
   8.36999989       4.82829998E-10
   8.43000031       6.54645449E-10
   8.48999977       8.35630121E-10
   8.55000019       1.02084252E-09
   8.60999966       1.20446086E-09
   8.67000008       1.38020062E-09
   8.72999954       1.54166480E-09
   8.78999996       1.68260128E-09
   8.85000038       1.79712500E-09
   8.90999985       1.88000282E-09
   8.97000027       1.92706961E-09
   9.02999973       1.93576444E-09
   9.09000015       1.90567695E-09
   9.14999962       1.83893545E-09
   9.21000004       1.74026293E-09
   9.27000046       1.61662106E-09
   9.32999992       1.47646628E-09
   9.39000034       1.32876676E-09
   9.44999981       1.18198862E-09
   9.51000023       1.04324993E-09
   9.56999969       9.17774134E-10
   9.63000011       8.08666967E-10
   9.68999958       7.16960658E-10
   9.75000000       6.41817266E-10
   9.81000042       5.80797799E-10
   9.86999989       5.30146704E-10
   9.93000031       4.85104290E-10
   9.98999977       4.40293024E-10
   10.0500002       3.90224714E-10
   10.1099997       3.29925059E-10
   10.1700001       2.55605759E-10
   10.2299995       1.65250189E-10
   10.2900000       5.89592541E-11
   10.3500004      -6.10575202E-11
   10.4099998      -1.90863811E-10
   10.4700003      -3.25451111E-10
   10.5299997      -4.59469435E-10
   10.5900002      -5.87811411E-10
   10.6499996      -7.05893954E-10
   10.7100000      -8.09617540E-10
   10.7700005      -8.95142072E-10
   10.8299999      -9.58716773E-10
   10.8900003      -9.96793870E-10
   10.9499998      -1.00652120E-09
   11.0100002      -9.86505655E-10
   11.0699997      -9.37548927E-10
   11.1300001      -8.62983573E-10
   11.1899996      -7.68331287E-10
   11.2500000      -6.60250910E-10
   11.3100004      -5.45041401E-10
   11.3699999      -4.27190339E-10
   11.4300003      -3.08492315E-10
   11.4899998      -1.88076013E-10
   11.5500002      -6.33297095E-11
   11.6099997       6.86473448E-11
   11.6700001       2.09659179E-10
   11.7299995       3.59655972E-10
   11.7900000       5.16899190E-10
   11.8500004       6.78943513E-10
   11.9099998       8.43980219E-10
   11.9700003       1.01193864E-09
   12.0299997       1.18485899E-09
   12.0900002       1.36637945E-09
   12.1499996       1.56056235E-09
   12.2100000       1.77056003E-09
   12.2700005       1.99766936E-09
   12.3299999       2.24112839E-09
   12.3900003       2.49867993E-09
   12.4499998       2.76760193E-09
   12.5100002       3.04572767E-09
   12.5699997       3.33201378E-09
   12.6300001       3.62642427E-09
   12.6899996       3.92920763E-09
   12.7500000       4.23988089E-09
   12.8100004       4.55636018E-09
   12.8699999       4.87458918E-09
   12.9300003       5.18882137E-09
   12.9899998       5.49244472E-09
   13.0500002       5.77905102E-09
   13.1099997       6.04338801E-09
   13.1700001       6.28192831E-09
   13.2299995       6.49297904E-09
   13.2900000       6.67643629E-09
   13.3500004       6.83339030E-09
   13.4099998       6.96577684E-09
   13.4700003       7.07612102E-09
   13.5299997       7.16733117E-09
   13.5900002       7.24243865E-09
   13.6499996       7.30425231E-09
   13.7100000       7.35502015E-09
   13.7700005       7.39627604E-09
   13.8299999       7.42900275E-09
   13.8900003       7.45408268E-09
   13.9499998       7.47280104E-09
   14.0100002       7.48706785E-09
   14.0699997       7.49911599E-09
   14.1300001       7.51071472E-09
   14.1899996       7.52222018E-09
   14.2500000       7.53196350E-09
   14.3100004       7.53636531E-09
   14.3699999       7.53080620E-09
   14.4300003       7.51092788E-09
   14.4899998       7.47373718E-09
   14.5500002       7.41801731E-09
   14.6099997       7.34381578E-09
   14.6700001       7.25126581E-09
   14.7299995       7.13927761E-09
   14.7900000       7.00469238E-09
   14.8500004       6.84228141E-09
   14.9099998       6.64563782E-09
   14.9700003       6.40871622E-09
   15.0299997       6.12760021E-09
   15.0900002       5.80206505E-09
   15.1499996       5.43654366E-09
   15.2100000       5.04017628E-09
   15.2700005       4.62575800E-09
   15.3299999       4.20763469E-09
   15.3900003       3.79891585E-09
   15.4499998       3.40873063E-09
   15.5100002       3.04041348E-09
   15.5699997       2.69134004E-09
   15.6300001       2.35460296E-09
   15.6899996       2.02204009E-09
   15.7500000       1.68756553E-09
   15.8100004       1.34962730E-09
   15.8699999       1.01196818E-09
   15.9300003       6.82569834E-10
   15.9899998       3.71333742E-10
   16.0499992       8.74305281E-11
   16.1100006      -1.62817038E-10
   16.1700001      -3.77031129E-10
   16.2299995      -5.56825752E-10
   16.2900009      -7.07071401E-10
   16.3500004      -8.34718350E-10
   16.4099998      -9.47445900E-10
   16.4699993      -1.05232723E-09
   16.5300007      -1.15469245E-09
   16.5900002      -1.25738775E-09
   16.6499996      -1.36057887E-09
   16.7099991      -1.46207368E-09
   16.7700005      -1.55791002E-09
   16.8299999      -1.64283975E-09
   16.8899994      -1.71046177E-09
   16.9500008      -1.75308512E-09
   17.0100002      -1.76174497E-09
   17.0699997      -1.72689363E-09
   17.1299992      -1.64000424E-09
   17.1900005      -1.49576596E-09
   17.2500000      -1.29403865E-09
   17.3099995      -1.04061337E-09
   17.3700008      -7.46234130E-10
   17.4300003      -4.24124930E-10
   17.4899998      -8.70047714E-11
   17.5499992       2.55143268E-10
   17.6100006       5.95636263E-10
   17.6700001       9.29892718E-10
   17.7299995       1.25321153E-09
   17.7900009       1.55869717E-09
   17.8500004       1.83632265E-09
   17.9099998       2.07348161E-09
   17.9699993       2.25667618E-09
   18.0300007       2.37357001E-09
   18.0900002       2.41469555E-09
   18.1499996       2.37448461E-09
   18.2099991       2.25173014E-09
   18.2700005       2.04977679E-09
   18.3299999       1.77665171E-09
   18.3899994       1.44508305E-09
   18.4500008       1.07215892E-09
   18.5100002       6.78415213E-10
   18.5699997       2.86365237E-10
   18.6299992      -8.12437131E-11
   18.6900005      -4.03052924E-10
   18.7500000      -6.60313304E-10
   18.8099995      -8.37680647E-10
   18.8700008      -9.23770394E-10
   18.9300003      -9.11677900E-10
   18.9899998      -7.99486588E-10
   19.0499992      -5.90539340E-10
   19.1100006      -2.93142233E-10
   19.1700001       8.05044642E-11
   19.2299995       5.16015286E-10
   19.2900009       9.98698346E-10
   19.3500004       1.51499258E-09
   19.4099998       2.05302553E-09
   19.4699993       2.60225463E-09
   19.5300007       3.15258997E-09
   19.5900002       3.69360853E-09
   19.6499996       4.21437063E-09
   19.7099991       4.70396744E-09
   19.7700005       5.15251264E-09
   19.8299999       5.55202906E-09
   19.8899994       5.89674398E-09
   19.9500008       6.18263218E-09
   20.0100002       6.40644648E-09
   20.0699997       6.56475141E-09
   20.1299992       6.65346578E-09
   20.1900005       6.66815536E-09
   20.2500000       6.60493038E-09
   20.3099995       6.46152865E-09
   20.3700008       6.23810559E-09
   20.4300003       5.93746208E-09
   20.4899998       5.56475088E-09
   20.5499992       5.12696952E-09
   20.6100006       4.63257610E-09
   20.6700001       4.09137479E-09
   20.7299995       3.51452245E-09
   20.7900009       2.91427749E-09
   20.8500004       2.30314456E-09
   20.9099998       1.69236969E-09
   20.9699993       1.09017917E-09
   21.0300007       5.00489039E-10
   21.0900002      -7.71752107E-11
   21.1499996      -6.46197151E-10
   21.2099991      -1.21011301E-09
   21.2700005      -1.76948045E-09
   21.3299999      -2.31954722E-09
   21.3899994      -2.84967583E-09
   21.4500008      -3.34484640E-09
   21.5100002      -3.78877729E-09
   21.5699997      -4.16762536E-09
   21.6299992      -4.47307480E-09
   21.6900005      -4.70393680E-09
   21.7500000      -4.86595209E-09
   21.8099995      -4.97010832E-09
   21.8700008      -5.03012521E-09
   21.9300003      -5.05987963E-09
   21.9899998      -5.07136066E-09
   22.0499992      -5.07349762E-09
   22.1100006      -5.07192954E-09
   22.1700001      -5.06955322E-09
   22.2299995      -5.06756637E-09
   22.2900009      -5.06660225E-09
   22.3500004      -5.06760811E-09
   22.4099998      -5.07223641E-09
   22.4699993      -5.08274400E-09
   22.5300007      -5.10161202E-09
   22.5900002      -5.13115372E-09
   22.6499996      -5.17329557E-09
   22.7099991      -5.22950128E-09
   22.7700005      -5.30064259E-09
   22.8299999      -5.38665734E-09
   22.8899994      -5.48604318E-09
   22.9500008      -5.59551827E-09
   23.0100002      -5.71026826E-09
   23.0699997      -5.82500137E-09
   23.1299992      -5.93557381E-09
   23.1900005      -6.04053696E-09
   23.2500000      -6.14183993E-09
   23.3099995      -6.24427088E-09
   23.3700008      -6.35383568E-09
   23.4300003      -6.47585141E-09
   23.4899998      -6.61366029E-09
   23.5499992      -6.76852929E-09
   23.6100006      -6.94061475E-09
   23.6700001      -7.13029547E-09
   23.7299995      -7.33904670E-09
   23.7900009      -7.56934959E-09
   23.8500004      -7.82372922E-09
   23.9099998      -8.10348855E-09
   23.9699993      -8.40780068E-09
   24.0300007      -8.73353034E-09
   24.0900002      -9.07576503E-09
   24.1499996      -9.42870582E-09
   24.2099991      -9.78655734E-09
   24.2700005      -1.01442037E-08
   24.3299999      -1.04976010E-08
   24.3899994      -1.08439071E-08
   24.4500008      -1.11813341E-08
   24.5100002      -1.15087602E-08
   24.5699997      -1.18252323E-08
   24.6299992      -1.21296786E-08
   24.6900005      -1.24211246E-08
   24.7500000      -1.26994761E-08
   24.8099995      -1.29664732E-08
   24.8700008      -1.32261215E-08
   24.9300003      -1.34839784E-08
   24.9899998      -1.37452201E-08
   25.0499992      -1.40121381E-08
   25.1100006      -1.42822083E-08
   25.1700001      -1.45477106E-08
   25.2299995      -1.47971519E-08
   25.2900009      -1.50178519E-08
   25.3500004      -1.51984754E-08
   25.4099998      -1.53305457E-08
   25.4699993      -1.54086113E-08
   25.5300007      -1.54296433E-08
   25.5900002      -1.53925388E-08
   25.6499996      -1.52982764E-08
   25.7099991      -1.51506239E-08
   25.7700005      -1.49566954E-08
   25.8299999      -1.47266865E-08
   25.8899994      -1.44725973E-08
   25.9500008      -1.42064680E-08
   26.0100002      -1.39388714E-08
   26.0699997      -1.36781733E-08
   26.1299992      -1.34304532E-08
   26.1900005      -1.31994948E-08
   26.2500000      -1.29863240E-08
   26.3099995      -1.27882842E-08
   26.3700008      -1.25982753E-08
   26.4300003      -1.24049500E-08
   26.4899998      -1.21942945E-08
   26.5499992      -1.19522428E-08
   26.6100006      -1.16674173E-08
   26.6700001      -1.13330154E-08
   26.7299995      -1.09474119E-08
   26.7900009      -1.05136886E-08
   26.8500004      -1.00387236E-08
   26.9099998      -9.53229229E-09
   26.9699993      -9.00626063E-09
   27.0300007      -8.47357562E-09
   27.0900002      -7.94687871E-09
   27.1499996      -7.43695772E-09
   27.2099991      -6.95163083E-09
   27.2700005      -6.49556275E-09
   27.3299999      -6.07101436E-09
   27.3899994      -5.67884584E-09
   27.4500008      -5.31887245E-09
   27.5100002      -4.98904562E-09
   27.5699997      -4.68379069E-09
   27.6299992      -4.39255121E-09
   27.6900005      -4.09968148E-09
   27.7500000      -3.78621579E-09
   27.8099995      -3.43304318E-09
   27.8700008      -3.02434677E-09
   27.9300003      -2.55014521E-09
   27.9899998      -2.00737360E-09
   28.0499992      -1.39967971E-09
   28.1100006      -7.36517514E-10
   28.1700001      -3.20123754E-11
   28.2299995       6.96273927E-10
   28.2900009       1.42875045E-09
   28.3500004       2.14529949E-09
   28.4099998       2.82648149E-09
   28.4699993       3.45396356E-09
   28.5300007       4.01009315E-09
   28.5900002       4.47723103E-09
   28.6499996       4.83793716E-09
   28.7099991       5.07684073E-09
   28.7700005       5.18405718E-09
   28.8299999       5.15882093E-09
   28.8899994       5.01142550E-09
   28.9500008       4.76211470E-09
   29.0100002       4.43696990E-09
   29.0699997       4.06238598E-09
   29.1299992       3.66037844E-09
   29.1900005       3.24642979E-09
   29.2500000       2.83013546E-09
   29.3099995       2.41753084E-09
   29.3700008       2.01342187E-09
   29.4300003       1.62255287E-09
   29.4899998       1.24949484E-09
   29.5499992       8.97976526E-10
   29.6100006       5.70460623E-10
   29.6700001       2.68202238E-10
   29.7299995      -8.60949419E-12
   29.7900009      -2.61185351E-10
   29.8500004      -4.93047103E-10
   29.9099998      -7.10952519E-10
   29.9699993      -9.24968491E-10
   30.0300007      -1.14718857E-09
   30.0900002      -1.38939682E-09
   30.1499996      -1.66066261E-09
   30.2099991      -1.96591055E-09
   30.2700005      -2.30594255E-09
   30.3299999      -2.67859313E-09
   30.3899994      -3.08023673E-09
   30.4500008      -3.50698781E-09
   30.5100002      -3.95540400E-09
   30.5699997      -4.42290471E-09
   30.6299992      -4.90807261E-09
   30.6900005      -5.41066347E-09
   30.7500000      -5.93090910E-09
   30.8099995      -6.46792353E-09
   30.8700008      -7.01768998E-09
   30.9300003      -7.57171037E-09
   30.9899998      -8.11740364E-09
   31.0499992      -8.64051053E-09
   31.1100006      -9.12854858E-09
   31.1700001      -9.57356594E-09
   31.2299995      -9.97261829E-09
   31.2900009      -1.03256177E-08
   31.3500004      -1.06317106E-08
   31.4099998      -1.08862084E-08
   31.4699993      -1.10798224E-08
   31.5300007      -1.12006129E-08
   31.5900002      -1.12376517E-08
   31.6499996      -1.11845617E-08
   31.7099991      -1.10413803E-08
   31.7700005      -1.08142117E-08
   31.8299999      -1.05131548E-08
   31.8899994      -1.01495212E-08
   31.9500008      -9.73320713E-09
   32.0099983      -9.27071220E-09
   32.0699997      -8.76401884E-09
   32.1300011      -8.21056645E-09
   32.1899986      -7.60459695E-09
   32.2500000      -6.93987445E-09
   32.3100014      -6.21312557E-09
   32.3699989      -5.42692069E-09
   32.4300003      -4.59060656E-09
   32.4900017      -3.71863762E-09
   32.5499992      -2.82694734E-09
   32.6100006      -1.92905225E-09
   32.6699982      -1.03375819E-09
   32.7299995      -1.45406950E-10
   32.7900009       7.33860195E-10
   32.8499985       1.60143965E-09
   32.9099998       2.45286347E-09
   32.9700012       3.28235705E-09
   33.0299988       4.08474277E-09
   33.0900002       4.85732832E-09
   33.1500015       5.60060753E-09
   33.2099991       6.31754915E-09
   33.2700005       7.01213843E-09
   33.3300018       7.68811148E-09
   33.3899994       8.34834868E-09
   33.4500008       8.99467434E-09
   33.5099983       9.62746860E-09
   33.5699997       1.02448494E-08
   33.6300011       1.08418705E-08
   33.6899986       1.14106262E-08
   33.7500000       1.19418058E-08
   33.8100014       1.24273383E-08
   33.8699989       1.28628201E-08
   33.9300003       1.32482629E-08
   33.9900017       1.35865301E-08
   34.0499992       1.38802099E-08
   34.1100006       1.41286796E-08
   34.1699982       1.43271093E-08
   34.2299995       1.44680268E-08
   34.2900009       1.45446100E-08
   34.3499985       1.45538497E-08
   34.4099998       1.44978998E-08
   34.4700012       1.43830032E-08
   34.5299988       1.42167567E-08
   34.5900002       1.40052165E-08
   34.6500015       1.37511771E-08
   34.7099991       1.34540983E-08
   34.7700005       1.31111912E-08
   34.8300018       1.27187807E-08
   34.8899994       1.22732651E-08
   34.9500008       1.17715251E-08
   35.0099983       1.12110836E-08
   35.0699997       1.05903686E-08
   35.1300011       9.90914995E-09
   35.1899986       9.16898291E-09
   35.2500000       8.37339265E-09
   35.3100014       7.52771978E-09
   35.3699989       6.63873401E-09
   35.4300003       5.71420289E-09
   35.4900017       4.76245710E-09
   35.5499992       3.79192233E-09
   35.6100006       2.81059065E-09
   35.6699982       1.82560256E-09
   35.7299995       8.43261849E-10
   35.7900009      -1.30282105E-10
   35.8499985      -1.08783071E-09
   35.9099998      -2.02000372E-09
   35.9700012      -2.91495206E-09
   36.0299988      -3.75938702E-09
   36.0900002      -4.54071314E-09
   36.1500015      -5.24939958E-09
   36.2099991      -5.88053872E-09
   36.2700005      -6.43395204E-09
   36.3300018      -6.91301061E-09
   36.3899994      -7.32296712E-09
   36.4500008      -7.66972708E-09
   36.5099983      -7.95946331E-09
   36.5699997      -8.19879098E-09
   36.6300011      -8.39471781E-09
   36.6899986      -8.55378168E-09
   36.7500000      -8.68038263E-09
   36.8100014      -8.77503581E-09
   36.8699989      -8.83354989E-09
   36.9300003      -8.84775897E-09
   36.9900017      -8.80769857E-09
   37.0499992      -8.70433858E-09
   37.1100006      -8.53171489E-09
   37.1699982      -8.28764168E-09
   37.2299995      -7.97288546E-09
   37.2900009      -7.58942598E-09
   37.3499985      -7.13877801E-09
   37.4099998      -6.62129107E-09
   37.4700012      -6.03684835E-09
   37.5299988      -5.38678346E-09
   37.5900002      -4.67626737E-09
   37.6500015      -3.91615229E-09
   37.7099991      -3.12329074E-09
   37.7700005      -2.31880959E-09
   37.8300018      -1.52453750E-09
   37.8899994      -7.58596130E-10
   37.9500008      -3.17016552E-11
   38.0099983       6.54325538E-10
   38.0699997       1.30507971E-09
   38.1300011       1.92953853E-09
   38.1899986       2.53501642E-09
   38.2500000       3.12312354E-09
   38.3100014       3.68832254E-09
   38.3699989       4.21951674E-09
   38.4300003       4.70377826E-09
   38.4900017       5.13049558E-09
   38.5499992       5.49424417E-09
   38.6100006       5.79547432E-09
   38.6699982       6.03916250E-09
   38.7299995       6.23233820E-09
   38.7900009       6.38156861E-09
   38.8499985       6.49113341E-09
   38.9099998       6.56212418E-09
   38.9700012       6.59236310E-09
   39.0299988       6.57701227E-09
   39.0900002       6.50980425E-09
   39.1500015       6.38480113E-09
   39.2099991       6.19833562E-09
   39.2700005       5.95050631E-09
   39.3300018       5.64554492E-09
   39.3899994       5.29074651E-09
   39.4500008       4.89435958E-09
   39.5099983       4.46344162E-09
   39.5699997       4.00283806E-09
   39.6300011       3.51592222E-09
   39.6899986       3.00678238E-09
   39.7500000       2.48270671E-09
   39.8100014       1.95555461E-09
   39.8699989       1.44110934E-09
   39.9300003       9.56487112E-10
   39.9900017       5.16602594E-10
   40.0499992       1.31072778E-10
   40.1100006      -1.97367747E-10
   40.1699982      -4.72593298E-10
   40.2299995      -7.03331060E-10
   40.2900009      -9.00649444E-10
   40.3499985      -1.07536036E-09
   40.4099998      -1.23575195E-09
   40.4700012      -1.38590905E-09
   40.5299988      -1.52490454E-09
   40.5900002      -1.64723157E-09
   40.6500015      -1.74471992E-09
   40.7099991      -1.80971071E-09
   40.7700005      -1.83860183E-09
   40.8300018      -1.83439797E-09
   40.8899994      -1.80700144E-09
   40.9500008      -1.77075088E-09
   41.0099983      -1.73988179E-09
   41.0699997      -1.72356873E-09
   41.1300011      -1.72250092E-09
   41.1899986      -1.72836701E-09
   41.2500000      -1.72644876E-09
   41.3100014      -1.70030678E-09
   41.3699989      -1.63683000E-09
   41.4300003      -1.52995427E-09
   41.4900017      -1.38200151E-09
   41.5499992      -1.20248733E-09
   41.6100006      -1.00500230E-09
   41.6699982      -8.03210110E-10
   41.7299995      -6.07115525E-10
   41.7900009      -4.20638135E-10
   41.8499985      -2.41233200E-10
   41.9099998      -6.18140122E-11
   41.9700012       1.25445723E-10
   42.0299988       3.24589855E-10
   42.0900002       5.32302313E-10
   42.1500015       7.36873618E-10
   42.2099991       9.20525156E-10
   42.2700005       1.06459419E-09
   42.3300018       1.15577348E-09
   42.3899994       1.19093135E-09
   42.4500008       1.17842169E-09
   42.5099983       1.13514675E-09
   42.5699997       1.08040776E-09
   42.6300011       1.02895759E-09
   42.6899986       9.86018267E-10
   42.7500000       9.46167367E-10
   42.8100014       8.96341834E-10
   42.8699989       8.21512802E-10
   42.9300003       7.10600467E-10
   42.9900017       5.60331559E-10
   43.0499992       3.75827175E-10
   43.1100006       1.68191544E-10
   43.1699982      -4.94557138E-11
   43.2299995      -2.65698102E-10
   43.2900009      -4.72961670E-10
   43.3499985      -6.67743083E-10
   43.4099998      -8.49513737E-10
   43.4700012      -1.01930420E-09
   43.5299988      -1.17876120E-09
   43.5900002      -1.32986833E-09
   43.6500015      -1.47497037E-09
   43.7099991      -1.61658775E-09
   43.7700005      -1.75681436E-09
   43.8300018      -1.89659399E-09
   43.8899994      -2.03547668E-09
   43.9500008      -2.17231300E-09
   44.0099983      -2.30677011E-09
   44.0699997      -2.44093812E-09
   44.1300011      -2.58002397E-09
   44.1899986      -2.73146972E-09
   44.2500000      -2.90261837E-09
   44.3100014      -3.09785642E-09
   44.3699989      -3.31652661E-09
   44.4300003      -3.55259377E-09
   44.4900017      -3.79625442E-09
   44.5499992      -4.03681355E-09
   44.6100006      -4.26568958E-09
   44.6699982      -4.47847581E-09
   44.7299995      -4.67550754E-09
   44.7900009      -4.86094631E-09
   44.8499985      -5.04081488E-09
   44.9099998      -5.22054844E-09
   44.9700012      -5.40264367E-09
   45.0299988      -5.58498714E-09
   45.0900002      -5.76045611E-09
   45.1500015      -5.91819305E-09
   45.2099991      -6.04652595E-09
   45.2700005      -6.13680085E-09
   45.3300018      -6.18682305E-09
   45.3899994      -6.20249052E-09
   45.4500008      -6.19679597E-09
   45.5099983      -6.18643670E-09
   45.5699997      -6.18728579E-09
   45.6300011      -6.21042950E-09
   45.6899986      -6.26008134E-09
   45.7500000      -6.33377839E-09
   45.8100014      -6.42433351E-09
   45.8699989      -6.52259180E-09
   45.9300003      -6.62017374E-09
   45.9900017      -6.71178579E-09
   46.0499992      -6.79693146E-09
   46.1100006      -6.88070934E-09
   46.1699982      -6.97314384E-09
   46.2299995      -7.08658066E-09
   46.2900009      -7.23137994E-09
   46.3499985      -7.41123429E-09
   46.4099998      -7.62022268E-09
   46.4700012      -7.84345477E-09
   46.5299988      -8.06173439E-09
   46.5900002      -8.25862667E-09
   46.6500015      -8.42682280E-09
   46.7099991      -8.57073790E-09
   46.7700005      -8.70391048E-09
   46.8300018      -8.84235174E-09
   46.8899994      -8.99693919E-09
   46.9500008      -9.16835674E-09
   47.0099983      -9.34664524E-09
   47.0699997      -9.51507495E-09
   47.1300011      -9.65609903E-09
   47.1899986      -9.75658132E-09
   47.2500000      -9.81035075E-09
   47.3100014      -9.81780524E-09
   47.3699989      -9.78359527E-09
   47.4300003      -9.71381375E-09
   47.4900017      -9.61368674E-09
   47.5499992      -9.48604661E-09
   47.6100006      -9.33055766E-09
   47.6699982      -9.14378084E-09
   47.7299995      -8.92041552E-09
   47.7900009      -8.65590355E-09
   47.8499985      -8.34993852E-09
   47.9099998      -8.00954680E-09
   47.9700012      -7.65014896E-09
   48.0299988      -7.29354577E-09
   48.0900002      -6.96320468E-09
   48.1500015      -6.67853550E-09
   48.2099991      -6.45046105E-09
   48.2700005      -6.27996188E-09
   48.3300018      -6.15984241E-09
   48.3899994      -6.07852879E-09
   48.4500008      -6.02404215E-09
   48.5099983      -5.98665206E-09
   48.5699997      -5.95971361E-09
   48.6300011      -5.93913541E-09
   48.6899986      -5.92228622E-09
   48.7500000      -5.90696247E-09
   48.8100014      -5.89058891E-09
   48.8699989      -5.86964788E-09
   48.9300003      -5.83944937E-09
   48.9900017      -5.79454484E-09
   49.0499992      -5.72999870E-09
   49.1100006      -5.64324854E-09
   49.1699982      -5.53568835E-09
   49.2299995      -5.41293232E-09
   49.2900009      -5.28323030E-09
   49.3499985      -5.15451859E-09
   49.4099998      -5.03152719E-09
   49.4700012      -4.91451457E-09
   49.5299988      -4.80043294E-09
   49.5900002      -4.68599426E-09
   49.6500015      -4.57103777E-09
   49.7099991      -4.46046089E-09
   49.7700005      -4.36378267E-09
   49.8300018      -4.29269909E-09
   49.8899994      -4.25791269E-09
   49.9500008      -4.26661240E-09
   50.0099983      -4.32131442E-09
   50.0699997      -4.41990711E-09
   50.1300011      -4.55632154E-09
   50.1899986      -4.72138995E-09
   50.2500000      -4.90395724E-09
   50.3100014      -5.09254905E-09
   50.3699989      -5.27762412E-09
   50.4300003      -5.45380363E-09
   50.4900017      -5.62101210E-09
   50.5499992      -5.78369797E-09
   50.6100006      -5.94821437E-09