 -0.750000000       0.00000000    
 -0.689999998       0.00000000    
 -0.629999995       0.00000000    
 -0.569999993       0.00000000    
 -0.509999990       0.00000000    
 -0.449999988       0.00000000    
 -0.389999986       0.00000000    
 -0.330000013      -5.27962220E-25
 -0.270000011      -4.90374635E-24
 -0.209999993      -2.09081240E-23
 -0.150000006      -4.70009260E-23
  -9.00000036E-02  -1.71461174E-23
  -2.99999993E-02   2.94828446E-22
   2.99999993E-02   1.31026651E-21
   9.00000036E-02   3.38296454E-21
  0.150000006       5.99055711E-21
  0.209999993       6.45813508E-21
  0.270000011      -9.97833971E-22
  0.330000013      -2.43448544E-20
  0.389999986      -6.91690108E-20
  0.449999988      -1.29673331E-19
  0.509999990      -1.76786811E-19
  0.569999993      -1.48544487E-19
  0.629999995       4.74367790E-20
  0.689999998       5.04890728E-19
  0.750000000       1.24821337E-18
  0.810000002       2.11787043E-18
  0.870000005       2.64631332E-18
  0.930000007       2.01854817E-18
  0.990000010      -7.36345118E-19
   1.04999995      -6.19796796E-18
   1.11000001      -1.36930784E-17
   1.16999996      -2.04770777E-17
   1.23000002      -2.16436274E-17
   1.28999996      -1.15039333E-17
   1.35000002       1.33296830E-17
   1.40999997       5.00295610E-17
   1.47000003       8.69432138E-17
   1.52999997       1.04939660E-16
   1.59000003       8.42348524E-17
   1.64999998       1.53017279E-17
   1.71000004      -9.10671393E-17
   1.76999998      -2.01334120E-16
   1.83000004      -2.69187759E-16
   1.88999999      -2.56395788E-16
   1.95000005      -1.55166073E-16
   2.00999999       1.79711419E-18
   2.06999993       1.53796077E-16
   2.13000011       2.45379966E-16
   2.19000006       2.63417612E-16
   2.25000000       2.52767205E-16
   2.30999994       2.92092324E-16
   2.36999989       4.33655617E-16
   2.43000007       6.38166163E-16
   2.49000001       7.50513808E-16
   2.54999995       5.50374533E-16
   2.60999990      -1.26837837E-16
   2.67000008      -1.25048247E-15
   2.73000002      -2.51633393E-15
   2.78999996      -3.39526105E-15
   2.84999990      -3.31899124E-15
   2.91000009      -1.94043474E-15
   2.97000003       6.44087506E-16
   3.02999997       3.82075429E-15
   3.08999991       6.58481126E-15
   3.15000010       7.83645830E-15
   3.21000004       6.74715106E-15
   3.26999998       3.07652848E-15
   3.32999992      -2.65295653E-15
   3.39000010      -9.16729952E-15
   3.45000005      -1.46394093E-14
   3.50999999      -1.70522471E-14
   3.56999993      -1.46856861E-14
   3.63000011      -6.65394694E-15
   3.69000006       6.62551120E-15
   3.75000000       2.31799612E-14
   3.80999994       3.95662066E-14
   3.86999989       5.13154345E-14
   3.93000007       5.36420206E-14
   3.99000001       4.22636644E-14
   4.05000019       1.42470857E-14
   4.11000013      -3.10508692E-14
   4.17000008      -9.07788181E-14
   4.23000002      -1.57096924E-13
   4.28999996      -2.15820282E-13
   4.34999990      -2.46229144E-13
   4.40999985      -2.23432573E-13
   4.46999979      -1.24333730E-13
   4.53000021       6.30069388E-14
   4.59000015       3.28712806E-13
   4.65000010       6.33014420E-13
   4.71000004       9.05287943E-13
   4.76999998       1.05354495E-12
   4.82999992       9.84661354E-13
   4.88999987       6.31636833E-13
   4.94999981      -1.92303940E-14
   5.01000023      -9.09678582E-13
   5.07000017      -1.90617856E-12
   5.13000011      -2.81479440E-12
   5.19000006      -3.41196190E-12
   5.25000000      -3.48477063E-12
   5.30999994      -2.87257154E-12
   5.36999989      -1.50269163E-12
   5.42999983       5.84174256E-13
   5.48999977       3.22039205E-12
   5.55000019       6.10967440E-12
   5.61000013       8.83789743E-12
   5.67000008       1.08991375E-11
   5.73000002       1.17412391E-11
   5.78999996       1.08345069E-11
   5.84999990       7.76292832E-12
   5.90999985       2.33010486E-12
   5.96999979      -5.33603890E-12
   6.03000021      -1.47019411E-11
   6.09000015      -2.47942725E-11
   6.15000010      -3.42325751E-11
   6.21000004      -4.13386721E-11
   6.26999998      -4.43202731E-11
   6.32999992      -4.15132616E-11
   6.38999987      -3.16567189E-11
   6.44999981      -1.41682690E-11
   6.51000023       1.06146428E-11
   6.57000017       4.12600648E-11
   6.63000011       7.51607596E-11
   6.69000006       1.08566829E-10
   6.75000000       1.36741868E-10
   6.80999994       1.54240759E-10
   6.86999989       1.55295513E-10
   6.92999983       1.34283126E-10
   6.98999977       8.62391339E-11
   7.05000019       7.37179848E-12
   7.11000013      -1.04471827E-10
   7.17000008      -2.49437637E-10
   7.23000002      -4.25439406E-10
   7.28999996      -6.28113561E-10
   7.34999990      -8.50975013E-10
   7.40999985      -1.08577713E-09
   7.46999979      -1.32305444E-09
   7.53000021      -1.55280311E-09
   7.59000015      -1.76523174E-09
   7.65000010      -1.95150074E-09
   7.71000004      -2.10436402E-09
   7.76999998      -2.21863772E-09
   7.82999992      -2.29144037E-09
   7.88999987      -2.32218733E-09
   7.94999981      -2.31235497E-09
   8.01000023      -2.26506414E-09
   8.06999969      -2.18456431E-09
   8.13000011      -2.07569584E-09
   8.18999958      -1.94341476E-09
   8.25000000      -1.79243631E-09
   8.31000042      -1.62703018E-09
   8.36999989      -1.45097701E-09
   8.43000031      -1.26767097E-09
   8.48999977      -1.08033416E-09
   8.55000019      -8.92296903E-10
   8.60999966      -7.07279013E-10
   8.67000008      -5.29596533E-10
   8.72999954      -3.64218905E-10
   8.78999996      -2.16616142E-10
   8.85000038      -9.23790280E-11
   8.90999985       3.34476912E-12
   8.97000027       6.64922423E-11
   9.02999973       9.46537987E-11
   9.09000015       8.74193773E-11
   9.14999962       4.64032250E-11
   9.21000004      -2.50587190E-11
   9.27000046      -1.22444832E-10
   9.32999992      -2.40653442E-10
   9.39000034      -3.74508646E-10
   9.44999981      -5.19059407E-10
   9.51000023      -6.69673761E-10
   9.56999969      -8.22035218E-10
   9.63000011      -9.72196879E-10
   9.68999958      -1.11681531E-09
   9.75000000      -1.25357302E-09
   9.81000042      -1.38165290E-09
   9.86999989      -1.50202317E-09
   9.93000031      -1.61727842E-09
   9.98999977      -1.73089809E-09
   10.0500002      -1.84598636E-09
   10.1099997      -1.96378624E-09
   10.1700001      -2.08241668E-09
   10.2299995      -2.19629337E-09
   10.2900000      -2.29653785E-09
   10.3500004      -2.37238962E-09
   10.4099998      -2.41331222E-09
   10.4700003      -2.41123455E-09
   10.5299997      -2.36228570E-09
   10.5900002      -2.26751173E-09
   10.6499996      -2.13236739E-09
   10.7100000      -1.96514982E-09
   10.7700005      -1.77488113E-09
   10.8299999      -1.56930779E-09
   10.8900003      -1.35362144E-09
   10.9499998      -1.13024434E-09
   11.0100002      -8.99639307E-10
   11.0699997      -6.61737498E-10
   11.1300001      -4.17376744E-10
   11.1899996      -1.69151873E-10
   11.2500000       7.86751012E-11
   11.3100004       3.21184301E-10
   11.3699999       5.54336133E-10
   11.4300003       7.76422482E-10
   11.4899998       9.88825799E-10
   11.5500002       1.19572163E-09
   11.6099997       1.40275336E-09
   11.6700001       1.61509828E-09
   11.7299995       1.83558435E-09
   11.7900000       2.06351691E-09
   11.8500004       2.29461783E-09
   11.9099998       2.52207655E-09
   11.9700003       2.73831113E-09
   12.0299997       2.93679547E-09
   12.0900002       3.11332360E-09
   12.1499996       3.26633121E-09
   12.2100000       3.39628459E-09
   12.2700005       3.50448781E-09
   12.3299999       3.59183971E-09
   12.3900003       3.65802122E-09
   12.4499998       3.70136988E-09
   12.5100002       3.71940634E-09
   12.5699997       3.70976849E-09
   12.6300001       3.67123487E-09
   12.6899996       3.60455932E-09
   12.7500000       3.51294926E-09
   12.8100004       3.40208484E-09
   12.8699999       3.27961946E-09
   12.9300003       3.15412785E-09
   12.9899998       3.03355230E-09
   13.0500002       2.92339242E-09
   13.1099997       2.82507417E-09
   13.1700001       2.73506529E-09
   13.2299995       2.64520716E-09
   13.2900000       2.54438559E-09
   13.3500004       2.42119458E-09
   13.4099998       2.26682606E-09
   13.4700003       2.07727036E-09
   13.5299997       1.85414428E-09
   13.5900002       1.60395208E-09
   13.6499996       1.33615419E-09
   13.7100000       1.06078157E-09
   13.7700005       7.86373300E-10
   13.8299999       5.18736720E-10
   13.8900003       2.60624716E-10
   13.9499998       1.20924390E-11
   14.0100002      -2.28831176E-10
   14.0699997      -4.65451760E-10
   14.1300001      -7.01841474E-10
   14.1899996      -9.42426470E-10
   14.2500000      -1.19174159E-09
   14.3100004      -1.45437884E-09
   14.3699999      -1.73513037E-09
   14.4300003      -2.03921191E-09
   14.4899998      -2.37231146E-09
   14.5500002      -2.74016698E-09
   14.6099997      -3.14753512E-09
   14.6700001      -3.59674623E-09
   14.7299995      -4.08638456E-09
   14.7900000      -4.61079486E-09
   14.8500004      -5.16090326E-09
   14.9099998      -5.72634162E-09
   14.9700003      -6.29826147E-09
   15.0299997      -6.87185020E-09
   15.0900002      -7.44756568E-09
   15.1499996      -8.03060018E-09
   15.2100000      -8.62871463E-09
   15.2700005      -9.24920940E-09
   15.3299999      -9.89602267E-09
   15.3900003      -1.05678444E-08
   15.4499998      -1.12577139E-08
   15.5100002      -1.19540964E-08
   15.5699997      -1.26430493E-08
   15.6300001      -1.33108946E-08
   15.6899996      -1.39467033E-08
   15.7500000      -1.45439998E-08
   15.8100004      -1.51011630E-08
   15.8699999      -1.56203708E-08
   15.9300003      -1.61053038E-08
   15.9899998      -1.65583529E-08
   16.0499992      -1.69784133E-08
   16.1100006      -1.73602466E-08
   16.1700001      -1.76960029E-08
   16.2299995      -1.79785538E-08
   16.2900009      -1.82055135E-08
   16.3500004      -1.83823161E-08
   16.4099998      -1.85229698E-08
   16.4699993      -1.86478442E-08
   16.5300007      -1.87790530E-08
   16.5900002      -1.89348697E-08
   16.6499996      -1.91251015E-08
   16.7099991      -1.93489527E-08
   16.7700005      -1.95961114E-08
   16.8299999      -1.98506012E-08
   16.8899994      -2.00960919E-08
   16.9500008      -2.03209201E-08
   17.0100002      -2.05212434E-08
   17.0699997      -2.07014690E-08
   17.1299992      -2.08720117E-08
   17.1900005      -2.10453219E-08
   17.2500000      -2.12316777E-08
   17.3099995      -2.14361613E-08
   17.3700008      -2.16577760E-08
   17.4300003      -2.18907434E-08
   17.4899998      -2.21271019E-08
   17.5499992      -2.23593304E-08
   17.6100006      -2.25817622E-08
   17.6700001      -2.27902461E-08
   17.7299995      -2.29804407E-08
   17.7900009      -2.31458070E-08
   17.8500004      -2.32765291E-08
   17.9099998      -2.33601192E-08
   17.9699993      -2.33836204E-08
   18.0300007      -2.33365203E-08
   18.0900002      -2.32132340E-08
   18.1499996      -2.30142287E-08
   18.2099991      -2.27455512E-08
   18.2700005      -2.24172059E-08
   18.3299999      -2.20411849E-08
   18.3899994      -2.16298552E-08
   18.4500008      -2.11950244E-08
   18.5100002      -2.07475530E-08
   18.5699997      -2.02971684E-08
   18.6299992      -1.98521821E-08
   18.6900005      -1.94190246E-08
   18.7500000      -1.90017708E-08
   18.8099995      -1.86019307E-08
   18.8700008      -1.82187083E-08
   18.9300003      -1.78498780E-08
   18.9899998      -1.74931625E-08
   19.0499992      -1.71478920E-08
   19.1100006      -1.68165233E-08
   19.1700001      -1.65054974E-08
   19.2299995      -1.62248934E-08
   19.2900009      -1.59865809E-08
   19.3500004      -1.58010867E-08
   19.4099998      -1.56738977E-08
   19.4699993      -1.56024242E-08
   19.5300007      -1.55747220E-08
   19.5900002      -1.55706470E-08
   19.6499996      -1.55651474E-08
   19.7099991      -1.55326951E-08
   19.7700005      -1.54514339E-08
   19.8299999      -1.53058188E-08
   19.8899994      -1.50872808E-08
   19.9500008      -1.47931747E-08
   20.0100002      -1.44248196E-08
   20.0699997      -1.39855336E-08
   20.1299992      -1.34792701E-08
   20.1900005      -1.29100393E-08
   20.2500000      -1.22819976E-08
   20.3099995      -1.15999805E-08
   20.3700008      -1.08702638E-08
   20.4300003      -1.01013757E-08
   20.4899998      -9.30473565E-09
   20.5499992      -8.49480752E-09
   20.6100006      -7.68849340E-09
   20.6700001      -6.90364521E-09
   20.7299995      -6.15688123E-09
   20.7900009      -5.46120349E-09
   20.8500004      -4.82405849E-09
   20.9099998      -4.24637925E-09
   20.9699993      -3.72289555E-09
   21.0300007      -3.24363869E-09
   21.0900002      -2.79629520E-09
   21.1499996      -2.36886621E-09
   21.2099991      -1.95203542E-09
   21.2700005      -1.54068946E-09
   21.3299999      -1.13419563E-09
   21.3899994      -7.35342620E-10
   21.4500008      -3.48237772E-10
   21.5100002       2.41804944E-11
   21.5699997       3.82175736E-10
   21.6299992       7.30078609E-10
   21.6900005       1.07568188E-09
   21.7500000       1.42839807E-09
   21.8099995       1.79683057E-09
   21.8700008       2.18655205E-09
   21.9300003       2.59871991E-09
   21.9899998       3.02982905E-09
   22.0499992       3.47255558E-09
   22.1100006       3.91742461E-09
   22.1700001       4.35488623E-09
   22.2299995       4.77731721E-09
   22.2900009       5.18042720E-09
   22.3500004       5.56360602E-09
   22.4099998       5.92902705E-09
   22.4699993       6.27975849E-09
   22.5300007       6.61762378E-09
   22.5900002       6.94178537E-09
   22.6499996       7.24881311E-09
   22.7099991       7.53434204E-09
   22.7700005       7.79566900E-09
   22.8299999       8.03410227E-09
   22.8899994       8.25596747E-09
   22.9500008       8.47179127E-09
   23.0100002       8.69402506E-09
   23.0699997       8.93430308E-09
   23.1299992       9.20127619E-09
   23.1900005       9.49967749E-09
   23.2500000       9.83060833E-09
   23.3099995       1.01925730E-08
   23.3700008       1.05826707E-08
   23.4300003       1.09975513E-08
   23.4899998       1.14339747E-08
   23.5499992       1.18889751E-08
   23.6100006       1.23596440E-08
   23.6700001       1.28425466E-08
   23.7299995       1.33328752E-08
   23.7900009       1.38236507E-08
   23.8500004       1.43054324E-08
   23.9099998       1.47668944E-08
   23.9699993       1.51962762E-08
   24.0300007       1.55833231E-08
   24.0900002       1.59210440E-08
   24.1499996       1.62067568E-08
   24.2099991       1.64422520E-08
   24.2700005       1.66332796E-08
   24.3299999       1.67887269E-08
   24.3899994       1.69196728E-08
   24.4500008       1.70382908E-08
   24.5100002       1.71564292E-08
   24.5699997       1.72840320E-08
   24.6299992       1.74278387E-08
   24.6900005       1.75911428E-08
   24.7500000       1.77749584E-08
   24.8099995       1.79803834E-08
   24.8700008       1.82110043E-08
   24.9300003       1.84740028E-08
   24.9899998       1.87789393E-08
   25.0499992       1.91342355E-08
   25.1100006       1.95425258E-08
   25.1700001       1.99966461E-08
   25.2299995       2.04778257E-08
   25.2900009       2.09568469E-08
   25.3500004       2.13978453E-08
   25.4099998       2.17636540E-08
   25.4699993       2.20213128E-08
   25.5300007       2.21465584E-08
   25.5900002       2.21264820E-08
   25.6499996       2.19599876E-08
   25.7099991       2.16561205E-08
   25.7700005       2.12307238E-08
   25.8299999       2.07023927E-08
   25.8899994       2.00888692E-08
   25.9500008       1.94048422E-08
   26.0100002       1.86615612E-08
   26.0699997       1.78677872E-08
   26.1299992       1.70310219E-08
   26.1900005       1.61579248E-08
   26.2500000       1.52534270E-08
   26.3099995       1.43189363E-08
   26.3700008       1.33506415E-08
   26.4300003       1.23389805E-08
   26.4899998       1.12697300E-08
   26.5499992       1.01264304E-08
   26.6100006       8.89333140E-09
   26.6700001       7.55801111E-09
   26.7299995       6.11324014E-09
   26.7900009       4.55800730E-09
   26.8500004       2.89783242E-09
   26.9099998       1.14436094E-09
   26.9699993      -6.85860702E-10
   27.0300007      -2.57344590E-09
   27.0900002      -4.49874271E-09
   27.1499996      -6.44427756E-09
   27.2099991      -8.39641245E-09
   27.2700005      -1.03459366E-08
   27.3299999      -1.22879191E-08
   27.3899994      -1.42214045E-08
   27.4500008      -1.61493894E-08
   27.5100002      -1.80788344E-08
   27.5699997      -2.00199466E-08
   27.6299992      -2.19839347E-08
   27.6900005      -2.39791209E-08
   27.7500000      -2.60063882E-08
   27.8099995      -2.80556112E-08
   27.8700008      -3.01046406E-08
   27.9300003      -3.21214877E-08
   27.9899998      -3.40689610E-08
   28.0499992      -3.59101016E-08
   28.1100006      -3.76127218E-08
   28.1700001      -3.91518959E-08
   28.2299995      -4.05104004E-08
   28.2900009      -4.16777475E-08
   28.3500004      -4.26486899E-08
   28.4099998      -4.34217853E-08
   28.4699993      -4.39984582E-08
   28.5300007      -4.43825989E-08
   28.5900002      -4.45808190E-08
   28.6499996      -4.46033717E-08
   28.7099991      -4.44652422E-08
   28.7700005      -4.41867236E-08
   28.8299999      -4.37925145E-08
   28.8899994      -4.33088942E-08
   28.9500008      -4.27593925E-08
   29.0100002      -4.21602628E-08
   29.0699997      -4.15174632E-08
   29.1299992      -4.08264178E-08
   29.1900005      -4.00747382E-08
   29.2500000      -3.92469701E-08
   29.3099995      -3.83299295E-08
   29.3700008      -3.73170899E-08
   29.4300003      -3.62111869E-08
   29.4899998      -3.50247866E-08
   29.5499992      -3.37788926E-08
   29.6100006      -3.24998446E-08
   29.6700001      -3.12149737E-08
   29.7299995      -2.99478096E-08
   29.7900009      -2.87140693E-08
   29.8500004      -2.75197252E-08
   29.9099998      -2.63618709E-08
   29.9699993      -2.52319037E-08
   30.0300007      -2.41194940E-08
   30.0900002      -2.30153727E-08
   30.1499996      -2.19117400E-08
   30.2099991      -2.08004280E-08
   30.2700005      -1.96703933E-08
   30.3299999      -1.85064781E-08
   30.3899994      -1.72906276E-08
   30.4500008      -1.60053322E-08
   30.5100002      -1.46377932E-08
   30.5699997      -1.31831062E-08
   30.6299992      -1.16454109E-08
   30.6900005      -1.00371977E-08
   30.7500000      -8.37763636E-09
   30.8099995      -6.69072220E-09
   30.8700008      -5.00337904E-09
   30.9300003      -3.34305295E-09
   30.9899998      -1.73441417E-09
   31.0499992      -1.95572100E-10
   31.1100006       1.26493027E-09
   31.1700001       2.64881539E-09
   31.2299995       3.96569311E-09
   31.2900009       5.22821120E-09
   31.3500004       6.44655529E-09
   31.4099998       7.62439889E-09
   31.4699993       8.75760175E-09
   31.5300007       9.83556880E-09
   31.5900002       1.08440537E-08
   31.6499996       1.17678765E-08
   31.7099991       1.25925999E-08
   31.7700005       1.33050237E-08
   31.8299999       1.38929801E-08
   31.8899994       1.43449101E-08
   31.9500008       1.46494292E-08
   32.0099983       1.47948320E-08
   32.0699997       1.47686645E-08
   32.1300011       1.45577719E-08
   32.1899986       1.41494354E-08
   32.2500000       1.35338105E-08
   32.3100014       1.27071500E-08
   32.3699989       1.16745955E-08
   32.4300003       1.04512337E-08
   32.4900017       9.06074948E-09
   32.5499992       7.53218909E-09
   32.6100006       5.89608362E-09
   32.6699982       4.18141610E-09
   32.7299995       2.41415021E-09
   32.7900009       6.17142670E-10
   32.8499985      -1.18935550E-09
   32.9099998      -2.98731750E-09
   32.9700012      -4.76081041E-09
   33.0299988      -6.49569687E-09
   33.0900002      -8.17874035E-09
   33.1500015      -9.79622339E-09
   33.2099991      -1.13328120E-08
   33.2700005      -1.27716318E-08
   33.3300018      -1.40959235E-08
   33.3899994      -1.52917199E-08
   33.4500008      -1.63501177E-08
   33.5099983      -1.72677534E-08
   33.5699997      -1.80449344E-08
   33.6300011      -1.86821705E-08
   33.6899986      -1.91767136E-08
   33.7500000      -1.95208010E-08
   33.8100014      -1.97023518E-08
   33.8699989      -1.97076560E-08
   33.9300003      -1.95246699E-08
   33.9900017      -1.91454532E-08
   34.0499992      -1.85669453E-08
   34.1100006      -1.77901249E-08
   34.1699982      -1.68183387E-08
   34.2299995      -1.56556546E-08
   34.2900009      -1.43058498E-08
   34.3499985      -1.27721611E-08
   34.4099998      -1.10576872E-08
   34.4700012      -9.16619491E-09
   34.5299988      -7.10311143E-09
   34.5900002      -4.87650142E-09
   34.6500015      -2.49779464E-09
   34.7099991       1.79424565E-11
   34.7700005       2.65220601E-09
   34.8300018       5.38351053E-09
   34.8899994       8.18775714E-09
   34.9500008       1.10382716E-08
   35.0099983       1.39056588E-08
   35.0699997       1.67579319E-08
   35.1300011       1.95614618E-08
   35.1899986       2.22829222E-08
   35.2500000       2.48917544E-08
   35.3100014       2.73622458E-08
   35.3699989       2.96743199E-08
   35.4300003       3.18127462E-08
   35.4900017       3.37652075E-08
   35.5499992       3.55203120E-08
   35.6100006       3.70664068E-08
   35.6699982       3.83915228E-08
   35.7299995       3.94839503E-08
   35.7900009       4.03325728E-08
   35.8499985       4.09264089E-08
   35.9099998       4.12534149E-08
   35.9700012       4.12994012E-08
   36.0299988       4.10479650E-08
   36.0900002       4.04819254E-08
   36.1500015       3.95860091E-08
   36.2099991       3.83499064E-08
   36.2700005       3.67707358E-08
   36.3300018       3.48543097E-08
   36.3899994       3.26152261E-08
   36.4500008       3.00759915E-08
   36.5099983       2.72656173E-08
   36.5699997       2.42176785E-08
   36.6300011       2.09679811E-08
   36.6899986       1.75520469E-08
   36.7500000       1.40029046E-08
   36.8100014       1.03498792E-08
   36.8699989       6.61872157E-09
   36.9300003       2.83286861E-09
   36.9900017      -9.84955562E-10
   37.0499992      -4.81174078E-09
   37.1100006      -8.62433858E-09
   37.1699982      -1.24005943E-08
   37.2299995      -1.61207172E-08
   37.2900009      -1.97680485E-08
   37.3499985      -2.33287896E-08
   37.4099998      -2.67908575E-08
   37.4700012      -3.01424414E-08
   37.5299988      -3.33708279E-08
   37.5900002      -3.64617883E-08
   37.6500015      -3.93995414E-08
   37.7099991      -4.21672475E-08
   37.7700005      -4.47480701E-08
   37.8300018      -4.71268891E-08
   37.8899994      -4.92923498E-08
   37.9500008      -5.12386258E-08
   38.0099983      -5.29658415E-08
   38.0699997      -5.44785230E-08
   38.1300011      -5.57821735E-08
   38.1899986      -5.68792373E-08
   38.2500000      -5.77661829E-08
   38.3100014      -5.84331374E-08
   38.3699989      -5.88663340E-08
   38.4300003      -5.90522546E-08
   38.4900017      -5.89817155E-08
   38.5499992      -5.86524038E-08
   38.6100006      -5.80692223E-08
   38.6699982      -5.72430388E-08
   38.7299995      -5.61887035E-08
   38.7900009      -5.49230990E-08
   38.8499985      -5.34633600E-08
   38.9099998      -5.18251788E-08
   38.9700012      -5.00213133E-08
   39.0299988      -4.80610574E-08
   39.0900002      -4.59513707E-08
   39.1500015      -4.36999485E-08
   39.2099991      -4.13191970E-08
   39.2700005      -3.88292385E-08
   39.3300018      -3.62579300E-08
   39.3899994      -3.36373169E-08
   39.4500008      -3.09976045E-08
   39.5099983      -2.83612582E-08
   39.5699997      -2.57399098E-08
   39.6300011      -2.31353816E-08
   39.6899986      -2.05443076E-08
   39.7500000      -1.79642257E-08
   39.8100014      -1.53988093E-08
   39.8699989      -1.28606059E-08
   39.9300003      -1.03708917E-08
   39.9900017      -7.95708743E-09
   40.0499992      -5.64847991E-09
   40.1100006      -3.47100171E-09
   40.1699982      -1.44201673E-09
   40.2299995       4.33471287E-10
   40.2900009       2.16348428E-09
   40.3499985       3.76542886E-09
   40.4099998       5.25854071E-09
   40.4700012       6.65483446E-09
   40.5299988       7.95228861E-09
   40.5900002       9.13355347E-09
   40.6500015       1.01712114E-08
   40.7099991       1.10375540E-08
   40.7700005       1.17146746E-08
   40.8300018       1.22005517E-08
   40.8899994       1.25088944E-08
   40.9500008       1.26634463E-08
   41.0099983       1.26897728E-08
   41.0699997       1.26080293E-08
   41.1300011       1.24289334E-08
   41.1899986       1.21532944E-08
   41.2500000       1.17740404E-08
   41.3100014       1.12794858E-08
   41.3699989       1.06570734E-08
   41.4300003       9.89732118E-09
   41.4900017       8.99755470E-09
   41.5499992       7.96440514E-09
   41.6100006       6.81371137E-09
   41.6699982       5.56709434E-09
   41.7299995       4.24590452E-09
   41.7900009       2.86482837E-09
   41.8499985       1.42799306E-09
   41.9099998      -7.05496564E-11
   41.9700012      -1.64211444E-09
   42.0299988      -3.29660454E-09
   42.0900002      -5.03664221E-09
   42.1500015      -6.85484958E-09
   42.2099991      -8.73480488E-09
   42.2700005      -1.06545688E-08
   42.3300018      -1.25909896E-08
   42.3899994      -1.45233789E-08
   42.4500008      -1.64359708E-08
   42.5099983      -1.83191364E-08
   42.5699997      -2.01693489E-08
   42.6300011      -2.19875798E-08
   42.6899986      -2.37759341E-08
   42.7500000      -2.55329624E-08
   42.8100014      -2.72491363E-08
   42.8699989      -2.89046707E-08
   42.9300003      -3.04712344E-08
   42.9900017      -3.19176330E-08
   43.0499992      -3.32174999E-08
   43.1100006      -3.43558675E-08
   43.1699982      -3.53316167E-08
   43.2299995      -3.61546917E-08
   43.2900009      -3.68390261E-08
   43.3499985      -3.73940772E-08
   43.4099998      -3.78181717E-08
   43.4700012      -3.80960792E-08
   43.5299988      -3.82014242E-08
   43.5900002      -3.81029572E-08
   43.6500015      -3.77726721E-08
   43.7099991      -3.71933488E-08
   43.7700005      -3.63634740E-08
   43.8300018      -3.52981111E-08
   43.8899994      -3.40252413E-08
   43.9500008      -3.25782139E-08
   44.0099983      -3.09861825E-08
   44.0699997      -2.92653350E-08
   44.1300011      -2.74138934E-08
   44.1899986      -2.54130494E-08
   44.2500000      -2.32340973E-08
   44.3100014      -2.08498658E-08
   44.3699989      -1.82467890E-08
   44.4300003      -1.54334643E-08
   44.4900017      -1.24425483E-08
   44.5499992      -9.32510336E-09
   44.6100006      -6.13907547E-09
   44.6699982      -2.93566993E-09
   44.7299995       2.51951543E-10
   44.7900009       3.41405926E-09
   44.8499985       6.56228671E-09
   44.9099998       9.72105862E-09
   44.9700012       1.29155513E-08
   45.0299988       1.61601861E-08
   45.0900002       1.94513081E-08
   45.1500015       2.27661605E-08
   45.2099991       2.60682480E-08
   45.2700005       2.93171230E-08
   45.3300018       3.24794129E-08
   45.3899994       3.55375640E-08
   45.4500008       3.84935461E-08
   45.5099983       4.13662455E-08
   45.5699997       4.41832348E-08
   45.6300011       4.69693262E-08
   45.6899986       4.97355117E-08
   45.7500000       5.24718509E-08
   45.8100014       5.51468879E-08
   45.8699989       5.77140824E-08
   45.9300003       6.01234120E-08
   45.9900017       6.23344576E-08
   46.0499992       6.43267342E-08
   46.1100006       6.61038584E-08
   46.1699982       6.76902374E-08
   46.2299995       6.91214126E-08
   46.2900009       7.04313052E-08
   46.3499985       7.16404713E-08
   46.4099998       7.27489748E-08
   46.4700012       7.37360182E-08
   46.5299988       7.45664153E-08
   46.5900002       7.52018110E-08
   46.6500015       7.56129594E-08
   46.7099991       7.57893162E-08
   46.7700005       7.57424914E-08
   46.8300018       7.55022640E-08
   46.8899994       7.51062785E-08
   46.9500008       7.45869784E-08
   47.0099983       7.39603152E-08
   47.0699997       7.32206473E-08
   47.1300011       7.23437239E-08
   47.1899986       7.12969381E-08
   47.2500000       7.00530336E-08
   47.3100014       6.86023185E-08
   47.3699989       6.69591032E-08
   47.4300003       6.51602434E-08
   47.4900017       6.32565289E-08
   47.5499992       6.12999713E-08
   47.6100006       5.93311498E-08
   47.6699982       5.73703716E-08
   47.7299995       5.54149615E-08
   47.7900009       5.34433049E-08
   47.8499985       5.14241165E-08
   47.9099998       4.93282712E-08
   47.9700012       4.71395225E-08
   48.0299988       4.48608439E-08
   48.0900002       4.25143369E-08
   48.1500015       4.01347044E-08
   48.2099991       3.77585323E-08
   48.2700005       3.54132013E-08
   48.3300018       3.31094014E-08
   48.3899994       3.08398640E-08
   48.4500008       2.85844823E-08
   48.5099983       2.63196718E-08
   48.5699997       2.40283722E-08
   48.6300011       2.17072227E-08
   48.6899986       1.93687466E-08
   48.7500000       1.70382872E-08
   48.8100014       1.47470880E-08
   48.8699989       1.25238406E-08
   48.9300003       1.03871232E-08
   48.9900017       8.34075031E-09
   49.0499992       6.37324371E-09
   49.1100006       4.46164172E-09
   49.1699982       2.57879718E-09
   49.2299995       7.02214176E-10
   49.2900009      -1.17812915E-09
   49.3499985      -3.05545478E-09
   49.4099998      -4.90682250E-09
   49.4700012      -6.69855993E-09
   49.5299988      -8.39469205E-09
   49.5900002      -9.96560701E-09
   49.6500015      -1.13943122E-08
   49.7099991      -1.26786954E-08
   49.7700005      -1.38296627E-08
   49.8300018      -1.48662362E-08
   49.8899994      -1.58093130E-08
   49.9500008      -1.66757630E-08
   50.0099983      -1.74741324E-08
   50.0699997      -1.82027193E-08
   50.1300011      -1.88503044E-08
   50.1899986      -1.93992875E-08
   50.2500000      -1.98303578E-08
   50.3100014      -2.01273007E-08
   50.3699989      -2.02803800E-08
   50.4300003      -2.02871444E-08
   50.4900017      -2.01505301E-08
   50.5499992      -1.98752854E-08
   50.6100006      -1.94644958E-08