 -0.750000000       0.00000000    
 -0.689999998       0.00000000    
 -0.629999995       0.00000000    
 -0.569999993       0.00000000    
 -0.509999990       0.00000000    
 -0.449999988       0.00000000    
 -0.389999986       0.00000000    
 -0.330000013       2.00296246E-25
 -0.270000011       8.76866129E-25
 -0.209999993      -2.48744133E-24
 -0.150000006      -3.51374614E-23
  -9.00000036E-02  -1.58710358E-22
  -2.99999993E-02  -4.34754346E-22
   2.99999993E-02  -7.77330207E-22
   9.00000036E-02  -7.53389024E-22
  0.150000006       4.03537593E-22
  0.209999993       3.30350633E-21
  0.270000011       7.71729542E-21
  0.330000013       1.27714853E-20
  0.389999986       1.87900474E-20
  0.449999988       2.88466799E-20
  0.509999990       4.42833144E-20
  0.569999993       4.90910659E-20
  0.629999995      -1.03420712E-20
  0.689999998      -2.22785718E-19
  0.750000000      -6.48053307E-19
  0.810000002      -1.17945119E-18
  0.870000005      -1.40115741E-18
  0.930000007      -6.05132404E-19
  0.990000010       1.85172569E-18
   1.04999995       5.83567733E-18
   1.11000001       9.70368885E-18
   1.16999996       1.02250947E-17
   1.23000002       3.82212947E-18
   1.28999996      -1.08374449E-17
   1.35000002      -3.00053381E-17
   1.40999997      -4.38899320E-17
   1.47000003      -3.95969473E-17
   1.52999997      -8.23246045E-18
   1.59000003       4.65789241E-17
   1.64999998       1.04055311E-16
   1.71000004       1.30711835E-16
   1.76999998       9.52583046E-17
   1.83000004      -1.11729237E-17
   1.88999999      -1.60102832E-16
   1.95000005      -2.87176092E-16
   2.00999999      -3.14603098E-16
   2.06999993      -1.87987620E-16
   2.13000011       8.88547620E-17
   2.19000006       4.39572195E-16
   2.25000000       7.31865318E-16
   2.30999994       8.20933003E-16
   2.36999989       6.02966703E-16
   2.43000007       5.81865710E-17
   2.49000001      -7.30277343E-16
   2.54999995      -1.58366616E-15
   2.60999990      -2.25498043E-15
   2.67000008      -2.47070892E-15
   2.73000002      -1.98661159E-15
   2.78999996      -6.59302759E-16
   2.84999990       1.47261654E-15
   2.91000009       4.11972431E-15
   2.97000003       6.71893893E-15
   3.02999997       8.48663909E-15
   3.08999991       8.55652016E-15
   3.15000010       6.18403381E-15
   3.21000004       9.82943089E-16
   3.26999998      -6.84022007E-15
   3.32999992      -1.62847403E-14
   3.39000010      -2.54352627E-14
   3.45000005      -3.15156701E-14
   3.50999999      -3.12553023E-14
   3.56999993      -2.16865015E-14
   3.63000011      -1.35290940E-15
   3.69000006       2.83462693E-14
   3.75000000       6.22175380E-14
   3.80999994       9.13901929E-14
   3.86999989       1.04941182E-13
   3.93000007       9.29570074E-14
   3.99000001       5.02857372E-14
   4.05000019      -2.02891699E-14
   4.11000013      -1.06789713E-13
   4.17000008      -1.89536402E-13
   4.23000002      -2.45324242E-13
   4.28999996      -2.53271091E-13
   4.34999990      -2.00747242E-13
   4.40999985      -8.77889680E-14
   4.46999979       7.11169405E-14
   4.53000021       2.48301325E-13
   4.59000015       4.07070374E-13
   4.65000010       5.08218522E-13
   4.71000004       5.18094899E-13
   4.76999998       4.17056960E-13
   4.82999992       2.06631682E-13
   4.88999987      -8.67164752E-14
   4.94999981      -4.13187252E-13
   5.01000023      -7.07566980E-13
   5.07000017      -9.02555320E-13
   5.13000011      -9.44495350E-13
   5.19000006      -8.07165370E-13
   5.25000000      -4.99482834E-13
   5.30999994      -6.48252814E-14
   5.36999989       4.27526504E-13
   5.42999983       8.95842157E-13
   5.48999977       1.26028528E-12
   5.55000019       1.45493632E-12
   5.61000013       1.43623763E-12
   5.67000008       1.18842458E-12
   5.73000002       7.27031066E-13
   5.78999996       1.00554873E-13
   5.84999990      -6.11308909E-13
   5.90999985      -1.30530959E-12
   5.96999979      -1.86948937E-12
   6.03000021      -2.20359299E-12
   6.09000015      -2.24000571E-12
   6.15000010      -1.95848220E-12
   6.21000004      -1.38938058E-12
   6.26999998      -6.04454963E-13
   6.32999992       3.00530678E-13
   6.38999987       1.22389978E-12
   6.44999981       2.07015958E-12
   6.51000023       2.75385704E-12
   6.57000017       3.19861151E-12
   6.63000011       3.33803861E-12
   6.69000006       3.12387356E-12
   6.75000000       2.54089284E-12
   6.80999994       1.62145210E-12
   6.86999989       4.49110774E-13
   6.92999983      -8.56320657E-13
   6.98999977      -2.17132388E-12
   7.05000019      -3.40768472E-12
   7.11000013      -4.54071156E-12
   7.17000008      -5.61152297E-12
   7.23000002      -6.69816373E-12
   7.28999996      -7.86386407E-12
   7.34999990      -9.10138718E-12
   7.40999985      -1.02952473E-11
   7.46999979      -1.12172997E-11
   7.53000021      -1.15596838E-11
   7.59000015      -1.09973428E-11
   7.65000010      -9.26527952E-12
   7.71000004      -6.23412173E-12
   7.76999998      -1.96983727E-12
   7.82999992       3.23336735E-12
   7.88999987       8.85560202E-12
   7.94999981       1.41949777E-11
   8.01000023       1.84521825E-11
   8.06999969       2.08462119E-11
   8.13000011       2.07408552E-11
   8.18999958       1.77549989E-11
   8.25000000       1.18333338E-11
   8.31000042       3.26739308E-12
   8.36999989      -7.32457844E-12
   8.43000031      -1.90373394E-11
   8.48999977      -3.07178102E-11
   8.55000019      -4.10009145E-11
   8.60999966      -4.83642952E-11
   8.67000008      -5.12411155E-11
   8.72999954      -4.82241191E-11
   8.78999996      -3.83601345E-11
   8.85000038      -2.14830428E-11
   8.90999985       1.51270077E-12
   8.97000027       2.85710136E-11
   9.02999973       5.66274180E-11
   9.09000015       8.20268298E-11
   9.14999962       1.01128661E-10
   9.21000004       1.10954065E-10
   9.27000046       1.09711309E-10
   9.32999992       9.70746886E-11
   9.39000034       7.41741044E-11
   9.44999981       4.33423540E-11
   9.51000023       7.72702301E-12
   9.56999969      -2.91157203E-11
   9.63000011      -6.35655903E-11
   9.68999958      -9.21989082E-11
   9.75000000      -1.11989591E-10
   9.81000042      -1.20485524E-10
   9.86999989      -1.15971732E-10
   9.93000031      -9.75969791E-11
   9.98999977      -6.54213905E-11
   10.0500002      -2.03594763E-11
   10.1099997       3.59626738E-11
   10.1700001       1.01371009E-10
   10.2299995       1.73248596E-10
   10.2900000       2.48535748E-10
   10.3500004       3.23646165E-10
   10.4099998       3.94386301E-10
   10.4700003       4.55990107E-10
   10.5299997       5.03346309E-10
   10.5900002       5.31415578E-10
   10.6499996       5.35754330E-10
   10.7100000       5.13019793E-10
   10.7700005       4.61352567E-10
   10.8299999       3.80594500E-10
   10.8900003       2.72365464E-10
   10.9499998       1.40046141E-10
   11.0100002      -1.13123582E-11
   11.0699997      -1.75181564E-10
   11.1300001      -3.43912926E-10
   11.1899996      -5.09298104E-10
   11.2500000      -6.63298472E-10
   11.3100004      -7.98826838E-10
   11.3699999      -9.10425069E-10
   11.4300003      -9.94710203E-10
   11.4899998      -1.05054654E-09
   11.5500002      -1.07898945E-09
   11.6099997      -1.08308484E-09
   11.6700001      -1.06757370E-09
   11.7299995      -1.03848774E-09
   11.7900000      -1.00257647E-09
   11.8500004      -9.66534297E-10
   11.9099998      -9.36103639E-10
   11.9700003      -9.15241050E-10
   12.0299997      -9.05589936E-10
   12.0900002      -9.06436926E-10
   12.1499996      -9.15169551E-10
   12.2100000      -9.28069621E-10
   12.2700005      -9.41165923E-10
   12.3299999      -9.50886259E-10
   12.3900003      -9.54377799E-10
   12.4499998      -9.49523349E-10
   12.5100002      -9.34792022E-10
   12.5699997      -9.09073261E-10
   12.6300001      -8.71578976E-10
   12.6899996      -8.21822221E-10
   12.7500000      -7.59640406E-10
   12.8100004      -6.85248747E-10
   12.8699999      -5.99335859E-10
   12.9300003      -5.03209807E-10
   12.9899998      -3.98948929E-10
   13.0500002      -2.89448771E-10
   13.1099997      -1.78246681E-10
   13.1700001      -6.90859384E-11
   13.2299995       3.46741316E-11
   13.2900000       1.30574704E-10
   13.3500004       2.17268023E-10
   13.4099998       2.94333308E-10
   13.4700003       3.61830316E-10
   13.5299997       4.19894092E-10
   13.5900002       4.68674266E-10
   13.6499996       5.08731113E-10
   13.7100000       5.41715561E-10
   13.7700005       5.70942793E-10
   13.8299999       6.01463379E-10
   13.8900003       6.39449438E-10
   13.9499998       6.91038893E-10
   14.0100002       7.61033958E-10
   14.0699997       8.51902604E-10
   14.1300001       9.63359725E-10
   14.1899996       1.09253606E-09
   14.2500000       1.23452415E-09
   14.3100004       1.38302925E-09
   14.3699999       1.53095170E-09
   14.4300003       1.67087211E-09
   14.4899998       1.79549731E-09
   14.5500002       1.89811367E-09
   14.6099997       1.97302152E-09
   14.6700001       2.01588590E-09
   14.7299995       2.02398498E-09
   14.7900000       1.99641859E-09
   14.8500004       1.93437377E-09
   14.9099998       1.84144511E-09
   14.9700003       1.72380754E-09
   15.0299997       1.58989100E-09
   15.0900002       1.44927015E-09
   15.1499996       1.31080846E-09
   15.2100000       1.18058574E-09
   15.2700005       1.06047215E-09
   15.3299999       9.48157108E-10
   15.3900003       8.38895176E-10
   15.4499998       7.28412275E-10
   15.5100002       6.15738571E-10
   15.5699997       5.04607911E-10
   15.6300001       4.02627265E-10
   15.6899996       3.18454624E-10
   15.7500000       2.58216032E-10
   15.8100004       2.22822580E-10
   15.8699999       2.07465323E-10
   15.9300003       2.03547929E-10
   15.9899998       2.02168449E-10
   16.0499992       1.97560565E-10
   16.1100006       1.88983759E-10
   16.1700001       1.80332332E-10
   16.2299995       1.77802578E-10
   16.2900009       1.86782298E-10
   16.3500004       2.09352494E-10
   16.4099998       2.43387172E-10
   16.4699993       2.83467166E-10
   16.5300007       3.23071736E-10
   16.5900002       3.57079144E-10
   16.6499996       3.83601179E-10
   16.7099991       4.04514811E-10
   16.7700005       4.24560276E-10
   16.8299999       4.49378784E-10
   16.8899994       4.83225737E-10
   16.9500008       5.27236643E-10
   17.0100002       5.78963988E-10
   17.0699997       6.33458341E-10
   17.1299992       6.85529300E-10
   17.1900005       7.32247041E-10
   17.2500000       7.74508790E-10
   17.3099995       8.16800572E-10
   17.3700008       8.65079453E-10
   17.4300003       9.23645271E-10
   17.4899998       9.92488869E-10
   17.5499992       1.06651321E-09
   17.6100006       1.13720300E-09
   17.6700001       1.19612986E-09
   17.7299995       1.23873456E-09
   17.7900009       1.26662614E-09
   17.8500004       1.28731137E-09
   17.9099998       1.31147093E-09
   17.9699993       1.34902256E-09
   18.0300007       1.40568202E-09
   18.0900002       1.48136037E-09
   18.1499996       1.57077851E-09
   18.2099991       1.66564962E-09
   18.2700005       1.75721415E-09
   18.3299999       1.83799898E-09
   18.3899994       1.90228455E-09
   18.4500008       1.94550376E-09
   18.5100002       1.96328998E-09
   18.5699997       1.95094496E-09
   18.6299992       1.90378247E-09
   18.6900005       1.81830129E-09
   18.7500000       1.69371772E-09
   18.8099995       1.53316593E-09
   18.8700008       1.34392075E-09
   18.9300003       1.13628029E-09
   18.9899998       9.21209109E-10
   19.0499992       7.07354397E-10
   19.1100006       4.98435682E-10
   19.1700001       2.92077057E-10
   19.2299995       8.07787309E-11
   19.2900009      -1.45032916E-10
   19.3500004      -3.92806482E-10
   19.4099998      -6.64043431E-10
   19.4699993      -9.52373846E-10
   19.5300007      -1.24437849E-09
   19.5900002      -1.52292434E-09
   19.6499996      -1.77176873E-09
   19.7099991      -1.97970351E-09
   19.7700005      -2.14277240E-09
   19.8299999      -2.26396368E-09
   19.8899994      -2.35084263E-09
   19.9500008      -2.41235232E-09
   20.0100002      -2.45618614E-09
   20.0699997      -2.48767296E-09
   20.1299992      -2.51029242E-09
   20.1900005      -2.52713583E-09
   20.2500000      -2.54220711E-09
   20.3099995      -2.56059374E-09
   20.3700008      -2.58714650E-09
   20.4300003      -2.62414090E-09
   20.4899998      -2.66903055E-09
   20.5499992      -2.71356870E-09
   20.6100006      -2.74510192E-09
   20.6700001      -2.74991563E-09
   20.7299995      -2.71753420E-09
   20.7900009      -2.64430566E-09
   20.8500004      -2.53477417E-09
   20.9099998      -2.40022247E-09
   20.9699993      -2.25495711E-09
   21.0300007      -2.11185536E-09
   21.0900002      -1.97894323E-09
   21.1499996      -1.85820237E-09
   21.2099991      -1.74676751E-09
   21.2700005      -1.63966718E-09
   21.3299999      -1.53277857E-09
   21.3899994      -1.42483525E-09
   21.4500008      -1.31795452E-09
   21.5100002      -1.21682187E-09
   21.5699997      -1.12708598E-09
   21.6299992      -1.05356457E-09
   21.6900005      -9.98710226E-10
   21.7500000      -9.61616786E-10
   21.8099995      -9.37772415E-10
   21.8700008      -9.19705534E-10
   21.9300003      -8.98509545E-10
   21.9899998      -8.65927940E-10
   22.0499992      -8.16363199E-10
   22.1100006      -7.48073214E-10
   22.1700001      -6.63076538E-10
   22.2299995      -5.65831493E-10
   22.2900009      -4.61319427E-10
   22.3500004      -3.53415935E-10
   22.4099998      -2.44240794E-10
   22.4699993      -1.34641034E-10
   22.5300007      -2.53909515E-11
   22.5900002       8.16168175E-11
   22.6499996       1.82839160E-10
   22.7099991       2.73503581E-10
   22.7700005       3.48855028E-10
   22.8299999       4.05797368E-10
   22.8899994       4.44369486E-10
   22.9500008       4.68511785E-10
   23.0100002       4.85707474E-10
   23.0699997       5.05346931E-10
   23.1299992       5.36089950E-10
   23.1900005       5.82996651E-10
   23.2500000       6.45546172E-10
   23.3099995       7.17569060E-10
   23.3700008       7.89460219E-10
   23.4300003       8.52005189E-10
   23.4899998       9.00239050E-10
   23.5499992       9.35508560E-10
   23.6100006       9.64581082E-10
   23.6700001       9.95994287E-10
   23.7299995       1.03520525E-09
   23.7900009       1.08075804E-09
   23.8500004       1.12327136E-09
   23.9099998       1.14776688E-09
   23.9699993       1.13836662E-09
   24.0300007       1.08342846E-09
   24.0900002       9.79155979E-10
   24.1499996       8.30522484E-10
   24.2099991       6.49495957E-10
   24.2700005       4.51497340E-10
   24.3299999       2.51446697E-10
   24.3899994       6.06338590E-11
   24.4500008      -1.14794396E-10
   24.5100002      -2.73503609E-10
   24.5699997      -4.17104740E-10
   24.6299992      -5.47505707E-10
   24.6900005      -6.64496624E-10
   24.7500000      -7.64549368E-10
   24.8099995      -8.41382297E-10
   24.8700008      -8.88112583E-10
   24.9300003      -9.00076735E-10
   24.9899998      -8.77021178E-10
   25.0499992      -8.23616342E-10
   25.1100006      -7.48024975E-10
   25.1700001      -6.59192201E-10
   25.2299995      -5.64112035E-10
   25.2900009      -4.66261696E-10
   25.3500004      -3.65754566E-10
   25.4099998      -2.60912736E-10
   25.4699993      -1.50373505E-10
   25.5300007      -3.47491792E-11
   25.5900002       8.27840088E-11
   25.6499996       1.97075620E-10
   25.7099991       3.02456254E-10
   25.7700005       3.94546729E-10
   25.8299999       4.71881312E-10
   25.8899994       5.36839850E-10
   25.9500008       5.95487826E-10
   26.0100002       6.56157628E-10
   26.0699997       7.27017946E-10
   26.1299992       8.13366541E-10
   26.1900005       9.15683307E-10
   26.2500000       1.02933351E-09
   26.3099995       1.14617282E-09
   26.3700008       1.25743804E-09
   26.4300003       1.35667044E-09
   26.4899998       1.44139833E-09
   26.5499992       1.51294555E-09
   26.6100006       1.57469404E-09
   26.6700001       1.62986880E-09
   26.7299995       1.68003822E-09
   26.7900009       1.72499526E-09
   26.8500004       1.76386006E-09
   26.9099998       1.79660631E-09
   26.9699993       1.82508453E-09
   27.0300007       1.85299720E-09
   27.0900002       1.88487403E-09
   27.1499996       1.92455696E-09
   27.2099991       1.97382510E-09
   27.2700005       2.03160644E-09
   27.3299999       2.09392637E-09
   27.3899994       2.15450036E-09
   27.4500008       2.20577823E-09
   27.5100002       2.24022512E-09
   27.5699997       2.25163665E-09
   27.6299992       2.23628494E-09
   27.6900005       2.19369878E-09
   27.7500000       2.12693885E-09
   27.8099995       2.04230144E-09
   27.8700008       1.94846939E-09
   27.9300003       1.85518179E-09
   27.9899998       1.77156434E-09
   28.0499992       1.70438719E-09
   28.1100006       1.65666225E-09
   28.1700001       1.62707414E-09
   28.2299995       1.61060065E-09
   28.2900009       1.60027469E-09
   28.3500004       1.58951896E-09
   28.4099998       1.57412894E-09
   28.4699993       1.55306412E-09
   28.5300007       1.52777069E-09
   28.5900002       1.50052792E-09
   28.6499996       1.47282553E-09
   28.7099991       1.44469825E-09
   28.7700005       1.41528034E-09
   28.8299999       1.38400491E-09
   28.8899994       1.35141953E-09
   28.9500008       1.31883304E-09
   29.0100002       1.28684674E-09
   29.0699997       1.25367805E-09
   29.1299992       1.21450539E-09
   29.1900005       1.16256560E-09
   29.2500000       1.09172071E-09
   29.3099995       9.99290206E-10
   29.3700008       8.87720286E-10
   29.4300003       7.64257380E-10
   29.4899998       6.38860298E-10
   29.5499992       5.21448829E-10
   29.6100006       4.19770135E-10
   29.6700001       3.38610501E-10
   29.7299995       2.80212104E-10
   29.7900009       2.45133469E-10
   29.8500004       2.32770747E-10
   29.9099998       2.41251047E-10
   29.9699993       2.67019656E-10
   30.0300007       3.04736625E-10
   30.0900002       3.47904372E-10
   30.1499996       3.90144833E-10
   30.2099991       4.26602420E-10
   30.2700005       4.54856985E-10
   30.3299999       4.75016249E-10
   30.3899994       4.89094543E-10
   30.4500008       5.00080422E-10
   30.5100002       5.11088338E-10
   30.5699997       5.24759403E-10
   30.6299992       5.42825174E-10
   30.6900005       5.65685887E-10
   30.7500000       5.91994398E-10
   30.8099995       6.18454621E-10
   30.8700008       6.40130060E-10
   30.9300003       6.51416032E-10
   30.9899998       6.47508436E-10
   31.0499992       6.25893282E-10
   31.1100006       5.87268845E-10
   31.1700001       5.35488487E-10
   31.2299995       4.76489459E-10
   31.2900009       4.16586654E-10
   31.3500004       3.60751623E-10
   31.4099998       3.11483311E-10
   31.4699993       2.68615324E-10
   31.5300007       2.30030828E-10
   31.5900002       1.92928326E-10
   31.6499996       1.55118002E-10
   31.7099991       1.15877176E-10
   31.7700005       7.61127342E-11
   31.8299999       3.78635005E-11
   31.8899994       3.41926639E-12
   31.9500008      -2.55502130E-11
   32.0099983      -4.85062684E-11
   32.0699997      -6.60064156E-11
   32.1300011      -7.91708712E-11
   32.1899986      -8.89007826E-11
   32.2500000      -9.51967671E-11
   32.3100014      -9.68830086E-11
   32.3699989      -9.18561199E-11
   32.4300003      -7.77287401E-11
   32.4900017      -5.25353858E-11
   32.5499992      -1.51254252E-11
   32.6100006       3.49684240E-11
   32.6699982       9.80907508E-11
   32.7299995       1.75071901E-10
   32.7900009       2.67414119E-10
   32.8499985       3.76784964E-10
   32.9099998       5.03951103E-10
   32.9700012       6.47669196E-10
   33.0299988       8.04165290E-10
   33.0900002       9.67580460E-10
   33.1500015       1.13125642E-09
   33.2099991       1.28927746E-09
   33.2700005       1.43755996E-09
   33.3300018       1.57406654E-09
   33.3899994       1.69824976E-09
   33.4500008       1.81024340E-09
   33.5099983       1.91037319E-09
   33.5699997       1.99921257E-09
   33.6300011       2.07793738E-09
   33.6899986       2.14845963E-09
   33.7500000       2.21295893E-09
   33.8100014       2.27286279E-09
   33.8699989       2.32776953E-09
   33.9300003       2.37492559E-09
   33.9900017       2.40958964E-09
   34.0499992       2.42614484E-09
   34.1100006       2.41946130E-09
   34.1699982       2.38599118E-09
   34.2299995       2.32434139E-09
   34.2900009       2.23539476E-09
   34.3499985       2.12215978E-09
   34.4099998       1.98943018E-09
   34.4700012       1.84316296E-09
   34.5299988       1.68947578E-09
   34.5900002       1.53340995E-09
   34.6500015       1.37789202E-09
   34.7099991       1.22340027E-09
   34.7700005       1.06853681E-09
   34.8300018       9.11166420E-10
   34.8899994       7.49407814E-10
   34.9500008       5.81851345E-10
   35.0099983       4.06958717E-10
   35.0699997       2.22274976E-10
   35.1300011       2.43540570E-11
   35.1899986      -1.90112356E-10
   35.2500000      -4.22349433E-10
   35.3100014      -6.69880040E-10
   35.3699989      -9.26438037E-10
   35.4300003      -1.18385091E-09
   35.4900017      -1.43516599E-09
   35.5499992      -1.67747460E-09
   35.6100006      -1.91295713E-09
   35.6699982      -2.14761831E-09
   35.7299995      -2.38841813E-09
   35.7900009      -2.64027356E-09
   35.8499985      -2.90428503E-09
   35.9099998      -3.17767523E-09
   35.9700012      -3.45494677E-09
   36.0299988      -3.72928355E-09
   36.0900002      -3.99344868E-09
   36.1500015      -4.24008650E-09
   36.2099991      -4.46186910E-09
   36.2700005      -4.65197925E-09
   36.3300018      -4.80500439E-09
   36.3899994      -4.91783281E-09
   36.4500008      -4.99000619E-09
   36.5099983      -5.02325292E-09
   36.5699997      -5.02046271E-09
   36.6300011      -4.98465846E-09
   36.6899986      -4.91846830E-09
   36.7500000      -4.82417262E-09
   36.8100014      -4.70401229E-09
   36.8699989      -4.56032767E-09
   36.9300003      -4.39530590E-09
   36.9900017      -4.21046131E-09
   37.0499992      -4.00617539E-09
   37.1100006      -3.78156706E-09
   37.1699982      -3.53476737E-09
   37.2299995      -3.26351568E-09
   37.2900009      -2.96598435E-09
   37.3499985      -2.64179612E-09
   37.4099998      -2.29312747E-09
   37.4700012      -1.92557081E-09
   37.5299988      -1.54818924E-09
   37.5900002      -1.17226129E-09
   37.6500015      -8.08705325E-10
   37.7099991      -4.64938865E-10
   37.7700005      -1.42513099E-10
   37.8300018       1.63211528E-10
   37.8899994       4.60908978E-10
   37.9500008       7.59418806E-10
   38.0099983       1.06384979E-09
   38.0699997       1.37340850E-09
   38.1300011       1.68185577E-09
   38.1899986       1.98020245E-09
   38.2500000       2.26024177E-09
   38.3100014       2.51729082E-09
   38.3699989       2.75110934E-09
   38.4300003       2.96492941E-09
   38.4900017       3.16332938E-09
   38.5499992       3.34994832E-09
   38.6100006       3.52583407E-09
   38.6699982       3.68881126E-09
   38.7299995       3.83392029E-09
   38.7900009       3.95479294E-09
   38.8499985       4.04565892E-09
   38.9099998       4.10347178E-09
   38.9700012       4.12942169E-09
   39.0299988       4.12912593E-09
   39.0900002       4.11115986E-09
   39.1500015       4.08429912E-09
   39.2099991       4.05449940E-09
   39.2700005       4.02287759E-09
   39.3300018       3.98556788E-09
   39.3899994       3.93550392E-09
   39.4500008       3.86532184E-09
   39.5099983       3.77018905E-09
   39.5699997       3.64952779E-09
   39.6300011       3.50720453E-09
   39.6899986       3.35038797E-09
   39.7500000       3.18764104E-09
   39.8100014       3.02686320E-09
   39.8699989       2.87355784E-09
   39.9300003       2.72974421E-09
   39.9900017       2.59374744E-09
   40.0499992       2.46097542E-09
   40.1100006       2.32556152E-09
   40.1699982       2.18243357E-09
   40.2299995       2.02912753E-09
   40.2900009       1.86668347E-09
   40.3499985       1.69930814E-09
   40.4099998       1.53298574E-09
   40.4700012       1.37362999E-09
   40.5299988       1.22547095E-09
   40.5900002       1.09017062E-09
   40.6500015       9.66818514E-10
   40.7099991       8.52678261E-10
   40.7700005       7.44422912E-10
   40.8300018       6.39554576E-10
   40.8899994       5.37658806E-10
   40.9500008       4.41088666E-10
   41.0099983       3.54710372E-10
   41.0699997       2.84592183E-10
   41.1300011       2.35959613E-10
   41.1899986       2.11165363E-10
   41.2500000       2.08537659E-10
   41.3100014       2.22641988E-10
   41.3699989       2.45839155E-10
   41.4300003       2.70423933E-10
   41.4900017       2.90427321E-10
   41.5499992       3.02465469E-10
   41.6100006       3.05590803E-10
   41.6699982       3.00560243E-10
   41.7299995       2.89021890E-10
   41.7900009       2.72876804E-10
   41.8499985       2.53778804E-10
   41.9099998       2.32670272E-10
   41.9700012       2.09438800E-10
   42.0299988       1.82986182E-10
   42.0900002       1.51931898E-10
   42.1500015       1.15772454E-10
   42.2099991       7.58477656E-11
   42.2700005       3.53420834E-11
   42.3300018      -2.00649393E-12
   42.3899994      -3.39981931E-11
   42.4500008      -6.17262977E-11
   42.5099983      -8.98754265E-11
   42.5699997      -1.25215296E-10
   42.6300011      -1.74013692E-10
   42.6899986      -2.39763653E-10
   42.7500000      -3.22426918E-10
   42.8100014      -4.19449225E-10
   42.8699989      -5.27728472E-10
   42.9300003      -6.45224707E-10
   42.9900017      -7.71290087E-10
   43.0499992      -9.05751529E-10
   43.1100006      -1.04761533E-09
   43.1699982      -1.19442267E-09
   43.2299995      -1.34271438E-09
   43.2900009      -1.48923207E-09
   43.3499985      -1.63200797E-09
   43.4099998      -1.77066750E-09
   43.4700012      -1.90589589E-09
   43.5299988      -2.03858108E-09
   43.5900002      -2.16922835E-09
   43.6500015      -2.29785369E-09
   43.7099991      -2.42407561E-09
   43.7700005      -2.54697152E-09
   43.8300018      -2.66455435E-09
   43.8899994      -2.77320411E-09
   43.9500008      -2.86762059E-09
   44.0099983      -2.94161029E-09
   44.0699997      -2.98948621E-09
   44.1300011      -3.00744052E-09
   44.1899986      -2.99428637E-09
   44.2500000      -2.95141533E-09
   44.3100014      -2.88229129E-09
   44.3699989      -2.79192247E-09
   44.4300003      -2.68643374E-09
   44.4900017      -2.57244204E-09
   44.5499992      -2.45587040E-09
   44.6100006      -2.34028352E-09
   44.6699982      -2.22548335E-09
   44.7299995      -2.10740803E-09
   44.7900009      -1.97989092E-09
   44.8499985      -1.83777848E-09
   44.9099998      -1.67991099E-09
   44.9700012      -1.51031287E-09
   45.0299988      -1.33683142E-09
   45.0900002      -1.16790810E-09
   45.1500015      -1.00924424E-09
   45.2099991      -8.62100558E-10
   45.2700005      -7.23894500E-10
   45.3300018      -5.90352600E-10
   45.3899994      -4.57716726E-10
   45.4500008      -3.23834987E-10
   45.5099983      -1.88051977E-10
   45.5699997      -5.07687954E-11
   45.6300011       8.63816657E-11
   45.6899986       2.19635407E-10
   45.7500000       3.42394613E-10
   45.8100014       4.45970177E-10
   45.8699989       5.22238586E-10
   45.9300003       5.67258795E-10
   45.9900017       5.83852855E-10
   46.0499992       5.81340920E-10
   46.1100006       5.72067227E-10
   46.1699982       5.66207525E-10
   46.2299995       5.67432268E-10
   46.2900009       5.71612813E-10
   46.3499985       5.69132907E-10
   46.4099998       5.49516321E-10
   46.4700012       5.06080178E-10
   46.5299988       4.38633962E-10
   46.5900002       3.53478830E-10
   46.6500015       2.61254185E-10
   46.7099991       1.73809259E-10
   46.7700005       1.01144773E-10
   46.8300018       4.89902736E-11
   46.8899994       1.72926083E-11
   46.9500008      -6.79710194E-14
   47.0099983      -1.39225333E-11
   47.0699997      -3.66976033E-11
   47.1300011      -7.81949921E-11
   47.1899986      -1.41768805E-10
   47.2500000      -2.22671465E-10
   47.3100014      -3.09609255E-10
   47.3699989      -3.89068305E-10
   47.4300003      -4.50544962E-10
   47.4900017      -4.90300689E-10
   47.5499992      -5.12020759E-10
   47.6100006      -5.24332577E-10
   47.6699982      -5.36648004E-10
   47.7299995      -5.55370694E-10
   47.7900009      -5.81982795E-10
   47.8499985      -6.13344209E-10
   47.9099998      -6.43493925E-10
   47.9700012      -6.65872080E-10
   48.0299988      -6.75182410E-10
   48.0900002      -6.68649525E-10
   48.1500015      -6.46721954E-10
   48.2099991      -6.13197049E-10
   48.2700005      -5.74541914E-10
   48.3300018      -5.38224021E-10
   48.3899994      -5.10296083E-10
   48.4500008      -4.93049046E-10
   48.5099983      -4.83820151E-10
   48.5699997      -4.75707751E-10
   48.6300011      -4.60095212E-10
   48.6899986      -4.29985159E-10
   48.7500000      -3.82724907E-10
   48.8100014      -3.20990012E-10
   48.8699989      -2.51723503E-10
   48.9300003      -1.83618454E-10
   48.9900017      -1.24244018E-10
   49.0499992      -7.78738879E-11
   49.1100006      -4.46269410E-11
   49.1699982      -2.09693651E-11
   49.2299995      -1.20121708E-12
   49.2900009       2.06507849E-11
   49.3499985       4.91293083E-11
   49.4099998       8.63097996E-11
   49.4700012       1.31684830E-10
   49.5299988       1.82907328E-10
   49.5900002       2.37010328E-10
   49.6500015       2.91537988E-10
   49.7099991       3.45106083E-10
   49.7700005       3.97242739E-10
   49.8300018       4.47761439E-10
   49.8899994       4.96143848E-10
   49.9500008       5.41328482E-10
   50.0099983       5.81984239E-10
   50.0699997       6.17041973E-10
   50.1300011       6.46164178E-10
   50.1899986       6.69995170E-10
   50.2500000       6.90254576E-10
   50.3100014       7.09806380E-10
   50.3699989       7.32682914E-10
   50.4300003       7.63818231E-10
   50.4900017       8.08224043E-10
   50.5499992       8.69634198E-10
   50.6100006       9.49103574E-10