  -2.400000      0.0000000E+00
  -2.340000      0.0000000E+00
  -2.280000      0.0000000E+00
  -2.220000      0.0000000E+00
  -2.160000      0.0000000E+00
  -2.100000      3.4696952E-19
  -2.040000      2.6186516E-18
  -1.980000      9.7516810E-18
  -1.920000      2.2678146E-17
  -1.860000      3.2526419E-17
  -1.800000      1.3711166E-17
  -1.740000     -7.0524598E-17
  -1.680000     -2.4111899E-16
  -1.620000     -4.6195478E-16
  -1.560000     -6.1345075E-16
  -1.500000     -5.1756297E-16
  -1.440000     -2.6627753E-17
  -1.380000      8.6180229E-16
  -1.320000      1.9434881E-15
  -1.260000      2.8674670E-15
  -1.200000      3.3070493E-15
  -1.140000      3.1284544E-15
  -1.080000      2.4008522E-15
  -1.020000      1.1758775E-15
 -0.9600000     -8.4202481E-16
 -0.9000000     -4.4320343E-15
 -0.8400000     -1.0490840E-14
 -0.7800000     -1.9107276E-14
 -0.7200000     -2.8448764E-14
 -0.6600000     -3.4187707E-14
 -0.6000000     -3.0202952E-14
 -0.5400000     -1.0818748E-14
 -0.4800000      2.5966327E-14
 -0.4200000      7.5569413E-14
 -0.3600000      1.2580754E-13
 -0.3000000      1.5886382E-13
 -0.2400000      1.5618629E-13
 -0.1800000      1.0494639E-13
 -0.1200000      3.8015347E-15
 -5.9999999E-02 -1.3425545E-13
  0.0000000E+00 -2.8315618E-13
  5.9999999E-02 -4.0876265E-13
  0.1200000     -4.7593071E-13
  0.1800000     -4.5554001E-13
  0.2400000     -3.3010224E-13
  0.3000000     -9.7833369E-14
  0.3600000      2.2408361E-13
  0.4200000      5.9674325E-13
  0.4800000      9.5862478E-13
  0.5400000      1.2296483E-12
  0.6000000      1.3233309E-12
  0.6600000      1.1674638E-12
  0.7200000      7.2880867E-13
  0.7800000      3.2776119E-14
  0.8400000     -8.3179980E-13
  0.9000000     -1.7279273E-12
  0.9600000     -2.5018583E-12
   1.020000     -3.0179563E-12
   1.080000     -3.1814458E-12
   1.140000     -2.9395455E-12
   1.200000     -2.2645297E-12
   1.260000     -1.1353109E-12
   1.320000      4.6121944E-13
   1.380000      2.4964885E-12
   1.440000      4.8409987E-12
   1.500000      7.2071316E-12
   1.560000      9.1318203E-12
   1.620000      1.0028818E-11
   1.680000      9.3150791E-12
   1.740000      6.5837106E-12
   1.800000      1.7716569E-12
   1.860000     -4.7346320E-12
   1.920000     -1.2094987E-11
   1.980000     -1.9119779E-11
   2.040000     -2.4455778E-11
   2.100000     -2.6804673E-11
   2.160000     -2.5122472E-11
   2.220000     -1.8762932E-11
   2.280000     -7.5523606E-12
   2.340000      8.1954695E-12
   2.400000      2.7705695E-11
   2.460000      4.9795473E-11
   2.520000      7.2952845E-11
   2.580000      9.5453048E-11
   2.640000      1.1552583E-10
   2.700000      1.3157370E-10
   2.760000      1.4241643E-10
   2.820000      1.4751236E-10
   2.880000      1.4709763E-10
   2.940000      1.4219695E-10
   3.000000      1.3449329E-10
   3.060000      1.2608270E-10
   3.120000      1.1916990E-10
   3.180000      1.1576546E-10
   3.240000      1.1742989E-10
   3.300000      1.2508440E-10
   3.360000      1.3889023E-10
   3.420000      1.5819679E-10
   3.480000      1.8156877E-10
   3.540000      2.0690956E-10
   3.600000      2.3168802E-10
   3.660000      2.5324826E-10
   3.720000      2.6914806E-10
   3.780000      2.7745492E-10
   3.840000      2.7694108E-10
   3.900000      2.6715885E-10
   3.960000      2.4842392E-10
   4.020000      2.2175950E-10
   4.080000      1.8884154E-10
   4.140000      1.5194376E-10
   4.200000      1.1383307E-10
   4.260000      7.7546192E-11
   4.320000      4.6005668E-11
   4.380000      2.1503351E-11
   4.440000      5.1612729E-12
   4.500000     -3.4637796E-12
   4.560000     -6.4699049E-12
   4.620000     -7.3027504E-12
   4.680000     -1.0080384E-11
   4.740000     -1.8703589E-11
   4.800000     -3.5984677E-11
   4.860000     -6.3027854E-11
   4.920000     -9.9008426E-11
   4.980000     -1.4136083E-10
   5.040000     -1.8625676E-10
   5.100000     -2.2919104E-10
   5.160000     -2.6552480E-10
   5.220000     -2.9093705E-10
   5.280000     -3.0184089E-10
   5.340000     -2.9585526E-10
   5.400000     -2.7235350E-10
   5.460000     -2.3297281E-10
   5.520000     -1.8185228E-10
   5.580000     -1.2537030E-10
   5.640000     -7.1302568E-11
   5.700000     -2.7562940E-11
   5.760000     -8.8692947E-13
   5.820000      4.1524388E-12
   5.880000     -1.4427734E-11
   5.940000     -5.6096822E-11
   6.000000     -1.1812333E-10
   6.060000     -1.9583803E-10
   6.120000     -2.8275346E-10
   6.180000     -3.7071954E-10
   6.240000     -4.5043955E-10
   6.300000     -5.1256138E-10
   6.360000     -5.4921617E-10
   6.420000     -5.5551508E-10
   6.480000     -5.3038585E-10
   6.540000     -4.7635773E-10
   6.600000     -3.9841261E-10
   6.660000     -3.0251002E-10
   6.720000     -1.9457065E-10
   6.780000     -8.0408201E-11
   6.840000      3.3504557E-11
   6.900000      1.3912779E-10
   6.960000      2.2667900E-10
   7.020000      2.8571145E-10
   7.080000      3.0726294E-10
   7.140000      2.8622732E-10
   7.200000      2.2287763E-10
   7.260000      1.2282110E-10
   7.320000     -4.5989094E-12
   7.380000     -1.4873081E-10
   7.440000     -2.9985145E-10
   7.500000     -4.5043375E-10
   7.560000     -5.9526223E-10
   7.620000     -7.3079376E-10
   7.680000     -8.5439733E-10
   7.740000     -9.6393105E-10
   7.800000     -1.0577017E-09
   7.860000     -1.1345175E-09
   7.920000     -1.1935054E-09
   7.980000     -1.2336173E-09
   8.040000     -1.2530849E-09
   8.100000     -1.2492455E-09
   8.160000     -1.2190219E-09
   8.220000     -1.1599780E-09
   8.280000     -1.0715264E-09
   8.340000     -9.5574304E-10
   8.400000     -8.1742019E-10
   8.460000     -6.6335387E-10
   8.520000     -5.0117777E-10
   8.580000     -3.3819034E-10
   8.640000     -1.8052136E-10
   8.700000     -3.2767230E-11
   8.760000      1.0196556E-10
   8.820000      2.2175929E-10
   8.880000      3.2547873E-10
   8.940000      4.1240175E-10
   9.000000      4.8204174E-10
   9.060000      5.3432025E-10
   9.120000      5.7016419E-10
   9.180000      5.9239752E-10
   9.240000      6.0654048E-10
   9.300000      6.2098054E-10
   9.360000      6.4608330E-10
   9.420000      6.9219630E-10
   9.480000      7.6701129E-10
   9.540000      8.7314384E-10
   9.600000      1.0068379E-09
   9.660000      1.1583572E-09
   9.720000      1.3140233E-09
   9.780000      1.4592755E-09
   9.840000      1.5817895E-09
   9.900000      1.6737287E-09
   9.960000      1.7325396E-09
   10.02000      1.7601984E-09
   10.08000      1.7613017E-09
   10.14000      1.7407272E-09
   10.20000      1.7017215E-09
   10.26000      1.6451263E-09
   10.32000      1.5700615E-09
   10.38000      1.4757950E-09
   10.44000      1.3639614E-09
   10.50000      1.2399962E-09
   10.56000      1.1128534E-09
   10.62000      9.9277897E-10
   10.68000      8.8786423E-10
   10.74000      8.0080853E-10
   10.80000      7.2739831E-10
   10.86000      6.5750116E-10
   10.92000      5.7821697E-10
   10.98000      4.7779397E-10
   11.04000      3.4859071E-10
   11.10000      1.8793080E-10
   11.16000     -3.1473975E-12
   11.22000     -2.2214464E-10
   11.28000     -4.6683835E-10
   11.34000     -7.3545914E-10
   11.40000     -1.0253303E-09
   11.46000     -1.3310106E-09
   11.52000     -1.6433430E-09
   11.58000     -1.9503206E-09
   11.64000     -2.2396422E-09
   11.70000     -2.5018341E-09
   11.76000     -2.7324338E-09
   11.82000     -2.9321494E-09
   11.88000     -3.1048626E-09
   11.94000     -3.2543590E-09
   12.00000     -3.3812046E-09
   12.06000     -3.4810883E-09
   12.12000     -3.5452736E-09
   12.18000     -3.5629455E-09
   12.24000     -3.5245329E-09
   12.30000     -3.4247962E-09
   12.36000     -3.2646352E-09
   12.42000     -3.0510883E-09
   12.48000     -2.7956464E-09
   12.54000     -2.5115574E-09
   12.60000     -2.2110833E-09
   12.66000     -1.9035782E-09
   12.72000     -1.5948586E-09
   12.78000     -1.2878001E-09
   12.84000     -9.8366104E-10
   12.90000     -6.8347517E-10
   12.96000     -3.8901030E-10
   13.02000     -1.0310873E-10
   13.08000      1.7048365E-10
   13.14000      4.2759105E-10
   13.20000      6.6423961E-10
   13.26000      8.7740903E-10
   13.32000      1.0658551E-09
   13.38000      1.2308069E-09
   13.44000      1.3761786E-09
   13.50000      1.5079467E-09
   13.56000      1.6326133E-09
   13.62000      1.7551209E-09
   13.68000      1.8769397E-09
   13.74000      1.9950894E-09
   13.80000      2.1025246E-09
   13.86000      2.1897648E-09
   13.92000      2.2471993E-09
   13.98000      2.2673443E-09
   14.04000      2.2464979E-09
   14.10000      2.1855446E-09
   14.16000      2.0899162E-09
   14.22000      1.9688053E-09
   14.28000      1.8337531E-09
   14.34000      1.6968223E-09
   14.40000      1.5687491E-09
   14.46000      1.4576387E-09
   14.52000      1.3686829E-09
   14.58000      1.3049735E-09
   14.64000      1.2688828E-09
   14.70000      1.2630772E-09
   14.76000      1.2903103E-09
   14.82000      1.3517987E-09
   14.88000      1.4448608E-09
   14.94000      1.5610995E-09
   15.00000      1.6863220E-09
   15.06000      1.8026280E-09
   15.12000      1.8920616E-09
   15.18000      1.9404822E-09
   15.24000      1.9402531E-09
   15.30000      1.8909336E-09
   15.36000      1.7980143E-09
   15.42000      1.6704090E-09
   15.48000      1.5176490E-09
   15.54000      1.3475819E-09
   15.60000      1.1650695E-09
   15.66000      9.7189690E-10
   15.72000      7.6786161E-10
   15.78000      5.5270655E-10
   15.84000      3.2821140E-10
   15.90000      9.9506965E-11
   15.96000     -1.2519051E-10
   16.02000     -3.3660677E-10
   16.08000     -5.2748156E-10
   16.14000     -6.9528205E-10
   16.20000     -8.4316887E-10
   16.26000     -9.7864294E-10
   16.32000     -1.1105142E-09
   16.38000     -1.2457262E-09
   16.44000     -1.3875715E-09
   16.50000     -1.5359294E-09
   16.56000     -1.6889063E-09
   16.62000     -1.8444754E-09
   16.68000     -2.0008757E-09
   16.74000     -2.1555340E-09
   16.80000     -2.3034041E-09
   16.86000     -2.4361353E-09
   16.92000     -2.5430436E-09
   16.98000     -2.6137703E-09
   17.04000     -2.6414937E-09
   17.10000     -2.6252378E-09
   17.16000     -2.5703411E-09
   17.22000     -2.4870863E-09
   17.28000     -2.3882525E-09
   17.34000     -2.2865156E-09
   17.40000     -2.1922910E-09
   17.46000     -2.1121505E-09
   17.52000     -2.0477768E-09
   17.58000     -1.9955728E-09
   17.64000     -1.9472710E-09
   17.70000     -1.8918100E-09
   17.76000     -1.8182752E-09
   17.82000     -1.7190611E-09
   17.88000     -1.5921022E-09
   17.94000     -1.4412881E-09
   18.00000     -1.2749692E-09
   18.06000     -1.1033200E-09
   18.12000     -9.3573260E-10
   18.18000     -7.7919071E-10
   18.24000     -6.3788747E-10
   18.30000     -5.1367594E-10
   18.36000     -4.0667417E-10
   18.42000     -3.1555333E-10
   18.48000     -2.3748872E-10
   18.54000     -1.6808796E-10
   18.60000     -1.0163112E-10
   18.66000     -3.1720581E-11
   18.72000      4.7828068E-11
   18.78000      1.4211994E-10
   18.84000      2.5451377E-10
   18.90000      3.8617803E-10
   18.96000      5.3583227E-10
   19.02000      6.9969625E-10
   19.08000      8.7175706E-10
   19.14000      1.0444535E-09
   19.20000      1.2097414E-09
   19.26000      1.3603275E-09
   19.32000      1.4907734E-09
   19.38000      1.5982237E-09
   19.44000      1.6826476E-09
   19.50000      1.7465823E-09
   19.56000      1.7943986E-09
   19.62000      1.8311285E-09
   19.68000      1.8610087E-09
   19.74000      1.8861115E-09
   19.80000      1.9056170E-09
   19.86000      1.9162196E-09
   19.92000      1.9137469E-09
   19.98000      1.8954485E-09
   20.04000      1.8619435E-09
   20.10000      1.8178219E-09
   20.16000      1.7704607E-09
   20.22000      1.7274876E-09
   20.28000      1.6939817E-09
   20.34000      1.6706105E-09
   20.40000      1.6533913E-09
   20.46000      1.6349854E-09
   20.52000      1.6068183E-09
   20.58000      1.5611726E-09
   20.64000      1.4926690E-09
   20.70000      1.3989714E-09
   20.76000      1.2808363E-09
   20.82000      1.1416772E-09
   20.88000      9.8677144E-10
   20.94000      8.2223794E-10
   21.00000      6.5400874E-10
   21.06000      4.8707610E-10
   21.12000      3.2518213E-10
   21.18000      1.7084605E-10
   21.24000      2.5397962E-11
   21.30000     -1.1125811E-10
   21.36000     -2.4106797E-10
   21.42000     -3.6794226E-10
   21.48000     -4.9699134E-10
   21.54000     -6.3276356E-10
   21.60000     -7.7712742E-10
   21.66000     -9.2796099E-10
   21.72000     -1.0796102E-09
   21.78000     -1.2251357E-09
   21.84000     -1.3592295E-09
   21.90000     -1.4801387E-09
   21.96000     -1.5894350E-09
   22.02000     -1.6897996E-09
   22.08000     -1.7822830E-09
   22.14000     -1.8648629E-09
   22.20000     -1.9332709E-09
   22.26000     -1.9835191E-09
   22.32000     -2.0143955E-09
   22.38000     -2.0282038E-09
   22.44000     -2.0292386E-09
   22.50000     -2.0210407E-09
   22.56000     -2.0043056E-09
   22.62000     -1.9768305E-09
   22.68000     -1.9354371E-09
   22.74000     -1.8784436E-09
   22.80000     -1.8069387E-09
   22.86000     -1.7240549E-09
   22.92000     -1.6329398E-09
   22.98000     -1.5350839E-09
   23.04000     -1.4303955E-09
   23.10000     -1.3190909E-09
   23.16000     -1.2040590E-09
   23.22000     -1.0918647E-09
   23.28000     -9.9135911E-10
   23.34000     -9.1040481E-10
   23.40000     -8.5247870E-10
   23.46000     -8.1504670E-10
   23.52000     -7.9057988E-10
   23.58000     -7.6959061E-10
   23.64000     -7.4407253E-10
   23.70000     -7.0975414E-10
   23.76000     -6.6647027E-10
   23.82000     -6.1703143E-10
   23.88000     -5.6557770E-10
   23.94000     -5.1630078E-10
   24.00000     -4.7288057E-10
   24.06000     -4.3846621E-10
   24.12000     -4.1584128E-10
   24.18000     -4.0751380E-10
   24.24000     -4.1563972E-10
   24.30000     -4.4175347E-10
   24.36000     -4.8627541E-10
   24.42000     -5.4783839E-10
   24.48000     -6.2268474E-10
   24.54000     -7.0458522E-10
   24.60000     -7.8566259E-10
   24.66000     -8.5809104E-10
   24.72000     -9.1606756E-10
   24.78000     -9.5713903E-10
   24.84000     -9.8221276E-10
   24.90000     -9.9430530E-10
   24.96000     -9.9683650E-10
   25.02000     -9.9251096E-10
   25.08000     -9.8335451E-10
   25.14000     -9.7159880E-10
   25.20000     -9.6046837E-10
   25.26000     -9.5399688E-10
   25.32000     -9.5574493E-10
   25.38000     -9.6717379E-10
   25.44000     -9.8677255E-10
   25.50000     -1.0105744E-09
   25.56000     -1.0337612E-09
   25.62000     -1.0523290E-09
   25.68000     -1.0638292E-09
   25.74000     -1.0669602E-09
   25.80000     -1.0606924E-09
   25.86000     -1.0439489E-09
   25.92000     -1.0163552E-09
   25.98000     -9.7957931E-10
   26.04000     -9.3806618E-10
   26.10000     -8.9811408E-10
   26.16000     -8.6522844E-10
   26.22000     -8.4087565E-10
   26.28000     -8.2034213E-10
   26.34000     -7.9296653E-10
   26.40000     -7.4482359E-10
   26.46000     -6.6273276E-10
   26.52000     -5.3793509E-10
   26.58000     -3.6814779E-10
   26.64000     -1.5758890E-10
   26.70000      8.4611214E-11
   26.76000      3.4685754E-10
   26.82000      6.1774935E-10
   26.88000      8.8853308E-10
   26.94000      1.1549899E-09
   27.00000      1.4182907E-09
   27.06000      1.6843437E-09
   27.12000      1.9615121E-09
   27.18000      2.2572642E-09
   27.24000      2.5749469E-09
   27.30000      2.9120106E-09
   27.36000      3.2604470E-09
   27.42000      3.6092027E-09
   27.48000      3.9474317E-09
   27.54000      4.2671520E-09
   27.60000      4.5643138E-09
   27.66000      4.8381441E-09
   27.72000      5.0894138E-09
   27.78000      5.3186118E-09
   27.84000      5.5248202E-09
   27.90000      5.7056164E-09
   27.96000      5.8578666E-09
   28.02000      5.9789578E-09
   28.08000      6.0679426E-09
   28.14000      6.1261023E-09
   28.20000      6.1566436E-09
   28.26000      6.1635803E-09
   28.32000      6.1502488E-09
   28.38000      6.1181975E-09
   28.44000      6.0671046E-09
   28.50000      5.9958678E-09
   28.56000      5.9042806E-09
   28.62000      5.7942304E-09
   28.68000      5.6694915E-09
   28.74000      5.5340008E-09
   28.80000      5.3894871E-09
   28.86000      5.2339022E-09
   28.92000      5.0617688E-09
   28.98000      4.8664752E-09
   29.04000      4.6433852E-09
   29.10000      4.3921196E-09
   29.16000      4.1168589E-09
   29.22000      3.8247112E-09
   29.28000      3.5232719E-09
   29.34000      3.2187810E-09
   29.40000      2.9156537E-09
   29.46000      2.6170714E-09
   29.52000      2.3256426E-09
   29.58000      2.0432820E-09
   29.64000      1.7702904E-09
   29.70000      1.5044669E-09
   29.76000      1.2412519E-09
   29.82000      9.7523367E-10
   29.88000      7.0233197E-10
   29.94000      4.2135312E-10
   30.00000      1.3390350E-10
   30.06000     -1.5730119E-10
   30.12000     -4.5060444E-10
   30.18000     -7.4655759E-10
   30.24000     -1.0471827E-09
   30.30000     -1.3537100E-09
   30.36000     -1.6641607E-09
   30.42000     -1.9722739E-09
   30.48000     -2.2684779E-09
   30.54000     -2.5424147E-09
   30.60000     -2.7857241E-09
   30.66000     -2.9938210E-09
   30.72000     -3.1661509E-09
   30.78000     -3.3052900E-09
   30.84000     -3.4156873E-09
   30.90000     -3.5026579E-09
   30.96000     -3.5716741E-09
   31.02000     -3.6276189E-09
   31.08000     -3.6737546E-09
   31.14000     -3.7106207E-09
   31.20000     -3.7355052E-09
   31.26000     -3.7430894E-09
   31.32000     -3.7272945E-09
   31.38000     -3.6836156E-09
   31.44000     -3.6108281E-09
   31.50000     -3.5112215E-09
   31.56000     -3.3893330E-09
   31.62000     -3.2499985E-09
   31.68000     -3.0968816E-09
   31.74000     -2.9322376E-09
   31.80000     -2.7578120E-09
   31.86000     -2.5760210E-09
   31.92000     -2.3904303E-09
   31.98000     -2.2050981E-09
   32.04000     -2.0232163E-09
   32.10000     -1.8460306E-09
   32.16000     -1.6728849E-09
   32.22000     -1.5024701E-09
   32.28000     -1.3344914E-09
   32.34000     -1.1706125E-09
   32.40000     -1.0139515E-09
   32.46000     -8.6735247E-10
   32.52000     -7.3151080E-10
   32.58000     -6.0420008E-10
   32.64000     -4.8119653E-10
   32.70000     -3.5843239E-10
   32.76000     -2.3412614E-10
   32.82000     -1.0965499E-10
   32.88000      1.1257230E-11
   32.94000      1.2441650E-10
   33.00000      2.2687426E-10
   33.06000      3.1748570E-10
   33.12000      3.9617926E-10
   33.18000      4.6269708E-10
   33.24000      5.1585236E-10
   33.30000      5.5388788E-10
   33.36000      5.7564375E-10
   33.42000      5.8161959E-10
   33.48000      5.7407462E-10
   33.54000      5.5598970E-10
   33.60000      5.2951082E-10
   33.66000      4.9484661E-10
   33.72000      4.5027052E-10
   33.78000      3.9316903E-10
   33.84000      3.2148567E-10
   33.90000      2.3482608E-10
   33.96000      1.3486415E-10
   34.02000      2.5156420E-11
   34.08000     -8.9352893E-11
   34.14000     -2.0301903E-10
   34.20000     -3.1048927E-10
   34.26000     -4.0805717E-10
   34.32000     -4.9502841E-10
   34.38000     -5.7432853E-10
   34.44000     -6.5163147E-10
   34.50000     -7.3298462E-10
   34.56000     -8.2190660E-10
   34.62000     -9.1752017E-10
   34.68000     -1.0149086E-09
   34.74000     -1.1076386E-09
   34.80000     -1.1910321E-09
   34.86000     -1.2642384E-09
   34.92000     -1.3298970E-09
   34.98000     -1.3917373E-09
   35.04000     -1.4517917E-09
   35.10000     -1.5090682E-09
   35.16000     -1.5604084E-09
   35.22000     -1.6026709E-09
   35.28000     -1.6344823E-09
   35.34000     -1.6562509E-09
   35.40000     -1.6685860E-09
   35.46000     -1.6705981E-09
   35.52000     -1.6597126E-09
   35.58000     -1.6334696E-09
   35.64000     -1.5921400E-09
   35.70000     -1.5401608E-09
   35.76000     -1.4850564E-09
   35.82000     -1.4342614E-09
   35.88000     -1.3918172E-09
   35.94000     -1.3571060E-09
   36.00000     -1.3264055E-09
   36.06000     -1.2960801E-09
   36.12000     -1.2651024E-09
   36.18000     -1.2351472E-09
   36.24000     -1.2083338E-09
   36.30000     -1.1844344E-09
   36.36000     -1.1597450E-09
   36.42000     -1.1285347E-09
   36.48000     -1.0860299E-09
   36.54000     -1.0307081E-09
   36.60000     -9.6418429E-10
   36.66000     -8.8877461E-10
   36.72000     -8.0458268E-10
   36.78000     -7.0834305E-10
   36.84000     -5.9499211E-10
   36.90000     -4.6094192E-10
   36.96000     -3.0678948E-10
   37.02000     -1.3758912E-10
   37.08000      3.9465785E-11
   37.14000      2.1834931E-10
   37.20000      3.9635364E-10
   37.26000      5.7392907E-10
   37.32000      7.5275663E-10
   37.38000      9.3371588E-10
   37.44000      1.1161830E-09
   37.50000      1.2988257E-09
   37.56000      1.4808307E-09
   37.62000      1.6622769E-09
   37.68000      1.8432643E-09
   37.74000      2.0226147E-09
   37.80000      2.1974371E-09
   37.86000      2.3641813E-09
   37.92000      2.5205185E-09
   37.98000      2.6665679E-09
   38.04000      2.8043425E-09
   38.10000      2.9355995E-09
   38.16000      3.0595544E-09
   38.22000      3.1721301E-09
   38.28000      3.2673686E-09
   38.34000      3.3400978E-09
   38.40000      3.3880823E-09
   38.46000      3.4123413E-09
   38.52000      3.4157102E-09
   38.58000      3.4009744E-09
   38.64000      3.3700396E-09
   38.70000      3.3245611E-09
   38.76000      3.2671088E-09
   38.82000      3.2014056E-09
   38.88000      3.1309355E-09
   38.94000      3.0566825E-09
   39.00000      2.9757623E-09
   39.06000      2.8823735E-09
   39.12000      2.7709579E-09
   39.18000      2.6398075E-09
   39.24000      2.4928353E-09
   39.30000      2.3382698E-09
   39.36000      2.1849580E-09
   39.42000      2.0384376E-09
   39.48000      1.8989896E-09
   39.54000      1.7625231E-09
   39.60000      1.6233771E-09
   39.66000      1.4771794E-09
   39.72000      1.3222633E-09
   39.78000      1.1594026E-09
   39.84000      9.9072750E-10
   39.90000      8.1889001E-10
   39.96000      6.4687228E-10
   40.02000      4.7799797E-10
   40.08000      3.1547698E-10
   40.14000      1.6134973E-10
   40.20000      1.5486933E-11
   40.26000     -1.2441384E-10
   40.32000     -2.6144209E-10
   40.38000     -3.9730128E-10
   40.44000     -5.3061910E-10
   40.50000     -6.5679473E-10
   40.56000     -7.6947126E-10
   40.62000     -8.6272639E-10
   40.68000     -9.3276309E-10
   40.74000     -9.7842534E-10
   40.80000     -1.0007581E-09
   40.86000     -1.0023492E-09
   40.92000     -9.8696284E-10
   40.98000     -9.5932018E-10
   41.04000     -9.2445634E-10
   41.10000     -8.8636604E-10
   41.16000     -8.4643148E-10
   41.22000     -8.0271462E-10
   41.28000     -7.5096357E-10
   41.34000     -6.8714057E-10
   41.40000     -6.1014516E-10
   41.46000     -5.2307264E-10
   41.52000     -4.3217865E-10
   41.58000     -3.4418604E-10
   41.64000     -2.6364075E-10
   41.70000     -1.9189787E-10
   41.76000     -1.2809287E-10
   41.82000     -7.1034512E-11
   41.88000     -2.0415329E-11
   41.94000      2.3541735E-11
   42.00000      6.1480966E-11
   42.06000      9.5880914E-11
   42.12000      1.3038615E-10
   42.18000      1.6761703E-10
   42.24000      2.0692131E-10
   42.30000      2.4383076E-10
   42.36000      2.7193192E-10
   42.42000      2.8618097E-10
   42.48000      2.8561439E-10
   42.54000      2.7374045E-10
   42.60000      2.5641400E-10
   42.66000      2.3862326E-10
   42.72000      2.2220931E-10
   42.78000      2.0575187E-10
   42.84000      1.8632675E-10
   42.90000      1.6170684E-10
   42.96000      1.3157976E-10
   43.02000      9.7332885E-11
   43.08000      6.1050005E-11
   43.14000      2.4720132E-11
   43.20000     -9.8865274E-12
   43.26000     -4.1066008E-11
   43.32000     -6.7470814E-11
   43.38000     -8.9061578E-11
   43.44000     -1.0804049E-10
   43.50000     -1.2866429E-10
   43.56000     -1.5539291E-10
   43.62000     -1.9008135E-10
   43.68000     -2.2992405E-10
   43.74000     -2.6773950E-10
   43.80000     -2.9486719E-10
   43.86000     -3.0527111E-10
   43.92000     -2.9856859E-10
   43.98000     -2.8026947E-10
   44.04000     -2.5917452E-10
   44.10000     -2.4350127E-10
   44.16000     -2.3785601E-10
   44.22000     -2.4236829E-10
   44.28000     -2.5385899E-10
   44.34000     -2.6785746E-10
   44.40000     -2.8025285E-10
   44.46000     -2.8813679E-10
   44.52000     -2.9018379E-10
   44.58000     -2.8703478E-10
   44.64000     -2.8161368E-10
   44.70000     -2.7874458E-10
   44.76000     -2.8354266E-10
   44.82000     -2.9890712E-10
   44.88000     -3.2343170E-10
   44.94000     -3.5125541E-10
   45.00000     -3.7443285E-10
   45.06000     -3.8680611E-10
   45.12000     -3.8721970E-10
   45.18000     -3.8012324E-10
   45.24000     -3.7313147E-10
   45.30000     -3.7299155E-10
   45.36000     -3.8236711E-10
   45.42000     -3.9924047E-10
   45.48000     -4.1901790E-10
   45.54000     -4.3776216E-10
   45.60000     -4.5448803E-10
   45.66000     -4.7134313E-10
   45.72000     -4.9201093E-10
   45.78000     -5.1970200E-10
   45.84000     -5.5600552E-10
   45.90000     -6.0090893E-10
   45.96000     -6.5334504E-10
   46.02000     -7.1143696E-10
   46.08000     -7.7224688E-10
   46.14000     -8.3162166E-10
   46.20000     -8.8490060E-10
   46.26000     -9.2858782E-10
   46.32000     -9.6211306E-10
   46.38000     -9.8837549E-10
   46.44000     -1.0123642E-09
   46.50000     -1.0384326E-09
   46.56000     -1.0678455E-09
   46.62000     -1.0981781E-09
   46.68000     -1.1249881E-09
   46.74000     -1.1446830E-09
   46.80000     -1.1567339E-09
   46.86000     -1.1638991E-09
   46.92000     -1.1705242E-09
   46.98000     -1.1802561E-09
   47.04000     -1.1947405E-09
   47.10000     -1.2139635E-09
   47.16000     -1.2375836E-09
   47.22000     -1.2659085E-09
   47.28000     -1.2996046E-09
   47.34000     -1.3383935E-09
   47.40000     -1.3799585E-09
   47.46000     -1.4202414E-09
   47.52000     -1.4552759E-09
   47.58000     -1.4834562E-09
   47.64000     -1.5066440E-09
   47.70000     -1.5292028E-09
   47.76000     -1.5554377E-09
   47.82000     -1.5870185E-09
   47.88000     -1.6219777E-09
   47.94000     -1.6558077E-09
   48.00000     -1.6837948E-09
   48.06000     -1.7030014E-09
   48.12000     -1.7127204E-09
   48.18000     -1.7133855E-09
   48.24000     -1.7049998E-09
   48.30000     -1.6863413E-09
   48.36000     -1.6554885E-09
   48.42000     -1.6111457E-09
   48.48000     -1.5536500E-09
   48.54000     -1.4848152E-09
   48.60000     -1.4066543E-09
   48.66000     -1.3198596E-09
   48.72000     -1.2231138E-09
   48.78000     -1.1137723E-09
   48.84000     -9.8959907E-10
   48.90000     -8.5063689E-10
   48.96000     -7.0025585E-10
   49.02000     -5.4487648E-10
   49.08000     -3.9244472E-10
   49.14000     -2.5015898E-10
   49.20000     -1.2213644E-10
   49.26000     -7.7454822E-12
   49.32000      9.8723411E-11
   49.38000      2.0661235E-10
   49.44000      3.2578756E-10
   49.50000      4.6276369E-10
   49.56000      6.1761157E-10
   49.62000      7.8321477E-10
   49.68000      9.4757513E-10
   49.74000      1.0983991E-09
   49.80000      1.2279213E-09
   49.86000      1.3356368E-09
   49.92000      1.4276142E-09
   49.98000      1.5128336E-09
   50.04000      1.5985309E-09
   50.10000      1.6869199E-09
   50.16000      1.7747112E-09
   50.22000      1.8552107E-09
   50.28000      1.9214703E-09
   50.34000      1.9687283E-09
   50.40000      1.9951900E-09
   50.46000      2.0013866E-09
   50.52000      1.9890660E-09
   50.58000      1.9604685E-09
   50.64000      1.9181678E-09
   50.70000      1.8650768E-09
   50.76000      1.8041680E-09
   50.82000      1.7378984E-09
   50.88000      1.6677850E-09
   50.94000      1.5945868E-09
   51.00000      1.5190655E-09
   51.06000      1.4427411E-09
   51.12000      1.3679367E-09
   51.18000      1.2969017E-09
   51.24000      1.2305587E-09
   51.30000      1.1678220E-09
   51.36000      1.1061245E-09
   51.42000      1.0429275E-09
   51.48000      9.7723452E-10
   51.54000      9.1007424E-10
   51.60000      8.4363755E-10
   51.66000      7.7973961E-10
   51.72000      7.1876238E-10
   51.78000      6.5984607E-10
   51.84000      6.0211475E-10
   51.90000      5.4589550E-10
   51.96000      4.9287457E-10
   52.02000      4.4494899E-10
   52.08000      4.0257261E-10
   52.14000      3.6384709E-10
   52.20000      3.2512287E-10
   52.26000      2.8280284E-10
   52.32000      2.3519195E-10
   52.38000      1.8324149E-10
   52.44000      1.2986415E-10
   52.50000      7.8488015E-11
   52.56000      3.1918339E-11
   52.62000     -7.8905806E-12
   52.68000     -3.9437627E-11
   52.74000     -6.1477302E-11
   52.80000     -7.3577304E-11
   52.86000     -7.7130198E-11
   52.92000     -7.5828822E-11
   52.98000     -7.4761641E-11
   53.04000     -7.8258927E-11
   53.10000     -8.7712289E-11
   53.16000     -1.0089968E-10
   53.22000     -1.1351452E-10
   53.28000     -1.2212806E-10
   53.34000     -1.2676152E-10
   53.40000     -1.3140677E-10
   53.46000     -1.4215353E-10
   53.52000     -1.6415860E-10
   53.58000     -1.9940832E-10
   53.64000     -2.4661292E-10
   53.70000     -3.0307373E-10
   53.76000     -3.6710884E-10
   53.82000     -4.3943213E-10
   53.88000     -5.2281734E-10
   53.94000     -6.2061900E-10
   54.00000     -7.3535339E-10
   54.06000     -8.6818869E-10
   54.12000     -1.0192441E-09
   54.18000     -1.1879794E-09
   54.24000     -1.3731224E-09
   54.30000     -1.5723460E-09
   54.36000     -1.7825295E-09
   54.42000     -2.0011790E-09
   54.48000     -2.2286024E-09
   54.54000     -2.4694875E-09
   54.60000     -2.7324940E-09
   54.66000     -3.0276046E-09
   54.72000     -3.3625196E-09
   54.78000     -3.7401926E-09
   54.84000     -4.1591495E-09
   54.90000     -4.6164157E-09
   54.96000     -5.1113656E-09
   55.02000     -5.6481517E-09
   55.08000     -6.2354930E-09
   55.14000     -6.8842891E-09
   55.20000     -7.6047089E-09
   55.26000     -8.4045162E-09
   55.32000     -9.2891703E-09
   55.38000     -1.0262982E-08
   55.44000     -1.1330094E-08
   55.50000     -1.2494672E-08
   55.56000     -1.3760529E-08