 -0.750000000       0.00000000    
 -0.689999998       0.00000000    
 -0.629999995       0.00000000    
 -0.569999993       0.00000000    
 -0.509999990       0.00000000    
 -0.449999988       5.13093517E-19
 -0.389999986       3.90737870E-18
 -0.330000013       1.49120233E-17
 -0.270000011       3.66166354E-17
 -0.209999993       6.01261639E-17
 -0.150000006       5.34205747E-17
  -9.00000036E-02  -3.63423059E-17
  -2.99999993E-02  -2.52124518E-16
   2.99999993E-02  -5.68337349E-16
   9.00000036E-02  -8.34773998E-16
  0.150000006      -7.82095431E-16
  0.209999993      -1.45200214E-16
  0.270000011       1.09903510E-15
  0.330000013       2.49548802E-15
  0.389999986       3.09595857E-15
  0.449999988       1.87370549E-15
  0.509999990      -1.44215088E-15
  0.569999993      -5.50987690E-15
  0.629999995      -7.22725780E-15
  0.689999998      -2.95941665E-15
  0.750000000       8.87820040E-15
  0.810000002       2.50336420E-14
  0.870000005       3.64817971E-14
  0.930000007       3.11858016E-14
  0.990000010       6.51829387E-16
   1.04999995      -5.23604631E-14
   1.11000001      -1.09721124E-13
   1.16999996      -1.41813292E-13
   1.23000002      -1.20267267E-13
   1.28999996      -3.49049945E-14
   1.35000002       9.40882165E-14
   1.40999997       2.17682290E-13
   1.47000003       2.76422006E-13
   1.52999997       2.29759977E-13
   1.59000003       8.24876734E-14
   1.64999998      -1.07029782E-13
   1.71000004      -2.45251627E-13
   1.76999998      -2.44356754E-13
   1.83000004      -6.93386863E-14
   1.88999999       2.30389872E-13
   1.95000005       5.22154531E-13
   2.00999999       6.28796169E-13
   2.06999993       3.94982522E-13
   2.13000011      -2.40458668E-13
   2.19000006      -1.19177281E-12
   2.25000000      -2.21472385E-12
   2.30999994      -2.94749728E-12
   2.36999989      -3.00084328E-12
   2.43000007      -2.07847151E-12
   2.49000001      -9.52943169E-14
   2.54999995       2.74498740E-12
   2.60999990       5.94554180E-12
   2.67000008       8.79851660E-12
   2.73000002       1.05387686E-11
   2.78999996       1.05282614E-11
   2.84999990       8.41798679E-12
   2.91000009       4.24255769E-12
   2.97000003      -1.57207060E-12
   3.02999997      -8.27724000E-12
   3.08999991      -1.49156867E-11
   3.15000010      -2.04473886E-11
   3.21000004      -2.38654235E-11
   3.26999998      -2.42963184E-11
   3.32999992      -2.10896699E-11
   3.39000010      -1.39032674E-11
   3.45000005      -2.78800030E-12
   3.50999999       1.17223219E-11
   3.56999993       2.85077309E-11
   3.63000011       4.57405398E-11
   3.69000006       6.07626310E-11
   3.75000000       7.00192335E-11
   3.80999994       6.91469382E-11
   3.86999989       5.33198451E-11
   3.93000007       1.79038191E-11
   3.99000001      -4.06453413E-11
   4.05000019      -1.23837177E-10
   4.11000013      -2.30439015E-10
   4.17000008      -3.56270013E-10
   4.23000002      -4.94620400E-10
   4.28999996      -6.37203790E-10
   4.34999990      -7.75350506E-10
   4.40999985      -9.01064168E-10
   4.46999979      -1.00763931E-09
   4.53000021      -1.08974629E-09
   4.59000015      -1.14313881E-09
   4.65000010      -1.16430587E-09
   4.71000004      -1.15039189E-09
   4.76999998      -1.09953824E-09
   4.82999992      -1.01154518E-09
   4.88999987      -8.88524754E-10
   4.94999981      -7.35148276E-10
   5.01000023      -5.58211755E-10
   5.07000017      -3.65517505E-10
   5.13000011      -1.64371655E-10
   5.19000006       3.98095237E-11
   5.25000000       2.44298692E-10
   5.30999994       4.48993176E-10
   5.36999989       6.55558052E-10
   5.42999983       8.66168137E-10
   5.48999977       1.08240594E-09
   5.55000019       1.30480893E-09
   5.61000013       1.53328128E-09
   5.67000008       1.76821147E-09
   5.73000002       2.01179851E-09
   5.78999996       2.26894503E-09
   5.84999990       2.54718180E-09
   5.90999985       2.85541746E-09
   5.96999979       3.20175997E-09
   6.03000021       3.59104901E-09
   6.09000015       4.02292999E-09
   6.15000010       4.49117188E-09
   6.21000004       4.98455544E-09
   6.26999998       5.48909851E-09
   6.32999992       5.99089978E-09
   6.38999987       6.47866027E-09
   6.44999981       6.94504987E-09
   6.51000023       7.38656825E-09
   6.57000017       7.80213050E-09
   6.63000011       8.19112156E-09
   6.69000006       8.55182947E-09
   6.75000000       8.88094309E-09
   6.80999994       9.17430754E-09
   6.86999989       9.42854417E-09
   6.92999983       9.64277369E-09
   6.98999977       9.81967840E-09
   7.05000019       9.96545690E-09
   7.11000013       1.00887210E-08
   7.17000008       1.01988515E-08
   7.23000002       1.03044826E-08
   7.28999996       1.04126645E-08
   7.34999990       1.05289049E-08
   7.40999985       1.06578337E-08
   7.46999979       1.08039933E-08
   7.53000021       1.09721476E-08
   7.59000015       1.11667813E-08
   7.65000010       1.13907728E-08
   7.71000004       1.16436638E-08
   7.76999998       1.19201724E-08
   7.82999992       1.22096173E-08
   7.88999987       1.24966419E-08
   7.94999981       1.27632021E-08
   8.01000023       1.29913014E-08
   8.06999969       1.31656526E-08
   8.13000011       1.32754128E-08
   8.18999958       1.33144749E-08
   8.25000000       1.32803155E-08
   8.31000042       1.31719142E-08
   8.36999989       1.29876758E-08
   8.43000031       1.27242377E-08
   8.48999977       1.23767281E-08
   8.55000019       1.19404797E-08
   8.60999966       1.14135927E-08
   8.67000008       1.07993809E-08
   8.72999954       1.01077262E-08
   8.78999996       9.35469657E-09
   8.85000038       8.56046878E-09
   8.90999985       7.74620368E-09
   8.97000027       6.93098334E-09
   9.02999973       6.12988771E-09
   9.09000015       5.35380140E-09
   9.14999962       4.61074645E-09
   9.21000004       3.90783494E-09
   9.27000046       3.25262084E-09
   9.32999992       2.65295408E-09
   9.39000034       2.11525553E-09
   9.44999981       1.64203517E-09
   9.51000023       1.23000110E-09
   9.56999969       8.69926742E-10
   9.63000011       5.48605328E-10
   9.68999958       2.52174337E-10
   9.75000000      -3.06320525E-11
   9.81000042      -3.06713682E-10
   9.86999989      -5.78980752E-10
   9.93000031      -8.48469572E-10
   9.98999977      -1.11698784E-09
   10.0500002      -1.38894241E-09
   10.1099997      -1.67155523E-09
   10.1700001      -1.97353711E-09
   10.2299995      -2.30298158E-09
   10.2900000      -2.66542810E-09
   10.3500004      -3.06273784E-09
   10.4099998      -3.49291551E-09
   10.4700003      -3.95064825E-09
   10.5299997      -4.42825820E-09
   10.5900002      -4.91689400E-09
   10.6499996      -5.40788792E-09
   10.7100000      -5.89411631E-09
   10.7700005      -6.37099218E-09
   10.8299999      -6.83662504E-09
   10.8900003      -7.29087724E-09
   10.9499998      -7.73353648E-09
   11.0100002      -8.16239165E-09
   11.0699997      -8.57217852E-09
   11.1300001      -8.95509089E-09
   11.1899996      -9.30279942E-09
   11.2500000      -9.60913837E-09
   11.3100004      -9.87224080E-09
   11.3699999      -1.00951185E-08
   11.4300003      -1.02844302E-08
   11.4899998      -1.04479980E-08
   11.5500002      -1.05921885E-08
   11.6099997      -1.07202567E-08
   11.6700001      -1.08321947E-08
   11.7299995      -1.09259650E-08
   11.7900000      -1.09993845E-08
   11.8500004      -1.10517524E-08
   11.9099998      -1.10844995E-08
   11.9700003      -1.11006155E-08
   12.0299997      -1.11031433E-08
   12.0900002      -1.10934071E-08
   12.1499996      -1.10697798E-08
   12.2100000      -1.10275762E-08
   12.2700005      -1.09602221E-08
   12.3299999      -1.08612976E-08
   12.3900003      -1.07266569E-08
   12.4499998      -1.05557829E-08
   12.5100002      -1.03518785E-08
   12.5699997      -1.01207620E-08
   12.6300001      -9.86923432E-09
   12.6899996      -9.60369295E-09
   12.7500000      -9.32959576E-09
   12.8100004      -9.05177799E-09
   12.8699999      -8.77515038E-09
   12.9300003      -8.50511306E-09
   12.9899998      -8.24728463E-09
   13.0500002      -8.00659539E-09
   13.1099997      -7.78620635E-09
   13.1700001      -7.58679786E-09
   13.2299995      -7.40652117E-09
   13.2900000      -7.24155669E-09
   13.3500004      -7.08703496E-09
   13.4099998      -6.93805724E-09
   13.4700003      -6.79075018E-09
   13.5299997      -6.64332589E-09
   13.5900002      -6.49700471E-09
   13.6499996      -6.35640385E-09
   13.7100000      -6.22893293E-09
   13.7700005      -6.12297502E-09
   13.8299999      -6.04524075E-09
   13.8900003      -5.99828098E-09
   13.9499998      -5.97933969E-09
   14.0100002      -5.98126970E-09
   14.0699997      -5.99531003E-09
   14.1300001      -6.01454619E-09
   14.1899996      -6.03648243E-09
   14.2500000      -6.06352968E-09
   14.3100004      -6.10122175E-09
   14.3699999      -6.15509066E-09
   14.4300003      -6.22769925E-09
   14.4899998      -6.31716146E-09
   14.5500002      -6.41762732E-09
   14.6099997      -6.52124710E-09
   14.6700001      -6.62049704E-09
   14.7299995      -6.70977718E-09
   14.7900000      -6.78571777E-09
   14.8500004      -6.84637280E-09
   14.9099998      -6.88997792E-09
   14.9700003      -6.91406221E-09
   15.0299997      -6.91540425E-09
   15.0900002      -6.89082791E-09
   15.1499996      -6.83840717E-09
   15.2100000      -6.75841338E-09
   15.2700005      -6.65340982E-09
   15.3299999      -6.52723431E-09
   15.3900003      -6.38307007E-09
   15.4499998      -6.22125818E-09
   15.5100002      -6.03776984E-09
   15.5699997      -5.82413318E-09
   15.6300001      -5.56914914E-09
   15.6899996      -5.26201038E-09
   15.7500000      -4.89578555E-09
   15.8100004      -4.46995774E-09
   15.8699999      -3.99097289E-09
   15.9300003      -3.47052542E-09
   15.9899998      -2.92220781E-09
   16.0499992      -2.35783526E-09
   16.1100006      -1.78485904E-09
   16.1700001      -1.20577093E-09
   16.2299995      -6.19524265E-10
   16.2900009      -2.41368817E-11
   16.3500004       5.80792747E-10
   16.4099998       1.19277932E-09
   16.4699993       1.80681581E-09
   16.5300007       2.41704523E-09
   16.5900002       3.01874503E-09
   16.6499996       3.60952312E-09
   16.7099991       4.18905532E-09
   16.7700005       4.75748729E-09
   16.8299999       5.31335287E-09
   16.8899994       5.85218807E-09
   16.9500008       6.36671871E-09
   17.0100002       6.84872026E-09
   17.0699997       7.29173166E-09
   17.1299992       7.69329667E-09
   17.1900005       8.05549938E-09
   17.2500000       8.38338288E-09
   17.3099995       8.68182326E-09
   17.3700008       8.95229135E-09
   17.4300003       9.19098753E-09
   17.4899998       9.38928757E-09
   17.5499992       9.53635748E-09
   17.6100006       9.62287761E-09
   17.6700001       9.64439995E-09
   17.7299995       9.60312274E-09
   17.7900009       9.50762225E-09
   17.8500004       9.37093247E-09
   17.9099998       9.20786292E-09
   17.9699993       9.03253916E-09
   18.0300007       8.85683349E-09
   18.0900002       8.68985595E-09
   18.1499996       8.53828386E-09
   18.2099991       8.40706615E-09
   18.2700005       8.30006730E-09
   18.3299999       8.22032398E-09
   18.3899994       8.16984702E-09
   18.4500008       8.14913648E-09
   18.5100002       8.15675616E-09
   18.5699997       8.18936119E-09
   18.6299992       8.24242896E-09
   18.6900005       8.31160829E-09
   18.7500000       8.39424796E-09
   18.8099995       8.49042259E-09
   18.8700008       8.60288019E-09
   18.9300003       8.73570727E-09
   18.9899998       8.89203733E-09
   19.0499992       9.07159592E-09
   19.1100006       9.26897048E-09
   19.1700001       9.47327550E-09
   19.2299995       9.66935598E-09
   19.2900009       9.84011983E-09
   19.3500004       9.96924765E-09
   19.4099998       1.00434452E-08
   19.4699993       1.00536566E-08
   19.5300007       9.99506966E-09
   19.5900002       9.86617721E-09
   19.6499996       9.66747571E-09
   19.7099991       9.40044931E-09
   19.7700005       9.06729269E-09
   19.8299999       8.67144134E-09
   19.8899994       8.21853341E-09
   19.9500008       7.71716291E-09
   20.0100002       7.17881354E-09
   20.0699997       6.61676358E-09
   20.1299992       6.04425399E-09
   20.1900005       5.47264056E-09
   20.2500000       4.91025176E-09
   20.3099995       4.36234515E-09
   20.3700008       3.83193965E-09
   20.4300003       3.32091332E-09
   20.4899998       2.83068502E-09
   20.5499992       2.36216979E-09
   20.6100006       1.91523464E-09
   20.6700001       1.48820922E-09
   20.7299995       1.07796905E-09
   20.7900009       6.80704215E-10
   20.8500004       2.93037566E-10
   20.9099998      -8.70460787E-11
   20.9699993      -4.59839777E-10
   21.0300007      -8.24112611E-10
   21.0900002      -1.17755095E-09
   21.1499996      -1.51711332E-09
   21.2099991      -1.83924165E-09
   21.2700005      -2.14016671E-09
   21.3299999      -2.41659337E-09
   21.3899994      -2.66675726E-09
   21.4500008      -2.89141378E-09
   21.5100002      -3.09409609E-09
   21.5699997      -3.28022742E-09
   21.6299992      -3.45530649E-09
   21.6900005      -3.62305141E-09
   21.7500000      -3.78458642E-09
   21.8099995      -3.93930355E-09
   21.8700008      -4.08709289E-09
   21.9300003      -4.23076907E-09
   21.9899998      -4.37726122E-09
   22.0499992      -4.53671101E-09
   22.1100006      -4.71973571E-09
   22.1700001      -4.93416730E-09
   22.2299995      -5.18290877E-09
   22.2900009      -5.46403589E-09
   22.3500004      -5.77309178E-09
   22.4099998      -6.10640294E-09
   22.4699993      -6.46372911E-09
   22.5300007      -6.84894008E-09
   22.5900002      -7.26842941E-09
   22.6499996      -7.72806175E-09
   22.7099991      -8.23011526E-09
   22.7700005      -8.77156037E-09
   22.8299999      -9.34435640E-09
   22.8899994      -9.93751037E-09
   22.9500008      -1.05400089E-08
   23.0100002      -1.11434968E-08
   23.0699997      -1.17438770E-08
   23.1299992      -1.23414834E-08
   23.1900005      -1.29399851E-08
   23.2500000      -1.35445193E-08
   23.3099995      -1.41596033E-08
   23.3700008      -1.47873491E-08
   23.4300003      -1.54263660E-08
   23.4899998      -1.60715814E-08
   23.5499992      -1.67150400E-08
   23.6100006      -1.73475279E-08
   23.6700001      -1.79605877E-08
   23.7299995      -1.85483255E-08
   23.7900009      -1.91082972E-08
   23.8500004      -1.96410834E-08
   23.9099998      -2.01485424E-08
   23.9699993      -2.06313704E-08
   24.0300007      -2.10869917E-08
   24.0900002      -2.15088285E-08
   24.1499996      -2.18874838E-08
   24.2099991      -2.22134915E-08
   24.2700005      -2.24804921E-08
   24.3299999      -2.26873222E-08
   24.3899994      -2.28378525E-08
   24.4500008      -2.29384725E-08
   24.5100002      -2.29942714E-08
   24.5699997      -2.30057342E-08
   24.6299992      -2.29675710E-08
   24.6900005      -2.28703989E-08
   24.7500000      -2.27044943E-08
   24.8099995      -2.24638903E-08
   24.8700008      -2.21489262E-08
   24.9300003      -2.17662386E-08
   24.9899998      -2.13264499E-08
   25.0499992      -2.08409201E-08
   25.1100006      -2.03191544E-08
   25.1700001      -1.97678265E-08
   25.2299995      -1.91913525E-08
   25.2900009      -1.85930968E-08
   25.3500004      -1.79761876E-08
   25.4099998      -1.73434795E-08
   25.4699993      -1.66968874E-08
   25.5300007      -1.60368394E-08
   25.5900002      -1.53624118E-08
   25.6499996      -1.46721533E-08
   25.7099991      -1.39651428E-08
   25.7700005      -1.32416789E-08
   25.8299999      -1.25033779E-08
   25.8899994      -1.17529160E-08
   25.9500008      -1.09938654E-08
   26.0100002      -1.02308464E-08
   26.0699997      -9.46974055E-09
   26.1299992      -8.71745698E-09
   26.1900005      -7.98091815E-09
   26.2500000      -7.26551219E-09
   26.3099995      -6.57383170E-09
   26.3700008      -5.90549654E-09
   26.4300003      -5.25834043E-09
   26.4899998      -4.63035432E-09
   26.5499992      -4.02127753E-09
   26.6100006      -3.43292972E-09
   26.6700001      -2.86822122E-09
   26.7299995      -2.32966046E-09
   26.7900009      -1.81848714E-09
   26.8500004      -1.33502220E-09
   26.9099998      -8.79843698E-10
   26.9699993      -4.54683069E-10
   27.0300007      -6.20594479E-11
   27.0900002       2.96401598E-10
   27.1499996       6.21945107E-10
   27.2099991       9.19512799E-10
   27.2700005       1.19659482E-09
   27.3299999       1.46056134E-09
   27.3899994       1.71600545E-09
   27.4500008       1.96371075E-09
   27.5100002       2.20183249E-09
   27.5699997       2.42844211E-09
   27.6299992       2.64368660E-09
   27.6900005       2.85012303E-09
   27.7500000       3.05104941E-09
   27.8099995       3.24802607E-09
   27.8700008       3.43929041E-09
   27.9300003       3.62006780E-09
   27.9899998       3.78442477E-09
   28.0499992       3.92723720E-09
   28.1100006       4.04484357E-09
   28.1700001       4.13398604E-09
   28.2299995       4.18992219E-09
   28.2900009       4.20523483E-09
   28.3500004       4.17038759E-09
   28.4099998       4.07589029E-09
   28.4699993       3.91487864E-09
   28.5300007       3.68476982E-09
   28.5900002       3.38738748E-09
   28.6499996       3.02798653E-09
   28.7099991       2.61412447E-09
   28.7700005       2.15497975E-09
   28.8299999       1.66087888E-09
   28.8899994       1.14225829E-09
   28.9500008       6.07569217E-10
   29.0100002       6.06065198E-11
   29.0699997      -5.01375830E-10
   29.1299992      -1.08739340E-09
   29.1900005      -1.70998649E-09
   29.2500000      -2.38115372E-09
   29.3099995      -3.10895931E-09
   29.3700008      -3.89636101E-09
   29.4300003      -4.74228345E-09
   29.4899998      -5.64340619E-09
   29.5499992      -6.59465327E-09
   29.6100006      -7.58740359E-09
   29.6700001      -8.60630056E-09
   29.7299995      -9.62699165E-09
   29.7900009      -1.06170503E-08
   29.8500004      -1.15407213E-08
   29.9099998      -1.23658914E-08
   29.9699993      -1.30702862E-08
   30.0300007      -1.36441995E-08
   30.0900002      -1.40888812E-08
   30.1499996      -1.44119445E-08
   30.2099991      -1.46224153E-08
   30.2700005      -1.47277994E-08
   30.3299999      -1.47339794E-08
   30.3899994      -1.46470454E-08
   30.4500008      -1.44752850E-08
   30.5100002      -1.42298537E-08
   30.5699997      -1.39237253E-08
   30.6299992      -1.35695553E-08
   30.6900005      -1.31775435E-08
   30.7500000      -1.27540680E-08
   30.8099995      -1.23012818E-08
   30.8700008      -1.18174626E-08
   30.9300003      -1.12978000E-08
   30.9899998      -1.07354703E-08
   31.0499992      -1.01228670E-08
   31.1100006      -9.45276835E-09
   31.1700001      -8.71907258E-09
   31.2299995      -7.91678900E-09
   31.2900009      -7.04140701E-09
   31.3500004      -6.08820239E-09
   31.4099998      -5.05226749E-09
   31.4699993      -3.92970900E-09
   31.5300007      -2.71976264E-09
   31.5900002      -1.42686796E-09
   31.6499996      -6.16583243E-11
   31.7099991       1.35969602E-09
   31.7700005       2.81744317E-09
   31.8299999       4.29051417E-09
   31.8899994       5.75807668E-09
   31.9500008       7.20000370E-09
   32.0099983       8.59670113E-09
   32.0699997       9.92919169E-09
   32.1300011       1.11800960E-08
   32.1899986       1.23353985E-08
   32.2500000       1.33861224E-08
   32.3100014       1.43288306E-08
   32.3699989       1.51644368E-08
   32.4300003       1.58956794E-08
   32.4900017       1.65244352E-08
   32.5499992       1.70501302E-08
   32.6100006       1.74698691E-08
   32.6699982       1.77799713E-08
   32.7299995       1.79778468E-08
   32.7900009       1.80630124E-08
   32.8499985       1.80367312E-08
   32.9099998       1.79006303E-08
   32.9700012       1.76553066E-08
   33.0299988       1.73000601E-08
   33.0900002       1.68341501E-08
   33.1500015       1.62591682E-08
   33.2099991       1.55812803E-08
   33.2700005       1.48121124E-08
   33.3300018       1.39675675E-08
   33.3899994       1.30649349E-08
   33.4500008       1.21194299E-08
   33.5099983       1.11415881E-08
   33.5699997       1.01364934E-08
   33.6300011       9.10491327E-09
   33.6899986       8.04552602E-09
   33.7500000       6.95710378E-09
   33.8100014       5.83976600E-09
   33.8699989       4.69510564E-09
   33.9300003       3.52565754E-09
   33.9900017       2.33442110E-09
   34.0499992       1.12485399E-09
   34.1100006      -9.87493975E-11
   34.1699982      -1.33098832E-09
   34.2299995      -2.56562149E-09
   34.2900009      -3.79636811E-09
   34.3499985      -5.01772757E-09
   34.4099998      -6.22512397E-09
   34.4700012      -7.41402006E-09
   34.5299988      -8.57829097E-09
   34.5900002      -9.70872005E-09
   34.6500015      -1.07925651E-08
   34.7099991      -1.18146337E-08
   34.7700005      -1.27595410E-08
   34.8300018      -1.36141187E-08
   34.8899994      -1.43689514E-08
   34.9500008      -1.50184540E-08
   35.0099983      -1.55597384E-08
   35.0699997      -1.59911231E-08
   35.1300011      -1.63112368E-08
   35.1899986      -1.65191842E-08
   35.2500000      -1.66155338E-08
   35.3100014      -1.66034049E-08
   35.3699989      -1.64888192E-08
   35.4300003      -1.62799783E-08
   35.4900017      -1.59857247E-08
   35.5499992      -1.56138906E-08
   35.6100006      -1.51702739E-08
   35.6699982      -1.46585570E-08
   35.7299995      -1.40809524E-08
   35.7900009      -1.34390046E-08
   35.8499985      -1.27340334E-08
   35.9099998      -1.19671659E-08
   35.9700012      -1.11393454E-08
   36.0299988      -1.02519069E-08
   36.0900002      -9.30793487E-09
   36.1500015      -8.31395930E-09
   36.2099991      -7.28096428E-09
   36.2700005      -6.22368868E-09
   36.3300018      -5.15795717E-09
   36.3899994      -4.09693124E-09
   36.4500008      -3.04809866E-09
   36.5099983      -2.01281192E-09
   36.5699997      -9.89061055E-10
   36.6300011       2.35718146E-11
   36.6899986       1.01925046E-09
   36.7500000       1.98416150E-09
   36.8100014       2.89905189E-09
   36.8699989       3.74513487E-09
   36.9300003       4.51056081E-09
   36.9900017       5.19416377E-09
   37.0499992       5.80447290E-09
   37.1100006       6.35439035E-09
   37.1699982       6.85416701E-09
   37.2299995       7.30613881E-09
   37.2900009       7.70370789E-09
   37.3499985       8.03481726E-09
   37.4099998       8.28794100E-09
   37.4700012       8.45753778E-09
   37.5299988       8.54645243E-09
   37.5900002       8.56447269E-09
   37.6500015       8.52415116E-09
   37.7099991       8.43611758E-09
   37.7700005       8.30604474E-09
   37.8300018       8.13433143E-09
   37.8899994       7.91821719E-09
   37.9500008       7.65498864E-09
   38.0099983       7.34466665E-09
   38.0699997       6.99098823E-09
   38.1300011       6.60037136E-09
   38.1899986       6.17947693E-09
   38.2500000       5.73258685E-09
   38.3100014       5.26010924E-09
   38.3699989       4.75902695E-09
   38.4300003       4.22525614E-09
   38.4900017       3.65694808E-09
   38.5499992       3.05727088E-09
   38.6100006       2.43538589E-09
   38.6699982       1.80516257E-09
   38.7299995       1.18226251E-09
   38.7900009       5.80986481E-10
   38.8499985       1.22867879E-11
   38.9099998      -5.16385767E-10
   38.9700012      -9.99779370E-10
   39.0299988      -1.43318868E-09
   39.0900002      -1.81154924E-09
   39.1500015      -2.12969131E-09
   39.2099991      -2.38328957E-09
   39.2700005      -2.56958033E-09
   39.3300018      -2.68714295E-09
   39.3899994      -2.73481060E-09
   39.4500008      -2.71052469E-09
   39.5099983      -2.61115929E-09
   39.5699997      -2.43383469E-09
   39.6300011      -2.17830443E-09
   39.6899986      -1.84921467E-09
   39.7500000      -1.45687706E-09
   39.8100014      -1.01581465E-09
   39.8699989      -5.41405143E-10
   39.9300003      -4.59178078E-11
   39.9900017       4.64381200E-10
   40.0499992       9.89792803E-10
   40.1100006       1.53515400E-09
   40.1699982       2.10607820E-09
   40.2299995       2.70507794E-09
   40.2900009       3.32920735E-09
   40.3499985       3.97016331E-09
   40.4099998       4.61666794E-09
   40.4700012       5.25795718E-09
   40.5299988       5.88676530E-09
   40.5900002       6.50055210E-09
   40.6500015       7.10065029E-09
   40.7099991       7.69001574E-09
   40.7700005       8.27083557E-09
   40.8300018       8.84307738E-09
   40.8899994       9.40435640E-09
   40.9500008       9.95072469E-09
   41.0099983       1.04776143E-08
   41.0699997       1.09803864E-08
   41.1300011       1.14544747E-08
   41.1899986       1.18955246E-08
   41.2500000       1.22998101E-08
   41.3100014       1.26648159E-08
   41.3699989       1.29893811E-08
   41.4300003       1.32729658E-08
   41.4900017       1.35141329E-08
   41.5499992       1.37091352E-08
   41.6100006       1.38517375E-08
   41.6699982       1.39348408E-08
   41.7299995       1.39533514E-08
   41.7900009       1.39067682E-08
   41.8499985       1.37999159E-08
   41.9099998       1.36412588E-08
   41.9700012       1.34396627E-08
   42.0299988       1.32014959E-08
   42.0900002       1.29296884E-08
   42.1500015       1.26251072E-08
   42.2099991       1.22890498E-08
   42.2700005       1.19249881E-08
   42.3300018       1.15382868E-08
   42.3899994       1.11341381E-08
   42.4500008       1.07152536E-08
   42.5099983       1.02810969E-08
   42.5699997       9.82934445E-09
   42.6300011       9.35871736E-09
   42.6899986       8.87131879E-09
   42.7500000       8.37293701E-09
   42.8100014       7.87114018E-09
   42.8699989       7.37246708E-09
   42.9300003       6.88053126E-09
   42.9900017       6.39614806E-09
   43.0499992       5.91908877E-09
   43.1100006       5.44998091E-09
   43.1699982       4.99085751E-09
   43.2299995       4.54394344E-09
   43.2900009       4.10962286E-09
   43.3499985       3.68514752E-09
   43.4099998       3.26512839E-09
   43.4700012       2.84353585E-09
   43.5299988       2.41583442E-09
   43.5900002       1.97972172E-09
   43.6500015       1.53390800E-09
   43.7099991       1.07575959E-09
   43.7700005       5.99514216E-10
   43.8300018       9.65459865E-11
   43.8899994      -4.42020337E-10
   43.9500008      -1.02146602E-09
   44.0099983      -1.64029945E-09
   44.0699997      -2.28936758E-09
   44.1300011      -2.95377278E-09
   44.1899986      -3.61681929E-09
   44.2500000      -4.26438795E-09
   44.3100014      -4.88810725E-09
   44.3699989      -5.48632739E-09
   44.4300003      -6.06281736E-09
   44.4900017      -6.62389166E-09
   44.5499992      -7.17509563E-09
   44.6100006      -7.71857867E-09
   44.6699982      -8.25196178E-09
   44.7299995      -8.76896333E-09
   44.7900009      -9.26149735E-09
   44.8499985      -9.72248326E-09
   44.9099998      -1.01484456E-08
   44.9700012      -1.05410596E-08
   45.0299988      -1.09071534E-08
   45.0900002      -1.12571037E-08
   45.1500015      -1.16019869E-08
   45.2099991      -1.19501342E-08
   45.2700005      -1.23040289E-08
   45.3300018      -1.26584894E-08
   45.3899994      -1.30009861E-08
   45.4500008      -1.33143763E-08
   45.5099983      -1.35815243E-08
   45.5699997      -1.37903733E-08
   45.6300011      -1.39375862E-08
   45.6899986      -1.40292151E-08
   45.7500000      -1.40780472E-08
   45.8100014      -1.40987071E-08
   45.8699989      -1.41026915E-08
   45.9300003      -1.40954493E-08
   45.9900017      -1.40765684E-08
   46.0499992      -1.40425502E-08
   46.1100006      -1.39904754E-08
   46.1699982      -1.39207224E-08
   46.2299995      -1.38377203E-08
   46.2900009      -1.37489078E-08
   46.3499985      -1.36628318E-08
   46.4099998      -1.35873641E-08
   46.4700012      -1.35283731E-08
   46.5299988      -1.34886724E-08
   46.5900002      -1.34669955E-08
   46.6500015      -1.34572096E-08
   46.7099991      -1.34484583E-08
   46.7700005      -1.34269076E-08
   46.8300018      -1.33790330E-08
   46.8899994      -1.32954092E-08
   46.9500008      -1.31733859E-08
   47.0099983      -1.30173845E-08
   47.0699997      -1.28366597E-08
   47.1300011      -1.26416095E-08
   47.1899986      -1.24403448E-08
   47.2500000      -1.22368444E-08
   47.3100014      -1.20310606E-08
   47.3699989      -1.18203385E-08
   47.4300003      -1.16011494E-08
   47.4900017      -1.13703971E-08
   47.5499992      -1.11261267E-08
   47.6100006      -1.08678053E-08
   47.6699982      -1.05962563E-08
   47.7299995      -1.03131397E-08
   47.7900009      -1.00198401E-08
   47.8499985      -9.71604663E-09
   47.9099998      -9.39887190E-09
   47.9700012      -9.06343978E-09
   48.0299988      -8.70530048E-09
   48.0900002      -8.32389979E-09
   48.1500015      -7.92536703E-09
   48.2099991      -7.52287210E-09
   48.2700005      -7.13386639E-09
   48.3300018      -6.77517242E-09
   48.3899994      -6.45810649E-09
   48.4500008      -6.18584872E-09
   48.5099983      -5.95403105E-09
   48.5699997      -5.75382408E-09
   48.6300011      -5.57564439E-09
   48.6899986      -5.41168266E-09
   48.7500000      -5.25656807E-09
   48.8100014      -5.10678566E-09
   48.8699989      -4.96008257E-09
   48.9300003      -4.81565721E-09
   48.9900017      -4.67488492E-09
   49.0499992      -4.54153293E-09
   49.1100006      -4.42054660E-09
   49.1699982      -4.31548264E-09
   49.2299995      -4.22584501E-09
   49.2900009      -4.14607815E-09
   49.3499985      -4.06730916E-09
   49.4099998      -3.98146982E-09
   49.4700012      -3.88597288E-09
   49.5299988      -3.78662124E-09
   49.5900002      -3.69716413E-09
   49.6500015      -3.63551278E-09
   49.7099991      -3.61821462E-09
   49.7700005      -3.65551833E-09
   49.8300018      -3.74896425E-09
   49.8899994      -3.89217103E-09
   49.9500008      -4.07410861E-09
   50.0099983      -4.28324398E-09
   50.0699997      -4.51090187E-09
   50.1300011      -4.75277684E-09
   50.1899986      -5.00845099E-09
   50.2500000      -5.27951061E-09
   50.3100014      -5.56723689E-09
   50.3699989      -5.87080384E-09
   50.4300003      -6.18661167E-09
   50.4900017      -6.50894449E-09
   50.5499992      -6.83170143E-09
   50.6100006      -7.15060322E-09