 -0.750000000       0.00000000    
 -0.689999998       0.00000000    
 -0.629999995       0.00000000    
 -0.569999993       0.00000000    
 -0.509999990       0.00000000    
 -0.449999988       3.46975228E-19
 -0.389999986       2.61864165E-18
 -0.330000013       9.75145853E-18
 -0.270000011       2.26772210E-17
 -0.209999993       3.25244638E-17
 -0.150000006       1.37091902E-17
  -9.00000036E-02  -7.05238970E-17
  -2.99999993E-02  -2.41114255E-16
   2.99999993E-02  -4.61951494E-16
   9.00000036E-02  -6.13460383E-16
  0.150000006      -5.17584776E-16
  0.209999993      -2.66208244E-17
  0.270000011       8.61912881E-16
  0.330000013       1.94371446E-15
  0.389999986       2.86758113E-15
  0.449999988       3.30649094E-15
  0.509999990       3.12661439E-15
  0.569999993       2.39790432E-15
  0.629999995       1.17381233E-15
  0.689999998      -8.39230344E-16
  0.750000000      -4.42040999E-15
  0.810000002      -1.04708959E-14
  0.870000005      -1.90888565E-14
  0.930000007      -2.84516842E-14
  0.990000010      -3.42332465E-14
   1.04999995      -3.02956343E-14
   1.11000001      -1.09263125E-14
   1.16999996       2.59185763E-14
   1.23000002       7.56732594E-14
   1.28999996       1.26112350E-13
   1.35000002       1.59305037E-13
   1.40999997       1.56549022E-13
   1.47000003       1.04915486E-13
   1.52999997       3.11747872E-15
   1.59000003      -1.35580552E-13
   1.64999998      -2.84676444E-13
   1.71000004      -4.09630798E-13
   1.76999998      -4.75209011E-13
   1.83000004      -4.52735722E-13
   1.88999999      -3.25705229E-13
   1.95000005      -9.35281990E-14
   2.00999999       2.25806556E-13
   2.06999993       5.93616519E-13
   2.13000011       9.49961030E-13
   2.19000006       1.21740855E-12
   2.25000000       1.31221444E-12
   2.30999994       1.16360263E-12
   2.36999989       7.37234221E-13
   2.43000007       5.45084709E-14
   2.49000001      -8.01729288E-13
   2.54999995      -1.70025582E-12
   2.60999990      -2.49008583E-12
   2.67000008      -3.03310458E-12
   2.73000002      -3.22632849E-12
   2.78999996      -3.00499231E-12
   2.84999990      -2.32977570E-12
   2.91000009      -1.17348514E-12
   2.97000003       4.73578533E-13
   3.02999997       2.56895416E-12
   3.08999991       4.96197614E-12
   3.15000010       7.34347912E-12
   3.21000004       9.23693153E-12
   3.26999998       1.00575364E-11
   3.32999992       9.24074706E-12
   3.39000010       6.41106048E-12
   3.45000005       1.54004511E-12
   3.50999999      -4.96003846E-12
   3.56999993      -1.22420398E-11
   3.63000011      -1.91321993E-11
   3.69000006      -2.43121825E-11
   3.75000000      -2.65271416E-11
   3.80999994      -2.47718200E-11
   3.86999989      -1.84228414E-11
   3.93000007      -7.30818531E-12
   3.99000001       8.27632754E-12
   4.05000019       2.75868373E-11
   4.11000013       4.94768983E-11
   4.17000008       7.24709251E-11
   4.23000002       9.48784384E-11
   4.28999996       1.14960798E-10
   4.34999990       1.31146455E-10
   4.40999985       1.42266934E-10
   4.46999979       1.47764634E-10
   4.53000021       1.47818605E-10
   4.59000015       1.43350803E-10
   4.65000010       1.35907841E-10
   4.71000004       1.27447969E-10
   4.76999998       1.20082666E-10
   4.82999992       1.15820353E-10
   4.88999987       1.16339195E-10
   4.94999981       1.22795038E-10
   5.01000023       1.35661996E-10
   5.07000017       1.54614752E-10
   5.13000011       1.78481230E-10
   5.19000006       2.05304121E-10
   5.25000000       2.32534880E-10
   5.30999994       2.57343757E-10
   5.36999989       2.76984685E-10
   5.42999983       2.89130109E-10
   5.48999977       2.92103813E-10
   5.55000019       2.84987728E-10
   5.61000013       2.67632888E-10
   5.67000008       2.40637121E-10
   5.73000002       2.05339190E-10
   5.78999996       1.63830047E-10
   5.84999990       1.18923496E-10
   5.90999985       7.39981687E-11
   5.96999979       3.26433672E-11
   6.03000021      -1.88685504E-12
   6.09000015      -2.73147303E-11
   6.15000010      -4.29036633E-11
   6.21000004      -4.97578818E-11
   6.26999998      -5.07191546E-11
   6.32999992      -4.98353546E-11
   6.38999987      -5.15091095E-11
   6.44999981      -5.95416633E-11
   6.51000023      -7.63226010E-11
   6.57000017      -1.02364728E-10
   6.63000011      -1.36260642E-10
   6.69000006      -1.74998668E-10
   6.75000000      -2.14483348E-10
   6.80999994      -2.50097970E-10
   6.86999989      -2.77225881E-10
   6.92999983      -2.91748431E-10
   6.98999977      -2.90588831E-10
   7.05000019      -2.72329714E-10
   7.11000013      -2.37807080E-10
   7.17000008      -1.90462118E-10
   7.23000002      -1.36209169E-10
   7.28999996      -8.27016997E-11
   7.34999990      -3.81089292E-11
   7.40999985      -9.72816706E-12
   7.46999979      -2.83028830E-12
   7.53000021      -2.00119626E-11
   7.59000015      -6.10782674E-11
   7.65000010      -1.23259486E-10
   7.71000004      -2.01510975E-10
   7.76999998      -2.88787799E-10
   7.82999992      -3.76413622E-10
   7.88999987      -4.54790372E-10
   7.94999981      -5.14593090E-10
   8.01000023      -5.48287860E-10
   8.06999969      -5.51495294E-10
   8.13000011      -5.23632748E-10
   8.18999958      -4.67521688E-10
   8.25000000      -3.88149957E-10
   8.31000042      -2.91240088E-10
   8.36999989      -1.82395182E-10
   8.43000031      -6.72495046E-11
   8.48999977       4.75923537E-11
   8.55000019       1.53611943E-10
   8.60999966       2.40344439E-10
   8.67000008       2.96737412E-10
   8.72999954       3.13600729E-10
   8.78999996       2.86158097E-10
   8.85000038       2.15526180E-10
   8.90999985       1.08395320E-10
   8.97000027      -2.49684648E-11
   9.02999973      -1.73504100E-10
   9.09000015      -3.27739252E-10
   9.14999962      -4.80926077E-10
   9.21000004      -6.28802677E-10
   9.27000046      -7.68533071E-10
   9.32999992      -8.97647401E-10
   9.39000034      -1.01356934E-09
   9.44999981      -1.11379339E-09
   9.51000023      -1.19632571E-09
   9.56999969      -1.25989297E-09
   9.63000011      -1.30368560E-09
   9.68999958      -1.32679989E-09
   9.75000000      -1.32780165E-09
   9.81000042      -1.30478373E-09
   9.86999989      -1.25598143E-09
   9.93000031      -1.18066779E-09
   9.98999977      -1.07989673E-09
   10.0500002      -9.56762336E-10
   10.1099997      -8.16111512E-10
   10.1700001      -6.63886890E-10
   10.2299995      -5.06365339E-10
   10.2900000      -3.49483109E-10
   10.3500004      -1.98322747E-10
   10.4099998      -5.67744150E-11
   10.4700003       7.25935145E-11
   10.5299997       1.88395480E-10
   10.5900002       2.90032054E-10
   10.6499996       3.77210735E-10
   10.7100000       4.49712240E-10
   10.7700005       5.07707598E-10
   10.8299999       5.52664470E-10
   10.8900003       5.88464388E-10
   10.9499998       6.22039642E-10
   11.0100002       6.62860600E-10
   11.0699997       7.21044668E-10
   11.1300001       8.04525946E-10
   11.1899996       9.16283549E-10
   11.2500000       1.05275477E-09
   11.3100004       1.20416399E-09
   11.3699999       1.35674882E-09
   11.4300003       1.49612400E-09
   11.4899998       1.61062452E-09
   11.5500002       1.69354974E-09
   11.6099997       1.74370585E-09
   11.6700001       1.76427228E-09
   11.7299995       1.76055071E-09
   11.7900000       1.73745729E-09
   11.8500004       1.69764158E-09
   11.9099998       1.64089076E-09
   11.9700003       1.56505731E-09
   12.0299997       1.46818446E-09
   12.0900002       1.35097977E-09
   12.1499996       1.21849575E-09
   12.2100000       1.08004139E-09
   12.2700005       9.47012357E-10
   12.3299999       8.29274649E-10
   12.3900003       7.31522398E-10
   12.4499998       6.51221188E-10
   12.5100002       5.79131965E-10
   12.5699997       5.02247965E-10
   12.6300001       4.07837347E-10
   12.6899996       2.86790508E-10
   12.7500000       1.34916314E-10
   12.8100004      -4.80205216E-11
   12.8699999      -2.60515637E-10
   12.9300003      -5.01203634E-10
   12.9899998      -7.69171060E-10
   13.0500002      -1.06255582E-09
   13.1099997      -1.37643075E-09
   13.1700001      -1.70149816E-09
   13.2299995      -2.02473083E-09
   13.2900000      -2.33201480E-09
   13.3500004      -2.61170530E-09
   13.4099998      -2.85744162E-09
   13.4700003      -3.06886805E-09
   13.5299997      -3.24990523E-09
   13.5900002      -3.40534934E-09
   13.6499996      -3.53731822E-09
   13.7100000      -3.64305408E-09
   13.7700005      -3.71494591E-09
   13.8299999      -3.74267950E-09
   13.8900003      -3.71658371E-09
   13.9499998      -3.63087005E-09
   14.0100002      -3.48561158E-09
   14.0699997      -3.28686300E-09
   14.1300001      -3.04504844E-09
   14.1899996      -2.77234857E-09
   14.2500000      -2.48007681E-09
   14.3100004      -2.17692087E-09
   14.3699999      -1.86845761E-09
   14.4300003      -1.55781366E-09
   14.4899998      -1.24691391E-09
   14.5500002      -9.37675049E-10
   14.6099997      -6.32699559E-10
   14.6700001      -3.35393296E-10
   14.7299995      -4.96974580E-11
   14.7900000       2.20318569E-10
   14.8500004       4.70896322E-10
   14.9099998       6.99113711E-10
   14.9700003       9.03557451E-10
   15.0299997       1.08501874E-09
   15.0900002       1.24685196E-09
   15.1499996       1.39456735E-09
   15.2100000       1.53446866E-09
   15.2700005       1.67160097E-09
   15.3299999       1.80771242E-09
   15.3900003       1.94004901E-09
   15.4499998       2.06152628E-09
   15.5100002       2.16226992E-09
   15.5699997       2.23200103E-09
   15.6300001       2.26250263E-09
   15.6899996       2.24950991E-09
   15.7500000       2.19366814E-09
   15.8100004       2.10049089E-09
   15.8699999       1.97942884E-09
   15.9300003       1.84224402E-09
   15.9899998       1.70100556E-09
   16.0499992       1.56619462E-09
   16.1100006       1.44551437E-09
   16.1700001       1.34385980E-09
   16.2299995       1.26442190E-09
   16.2900009       1.21028909E-09
   16.3500004       1.18549215E-09
   16.4099998       1.19459909E-09
   16.4699993       1.24069210E-09
   16.5300007       1.32254319E-09
   16.5900002       1.43244183E-09
   16.6499996       1.55603397E-09
   16.7099991       1.67465164E-09
   16.7700005       1.76944259E-09
   16.8299999       1.82574411E-09
   16.8899994       1.83606064E-09
   16.9500008       1.80068005E-09
   17.0100002       1.72599068E-09
   17.0699997       1.62140379E-09
   17.1299992       1.49611057E-09
   17.1900005       1.35669520E-09
   17.2500000       1.20615928E-09
   17.3099995       1.04443976E-09
   17.3700008       8.70124028E-10
   17.4300003       6.82773504E-10
   17.4899998       4.85026741E-10
   17.5499992       2.83577745E-10
   17.6100006       8.83821696E-11
   17.6700001      -8.98878263E-11
   17.7299995      -2.43268322E-10
   17.7900009      -3.69344305E-10
   17.8500004      -4.72137607E-10
   17.9099998      -5.60535340E-10
   17.9699993      -6.44963249E-10
   18.0300007      -7.33893224E-10
   18.0900002      -8.31776370E-10
   18.1499996      -9.39098022E-10
   18.2099991      -1.05400533E-09
   18.2700005      -1.17413090E-09
   18.3299999      -1.29733435E-09
   18.3899994      -1.42099787E-09
   18.4500008      -1.54060775E-09
   18.5100002      -1.64890357E-09
   18.5699997      -1.73655279E-09
   18.6299992      -1.79435811E-09
   18.6900005      -1.81608140E-09
   18.7500000      -1.80063386E-09
   18.8099995      -1.75277193E-09
   18.8700008      -1.68219139E-09
   18.9300003      -1.60153280E-09
   18.9899998      -1.52395441E-09
   19.0499992      -1.46073154E-09
   19.1100006      -1.41910506E-09
   19.1700001      -1.40062018E-09
   19.2299995      -1.40041234E-09
   19.2900009      -1.40798773E-09
   19.3500004      -1.40972456E-09
   19.4099998      -1.39260981E-09
   19.4699993      -1.34800171E-09
   19.5300007      -1.27400190E-09
   19.5900002      -1.17552845E-09
   19.6499996      -1.06221909E-09
   19.7099991      -9.45241552E-10
   19.7700005      -8.34423142E-10
   19.8299999      -7.36679717E-10
   19.8899994      -6.55847321E-10
   19.9500008      -5.93298799E-10
   20.0100002      -5.48548373E-10
   20.0699997      -5.19429944E-10
   20.1299992      -5.01996056E-10
   20.1900005      -4.90594287E-10
   20.2500000      -4.78449891E-10
   20.3099995      -4.58680427E-10
   20.3700008      -4.25342372E-10
   20.4300003      -3.74105802E-10
   20.4899998      -3.02441461E-10
   20.5499992      -2.09531226E-10
   20.6100006      -9.62133567E-11
   20.6700001       3.49027474E-11
   20.7299995       1.79305334E-10
   20.7900009       3.30742489E-10
   20.8500004       4.81888418E-10
   20.9099998       6.25455132E-10
   20.9699993       7.55449370E-10
   21.0300007       8.68204064E-10
   21.0900002       9.62912861E-10
   21.1499996       1.04154885E-09
   21.2099991       1.10815512E-09
   21.2700005       1.16758481E-09
   21.3299999       1.22390931E-09
   21.3899994       1.27893196E-09
   21.4500008       1.33142564E-09
   21.5100002       1.37761580E-09
   21.5699997       1.41297873E-09
   21.6299992       1.43473478E-09
   21.6900005       1.44389734E-09
   21.7500000       1.44575285E-09
   21.8099995       1.44831813E-09
   21.8700008       1.45932055E-09
   21.9300003       1.48302104E-09
   21.9899998       1.51829105E-09
   22.0499992       1.55870572E-09
   22.1100006       1.59442892E-09
   22.1700001       1.61491898E-09
   22.2299995       1.61134239E-09
   22.2900009       1.57802726E-09
   22.3500004       1.51290225E-09
   22.4099998       1.41726475E-09
   22.4699993       1.29522781E-09
   22.5300007       1.15297483E-09
   22.5900002       9.97806060E-10
   22.6499996       8.37024616E-10
   22.7099991       6.76893097E-10
   22.7700005       5.21956089E-10
   22.8299999       3.74845516E-10
   22.8899994       2.36398873E-10
   22.9500008       1.05786470E-10
   23.0100002      -1.94659427E-11
   23.0699997      -1.43306464E-10
   23.1299992      -2.70389267E-10
   23.1900005      -4.04530770E-10
   23.2500000      -5.46843404E-10
   23.3099995      -6.94547420E-10
   23.3700008      -8.41395842E-10
   23.4300003      -9.79838100E-10
   23.4899998      -1.10393605E-09
   23.5499992      -1.21140498E-09
   23.6100006      -1.30353561E-09
   23.6700001      -1.38303413E-09
   23.7299995      -1.45118517E-09
   23.7900009      -1.50625046E-09
   23.8500004      -1.54423019E-09
   23.9099998      -1.56150970E-09
   23.9699993      -1.55757940E-09
   24.0300007      -1.53589907E-09
   24.0900002      -1.50220869E-09
   24.1499996      -1.46133905E-09
   24.2099991      -1.41463607E-09
   24.2700005      -1.35971390E-09
   24.3299999      -1.29266076E-09
   24.3899994      -1.21115595E-09
   24.4500008      -1.11637111E-09
   24.5100002      -1.01245634E-09
   24.5699997      -9.04148589E-10
   24.6299992      -7.94380617E-10
   24.6900005      -6.83717749E-10
   24.7500000      -5.72081993E-10
   24.8099995      -4.61488708E-10
   24.8700008      -3.57675473E-10
   24.9300003      -2.69147343E-10
   24.9899998      -2.03856890E-10
   25.0499992      -1.65336772E-10
   25.1100006      -1.50535737E-10
   25.1700001      -1.50627052E-10
   25.2299995      -1.54337959E-10
   25.2900009      -1.52013430E-10
   25.3500004      -1.38439774E-10
   25.4099998      -1.13397271E-10
   25.4699993      -8.02561004E-11
   25.5300007      -4.38161521E-11
   25.5900002      -8.61183434E-12
   25.6499996       2.17475499E-11
   25.7099991       4.43861267E-11
   25.7700005       5.66855382E-11
   25.8299999       5.60112963E-11
   25.8899994       3.98265067E-11
   25.9500008       6.14108027E-12
   26.0100002      -4.58310785E-11
   26.0699997      -1.14958439E-10
   26.1299992      -1.97660513E-10
   26.1900005      -2.87908475E-10
   26.2500000      -3.78051840E-10
   26.3099995      -4.60433885E-10
   26.3700008      -5.29264466E-10
   26.4300003      -5.81915460E-10
   26.4899998      -6.18994800E-10
   26.5499992      -6.43212150E-10
   26.6100006      -6.57771448E-10
   26.6700001      -6.65295596E-10
   26.7299995      -6.67856770E-10
   26.7900009      -6.67832567E-10
   26.8500004      -6.68643196E-10
   26.9099998      -6.74473755E-10
   26.9699993      -6.88853641E-10
   27.0300007      -7.12901627E-10
   27.0900002      -7.44444173E-10
   27.1499996      -7.78728249E-10
   27.2099991      -8.10392364E-10
   27.2700005      -8.35502945E-10
   27.3299999      -8.52437954E-10
   27.3899994      -8.61259397E-10
   27.4500008      -8.62330152E-10
   27.5100002      -8.55463866E-10
   27.5699997      -8.40422065E-10
   27.6299992      -8.18419610E-10
   27.6900005      -7.93319743E-10
   27.7500000      -7.71156083E-10
   27.8099995      -7.57628515E-10
   27.8700008      -7.54623253E-10
   27.9300003      -7.57648666E-10
   27.9899998      -7.55773666E-10
   28.0499992      -7.34365735E-10
   28.1100006      -6.79462653E-10
   28.1700001      -5.81863613E-10
   28.2299995      -4.39345588E-10
   28.2900009      -2.56478477E-10
   28.3500004      -4.25951045E-11
   28.4099998       1.91022129E-10
   28.4699993       4.33828473E-10
   28.5300007       6.78117451E-10
   28.5900002       9.20373833E-10
   28.6499996       1.16171728E-09
   28.7099991       1.40718337E-09
   28.7700005       1.66374114E-09
   28.8299999       1.93744243E-09
   28.8899994       2.23066521E-09
   28.9500008       2.54061638E-09
   29.0100002       2.85981372E-09
   29.0699997       3.17835380E-09
   29.1299992       3.48690632E-09
   29.1900005       3.77905840E-09
   29.2500000       4.05207068E-09
   29.3099995       4.30597735E-09
   29.3700008       4.54174431E-09
   29.4300003       4.75950745E-09
   29.4899998       4.95763786E-09
   29.5499992       5.13286658E-09
   29.6100006       5.28121191E-09
   29.6700001       5.39924505E-09
   29.7299995       5.48522472E-09
   29.7900009       5.53972734E-09
   29.8500004       5.56551960E-09
   29.9099998       5.56664803E-09
   29.9699993       5.54703483E-09
   30.0300007       5.50919044E-09
   30.0900002       5.45374412E-09
   30.1499996       5.38012701E-09
   30.2099991       5.28808863E-09
   30.2700005       5.17908871E-09
   30.3299999       5.05654540E-09
   30.3899994       4.92452390E-09
   30.4500008       4.78548001E-09
   30.5100002       4.63841543E-09
   30.5699997       4.47872583E-09
   30.6299992       4.30008162E-09
   30.6900005       4.09744549E-09
   30.7500000       3.86957355E-09
   30.8099995       3.61967056E-09
   30.8700008       3.35397998E-09
   30.9300003       3.07932346E-09
   30.9899998       2.80109380E-09
   31.0499992       2.52267984E-09
   31.1100006       2.24618035E-09
   31.1700001       1.97337990E-09
   31.2299995       1.70593906E-09
   31.2900009       1.44456236E-09
   31.3500004       1.18788634E-09
   31.4099998       9.32202315E-10
   31.4699993       6.72581157E-10
   31.5300007       4.04906969E-10
   31.5900002       1.27549915E-10
   31.6499996      -1.58446770E-10
   31.7099991      -4.50801008E-10
   31.7700005      -7.48021700E-10
   31.8299999      -1.05053199E-09
   31.8899994      -1.35995637E-09
   31.9500008      -1.67688807E-09
   32.0099983      -1.99852379E-09
   32.0699997      -2.31771002E-09
   32.1300011      -2.62409316E-09
   32.1899986      -2.90680768E-09
   32.2500000      -3.15729953E-09
   32.3100014      -3.37097950E-09
   32.3699989      -3.54725826E-09
   32.4300003      -3.68847908E-09
   32.4900017      -3.79866760E-09
   32.5499992      -3.88270083E-09
   32.6100006      -3.94581656E-09
   32.6699982      -3.99296773E-09
   32.7299995      -4.02771194E-09
   32.7900009      -4.05093559E-09
   32.8499985      -4.06022282E-09
   32.9099998      -4.05055456E-09
   32.9700012      -4.01631750E-09
   33.0299988      -3.95371824E-09
   33.0900002      -3.86233712E-09
   33.1500015      -3.74498210E-09
   33.2099991      -3.60603880E-09
   33.2700005      -3.44941120E-09
   33.3300018      -3.27735505E-09
   33.3899994      -3.09085024E-09
   33.4500008      -2.89107827E-09
   33.5099983      -2.68083822E-09
   33.5699997      -2.46479814E-09
   33.6300011      -2.24831620E-09
   33.6899986      -2.03558992E-09
   33.7500000      -1.82836890E-09
   33.8100014      -1.62610714E-09
   33.8699989      -1.42745227E-09
   33.9300003      -1.23206301E-09
   33.9900017      -1.04151776E-09
   34.0499992      -8.58690008E-10
   34.1100006      -6.86002366E-10
   34.1699982      -5.23728561E-10
   34.2299995      -3.69507508E-10
   34.2900009      -2.19445684E-10
   34.3499985      -7.01768088E-11
   34.4099998       7.93409297E-11
   34.4700012       2.27303815E-10
   34.5299988       3.69995173E-10
   34.5900002       5.03462272E-10
   34.6500015       6.24864882E-10
   34.7099991       7.32780170E-10
   34.7700005       8.26538338E-10
   34.8300018       9.05304665E-10
   34.8899994       9.67708358E-10
   34.9500008       1.01231623E-09
   35.0099983       1.03856557E-09
   35.0699997       1.04739828E-09
   35.1300011       1.04104891E-09
   35.1899986       1.02202169E-09
   35.2500000       9.91858373E-10
   35.3100014       9.50412526E-10
   35.3699989       8.96005881E-10
   35.4300003       8.26303082E-10
   35.4900017       7.39404649E-10
   35.5499992       6.34709674E-10
   35.6100006       5.13393827E-10
   35.6699982       3.78575671E-10
   35.7299995       2.35211045E-10
   35.7900009       8.95586660E-11
   35.8499985      -5.20055110E-11
   35.9099998      -1.84745511E-10
   35.9700012      -3.07276649E-10
   36.0299988      -4.22251289E-10
   36.0900002      -5.35292977E-10
   36.1500015      -6.52338128E-10
   36.2099991      -7.76584130E-10
   36.2700005      -9.06703379E-10
   36.3300018      -1.03742193E-09
   36.3899994      -1.16220811E-09
   36.4500008      -1.27650779E-09
   36.5099983      -1.37958678E-09
   36.5699997      -1.47392287E-09
   36.6300011      -1.56267865E-09
   36.6899986      -1.64701575E-09
   36.7500000      -1.72504477E-09
   36.8100014      -1.79299486E-09
   36.8699989      -1.84761384E-09
   36.9300003      -1.88797933E-09
   36.9900017      -1.91543470E-09
   37.0499992      -1.93183092E-09
   37.1100006      -1.93757566E-09
   37.1699982      -1.93114968E-09
   37.2299995      -1.91062055E-09
   37.2900009      -1.87608884E-09
   37.3499985      -1.83116655E-09
   37.4099998      -1.78218162E-09
   37.4700012      -1.73542625E-09
   37.5299988      -1.69423187E-09
   37.5900002      -1.65786740E-09
   37.6500015      -1.62298630E-09
   37.7099991      -1.58654268E-09
   37.7700005      -1.54803848E-09
   37.8300018      -1.50948420E-09
   37.8899994      -1.47315160E-09
   37.9500008      -1.43884615E-09
   38.0099983      -1.40278189E-09
   38.0699997      -1.35896139E-09
   38.1300011      -1.30209910E-09
   38.1899986      -1.22998400E-09
   38.2500000      -1.14360832E-09
   38.3100014      -1.04505882E-09
   38.3699989      -9.34844868E-10
   38.4300003      -8.10762291E-10
   38.4900017      -6.69243772E-10
   38.5499992      -5.08285969E-10
   38.6100006      -3.29841071E-10
   38.6699982      -1.39893638E-10
   38.7299995       5.39382254E-11
   38.7900009       2.45739012E-10
   38.8499985       4.33458658E-10
   38.9099998       6.18704366E-10
   38.9700012       8.04624367E-10
   39.0299988       9.93525373E-10
   39.0900002       1.18575949E-09
   39.1500015       1.38023937E-09
   39.2099991       1.57567892E-09
   39.2700005       1.77127912E-09
   39.3300018       1.96629601E-09
   39.3899994       2.15905116E-09
   39.4500008       2.34651498E-09
   39.5099983       2.52511367E-09
   39.5699997       2.69231260E-09
   39.6300011       2.84772672E-09
   39.6899986       2.99272740E-09
   39.7500000       3.12862203E-09
   39.8100014       3.25463678E-09
   39.8699989       3.36719141E-09
   39.9300003       3.46108764E-09
   39.9900017       3.53186991E-09
   40.0499992       3.57779717E-09
   40.1100006       3.60019725E-09
   40.1699982       3.60220231E-09
   40.2299995       3.58700025E-09
   40.2900009       3.55692009E-09
   40.3499985       3.51379681E-09
   40.4099998       3.45986284E-09
   40.4700012       3.39792394E-09
   40.5299988       3.33021188E-09
   40.5900002       3.25658256E-09
   40.6500015       3.17360005E-09
   40.7099991       3.07570613E-09
   40.7700005       2.95827296E-09
   40.8300018       2.82085555E-09
   40.8899994       2.66854250E-09
   40.9500008       2.51034171E-09
   41.0099983       2.35536235E-09
   41.0699997       2.20894036E-09
   41.1300011       2.07083395E-09
   41.1899986       1.93627403E-09
   41.2500000       1.79891613E-09
   41.3100014       1.65382497E-09
   41.3699989       1.49899204E-09
   41.4300003       1.33512890E-09
   41.4900017       1.16457699E-09
   41.5499992       9.90386329E-10
   41.6100006       8.15971457E-10
   41.6699982       6.44935272E-10
   41.7299995       4.80450402E-10
   41.7900009       3.24129196E-10
   41.8499985       1.75094703E-10
   41.9099998       3.02125200E-11
   41.9700012      -1.14175301E-10
   42.0299988      -2.59750471E-10
   42.0900002      -4.04387801E-10
   42.1500015      -5.42163148E-10
   42.2099991      -6.65269617E-10
   42.2700005      -7.66751718E-10
   42.3300018      -8.42574344E-10
   42.3899994      -8.92153074E-10
   42.4500008      -9.17559473E-10
   42.5099983      -9.22347199E-10
   42.5699997      -9.10814479E-10
   42.6300011      -8.87758922E-10
   42.6899986      -8.58131677E-10
   42.7500000      -8.26054780E-10
   42.8100014      -7.93405952E-10
   42.8699989      -7.58919150E-10
   42.9300003      -7.18774318E-10
   42.9900017      -6.68777700E-10
   43.0499992      -6.07065398E-10
   43.1100006      -5.35706313E-10
   43.1699982      -4.60152222E-10
   43.2299995      -3.86857602E-10
   43.2900009      -3.20577787E-10
   43.3499985      -2.62998567E-10
   43.4099998      -2.13327522E-10
   43.4700012      -1.70068779E-10
   43.5299988      -1.32464179E-10
   43.5900002      -1.00552476E-10
   43.6500015      -7.40687164E-11
   43.7099991      -5.14446194E-11
   43.7700005      -3.01291977E-11
   43.8300018      -8.33236258E-12
   43.8899994       1.30168246E-11
   43.9500008       2.97394193E-11
   44.0099983       3.60853118E-11
   44.0699997       2.78225464E-11
   44.1300011       4.81444832E-12
   44.1899986      -2.86414399E-11
   44.2500000      -6.60070679E-11
   44.3100014      -1.01861262E-10
   44.3699989      -1.34333072E-10
   44.4300003      -1.65224931E-10
   44.4900017      -1.98017783E-10
   44.5499992      -2.35262976E-10
   44.6100006      -2.77034506E-10
   44.6699982      -3.21146304E-10
   44.7299995      -3.64559494E-10
   44.7900009      -4.04770745E-10
   44.8499985      -4.40357750E-10
   44.9099998      -4.70774753E-10
   44.9700012      -4.96124308E-10
   45.0299988      -5.17425880E-10
   45.0900002      -5.37119460E-10
   45.1500015      -5.58953495E-10
   45.2099991      -5.86634130E-10
   45.2700005      -6.21601937E-10
   45.3300018      -6.61270039E-10
   45.3899994      -6.99161951E-10
   45.4500008      -7.27370886E-10
   45.5099983      -7.40247919E-10
   45.5699997      -7.37284234E-10
   45.6300011      -7.23496096E-10
   45.6899986      -7.07080838E-10
   45.7500000      -6.95706548E-10
   45.8100014      -6.93486102E-10
   45.8699989      -7.00059510E-10
   45.9300003      -7.11817771E-10
   45.9900017      -7.24128368E-10
   46.0499992      -7.33215877E-10
   46.1100006      -7.37033823E-10
   46.1699982      -7.35360939E-10
   46.2299995      -7.29692251E-10
   46.2900009      -7.23147708E-10
   46.3499985      -7.20039028E-10
   46.4099998      -7.24614313E-10
   46.4700012      -7.39088291E-10
   46.5299988      -7.61918362E-10
   46.5900002      -7.87613752E-10
   46.6500015      -8.08705547E-10
   46.7099991      -8.19158186E-10
   46.7700005      -8.17395762E-10
   46.8300018      -8.07125922E-10
   46.8899994      -7.95378208E-10
   46.9500008      -7.88878629E-10
   47.0099983      -7.90893906E-10
   47.0699997      -8.00320477E-10
   47.1300011      -8.13307532E-10
   47.1899986      -8.26134605E-10
   47.2500000      -8.37452163E-10
   47.3100014      -8.48672466E-10
   47.3699989      -8.62658167E-10
   47.4300003      -8.81900664E-10
   47.4900017      -9.07419750E-10
   47.5499992      -9.38781275E-10
   47.6100006      -9.74698988E-10
   47.6699982      -1.01340747E-09
   47.7299995      -1.05250419E-09
   47.7900009      -1.08872478E-09
   47.8499985      -1.11838871E-09
   47.9099998      -1.13873655E-09
   47.9700012      -1.14947674E-09
   48.0299988      -1.15337428E-09
   48.0900002      -1.15513643E-09
   48.1500015      -1.15898324E-09
   48.2099991      -1.16631049E-09
   48.2700005      -1.17494614E-09
   48.3300018      -1.18053023E-09
   48.3899994      -1.17916288E-09
   48.4500008      -1.16965404E-09
   48.5099983      -1.15404808E-09
   48.5699997      -1.13632659E-09
   48.6300011      -1.12039156E-09
   48.6899986      -1.10874265E-09
   48.7500000      -1.10251375E-09
   48.8100014      -1.10236831E-09
   48.8699989      -1.10911214E-09
   48.9300003      -1.12325360E-09
   48.9900017      -1.14380716E-09
   49.0499992      -1.16750243E-09
   49.1100006      -1.18946553E-09
   49.1699982      -1.20539767E-09
   49.2299995      -1.21403565E-09
   49.2900009      -1.21822141E-09
   49.3499985      -1.22365873E-09
   49.4099998      -1.23591293E-09
   49.4700012      -1.25740129E-09
   49.5299988      -1.28615762E-09
   49.5900002      -1.31700839E-09
   49.6500015      -1.34425482E-09
   49.7099991      -1.36408640E-09
   49.7700005      -1.37530443E-09
   49.8300018      -1.37820344E-09
   49.8899994      -1.37271550E-09
   49.9500008      -1.35729139E-09
   50.0099983      -1.32930422E-09
   50.0699997      -1.28657496E-09
   50.1300011      -1.22881472E-09
   50.1899986      -1.15789334E-09
   50.2500000      -1.07672682E-09
   50.3100014      -9.87557258E-10
   50.3699989      -8.90788943E-10
   50.4300003      -7.85142784E-10
   50.4900017      -6.69029776E-10
   50.5499992      -5.42326406E-10
   50.6100006      -4.07561068E-10