  -2.400000      0.0000000E+00
  -2.340000      0.0000000E+00
  -2.280000      0.0000000E+00
  -2.220000      0.0000000E+00
  -2.160000      0.0000000E+00
  -2.100000      1.7371602E-19
  -2.040000      1.3692418E-18
  -1.980000      5.4421743E-18
  -1.920000      1.4024634E-17
  -1.860000      2.4380297E-17
  -1.800000      2.2996915E-17
  -1.740000     -1.8765383E-17
  -1.680000     -1.3912327E-16
  -1.620000     -3.6208544E-16
  -1.560000     -6.5317744E-16
  -1.500000     -8.6778531E-16
  -1.440000     -7.2785652E-16
  -1.380000      1.1976977E-16
  -1.320000      1.9209373E-15
  -1.260000      4.5257555E-15
  -1.200000      7.1167928E-15
  -1.140000      8.1711524E-15
  -1.080000      5.8681392E-15
  -1.020000     -1.0222081E-15
 -0.9600000     -1.2054933E-14
 -0.9000000     -2.4418164E-14
 -0.8400000     -3.3266724E-14
 -0.7800000     -3.3341294E-14
 -0.7200000     -2.1419781E-14
 -0.6600000      1.5411752E-15
 -0.6000000      2.9893243E-14
 -0.5400000      5.5099205E-14
 -0.4800000      6.9277564E-14
 -0.4200000      6.8699949E-14
 -0.3600000      5.5126961E-14
 -0.3000000      3.3894572E-14
 -0.2400000      9.6905694E-15
 -0.1800000     -1.7155265E-14
 -0.1200000     -5.0670653E-14
 -5.9999999E-02 -9.4182596E-14
  0.0000000E+00 -1.4231965E-13
  5.9999999E-02 -1.7539319E-13
  0.1200000     -1.6213508E-13
  0.1800000     -7.3585357E-14
  0.2400000      9.5343506E-14
  0.3000000      3.0655266E-13
  0.3600000      4.7442475E-13
  0.4200000      4.8564484E-13
  0.4800000      2.4263848E-13
  0.5400000     -2.8209813E-13
  0.6000000     -1.0024331E-12
  0.6600000     -1.7080753E-12
  0.7200000     -2.1000693E-12
  0.7800000     -1.8691236E-12
  0.8400000     -7.9713016E-13
  0.9000000      1.1476813E-12
  0.9600000      3.7509748E-12
   1.020000      6.5469553E-12
   1.080000      8.8718043E-12
   1.140000      9.9668954E-12
   1.200000      9.1144618E-12
   1.260000      5.7857356E-12
   1.320000     -2.1747696E-13
   1.380000     -8.6446336E-12
   1.440000     -1.8716442E-11
   1.500000     -2.9096153E-11
   1.560000     -3.7924872E-11
   1.620000     -4.2935776E-11
   1.680000     -4.1667163E-11
   1.740000     -3.1798626E-11
   1.800000     -1.1629953E-11
   1.860000      1.9302428E-11
   1.920000      5.9525565E-11
   1.980000      1.0496554E-10
   2.040000      1.4849298E-10
   2.100000      1.7986729E-10
   2.160000      1.8621953E-10
   2.220000      1.5310178E-10
   2.280000      6.5990775E-11
   2.340000     -8.7985265E-11
   2.400000     -3.1837938E-10
   2.460000     -6.3006772E-10
   2.520000     -1.0223552E-09
   2.580000     -1.4885908E-09
   2.640000     -2.0162689E-09
   2.700000     -2.5875693E-09
   2.760000     -3.1803187E-09
   2.820000     -3.7693777E-09
   2.880000     -4.3284372E-09
   2.940000     -4.8321569E-09
   3.000000     -5.2584714E-09
   3.060000     -5.5908207E-09
   3.120000     -5.8200187E-09
   3.180000     -5.9454859E-09
   3.240000     -5.9756364E-09
   3.300000     -5.9272760E-09
   3.360000     -5.8239809E-09
   3.420000     -5.6935212E-09
   3.480000     -5.5645586E-09
   3.540000     -5.4630158E-09
   3.600000     -5.4086420E-09
   3.660000     -5.4123919E-09
   3.720000     -5.4751164E-09
   3.780000     -5.5878506E-09
   3.840000     -5.7336353E-09
   3.900000     -5.8904592E-09
   3.960000     -6.0346950E-09
   4.020000     -6.1443406E-09
   4.080000     -6.2015464E-09
   4.140000     -6.1941647E-09
   4.200000     -6.1163639E-09
   4.260000     -5.9685399E-09
   4.320000     -5.7568070E-09
   4.380000     -5.4922626E-09
   4.440000     -5.1900790E-09
   4.500000     -4.8683462E-09
   4.560000     -4.5465773E-09
   4.620000     -4.2438879E-09
   4.680000     -3.9770085E-09
   4.740000     -3.7584393E-09
   4.800000     -3.5950707E-09
   4.860000     -3.4875132E-09
   4.920000     -3.4302061E-09
   4.980000     -3.4122161E-09
   5.040000     -3.4185605E-09
   5.100000     -3.4319183E-09
   5.160000     -3.4346663E-09
   5.220000     -3.4111951E-09
   5.280000     -3.3503798E-09
   5.340000     -3.2478593E-09
   5.400000     -3.1075937E-09
   5.460000     -2.9420961E-09
   5.520000     -2.7709310E-09
   5.580000     -2.6174927E-09
   5.640000     -2.5046107E-09
   5.700000     -2.4499560E-09
   5.760000     -2.4623601E-09
   5.820000     -2.5399569E-09
   5.880000     -2.6705682E-09
   5.940000     -2.8341709E-09
   6.000000     -3.0067924E-09
   6.060000     -3.1649090E-09
   6.120000     -3.2894225E-09
   6.180000     -3.3684766E-09
   6.240000     -3.3987015E-09
   6.300000     -3.3848118E-09
   6.360000     -3.3378047E-09
   6.420000     -3.2722629E-09
   6.480000     -3.2033978E-09
   6.540000     -3.1444778E-09
   6.600000     -3.1051328E-09
   6.660000     -3.0907463E-09
   6.720000     -3.1028140E-09
   6.780000     -3.1398815E-09
   6.840000     -3.1985503E-09
   6.900000     -3.2741263E-09
   6.960000     -3.3607324E-09
   7.020000     -3.4510232E-09
   7.080000     -3.5358887E-09
   7.140000     -3.6046108E-09
   7.200000     -3.6457832E-09
   7.260000     -3.6489953E-09
   7.320000     -3.6068970E-09
   7.380000     -3.5170058E-09
   7.440000     -3.3825724E-09
   7.500000     -3.2120611E-09
   7.560000     -3.0172478E-09
   7.620000     -2.8104215E-09
   7.680000     -2.6015177E-09
   7.740000     -2.3960651E-09
   7.800000     -2.1945472E-09
   7.860000     -1.9932882E-09
   7.920000     -1.7864379E-09
   7.980000     -1.5682745E-09
   8.040000     -1.3349964E-09
   8.100000     -1.0854456E-09
   8.160000     -8.2068075E-10
   8.220000     -5.4278443E-10
   8.280000     -2.5357436E-10
   8.340000      4.6142021E-11
   8.400000      3.5643216E-10
   8.460000      6.7733091E-10
   8.520000      1.0076421E-09
   8.580000      1.3440590E-09
   8.640000      1.6810449E-09
   8.700000      2.0115347E-09
   8.760000      2.3281266E-09
   8.820000      2.6242264E-09
   8.880000      2.8946983E-09
   8.940000      3.1358669E-09
   9.000000      3.3450727E-09
   9.060000      3.5201351E-09
   9.120000      3.6590122E-09
   9.180000      3.7596668E-09
   9.240000      3.8199270E-09
   9.300000      3.8371057E-09
   9.360000      3.8073700E-09
   9.420000      3.7252135E-09
   9.480000      3.5835581E-09
   9.540000      3.3749092E-09
   9.600000      3.0935148E-09
   9.660000      2.7379321E-09
   9.720000      2.3130531E-09
   9.780000      1.8307093E-09
   9.840000      1.3084596E-09
   9.900000      7.6682694E-10
   9.960000      2.2578255E-10
   10.02000     -2.9854214E-10
   10.08000     -7.9611101E-10
   10.14000     -1.2638023E-09
   10.20000     -1.7047925E-09
   10.26000     -2.1268098E-09
   10.32000     -2.5397400E-09
   10.38000     -2.9531537E-09
   10.44000     -3.3743608E-09
   10.50000     -3.8074890E-09
   10.56000     -4.2538209E-09
   10.62000     -4.7131832E-09
   10.68000     -5.1857794E-09
   10.74000     -5.6736087E-09
   10.80000     -6.1808105E-09
   10.86000     -6.7127242E-09
   10.92000     -7.2740356E-09
   10.98000     -7.8667712E-09
   11.04000     -8.4888736E-09
   11.10000     -9.1338057E-09
   11.16000     -9.7911856E-09
   11.22000     -1.0448195E-08
   11.28000     -1.1091465E-08
   11.34000     -1.1709180E-08
   11.40000     -1.2293203E-08
   11.46000     -1.2840795E-08
   11.52000     -1.3355373E-08
   11.58000     -1.3845691E-08
   11.64000     -1.4323268E-08
   11.70000     -1.4798573E-08
   11.76000     -1.5277168E-08
   11.82000     -1.5757314E-08
   11.88000     -1.6230068E-08
   11.94000     -1.6681962E-08
   12.00000     -1.7099291E-08
   12.06000     -1.7472365E-08
   12.12000     -1.7798246E-08
   12.18000     -1.8081195E-08
   12.24000     -1.8331109E-08
   12.30000     -1.8560877E-08
   12.36000     -1.8783814E-08
   12.42000     -1.9011923E-08
   12.48000     -1.9255175E-08
   12.54000     -1.9521462E-08
   12.60000     -1.9816651E-08
   12.66000     -2.0144338E-08
   12.72000     -2.0505132E-08
   12.78000     -2.0895714E-08
   12.84000     -2.1308187E-08
   12.90000     -2.1730353E-08
   12.96000     -2.2147365E-08
   13.02000     -2.2544857E-08
   13.08000     -2.2912854E-08
   13.14000     -2.3249289E-08
   13.20000     -2.3561679E-08
   13.26000     -2.3866006E-08
   13.32000     -2.4182784E-08
   13.38000     -2.4531593E-08
   13.44000     -2.4925997E-08
   13.50000     -2.5370761E-08
   13.56000     -2.5862249E-08
   13.62000     -2.6391470E-08
   13.68000     -2.6948170E-08
   13.74000     -2.7524081E-08
   13.80000     -2.8114123E-08
   13.86000     -2.8715560E-08
   13.92000     -2.9326019E-08
   13.98000     -2.9941685E-08
   14.04000     -3.0556524E-08
   14.10000     -3.1162639E-08
   14.16000     -3.1751263E-08
   14.22000     -3.2313810E-08
   14.28000     -3.2842610E-08
   14.34000     -3.3331421E-08
   14.40000     -3.3775851E-08
   14.46000     -3.4173702E-08
   14.52000     -3.4525002E-08
   14.58000     -3.4831345E-08
   14.64000     -3.5094541E-08
   14.70000     -3.5315050E-08
   14.76000     -3.5490920E-08
   14.82000     -3.5617962E-08
   14.88000     -3.5691158E-08
   14.94000     -3.5706698E-08
   15.00000     -3.5663486E-08
   15.06000     -3.5563197E-08
   15.12000     -3.5408618E-08
   15.18000     -3.5201026E-08
   15.24000     -3.4937806E-08
   15.30000     -3.4611752E-08
   15.36000     -3.4212601E-08
   15.42000     -3.3730490E-08
   15.48000     -3.3160084E-08
   15.54000     -3.2503724E-08
   15.60000     -3.1772178E-08
   15.66000     -3.0982534E-08
   15.72000     -3.0153743E-08
   15.78000     -2.9301498E-08
   15.84000     -2.8434306E-08
   15.90000     -2.7552487E-08
   15.96000     -2.6650561E-08
   16.02000     -2.5722159E-08
   16.08000     -2.4765383E-08
   16.14000     -2.3786249E-08
   16.20000     -2.2798508E-08
   16.26000     -2.1819751E-08
   16.32000     -2.0865336E-08
   16.38000     -1.9942769E-08
   16.44000     -1.9048970E-08
   16.50000     -1.8171646E-08
   16.56000     -1.7294170E-08
   16.62000     -1.6401920E-08
   16.68000     -1.5487547E-08
   16.74000     -1.4553307E-08
   16.80000     -1.3609924E-08
   16.86000     -1.2672812E-08
   16.92000     -1.1757304E-08
   16.98000     -1.0874497E-08
   17.04000     -1.0028812E-08
   17.10000     -9.2175840E-09
   17.16000     -8.4324769E-09
   17.22000     -7.6621607E-09
   17.28000     -6.8956130E-09
   17.34000     -6.1253038E-09
   17.40000     -5.3494644E-09
   17.46000     -4.5727773E-09
   17.52000     -3.8051078E-09
   17.58000     -3.0585217E-09
   17.64000     -2.3434230E-09
   17.70000     -1.6650196E-09
   17.76000     -1.0212591E-09
   17.82000     -4.0285231E-10
   17.88000      2.0470280E-10
   17.94000      8.1780899E-10
   18.00000      1.4511702E-09
   18.06000      2.1148303E-09
   18.12000      2.8124549E-09
   18.18000      3.5410590E-09
   18.24000      4.2920365E-09
   18.30000      5.0530953E-09
   18.36000      5.8105485E-09
   18.42000      6.5513914E-09
   18.48000      7.2647213E-09
   18.54000      7.9423366E-09
   18.60000      8.5786960E-09
   18.66000      9.1706669E-09
   18.72000      9.7175095E-09
   18.78000      1.0221250E-08
   18.84000      1.0687225E-08
   18.90000      1.1124326E-08
   18.96000      1.1544464E-08
   19.02000      1.1961132E-08
   19.08000      1.2387368E-08
   19.14000      1.2833694E-08
   19.20000      1.3306571E-08
   19.26000      1.3807713E-08
   19.32000      1.4334240E-08
   19.38000      1.4879554E-08
   19.44000      1.5434836E-08
   19.50000      1.5991022E-08
   19.56000      1.6541035E-08
   19.62000      1.7081691E-08
   19.68000      1.7614472E-08
   19.74000      1.8144521E-08
   19.80000      1.8677916E-08
   19.86000      1.9218215E-08
   19.92000      1.9763968E-08
   19.98000      2.0308780E-08
   20.04000      2.0844332E-08
   20.10000      2.1365189E-08
   20.16000      2.1872967E-08
   20.22000      2.2377337E-08
   20.28000      2.2892699E-08
   20.34000      2.3431523E-08
   20.40000      2.3997199E-08
   20.46000      2.4579760E-08
   20.52000      2.5156773E-08
   20.58000      2.5699304E-08
   20.64000      2.6180736E-08
   20.70000      2.6584908E-08
   20.76000      2.6910573E-08
   20.82000      2.7170749E-08
   20.88000      2.7387635E-08
   20.94000      2.7585177E-08
   21.00000      2.7781851E-08
   21.06000      2.7985696E-08
   21.12000      2.8192606E-08
   21.18000      2.8387920E-08
   21.24000      2.8550538E-08
   21.30000      2.8658407E-08
   21.36000      2.8693920E-08
   21.42000      2.8647849E-08
   21.48000      2.8520800E-08
   21.54000      2.8321848E-08
   21.60000      2.8064928E-08
   21.66000      2.7764340E-08
   21.72000      2.7430897E-08
   21.78000      2.7069941E-08
   21.84000      2.6681560E-08
   21.90000      2.6262441E-08
   21.96000      2.5808356E-08
   22.02000      2.5316162E-08
   22.08000      2.4784768E-08
   22.14000      2.4214891E-08
   22.20000      2.3607903E-08
   22.26000      2.2964242E-08
   22.32000      2.2281936E-08
   22.38000      2.1555806E-08
   22.44000      2.0777879E-08
   22.50000      1.9939243E-08
   22.56000      1.9033031E-08
   22.62000      1.8057531E-08
   22.68000      1.7018021E-08
   22.74000      1.5926178E-08
   22.80000      1.4796702E-08
   22.86000      1.3642150E-08
   22.92000      1.2467876E-08
   22.98000      1.1269083E-08
   23.04000      1.0031248E-08
   23.10000      8.7337009E-09
   23.16000      7.3549673E-09
   23.22000      5.8779408E-09
   23.28000      4.2933466E-09
   23.34000      2.6008946E-09
   23.40000      8.0842083E-10
   23.46000     -1.0702118E-09
   23.52000     -3.0177401E-09
   23.58000     -5.0162052E-09
   23.64000     -7.0494504E-09
   23.70000     -9.1050341E-09
   23.76000     -1.1175075E-08
   23.82000     -1.3255616E-08
   23.88000     -1.5344556E-08
   23.94000     -1.7438856E-08
   24.00000     -1.9532129E-08
   24.06000     -2.1613609E-08
   24.12000     -2.3668909E-08
   24.18000     -2.5682073E-08
   24.24000     -2.7637995E-08
   24.30000     -2.9524278E-08
   24.36000     -3.1332128E-08
   24.42000     -3.3056455E-08
   24.48000     -3.4695507E-08
   24.54000     -3.6250292E-08
   24.60000     -3.7723474E-08
   24.66000     -3.9117666E-08
   24.72000     -4.0433136E-08
   24.78000     -4.1665803E-08
   24.84000     -4.2806541E-08
   24.90000     -4.3842643E-08
   24.96000     -4.4761162E-08
   25.02000     -4.5552717E-08
   25.08000     -4.6213906E-08
   25.14000     -4.6746980E-08
   25.20000     -4.7156842E-08
   25.26000     -4.7446914E-08
   25.32000     -4.7616169E-08
   25.38000     -4.7658869E-08
   25.44000     -4.7567223E-08
   25.50000     -4.7335337E-08
   25.56000     -4.6962452E-08
   25.62000     -4.6453749E-08
   25.68000     -4.5818759E-08
   25.74000     -4.5068425E-08
   25.80000     -4.4212751E-08
   25.86000     -4.3260023E-08
   25.92000     -4.2217629E-08
   25.98000     -4.1093383E-08
   26.04000     -3.9896054E-08
   26.10000     -3.8634539E-08
   26.16000     -3.7315917E-08
   26.22000     -3.5943462E-08
   26.28000     -3.4515359E-08
   26.34000     -3.3024584E-08
   26.40000     -3.1459752E-08
   26.46000     -2.9806575E-08
   26.52000     -2.8049929E-08
   26.58000     -2.6176588E-08
   26.64000     -2.4178707E-08
   26.70000     -2.2057316E-08
   26.76000     -1.9824640E-08
   26.82000     -1.7503890E-08
   26.88000     -1.5126000E-08
   26.94000     -1.2724126E-08
   27.00000     -1.0327915E-08
   27.06000     -7.9596871E-09
   27.12000     -5.6336988E-09
   27.18000     -3.3580587E-09
   27.24000     -1.1375086E-09
   27.30000      1.0248425E-09
   27.36000      3.1277623E-09
   27.42000      5.1735083E-09
   27.48000      7.1691582E-09
   27.54000      9.1260963E-09
   27.60000      1.1057198E-08
   27.66000      1.2972580E-08
   27.72000      1.4875550E-08
   27.78000      1.6760033E-08
   27.84000      1.8609850E-08
   27.90000      2.0399302E-08
   27.96000      2.2094380E-08
   28.02000      2.3654428E-08
   28.08000      2.5034831E-08
   28.14000      2.6191373E-08
   28.20000      2.7086195E-08
   28.26000      2.7694073E-08
   28.32000      2.8006912E-08
   28.38000      2.8034535E-08
   28.44000      2.7801162E-08
   28.50000      2.7338709E-08
   28.56000      2.6679229E-08
   28.62000      2.5848927E-08
   28.68000      2.4865104E-08
   28.74000      2.3736014E-08
   28.80000      2.2462499E-08
   28.86000      2.1040124E-08
   28.92000      1.9460918E-08
   28.98000      1.7714640E-08
   29.04000      1.5789782E-08
   29.10000      1.3674647E-08
   29.16000      1.1358655E-08
   29.22000      8.8339558E-09
   29.28000      6.0975434E-09
   29.34000      3.1540186E-09
   29.40000      1.8831227E-11
   29.46000     -3.2788152E-09
   29.52000     -6.6947439E-09
   29.58000     -1.0171605E-08
   29.64000     -1.3644137E-08
   29.70000     -1.7046915E-08
   29.76000     -2.0322352E-08
   29.82000     -2.3426445E-08
   29.88000     -2.6330666E-08
   29.94000     -2.9020057E-08
   30.00000     -3.1489176E-08
   30.06000     -3.3738033E-08
   30.12000     -3.5769663E-08
   30.18000     -3.7589398E-08
   30.24000     -3.9204899E-08
   30.30000     -4.0625451E-08
   30.36000     -4.1859749E-08
   30.42000     -4.2912557E-08
   30.48000     -4.3781426E-08
   30.54000     -4.4454971E-08
   30.60000     -4.4913421E-08
   30.66000     -4.5131333E-08
   30.72000     -4.5081428E-08
   30.78000     -4.4738474E-08
   30.84000     -4.4082384E-08
   30.90000     -4.3100204E-08
   30.96000     -4.1787132E-08
   31.02000     -4.0146741E-08
   31.08000     -3.8190521E-08
   31.14000     -3.5936708E-08
   31.20000     -3.3408512E-08
   31.26000     -3.0631909E-08
   31.32000     -2.7633369E-08
   31.38000     -2.4437945E-08
   31.44000     -2.1068038E-08
   31.50000     -1.7542893E-08
   31.56000     -1.3878715E-08
   31.62000     -1.0089218E-08
   31.68000     -6.1864291E-09
   31.74000     -2.1816680E-09
   31.80000      1.9132196E-09
   31.86000      6.0842980E-09
   31.92000      1.0313570E-08
   31.98000      1.4576733E-08
   32.04000      1.8840998E-08
   32.10000      2.3063665E-08
   32.16000      2.7192181E-08
   32.22000      3.1166351E-08
   32.28000      3.4922838E-08
   32.34000      3.8401350E-08
   32.40000      4.1551207E-08
   32.46000      4.4336545E-08
   32.52000      4.6738592E-08
   32.58000      4.8754256E-08
   32.64000      5.0391495E-08
   32.70000      5.1663033E-08
   32.76000      5.2580603E-08
   32.82000      5.3151592E-08
   32.88000      5.3378994E-08
   32.94000      5.3264081E-08
   33.00000      5.2810169E-08
   33.06000      5.2025463E-08
   33.12000      5.0923628E-08
   33.18000      4.9521926E-08
   33.24000      4.7838057E-08
   33.30000      4.5887393E-08
   33.36000      4.3682018E-08
   33.42000      4.1231889E-08
   33.48000      3.8547388E-08
   33.54000      3.5641843E-08
   33.60000      3.2532807E-08
   33.66000      2.9241656E-08
   33.72000      2.5791881E-08
   33.78000      2.2206953E-08
   33.84000      1.8508535E-08
   33.90000      1.4715385E-08
   33.96000      1.0843054E-08
   34.02000      6.9043939E-09
   34.08000      2.9110545E-09
   34.14000     -1.1239544E-09
   34.20000     -5.1829985E-09
   34.26000     -9.2409040E-09
   34.32000     -1.3263853E-08
   34.38000     -1.7211191E-08
   34.44000     -2.1040103E-08
   34.50000     -2.4711692E-08
   34.56000     -2.8196093E-08
   34.62000     -3.1474578E-08
   34.68000     -3.4537987E-08
   34.74000     -3.7382549E-08
   34.80000     -4.0005258E-08
   34.86000     -4.2400934E-08
   34.92000     -4.4561911E-08
   34.98000     -4.6479919E-08
   35.04000     -4.8148841E-08
   35.10000     -4.9567117E-08
   35.16000     -5.0739118E-08
   35.22000     -5.1675510E-08
   35.28000     -5.2392696E-08
   35.34000     -5.2911318E-08
   35.40000     -5.3253569E-08
   35.46000     -5.3439567E-08
   35.52000     -5.3483706E-08
   35.58000     -5.3392515E-08
   35.64000     -5.3165277E-08
   35.70000     -5.2797528E-08
   35.76000     -5.2286001E-08
   35.82000     -5.1632664E-08
   35.88000     -5.0845927E-08
   35.94000     -4.9938421E-08
   36.00000     -4.8922704E-08
   36.06000     -4.7807131E-08
   36.12000     -4.6593822E-08
   36.18000     -4.5279457E-08
   36.24000     -4.3858243E-08
   36.30000     -4.2325674E-08
   36.36000     -4.0681954E-08
   36.42000     -3.8934413E-08
   36.48000     -3.7098751E-08
   36.54000     -3.5198667E-08
   36.60000     -3.3263465E-08
   36.66000     -3.1323566E-08
   36.72000     -2.9404822E-08
   36.78000     -2.7523747E-08
   36.84000     -2.5685983E-08
   36.90000     -2.3889202E-08
   36.96000     -2.2129367E-08
   37.02000     -2.0407361E-08
   37.08000     -1.8732381E-08
   37.14000     -1.7120158E-08
   37.20000     -1.5586870E-08
   37.26000     -1.4142005E-08
   37.32000     -1.2784031E-08
   37.38000     -1.1501066E-08
   37.44000     -1.0275999E-08
   37.50000     -9.0933874E-09
   37.56000     -7.9450215E-09
   37.62000     -6.8323862E-09
   37.68000     -5.7661245E-09
   37.74000     -4.7637565E-09
   37.80000     -3.8467998E-09
   37.86000     -3.0375835E-09
   37.92000     -2.3555096E-09
   37.98000     -1.8129064E-09
   38.04000     -1.4116835E-09
   38.10000     -1.1426315E-09
   38.16000     -9.8861952E-10
   38.22000     -9.3112917E-10
   38.28000     -9.5758657E-10
   38.34000     -1.0661877E-09
   38.40000     -1.2659941E-09
   38.46000     -1.5724506E-09
   38.52000     -2.0007129E-09
   38.58000     -2.5599438E-09
   38.64000     -3.2507206E-09
   38.70000     -4.0657300E-09
   38.76000     -4.9923332E-09
   38.82000     -6.0152860E-09
   38.88000     -7.1187225E-09
   38.94000     -8.2875635E-09
   39.00000     -9.5088852E-09
   39.06000     -1.0773263E-08
   39.12000     -1.2075341E-08
   39.18000     -1.3412734E-08
   39.24000     -1.4783136E-08
   39.30000     -1.6180740E-08
   39.36000     -1.7593868E-08
   39.42000     -1.9005162E-08
   39.48000     -2.0394387E-08
   39.54000     -2.1742341E-08
   39.60000     -2.3033914E-08
   39.66000     -2.4259029E-08
   39.72000     -2.5411660E-08
   39.78000     -2.6488086E-08
   39.84000     -2.7485601E-08
   39.90000     -2.8401981E-08
   39.96000     -2.9235064E-08
   40.02000     -2.9981649E-08
   40.08000     -3.0635704E-08
   40.14000     -3.1186893E-08
   40.20000     -3.1620882E-08
   40.26000     -3.1922120E-08
   40.32000     -3.2078294E-08
   40.38000     -3.2084536E-08
   40.44000     -3.1945213E-08
   40.50000     -3.1672325E-08
   40.56000     -3.1281111E-08
   40.62000     -3.0784751E-08
   40.68000     -3.0190115E-08
   40.74000     -2.9495736E-08
   40.80000     -2.8692195E-08
   40.86000     -2.7764434E-08
   40.92000     -2.6695332E-08
   40.98000     -2.5470058E-08
   41.04000     -2.4080446E-08
   41.10000     -2.2528276E-08
   41.16000     -2.0826141E-08
   41.22000     -1.8994960E-08
   41.28000     -1.7058520E-08
   41.34000     -1.5036846E-08
   41.40000     -1.2941106E-08
   41.46000     -1.0772252E-08
   41.52000     -8.5240934E-09
   41.58000     -6.1895293E-09
   41.64000     -3.7673757E-09
   41.70000     -1.2671797E-09
   41.76000      1.2896016E-09
   41.82000      3.8722616E-09
   41.88000      6.4463803E-09
   41.94000      8.9806340E-09
   42.00000      1.1453062E-08
   42.06000      1.3855044E-08
   42.12000      1.6191546E-08
   42.18000      1.8477060E-08
   42.24000      2.0728082E-08
   42.30000      2.2954476E-08
   42.36000      2.5153069E-08
   42.42000      2.7306344E-08
   42.48000      2.9387097E-08
   42.54000      3.1367421E-08
   42.60000      3.3228325E-08
   42.66000      3.4966050E-08
   42.72000      3.6592795E-08
   42.78000      3.8131944E-08
   42.84000      3.9610129E-08
   42.90000      4.1049113E-08
   42.96000      4.2459916E-08
   43.02000      4.3840306E-08
   43.08000      4.5175739E-08
   43.14000      4.6443301E-08
   43.20000      4.7618066E-08
   43.26000      4.8680796E-08
   43.32000      4.9625154E-08
   43.38000      5.0461900E-08
   43.44000      5.1217881E-08
   43.50000      5.1929124E-08
   43.56000      5.2629876E-08
   43.62000      5.3341498E-08
   43.68000      5.4065673E-08
   43.74000      5.4784756E-08
   43.80000      5.5469258E-08
   43.86000      5.6089341E-08
   43.92000      5.6625872E-08
   43.98000      5.7076921E-08
   44.04000      5.7457655E-08
   44.10000      5.7793944E-08
   44.16000      5.8112199E-08
   44.22000      5.8428725E-08
   44.28000      5.8742089E-08
   44.34000      5.9031198E-08
   44.40000      5.9260238E-08
   44.46000      5.9389652E-08
   44.52000      5.9390054E-08
   44.58000      5.9254319E-08
   44.64000      5.9003032E-08
   44.70000      5.8680449E-08
   44.76000      5.8341367E-08
   44.82000      5.8033248E-08
   44.88000      5.7779676E-08
   44.94000      5.7571114E-08
   45.00000      5.7366098E-08
   45.06000      5.7102209E-08
   45.12000      5.6713102E-08
   45.18000      5.6146309E-08
   45.24000      5.5377065E-08
   45.30000      5.4414656E-08
   45.36000      5.3300123E-08
   45.42000      5.2095675E-08
   45.48000      5.0868280E-08
   45.54000      4.9671417E-08
   45.60000      4.8530129E-08
   45.66000      4.7434323E-08
   45.72000      4.6343178E-08
   45.78000      4.5199879E-08
   45.84000      4.3951733E-08
   45.90000      4.2568391E-08
   45.96000      4.1051198E-08
   46.02000      3.9430120E-08
   46.08000      3.7749849E-08
   46.14000      3.6050903E-08
   46.20000      3.4353398E-08
   46.26000      3.2649833E-08
   46.32000      3.0909248E-08
   46.38000      2.9090815E-08
   46.44000      2.7161722E-08
   46.50000      2.5112884E-08
   46.56000      2.2967315E-08
   46.62000      2.0778291E-08
   46.68000      1.8617703E-08
   46.74000      1.6557854E-08
   46.80000      1.4651998E-08
   46.86000      1.2919631E-08
   46.92000      1.1341473E-08
   46.98000      9.8663149E-09
   47.04000      8.4281728E-09
   47.10000      6.9685684E-09
   47.16000      5.4567626E-09
   47.22000      3.9012193E-09
   47.28000      2.3484827E-09
   47.34000      8.6997137E-10
   47.40000     -4.5872145E-10
   47.46000     -1.5790841E-09
   47.52000     -2.4646898E-09
   47.58000     -3.1255580E-09
   47.64000     -3.6011754E-09
   47.70000     -3.9451358E-09
   47.76000     -4.2068544E-09
   47.82000     -4.4164610E-09
   47.88000     -4.5777204E-09
   47.94000     -4.6710946E-09
   48.00000     -4.6656572E-09
   48.06000     -4.5355555E-09
   48.12000     -4.2750399E-09
   48.18000     -3.9063912E-09
   48.24000     -3.4774144E-09
   48.30000     -3.0488037E-09
   48.36000     -2.6753804E-09
   48.42000     -2.3876485E-09
   48.48000     -2.1802598E-09
   48.54000     -2.0117570E-09
   48.60000     -1.8161083E-09
   48.66000     -1.5224493E-09
   48.72000     -1.0766025E-09
   48.78000     -4.5736967E-10
   48.84000      3.1755842E-10
   48.90000      1.1976665E-09
   48.96000      2.1152655E-09
   49.02000      3.0053164E-09
   49.08000      3.8229215E-09
   49.14000      4.5530517E-09
   49.20000      5.2098734E-09
   49.26000      5.8265224E-09
   49.32000      6.4392220E-09
   49.38000      7.0713506E-09
   49.44000      7.7228721E-09
   49.50000      8.3686773E-09
   49.56000      8.9662837E-09
   49.62000      9.4701695E-09
   49.68000      9.8476338E-09
   49.74000      1.0090468E-08
   49.80000      1.0218096E-08
   49.86000      1.0270820E-08
   49.92000      1.0295370E-08
   49.98000      1.0327752E-08
   50.04000      1.0379413E-08
   50.10000      1.0431504E-08
   50.16000      1.0439122E-08
   50.22000      1.0343876E-08
   50.28000      1.0090433E-08
   50.34000      9.6415880E-09
   50.40000      8.9872847E-09
   50.46000      8.1452747E-09
   50.52000      7.1537896E-09
   50.58000      6.0590035E-09
   50.64000      4.9013895E-09
   50.70000      3.7051200E-09
   50.76000      2.4735813E-09
   50.82000      1.1921000E-09
   50.88000     -1.6332558E-10
   50.94000     -1.6144229E-09
   51.00000     -3.1702569E-09
   51.06000     -4.8216386E-09
   51.12000     -6.5421069E-09
   51.18000     -8.2947871E-09
   51.24000     -1.0042298E-08
   51.30000     -1.1755987E-08
   51.36000     -1.3421348E-08
   51.42000     -1.5038227E-08
   51.48000     -1.6616408E-08
   51.54000     -1.8168567E-08
   51.60000     -1.9703013E-08
   51.66000     -2.1218337E-08
   51.72000     -2.2701217E-08
   51.78000     -2.4127855E-08
   51.84000     -2.5468765E-08
   51.90000     -2.6695696E-08
   51.96000     -2.7788690E-08
   52.02000     -2.8740867E-08
   52.08000     -2.9558846E-08
   52.14000     -3.0258288E-08
   52.20000     -3.0856022E-08
   52.26000     -3.1362035E-08
   52.32000     -3.1774881E-08
   52.38000     -3.2082593E-08
   52.44000     -3.2268627E-08
   52.50000     -3.2319861E-08
   52.56000     -3.2232883E-08
   52.62000     -3.2015855E-08
   52.68000     -3.1685584E-08
   52.74000     -3.1261834E-08
   52.80000     -3.0761871E-08
   52.86000     -3.0197594E-08
   52.92000     -2.9576020E-08
   52.98000     -2.8902239E-08
   53.04000     -2.8183315E-08
   53.10000     -2.7431691E-08
   53.16000     -2.6667225E-08
   53.22000     -2.5917405E-08
   53.28000     -2.5215437E-08
   53.34000     -2.4596201E-08
   53.40000     -2.4090783E-08
   53.46000     -2.3721311E-08
   53.52000     -2.3498407E-08
   53.58000     -2.3423102E-08
   53.64000     -2.3493413E-08
   53.70000     -2.3713481E-08
   53.76000     -2.4101695E-08
   53.82000     -2.4694364E-08
   53.88000     -2.5543272E-08
   53.94000     -2.6708104E-08
   54.00000     -2.8246683E-08
   54.06000     -3.0206593E-08
   54.12000     -3.2620708E-08
   54.18000     -3.5507583E-08
   54.24000     -3.8875896E-08
   54.30000     -4.2731259E-08
   54.36000     -4.7083159E-08
   54.42000     -5.1949794E-08
   54.48000     -5.7359028E-08
   54.54000     -6.3344608E-08
   54.60000     -6.9938586E-08
   54.66000     -7.7162554E-08
   54.72000     -8.5021320E-08
   54.78000     -9.3502010E-08
   54.84000     -1.0257893E-07
   54.90000     -1.1222196E-07
   54.96000     -1.2240378E-07
   55.02000     -1.3310233E-07
   55.08000     -1.4429686E-07
   55.14000     -1.5595936E-07
   55.20000     -1.6804518E-07
   55.26000     -1.8048635E-07
   55.32000     -1.9318904E-07
   55.38000     -2.0603434E-07
   55.44000     -2.1888060E-07
   55.50000     -2.3156569E-07
   55.56000     -2.4390914E-07