  -2.400000      0.0000000E+00
  -2.340000      0.0000000E+00
  -2.280000      0.0000000E+00
  -2.220000      0.0000000E+00
  -2.160000      0.0000000E+00
  -2.100000      5.1309357E-19
  -2.040000      3.9073601E-18
  -1.980000      1.4911901E-17
  -1.920000      3.6616281E-17
  -1.860000      6.0125734E-17
  -1.800000      5.3420988E-17
  -1.740000     -3.6339586E-17
  -1.680000     -2.5211952E-16
  -1.620000     -5.6833428E-16
  -1.560000     -8.3478146E-16
  -1.500000     -7.8211777E-16
  -1.440000     -1.4522462E-16
  -1.380000      1.0990446E-15
  -1.320000      2.4955691E-15
  -1.260000      3.0961017E-15
  -1.200000      1.8738046E-15
  -1.140000     -1.4422828E-15
  -1.080000     -5.5103830E-15
  -1.020000     -7.2280354E-15
 -0.9600000     -2.9599687E-15
 -0.9000000      8.8786756E-15
 -0.8400000      2.5035834E-14
 -0.7800000      3.6485629E-14
 -0.7200000      3.1189813E-14
 -0.6600000      6.5307341E-16
 -0.6000000     -5.2365674E-14
 -0.5400000     -1.0973536E-13
 -0.4800000     -1.4183531E-13
 -0.4200000     -1.2028937E-13
 -0.3600000     -3.4912130E-14
 -0.3000000      9.4115254E-14
 -0.2400000      2.1775756E-13
 -0.1800000      2.7653994E-13
 -0.1200000      2.2988138E-13
 -5.9999999E-02  8.2536442E-14
  0.0000000E+00 -1.0714673E-13
  5.9999999E-02 -2.4559640E-13
  0.1200000     -2.4489487E-13
  0.1800000     -6.9888038E-14
  0.2400000      2.3015053E-13
  0.3000000      5.2258198E-13
  0.3600000      6.3008816E-13
  0.4200000      3.9695826E-13
  0.4800000     -2.3847875E-13
  0.5400000     -1.1908597E-12
  0.6000000     -2.2159453E-12
  0.6600000     -2.9513221E-12
  0.7200000     -3.0065965E-12
  0.7800000     -2.0841740E-12
  0.8400000     -9.8145708E-14
  0.9000000      2.7474921E-12
  0.9600000      5.9542345E-12
   1.020000      8.8115730E-12
   1.080000      1.0551766E-11
   1.140000      1.0535561E-11
   1.200000      8.4150863E-12
   1.260000      4.2284136E-12
   1.320000     -1.5939203E-12
   1.380000     -8.2995668E-12
   1.440000     -1.4930345E-11
   1.500000     -2.0448797E-11
   1.560000     -2.3853041E-11
   1.620000     -2.4274725E-11
   1.680000     -2.1066027E-11
   1.740000     -1.3883495E-11
   1.800000     -2.7739323E-12
   1.860000      1.1732848E-11
   1.920000      2.8517457E-11
   1.980000      4.5747878E-11
   2.040000      6.0758620E-11
   2.100000      6.9989618E-11
   2.160000      6.9080110E-11
   2.220000      5.3218159E-11
   2.280000      1.7792292E-11
   2.340000     -4.0719501E-11
   2.400000     -1.2381801E-10
   2.460000     -2.3028628E-10
   2.520000     -3.5598624E-10
   2.580000     -4.9426790E-10
   2.640000     -6.3689970E-10
   2.700000     -7.7523588E-10
   2.760000     -9.0125296E-10
   2.820000     -1.0081642E-09
   2.880000     -1.0905239E-09
   2.940000     -1.1439726E-09
   3.000000     -1.1649315E-09
   3.060000     -1.1505544E-09
   3.120000     -1.0990757E-09
   3.180000     -1.0104489E-09
   3.240000     -8.8695551E-10
   3.300000     -7.3340312E-10
   3.360000     -5.5665800E-10
   3.420000     -3.6452033E-10
   3.480000     -1.6424061E-10
   3.540000      3.8841277E-11
   3.600000      2.4206864E-10
   3.660000      4.4539814E-10
   3.720000      6.5056233E-10
   3.780000      8.5984592E-10
   3.840000      1.0750159E-09
   3.900000      1.2968767E-09
   3.960000      1.5256594E-09
   4.020000      1.7620790E-09
   4.080000      2.0085806E-09
   4.140000      2.2701498E-09
   4.200000      2.5541735E-09
   4.260000      2.8691653E-09
   4.320000      3.2226131E-09
   4.380000      3.6185919E-09
   4.440000      4.0559516E-09
   4.500000      4.5277688E-09
   4.560000      5.0223541E-09
   4.620000      5.5255507E-09
   4.680000      6.0236078E-09
   4.740000      6.5056689E-09
   4.800000      6.9650739E-09
   4.860000      7.3991289E-09
   4.920000      7.8075884E-09
   4.980000      8.1905949E-09
   5.040000      8.5469827E-09
   5.100000      8.8736583E-09
   5.160000      9.1662660E-09
   5.220000      9.4207842E-09
   5.280000      9.6353290E-09
   5.340000      9.8114041E-09
   5.400000      9.9541007E-09
   5.460000      1.0071265E-08
   5.520000      1.0172037E-08
   5.580000      1.0265413E-08
   5.640000      1.0359351E-08
   5.700000      1.0460642E-08
   5.760000      1.0575379E-08
   5.820000      1.0709519E-08
   5.880000      1.0869034E-08
   5.940000      1.1059285E-08
   6.000000      1.1283657E-08
   6.060000      1.1541827E-08
   6.120000      1.1828336E-08
   6.180000      1.2132086E-08
   6.240000      1.2437148E-08
   6.300000      1.2724803E-08
   6.360000      1.2976284E-08
   6.420000      1.3175416E-08
   6.480000      1.3310334E-08
   6.540000      1.3373772E-08
   6.600000      1.3361968E-08
   6.660000      1.3272687E-08
   6.720000      1.3103254E-08
   6.780000      1.2849443E-08
   6.840000      1.2505776E-08
   6.900000      1.2067253E-08
   6.960000      1.1531934E-08
   7.020000      1.0903423E-08
   7.080000      1.0192260E-08
   7.140000      9.4155288E-09
   7.200000      8.5946690E-09
   7.260000      7.7521456E-09
   7.320000      6.9081620E-09
   7.380000      6.0785701E-09
   7.440000      5.2747025E-09
   7.500000      4.5048956E-09
   7.560000      3.7767349E-09
   7.620000      3.0986194E-09
   7.680000      2.4796130E-09
   7.740000      1.9274533E-09
   7.800000      1.4456187E-09
   7.860000      1.0310054E-09
   7.920000      6.7357675E-10
   7.980000      3.5843453E-10
   8.040000      6.9555001E-11
   8.100000     -2.0640638E-10
   8.160000     -4.7786813E-10
   8.220000     -7.4845269E-10
   8.280000     -1.0191327E-09
   8.340000     -1.2911048E-09
   8.400000     -1.5679107E-09
   8.460000     -1.8558810E-09
   8.520000     -2.1629198E-09
   8.580000     -2.4964202E-09
   8.640000     -2.8613261E-09
   8.700000     -3.2590508E-09
   8.760000     -3.6873953E-09
   8.820000     -4.1411976E-09
   8.880000     -4.6133404E-09
   8.940000     -5.0958873E-09
   9.000000     -5.5812674E-09
   9.060000     -6.0633809E-09
   9.120000     -6.5383396E-09
   9.180000     -7.0044432E-09
   9.240000     -7.4611739E-09
   9.300000     -7.9074578E-09
   9.360000     -8.3399438E-09
   9.420000     -8.7522398E-09
   9.480000     -9.1357224E-09
   9.540000     -9.4817931E-09
   9.600000     -9.7846566E-09
   9.660000     -1.0043343E-08
   9.720000     -1.0261976E-08
   9.780000     -1.0448089E-08
   9.840000     -1.0609731E-08
   9.900000     -1.0752668E-08
   9.960000     -1.0878868E-08
   10.02000     -1.0986843E-08
   10.08000     -1.1073546E-08
   10.14000     -1.1136791E-08
   10.20000     -1.1177055E-08
   10.26000     -1.1197805E-08
   10.32000     -1.1204236E-08
   10.38000     -1.1200984E-08
   10.44000     -1.1189861E-08
   10.50000     -1.1168594E-08
   10.56000     -1.1131155E-08
   10.62000     -1.1069570E-08
   10.68000     -1.0976484E-08
   10.74000     -1.0847415E-08
   10.80000     -1.0681880E-08
   10.86000     -1.0483083E-08
   10.92000     -1.0256548E-08
   10.98000     -1.0008538E-08
   11.04000     -9.7450368E-09
   11.10000     -9.4716412E-09
   11.16000     -9.1940873E-09
   11.22000     -8.9187440E-09
   11.28000     -8.6525018E-09
   11.34000     -8.4018792E-09
   11.40000     -8.1717459E-09
   11.46000     -7.9642950E-09
   11.52000     -7.7787599E-09
   11.58000     -7.6119173E-09
   11.64000     -7.4590396E-09
   11.70000     -7.3148598E-09
   11.76000     -7.1743416E-09
   11.82000     -7.0333783E-09
   11.88000     -6.8896395E-09
   11.94000     -6.7435546E-09
   12.00000     -6.5989929E-09
   12.06000     -6.4629888E-09
   12.12000     -6.3441052E-09
   12.18000     -6.2497376E-09
   12.24000     -6.1833823E-09
   12.30000     -6.1432064E-09
   12.36000     -6.1227832E-09
   12.42000     -6.1138343E-09
   12.48000     -6.1097678E-09
   12.54000     -6.1083307E-09
   12.60000     -6.1121210E-09
   12.66000     -6.1267791E-09
   12.72000     -6.1578467E-09
   12.78000     -6.2078582E-09
   12.84000     -6.2749641E-09
   12.90000     -6.3535044E-09
   12.96000     -6.4359442E-09
   13.02000     -6.5150405E-09
   13.08000     -6.5852208E-09
   13.14000     -6.6427863E-09
   13.20000     -6.6852293E-09
   13.26000     -6.7103678E-09
   13.32000     -6.7159140E-09
   13.38000     -6.6997208E-09
   13.44000     -6.6605002E-09
   13.50000     -6.5985413E-09
   13.56000     -6.5159496E-09
   13.62000     -6.4161321E-09
   13.68000     -6.3025358E-09
   13.74000     -6.1769376E-09
   13.80000     -6.0377916E-09
   13.86000     -5.8792433E-09
   13.92000     -5.6913434E-09
   13.98000     -5.4617000E-09
   14.04000     -5.1783062E-09
   14.10000     -4.8327800E-09
   14.16000     -4.4229216E-09
   14.22000     -3.9535997E-09
   14.28000     -3.4355134E-09
   14.34000     -2.8822054E-09
   14.40000     -2.3064233E-09
   14.46000     -1.7172265E-09
   14.52000     -1.1189196E-09
   14.58000     -5.1209365E-10
   14.64000      1.0388358E-10
   14.70000      7.2820561E-10
   14.76000      1.3570916E-09
   14.82000      1.9840698E-09
   14.88000      2.6018416E-09
   14.94000      3.2046823E-09
   15.00000      3.7900629E-09
   15.06000      4.3585846E-09
   15.12000      4.9122066E-09
   15.18000      5.4516676E-09
   15.24000      5.9744751E-09
   15.30000      6.4745938E-09
   15.36000      6.9440973E-09
   15.42000      7.3760140E-09
   15.48000      7.7669213E-09
   15.54000      8.1178984E-09
   15.60000      8.4332639E-09
   15.66000      8.7175982E-09
   15.72000      8.9724850E-09
   15.78000      9.1945314E-09
   15.84000      9.3756611E-09
   15.90000      9.5056123E-09
   15.96000      9.5755874E-09
   16.02000      9.5816075E-09
   16.08000      9.5263006E-09
   16.14000      9.4186747E-09
   16.20000      9.2721937E-09
   16.26000      9.1020533E-09
   16.32000      8.9226386E-09
   16.38000      8.7458565E-09
   16.44000      8.5805558E-09
   16.50000      8.4329095E-09
   16.56000      8.3072749E-09
   16.62000      8.2071088E-09
   16.68000      8.1354976E-09
   16.74000      8.0951335E-09
   16.80000      8.0877625E-09
   16.86000      8.1134184E-09
   16.92000      8.1699021E-09
   16.98000      8.2529237E-09
   17.04000      8.3570768E-09
   17.10000      8.4773859E-09
   17.16000      8.6108463E-09
   17.22000      8.7572332E-09
   17.28000      8.9186534E-09
   17.34000      9.0978389E-09
   17.40000      9.2956824E-09
   17.46000      9.5089172E-09
   17.52000      9.7288417E-09
   17.58000      9.9416662E-09
   17.64000      1.0130452E-08
   17.70000      1.0278062E-08
   17.76000      1.0370133E-08
   17.82000      1.0397105E-08
   17.88000      1.0354676E-08
   17.94000      1.0242729E-08
   18.00000      1.0063322E-08
   18.06000      9.8187991E-09
   18.12000      9.5109183E-09
   18.18000      9.1413970E-09
   18.24000      8.7135250E-09
   18.30000      8.2338829E-09
   18.36000      7.7130915E-09
   18.42000      7.1649886E-09
   18.48000      6.6043979E-09
   18.54000      6.0444267E-09
   18.60000      5.4944440E-09
   18.66000      4.9595283E-09
   18.72000      4.4413757E-09
   18.78000      3.9399559E-09
   18.84000      3.4549141E-09
   18.90000      2.9860654E-09
   18.96000      2.5329836E-09
   19.02000      2.0942743E-09
   19.08000      1.6672568E-09
   19.14000      1.2484351E-09
   19.20000      8.3458435E-10
   19.26000      4.2388856E-10
   19.32000      1.6584003E-11
   19.38000     -3.8509182E-10
   19.44000     -7.7744616E-10
   19.50000     -1.1560138E-09
   19.56000     -1.5161630E-09
   19.62000     -1.8536798E-09
   19.68000     -2.1655013E-09
   19.74000     -2.4505915E-09
   19.80000     -2.7106164E-09
   19.86000     -2.9498877E-09
   19.92000     -3.1742522E-09
   19.98000     -3.3891832E-09
   20.04000     -3.5979431E-09
   20.10000     -3.8008783E-09
   20.16000     -3.9964574E-09
   20.22000     -4.1837285E-09
   20.28000     -4.3649768E-09
   20.34000     -4.5470832E-09
   20.40000     -4.7406350E-09
   20.46000     -4.9570050E-09
   20.52000     -5.2047380E-09
   20.58000     -5.4870357E-09
   20.64000     -5.8016285E-09
   20.70000     -6.1431118E-09
   20.76000     -6.5065828E-09
   20.82000     -6.8907400E-09
   20.88000     -7.2989303E-09
   20.94000     -7.7376434E-09
   21.00000     -8.2132168E-09
   21.06000     -8.7283176E-09
   21.12000     -9.2798080E-09
   21.18000     -9.8589039E-09
   21.24000     -1.0453491E-08
   21.30000     -1.1051606E-08
   21.36000     -1.1644689E-08
   21.42000     -1.2229487E-08
   21.48000     -1.2808069E-08
   21.54000     -1.3386177E-08
   21.60000     -1.3970601E-08
   21.66000     -1.4566534E-08
   21.72000     -1.5175623E-08
   21.78000     -1.5795184E-08
   21.84000     -1.6418618E-08
   21.90000     -1.7036820E-08
   21.96000     -1.7640129E-08
   22.02000     -1.8220343E-08
   22.08000     -1.8772260E-08
   22.14000     -1.9294284E-08
   22.20000     -1.9787825E-08
   22.26000     -2.0255575E-08
   22.32000     -2.0699165E-08
   22.38000     -2.1117074E-08
   22.44000     -2.1503745E-08
   22.50000     -2.1850466E-08
   22.56000     -2.2147866E-08
   22.62000     -2.2389035E-08
   22.68000     -2.2571802E-08
   22.74000     -2.2698984E-08
   22.80000     -2.2776254E-08
   22.86000     -2.2808539E-08
   22.92000     -2.2796653E-08
   22.98000     -2.2735877E-08
   23.04000     -2.2617334E-08
   23.10000     -2.2431573E-08
   23.16000     -2.2172694E-08
   23.22000     -2.1841126E-08
   23.28000     -2.1443865E-08
   23.34000     -2.0992346E-08
   23.40000     -2.0499160E-08
   23.46000     -1.9975237E-08
   23.52000     -1.9428478E-08
   23.58000     -1.8863897E-08
   23.64000     -1.8284519E-08
   23.70000     -1.7692134E-08
   23.76000     -1.7087492E-08
   23.82000     -1.6470166E-08
   23.88000     -1.5838618E-08
   23.94000     -1.5190819E-08
   24.00000     -1.4525266E-08
   24.06000     -1.3841803E-08
   24.12000     -1.3141825E-08
   24.18000     -1.2427814E-08
   24.24000     -1.1702708E-08
   24.30000     -1.0969654E-08
   24.36000     -1.0232350E-08
   24.42000     -9.4955617E-09
   24.48000     -8.7651202E-09
   24.54000     -8.0470146E-09
   24.60000     -7.3458430E-09
   24.66000     -6.6635097E-09
   24.72000     -5.9990541E-09
   24.78000     -5.3498641E-09
   24.84000     -4.7136108E-09
   24.90000     -4.0897823E-09
   24.96000     -3.4799572E-09
   25.02000     -2.8868719E-09
   25.08000     -2.3131708E-09
   25.14000     -1.7609133E-09
   25.20000     -1.2322326E-09
   25.26000     -7.3051415E-10
   25.32000     -2.6085323E-10
   25.38000      1.7108633E-10
   25.44000      5.6156552E-10
   25.50000      9.1122498E-10
   25.56000      1.2258345E-09
   25.62000      1.5145659E-09
   25.68000      1.7865447E-09
   25.74000      2.0475976E-09
   25.80000      2.2990623E-09
   25.86000      2.5392517E-09
   25.92000      2.7664722E-09
   25.98000      2.9815319E-09
   26.04000      3.1880656E-09
   26.10000      3.3905039E-09
   26.16000      3.5910745E-09
   26.22000      3.7878203E-09
   26.28000      3.9748542E-09
   26.34000      4.1445420E-09
   26.40000      4.2900390E-09
   26.46000      4.4065120E-09
   26.52000      4.4903983E-09
   26.58000      4.5374597E-09
   26.64000      4.5412007E-09
   26.70000      4.4928807E-09
   26.76000      4.3832489E-09
   26.82000      4.2050226E-09
   26.88000      3.9548147E-09
   26.94000      3.6337768E-09
   27.00000      3.2471230E-09
   27.06000      2.8032170E-09
   27.12000      2.3127129E-09
   27.18000      1.7876183E-09
   27.24000      1.2397652E-09
   27.30000      6.7846889E-10
   27.36000      1.0796811E-10
   27.42000     -4.7410548E-10
   27.48000     -1.0761245E-09
   27.54000     -1.7096672E-09
   27.60000     -2.3857443E-09
   27.66000     -3.1119010E-09
   27.72000     -3.8914503E-09
   27.78000     -4.7246225E-09
   27.84000     -5.6100462E-09
   27.90000     -6.5446986E-09
   27.96000     -7.5216207E-09
   28.02000     -8.5264737E-09
   28.08000     -9.5353414E-09
   28.14000     -1.0515897E-08
   28.20000     -1.1432419E-08
   28.26000     -1.2252910E-08
   28.32000     -1.2955280E-08
   28.38000     -1.3529978E-08
   28.44000     -1.3978250E-08
   28.50000     -1.4307462E-08
   28.56000     -1.4526146E-08
   28.62000     -1.4641119E-08
   28.68000     -1.4657509E-08
   28.74000     -1.4580783E-08
   28.80000     -1.4418918E-08
   28.86000     -1.4183180E-08
   28.92000     -1.3887009E-08
   28.98000     -1.3543661E-08
   29.04000     -1.3163766E-08
   29.10000     -1.2753722E-08
   29.16000     -1.2315265E-08
   29.22000     -1.1845996E-08
   29.28000     -1.1340429E-08
   29.34000     -1.0791266E-08
   29.40000     -1.0190662E-08
   29.46000     -9.5313029E-09
   29.52000     -8.8070378E-09
   29.58000     -8.0128997E-09
   29.64000     -7.1446067E-09
   29.70000     -6.1979994E-09
   29.76000     -5.1690416E-09
   29.82000     -4.0547770E-09
   29.88000     -2.8551015E-09
   29.94000     -1.5746278E-09
   30.00000     -2.2373697E-10
   30.06000      1.1817561E-09
   30.12000      2.6222058E-09
   30.18000      4.0762673E-09
   30.24000      5.5226663E-09
   30.30000      6.9410806E-09
   30.36000      8.3122949E-09
   30.42000      9.6182475E-09
   30.48000      1.0842601E-08
   30.54000      1.1971959E-08
   30.60000      1.2997226E-08
   30.66000      1.3914266E-08
   30.72000      1.4723241E-08
   30.78000      1.5426703E-08
   30.84000      1.6027215E-08
   30.90000      1.6525583E-08
   30.96000      1.6920541E-08
   31.02000      1.7209818E-08
   31.08000      1.7391837E-08
   31.14000      1.7466899E-08
   31.20000      1.7437044E-08
   31.26000      1.7304673E-08
   31.32000      1.7070867E-08
   31.38000      1.6734623E-08
   31.44000      1.6293841E-08
   31.50000      1.5747876E-08
   31.56000      1.5100438E-08
   31.62000      1.4361269E-08
   31.68000      1.3545464E-08
   31.74000      1.2670537E-08
   31.80000      1.1752428E-08
   31.86000      1.0802289E-08
   31.92000      9.8253770E-09
   31.98000      8.8223233E-09
   32.04000      7.7918099E-09
   32.10000      6.7331243E-09
   32.16000      5.6474017E-09
   32.22000      4.5373096E-09
   32.28000      3.4059198E-09
   32.34000      2.2558473E-09
   32.40000      1.0893653E-09
   32.46000     -9.0668993E-11
   32.52000     -1.2798748E-09
   32.58000     -2.4722193E-09
   32.64000     -3.6609060E-09
   32.70000     -4.8396771E-09
   32.76000     -6.0035181E-09
   32.82000     -7.1480639E-09
   32.88000     -8.2678477E-09
   32.94000     -9.3543733E-09
   33.00000     -1.0395268E-08
   33.06000     -1.1375240E-08
   33.12000     -1.2278594E-08
   33.18000     -1.3092150E-08
   33.24000     -1.3807167E-08
   33.30000     -1.4419450E-08
   33.36000     -1.4927801E-08
   33.42000     -1.5331853E-08
   33.48000     -1.5630592E-08
   33.54000     -1.5822362E-08
   33.60000     -1.5906224E-08
   33.66000     -1.5883771E-08
   33.72000     -1.5760214E-08
   33.78000     -1.5544016E-08
   33.84000     -1.5245178E-08
   33.90000     -1.4872983E-08
   33.96000     -1.4434281E-08
   34.02000     -1.3932978E-08
   34.08000     -1.3370717E-08
   34.14000     -1.2748096E-08
   34.20000     -1.2065634E-08
   34.26000     -1.1324120E-08
   34.32000     -1.0524601E-08
   34.38000     -9.6686481E-09
   34.44000     -8.7593985E-09
   34.50000     -7.8031253E-09
   34.56000     -6.8103856E-09
   34.62000     -5.7955813E-09
   34.68000     -4.7744466E-09
   34.74000     -3.7602015E-09
   34.80000     -2.7602369E-09
   34.86000     -1.7753375E-09
   34.92000     -8.0235468E-10
   34.98000      1.6064086E-10
   35.04000      1.1093028E-09
   35.10000      2.0309243E-09
   35.16000      2.9068341E-09
   35.22000      3.7184049E-09
   35.28000      4.4537378E-09
   35.34000      5.1115370E-09
   35.40000      5.7000786E-09
   35.46000      6.2317373E-09
   35.52000      6.7158914E-09
   35.58000      7.1538051E-09
   35.64000      7.5379507E-09
   35.70000      7.8558600E-09
   35.76000      8.0962881E-09
   35.82000      8.2545455E-09
   35.88000      8.3345517E-09
   35.94000      8.3470537E-09
   36.00000      8.3052818E-09
   36.06000      8.2203400E-09
   36.12000      8.0983114E-09
   36.18000      7.9399598E-09
   36.24000      7.7426288E-09
   36.30000      7.5031172E-09
   36.36000      7.2201698E-09
   36.42000      6.8955996E-09
   36.48000      6.5337660E-09
   36.54000      6.1397523E-09
   36.60000      5.7171357E-09
   36.66000      5.2664118E-09
   36.72000      4.7849640E-09
   36.78000      4.2688346E-09
   36.84000      3.7157404E-09
   36.90000      3.1280534E-09
   36.96000      2.5143385E-09
   37.02000      1.8886179E-09
   37.08000      1.2676021E-09
   37.14000      6.6714345E-10
   37.20000      9.9517464E-11
   37.26000     -4.2737847E-10
   37.32000     -9.0891034E-10
   37.38000     -1.3416783E-09
   37.44000     -1.7218997E-09
   37.50000     -2.0450197E-09
   37.56000     -2.3064193E-09
   37.62000     -2.5023486E-09
   37.68000     -2.6301916E-09
   37.74000     -2.6878189E-09
   37.80000     -2.6726359E-09
   37.86000     -2.5813625E-09
   37.92000     -2.4112123E-09
   37.98000     -2.1622177E-09
   38.04000     -1.8395194E-09
   38.10000     -1.4541625E-09
   38.16000     -1.0215290E-09
   38.22000     -5.5772365E-10
   38.28000     -7.5358837E-11
   38.34000      4.1939463E-10
   38.40000      9.2714331E-10
   38.46000      1.4528635E-09
   38.52000      2.0019015E-09
   38.58000      2.5762341E-09
   38.64000      3.1726242E-09
   38.70000      3.7833261E-09
   38.76000      4.3987516E-09
   38.82000      5.0106528E-09
   38.88000      5.6142992E-09
   38.94000      6.2088028E-09
   39.00000      6.7957600E-09
   39.06000      7.3771753E-09
   39.12000      7.9537790E-09
   39.18000      8.5243856E-09
   39.24000      9.0862065E-09
   39.30000      9.6355013E-09
   39.36000      1.0168004E-08
   39.42000      1.0678984E-08
   39.48000      1.1163292E-08
   39.54000      1.1615839E-08
   39.60000      1.2032568E-08
   39.66000      1.2411355E-08
   39.72000      1.2752074E-08
   39.78000      1.3055399E-08
   39.84000      1.3320747E-08
   39.90000      1.3544555E-08
   39.96000      1.3720133E-08
   40.02000      1.3839540E-08
   40.08000      1.3896694E-08
   40.14000      1.3890068E-08
   40.20000      1.3823443E-08
   40.26000      1.3704280E-08
   40.32000      1.3540689E-08
   40.38000      1.3338763E-08
   40.44000      1.3101711E-08
   40.50000      1.2830974E-08
   40.56000      1.2528226E-08
   40.62000      1.2196700E-08
   40.68000      1.1840859E-08
   40.74000      1.1464802E-08
   40.80000      1.1070653E-08
   40.86000      1.0658268E-08
   40.92000      1.0226557E-08
   40.98000      9.7755901E-09
   41.04000      9.3080175E-09
   41.10000      8.8288710E-09
   41.16000      8.3439025E-09
   41.22000      7.8576603E-09
   41.28000      7.3725923E-09
   41.34000      6.8896617E-09
   41.40000      6.4098238E-09
   41.46000      5.9351017E-09
   41.52000      5.4683187E-09
   41.58000      5.0115938E-09
   41.64000      4.5646633E-09
   41.70000      4.1242729E-09
   41.76000      3.6851615E-09
   41.82000      3.2420329E-09
   41.88000      2.7911806E-09
   41.94000      2.3306475E-09
   42.00000      1.8587764E-09
   42.06000      1.3721450E-09
   42.12000      8.6437901E-10
   42.18000      3.2692055E-10
   42.24000     -2.4827154E-10
   42.30000     -8.6522378E-10
   42.36000     -1.5212825E-09
   42.42000     -2.2065774E-09
   42.48000     -2.9059630E-09
   42.54000     -3.6027523E-09
   42.60000     -4.2828714E-09
   42.66000     -4.9379714E-09
   42.72000     -5.5664926E-09
   42.78000     -6.1724270E-09
   42.84000     -6.7623587E-09
   42.90000     -7.3419093E-09
   42.96000     -7.9129077E-09
   43.02000     -8.4722798E-09
   43.08000     -9.0129717E-09
   43.14000     -9.5264507E-09
   43.20000     -1.0005768E-08
   43.26000     -1.0448069E-08
   43.32000     -1.0855778E-08
   43.38000     -1.1236162E-08
   43.44000     -1.1599512E-08
   43.50000     -1.1956382E-08
   43.56000     -1.2314464E-08
   43.62000     -1.2675787E-08
   43.68000     -1.3035062E-08
   43.74000     -1.3379973E-08
   43.80000     -1.3693838E-08
   43.86000     -1.3960169E-08
   43.92000     -1.4167710E-08
   43.98000     -1.4313946E-08
   44.04000     -1.4405493E-08
   44.10000     -1.4455078E-08
   44.16000     -1.4476452E-08
   44.22000     -1.4479615E-08
   44.28000     -1.4468511E-08
   44.34000     -1.4441977E-08
   44.40000     -1.4396996E-08
   44.46000     -1.4332265E-08
   44.52000     -1.4250235E-08
   44.58000     -1.4156979E-08
   44.64000     -1.4060562E-08
   44.70000     -1.3969160E-08
   44.76000     -1.3889810E-08
   44.82000     -1.3827779E-08
   44.88000     -1.3785885E-08
   44.94000     -1.3763382E-08
   45.00000     -1.3754718E-08
   45.06000     -1.3749298E-08
   45.12000     -1.3733147E-08
   45.18000     -1.3692469E-08
   45.24000     -1.3617766E-08
   45.30000     -1.3506622E-08
   45.36000     -1.3363759E-08
   45.42000     -1.3198398E-08
   45.48000     -1.3020343E-08
   45.54000     -1.2836715E-08
   45.60000     -1.2650618E-08
   45.66000     -1.2461780E-08
   45.72000     -1.2268153E-08
   45.78000     -1.2067334E-08
   45.84000     -1.1857243E-08
   45.90000     -1.1636248E-08
   45.96000     -1.1403207E-08
   46.02000     -1.1157632E-08
   46.08000     -1.0899605E-08
   46.14000     -1.0629092E-08
   46.20000     -1.0344728E-08
   46.26000     -1.0042943E-08
   46.32000     -9.7185255E-09
   46.38000     -9.3670733E-09
   46.44000     -8.9885361E-09
   46.50000     -8.5899794E-09
   46.56000     -8.1856868E-09
   46.62000     -7.7940125E-09
   46.68000     -7.4321367E-09
   46.74000     -7.1111601E-09
   46.80000     -6.8337744E-09
   46.86000     -6.5953158E-09
   46.92000     -6.3871433E-09
   46.98000     -6.2002448E-09
   47.04000     -6.0273169E-09
   47.10000     -5.8629022E-09
   47.16000     -5.7025731E-09
   47.22000     -5.5425500E-09
   47.28000     -5.3804365E-09
   47.34000     -5.2164957E-09
   47.40000     -5.0541229E-09
   47.46000     -4.8985105E-09
   47.52000     -4.7537512E-09
   47.58000     -4.6199102E-09
   47.64000     -4.4919952E-09
   47.70000     -4.3618642E-09
   47.76000     -4.2224864E-09
   47.82000     -4.0725436E-09
   47.88000     -3.9190375E-09
   47.94000     -3.7764898E-09
   48.00000     -3.6630050E-09
   48.06000     -3.5948933E-09
   48.12000     -3.5821024E-09
   48.18000     -3.6261329E-09
   48.24000     -3.7209000E-09
   48.30000     -3.8557917E-09
   48.36000     -4.0194985E-09
   48.42000     -4.2031929E-09
   48.48000     -4.4021511E-09
   48.54000     -4.6155972E-09
   48.60000     -4.8451541E-09
   48.66000     -5.0926405E-09
   48.72000     -5.3580860E-09
   48.78000     -5.6387126E-09
   48.84000     -5.9293055E-09
   48.90000     -6.2238925E-09
   48.96000     -6.5181349E-09
   49.02000     -6.8114310E-09
   49.08000     -7.1076922E-09
   49.14000     -7.4141311E-09
   49.20000     -7.7381435E-09
   49.26000     -8.0831999E-09
   49.32000     -8.4452481E-09
   49.38000     -8.8111678E-09
   49.44000     -9.1601802E-09
   49.50000     -9.4680157E-09
   49.56000     -9.7125197E-09
   49.62000     -9.8787112E-09
   49.68000     -9.9614956E-09
   49.74000     -9.9651913E-09
   49.80000     -9.9003845E-09
   49.86000     -9.7796997E-09
   49.92000     -9.6143156E-09
   49.98000     -9.4124619E-09
   50.04000     -9.1799617E-09
   50.10000     -8.9218339E-09
   50.16000     -8.6436627E-09
   50.22000     -8.3518250E-09
   50.28000     -8.0525764E-09
   50.34000     -7.7507085E-09
   50.40000     -7.4487061E-09
   50.46000     -7.1468431E-09
   50.52000     -6.8440262E-09
   50.58000     -6.5387127E-09
   50.64000     -6.2293215E-09
   50.70000     -5.9140142E-09
   50.76000     -5.5902767E-09
   50.82000     -5.2548965E-09
   50.88000     -4.9046638E-09
   50.94000     -4.5375677E-09
   51.00000     -4.1538240E-09
   51.06000     -3.7560328E-09
   51.12000     -3.3481995E-09
   51.18000     -2.9339864E-09
   51.24000     -2.5150855E-09
   51.30000     -2.0906308E-09
   51.36000     -1.6581563E-09
   51.42000     -1.2158580E-09
   51.48000     -7.6523232E-10
   51.54000     -3.1288633E-10
   51.60000      1.2943333E-10
   51.66000      5.4681548E-10
   51.72000      9.2455071E-10
   51.78000      1.2517000E-09
   51.84000      1.5236528E-09
   51.90000      1.7429637E-09
   51.96000      1.9184889E-09
   52.02000      2.0634117E-09
   52.08000      2.1928850E-09
   52.14000      2.3217794E-09
   52.20000      2.4627091E-09
   52.26000      2.6244402E-09
   52.32000      2.8110121E-09
   52.38000      3.0221701E-09
   52.44000      3.2555847E-09
   52.50000      3.5106840E-09
   52.56000      3.7929677E-09
   52.62000      4.1170640E-09
   52.68000      4.5070609E-09
   52.74000      4.9938520E-09
   52.80000      5.6107616E-09
   52.86000      6.3897008E-09
   52.92000      7.3598319E-09
   52.98000      8.5493905E-09
   53.04000      9.9896278E-09
   53.10000      1.1718837E-08
   53.16000      1.3784643E-08
   53.22000      1.6243847E-08
   53.28000      1.9160421E-08
   53.34000      2.2602785E-08
   53.40000      2.6641359E-08
   53.46000      3.1346737E-08
   53.52000      3.6788496E-08
   53.58000      4.3034849E-08
   53.64000      5.0153670E-08
   53.70000      5.8215488E-08
   53.76000      6.7298103E-08
   53.82000      7.7491471E-08
   53.88000      8.8900599E-08
   53.94000      1.0164493E-07
   54.00000      1.1585411E-07
   54.06000      1.3166182E-07
   54.12000      1.4920056E-07
   54.18000      1.6859913E-07
   54.24000      1.8998310E-07
   54.30000      2.1347648E-07
   54.36000      2.3920214E-07
   54.42000      2.6727969E-07
   54.48000      2.9782072E-07
   54.54000      3.3092317E-07
   54.60000      3.6666603E-07
   54.66000      4.0510477E-07
   54.72000      4.4626745E-07
   54.78000      4.9014972E-07
   54.84000      5.3670863E-07
   54.90000      5.8585613E-07
   54.96000      6.3745216E-07
   55.02000      6.9129976E-07
   55.08000      7.4714006E-07
   55.14000      8.0464793E-07
   55.20000      8.6342607E-07
   55.26000      9.2299871E-07
   55.32000      9.8280486E-07
   55.38000      1.0421932E-06
   55.44000      1.1004171E-06
   55.50000      1.1566336E-06
   55.56000      1.2098998E-06