 -0.750000000       0.00000000    
 -0.689999998       0.00000000    
 -0.629999995       0.00000000    
 -0.569999993       0.00000000    
 -0.509999990       0.00000000    
 -0.449999988       1.73700445E-19
 -0.389999986       1.36916631E-18
 -0.330000013       5.44208577E-18
 -0.270000011       1.40249697E-17
 -0.209999993       2.43818748E-17
 -0.150000006       2.29995849E-17
  -9.00000036E-02  -1.87656196E-17
  -2.99999993E-02  -1.39135392E-16
   2.99999993E-02  -3.62115929E-16
   9.00000036E-02  -6.53209839E-16
  0.150000006      -8.67758308E-16
  0.209999993      -7.27677323E-16
  0.270000011       1.20135278E-16
  0.330000013       1.92129858E-15
  0.389999986       4.52557549E-15
  0.449999988       7.11534442E-15
  0.509999990       8.16815894E-15
  0.569999993       5.86477354E-15
  0.629999995      -1.02264966E-15
  0.689999998      -1.20478934E-14
  0.750000000      -2.44010727E-14
  0.810000002      -3.32439493E-14
  0.870000005      -3.33276429E-14
  0.930000007      -2.14377991E-14
  0.990000010       1.47362515E-15
   1.04999995       2.97828406E-14
   1.11000001       5.49939089E-14
   1.16999996       6.92637205E-14
   1.23000002       6.88669635E-14
   1.28999996       5.55028537E-14
   1.35000002       3.43800746E-14
   1.40999997       1.00387287E-14
   1.47000003      -1.72710492E-14
   1.52999997      -5.14930641E-14
   1.59000003      -9.56641789E-14
   1.64999998      -1.43982821E-13
   1.71000004      -1.76377359E-13
   1.76999998      -1.61495275E-13
   1.83000004      -7.07861233E-14
   1.88999999       9.99323101E-14
   1.95000005       3.11431572E-13
   2.00999999       4.77245251E-13
   2.06999993       4.84046830E-13
   2.13000011       2.35425855E-13
   2.19000006      -2.93909401E-13
   2.25000000      -1.01525429E-12
   2.30999994      -1.71647939E-12
   2.36999989      -2.09862770E-12
   2.43000007      -1.85484657E-12
   2.49000001      -7.71578493E-13
   2.54999995       1.17764685E-12
   2.60999990       3.77451499E-12
   2.67000008       6.55261479E-12
   2.73000002       8.85200420E-12
   2.78999996       9.92195128E-12
   2.84999990       9.05439959E-12
   2.91000009       5.72874734E-12
   2.97000003      -2.49977366E-13
   3.02999997      -8.63509351E-12
   3.08999991      -1.86581670E-11
   3.15000010      -2.89977591E-11
   3.21000004      -3.78103243E-11
   3.26999998      -4.28394195E-11
   3.32999992      -4.16245684E-11
   3.39000010      -3.18354544E-11
   3.45000005      -1.17517844E-11
   3.50999999       1.91160681E-11
   3.56999993       5.93203334E-11
   3.63000011       1.04803367E-10
   3.69000006       1.48435764E-10
   3.75000000       1.79956799E-10
   3.80999994       1.86458862E-10
   3.86999989       1.53445257E-10
   3.93000007       6.63478716E-11
   3.99000001      -8.77301495E-11
   4.05000019      -3.18334192E-10
   4.11000013      -6.30295427E-10
   4.17000008      -1.02284303E-09
   4.23000002      -1.48923829E-09
   4.28999996      -2.01689976E-09
   4.34999990      -2.58797028E-09
   4.40999985      -3.18029647E-09
   4.46999979      -3.76881992E-09
   4.53000021      -4.32736602E-09
   4.59000015      -4.83075313E-09
   4.65000010      -5.25706501E-09
   4.71000004      -5.58983837E-09
   4.76999998      -5.81989434E-09
   4.82999992      -5.94654948E-09
   4.88999987      -5.97799632E-09
   4.94999981      -5.93073235E-09
   5.01000023      -5.82798654E-09
   5.07000017      -5.69721204E-09
   5.13000011      -5.56685942E-09
   5.19000006      -5.46279955E-09
   5.25000000      -5.40492362E-09
   5.30999994      -5.40451062E-09
   5.36999989      -5.46287371E-09
   5.42999983      -5.57158719E-09
   5.48999977      -5.71423264E-09
   5.55000019      -5.86928861E-09
   5.61000013      -6.01352834E-09
   5.67000008      -6.12524431E-09
   5.73000002      -6.18676044E-09
   5.78999996      -6.18596241E-09
   5.84999990      -6.11687101E-09
   5.90999985      -5.97950711E-09
   5.96999979      -5.77934856E-09
   6.03000021      -5.52660184E-09
   6.09000015      -5.23537036E-09
   6.15000010      -4.92264141E-09
   6.21000004      -4.60698857E-09
   6.26999998      -4.30694413E-09
   6.32999992      -4.03915523E-09
   6.38999987      -3.81656884E-09
   6.44999981      -3.64696184E-09
   6.51000023      -3.53207819E-09
   6.57000017      -3.46748807E-09
   6.63000011      -3.44315509E-09
   6.69000006      -3.44460194E-09
   6.75000000      -3.45456752E-09
   6.80999994      -3.45509021E-09
   6.86999989      -3.42994300E-09
   6.92999983      -3.36723960E-09
   6.98999977      -3.26184146E-09
   7.05000019      -3.11701198E-09
   7.11000013      -2.94472069E-09
   7.17000008      -2.76421086E-09
   7.23000002      -2.59885669E-09
   7.28999996      -2.47185228E-09
   7.34999990      -2.40167619E-09
   7.40999985      -2.39841080E-09
   7.46999979      -2.46178788E-09
   7.53000021      -2.58138066E-09
   7.59000015      -2.73880585E-09
   7.65000010      -2.91134516E-09
   7.71000004      -3.07612980E-09
   7.76999998      -3.21401239E-09
   7.82999992      -3.31240990E-09
   7.88999987      -3.36667449E-09
   7.94999981      -3.37987527E-09
   8.01000023      -3.36118799E-09
   8.06999969      -3.32335581E-09
   8.13000011      -3.27985372E-09
   8.18999958      -3.24241434E-09
   8.25000000      -3.21941585E-09
   8.31000042      -3.21535865E-09
   8.36999989      -3.23131499E-09
   8.43000031      -3.26595240E-09
   8.48999977      -3.31660410E-09
   8.55000019      -3.37994166E-09
   8.60999966      -3.45203222E-09
   8.67000008      -3.52787843E-09
   8.72999954      -3.60080588E-09
   8.78999996      -3.66216968E-09
   8.85000038      -3.70177844E-09
   8.90999985      -3.70916564E-09
   8.97000027      -3.67548902E-09
   9.02999973      -3.59552543E-09
   9.09000015      -3.46908924E-09
   9.14999962      -3.30130945E-09
   9.21000004      -3.10152615E-09
   9.27000046      -2.88105628E-09
   9.32999992      -2.65047317E-09
   9.39000034      -2.41725751E-09
   9.44999981      -2.18455343E-09
   9.51000023      -1.95136995E-09
   9.56999969      -1.71404113E-09
   9.63000011      -1.46830903E-09
   9.68999958      -1.21120769E-09
   9.75000000      -9.42070866E-10
   9.81000042      -6.62395250E-10
   9.86999989      -3.74786563E-10
   9.93000031      -8.15895684E-11
   9.98999977       2.16104870E-10
   10.0500002       5.18598275E-10
   10.1099997       8.26816837E-10
   10.1700001       1.14101573E-09
   10.2299995       1.45957790E-09
   10.2900000       1.77847725E-09
   10.3500004       2.09165663E-09
   10.4099998       2.39214737E-09
   10.4700003       2.67343414E-09
   10.5299997       2.93049562E-09
   10.5900002       3.16015036E-09
   10.6499996       3.36066885E-09
   10.7100000       3.53091645E-09
   10.7700005       3.66941255E-09
   10.8299999       3.77360498E-09
   10.8900003       3.83948917E-09
   10.9499998       3.86155330E-09
   11.0100002       3.83302456E-09
   11.0699997       3.74646536E-09
   11.1300001       3.59479713E-09
   11.1899996       3.37276429E-09
   11.2500000       3.07859516E-09
   11.3100004       2.71539746E-09
   11.3699999       2.29172814E-09
   11.4300003       1.82096949E-09
   11.4899998       1.31953026E-09
   11.5500002       8.04325329E-10
   11.6099997       2.90236390E-10
   11.6700001      -2.11782300E-10
   11.7299995      -6.95571045E-10
   11.7900000      -1.15959020E-09
   11.8500004      -1.60596558E-09
   11.9099998      -2.03912665E-09
   11.9700003      -2.46438847E-09
   12.0299997      -2.88676394E-09
   12.0900002      -3.31023053E-09
   12.1499996      -3.73758935E-09
   12.2100000      -4.17092316E-09
   12.2700005      -4.61242289E-09
   12.3299999      -5.06519271E-09
   12.3900003      -5.53356339E-09
   12.4499998      -6.02266947E-09
   12.5100002      -6.53735555E-09
   12.5699997      -7.08083014E-09
   12.6300001      -7.65356756E-09
   12.6899996      -8.25279667E-09
   12.7500000      -8.87261198E-09
   12.8100004      -9.50448609E-09
   12.8699999      -1.01380202E-08
   12.9300003      -1.07619300E-08
   12.9899998      -1.13654730E-08
   13.0500002      -1.19403962E-08
   13.1099997      -1.24830812E-08
   13.1700001      -1.29960691E-08
   13.2299995      -1.34879432E-08
   13.2900000      -1.39710199E-08
   13.3500004      -1.44571910E-08
   13.4099998      -1.49532831E-08
   13.4700003      -1.54578181E-08
   13.5299997      -1.59606284E-08
   13.5900002      -1.64457035E-08
   13.6499996      -1.68961751E-08
   13.7100000      -1.72995378E-08
   13.7700005      -1.76511605E-08
   13.8299999      -1.79550437E-08
   13.8900003      -1.82220141E-08
   13.9499998      -1.84665083E-08
   14.0100002      -1.87034086E-08
   14.0699997      -1.89459399E-08
   14.1300001      -1.92048439E-08
   14.1899996      -1.94884446E-08
   14.2500000      -1.98028172E-08
   14.3100004      -2.01515657E-08
   14.3699999      -2.05350297E-08
   14.4300003      -2.09492814E-08
   14.4899998      -2.13855227E-08
   14.5500002      -2.18305320E-08
   14.6099997      -2.22685284E-08
   14.6700001      -2.26844001E-08
   14.7299995      -2.30675727E-08
   14.7900000      -2.34153656E-08
   14.8500004      -2.37345255E-08
   14.9099998      -2.40400997E-08
   14.9700003      -2.43516869E-08
   15.0299997      -2.46882106E-08
   15.0900002      -2.50630308E-08
   15.1499996      -2.54811621E-08
   15.2100000      -2.59394746E-08
   15.2700005      -2.64295430E-08
   15.3299999      -2.69416311E-08
   15.3900003      -2.74680865E-08
   15.4499998      -2.80048553E-08
   15.5100002      -2.85509500E-08
   15.5699997      -2.91065430E-08
   15.6300001      -2.96708773E-08
   15.6899996      -3.02408907E-08
   15.7500000      -3.08108774E-08
   15.8100004      -3.13729878E-08
   15.8699999      -3.19181481E-08
   15.9300003      -3.24371747E-08
   15.9899998      -3.29219034E-08
   16.0499992      -3.33663266E-08
   16.1100006      -3.37673249E-08
   16.1700001      -3.41247066E-08
   16.2299995      -3.44401059E-08
   16.2900009      -3.47150468E-08
   16.3500004      -3.49488367E-08
   16.4099998      -3.51373899E-08
   16.4699993      -3.52736897E-08
   16.5300007      -3.53499559E-08
   16.5900002      -3.53604932E-08
   16.6499996      -3.53038274E-08
   16.7099991      -3.51829108E-08
   16.7700005      -3.50031186E-08
   16.8299999      -3.47688420E-08
   16.8899994      -3.44802942E-08
   16.9500008      -3.41321567E-08
   17.0100002      -3.37148549E-08
   17.0699997      -3.32182388E-08
   17.1299992      -3.26361906E-08
   17.1900005      -3.19703233E-08
   17.2500000      -3.12311599E-08
   17.3099995      -3.04361301E-08
   17.3700008      -2.96049816E-08
   17.4300003      -2.87542719E-08
   17.4899998      -2.78930710E-08
   17.5499992      -2.70216738E-08
   17.6100006      -2.61338933E-08
   17.6700001      -2.52221088E-08
   17.7299995      -2.42829188E-08
   17.7900009      -2.33209523E-08
   17.8500004      -2.23490364E-08
   17.9099998      -2.13844888E-08
   17.9699993      -2.04431032E-08
   18.0300007      -1.95333847E-08
   18.0900002      -1.86535587E-08
   18.1499996      -1.77925816E-08
   18.2099991      -1.69346510E-08
   18.2700005      -1.60652327E-08
   18.3299999      -1.51761377E-08
   18.3899994      -1.42678713E-08
   18.4500008      -1.33487497E-08
   18.5100002      -1.24316104E-08
   18.5699997      -1.15296661E-08
   18.6299992      -1.06529301E-08
   18.6900005      -9.80613279E-09
   18.7500000      -8.98830077E-09
   18.8099995      -8.19375678E-09
   18.8700008      -7.41410533E-09
   18.9300003      -6.64075461E-09
   18.9899998      -5.86749538E-09
   19.0499992      -5.09252551E-09
   19.1100006      -4.31929381E-09
   19.1700001      -3.55574614E-09
   19.2299995      -2.81200285E-09
   19.2900009      -2.09710027E-09
   19.3500004      -1.41580703E-09
   19.4099998      -7.66564590E-10
   19.4699993      -1.41200288E-10
   19.5300007       4.73536987E-10
   19.5900002       1.09314013E-09
   19.6499996       1.73203263E-09
   19.7099991       2.40062370E-09
   19.7700005       3.10336268E-09
   19.8299999       3.83812226E-09
   19.8899994       4.59692506E-09
   19.9500008       5.36772138E-09
   20.0100002       6.13670803E-09
   20.0699997       6.89054236E-09
   20.1299992       7.61791341E-09
   20.1900005       8.31023073E-09
   20.2500000       8.96157548E-09
   20.3099995       9.56839585E-09
   20.3700008       1.01294120E-08
   20.4300003       1.06459419E-08
   20.4899998       1.11224479E-08
   20.5499992       1.15668186E-08
   20.6100006       1.19899486E-08
   20.6700001       1.24044908E-08
   20.7299995       1.28230706E-08
   20.7900009       1.32564804E-08
   20.8500004       1.37122944E-08
   20.9099998       1.41940966E-08
   20.9699993       1.47013157E-08
   21.0300007       1.52295900E-08
   21.0900002       1.57717537E-08
   21.1499996       1.63195129E-08
   21.2099991       1.68656484E-08
   21.2700005       1.74061938E-08
   21.3299999       1.79415540E-08
   21.3899994       1.84758253E-08
   21.4500008       1.90141929E-08
   21.5100002       1.95594581E-08
   21.5699997       2.01094927E-08
   21.6299992       2.06572643E-08
   21.6900005       2.11939248E-08
   21.7500000       2.17137259E-08
   21.8099995       2.22182397E-08
   21.8700008       2.27173391E-08
   21.9300003       2.32257857E-08
   21.9899998       2.37564421E-08
   22.0499992       2.43130298E-08
   22.1100006       2.48857752E-08
   22.1700001       2.54522075E-08
   22.2299995       2.59830699E-08
   22.2900009       2.64510991E-08
   22.3500004       2.68392810E-08
   22.4099998       2.71455214E-08
   22.4699993       2.73823098E-08
   22.5300007       2.75718488E-08
   22.5900002       2.77386132E-08
   22.6499996       2.79018835E-08
   22.7099991       2.80704118E-08
   22.7700005       2.82404731E-08
   22.8299999       2.83974941E-08
   22.8899994       2.85205122E-08
   22.9500008       2.85880457E-08
   23.0100002       2.85836830E-08
   23.0699997       2.84998372E-08
   23.1299992       2.83387003E-08
   23.1900005       2.81103478E-08
   23.2500000       2.78288947E-08
   23.3099995       2.75081806E-08
   23.3700008       2.71584071E-08
   23.4300003       2.67846616E-08
   23.4899998       2.63873314E-08
   23.5499992       2.59638107E-08
   23.6100006       2.55105803E-08
   23.6700001       2.50248942E-08
   23.7299995       2.45056526E-08
   23.7900009       2.39533318E-08
   23.8500004       2.33690365E-08
   23.9099998       2.27530190E-08
   23.9699993       2.21030323E-08
   24.0300007       2.14133049E-08
   24.0900002       2.06748041E-08
   24.1499996       1.98771737E-08
   24.2099991       1.90119458E-08
   24.2700005       1.80758715E-08
   24.3299999       1.70727894E-08
   24.3899994       1.60128621E-08
   24.4500008       1.49090766E-08
   24.5100002       1.37721772E-08
   24.5699997       1.26060211E-08
   24.6299992       1.14052110E-08
   24.6900005       1.01558744E-08
   24.7500000       8.83911611E-09
   24.8099995       7.43570538E-09
   24.8700008       5.93037131E-09
   24.9300003       4.31461622E-09
   24.9899998       2.58778310E-09
   25.0499992       7.56713470E-10
   25.1100006      -1.16554155E-09
   25.1700001      -3.16167004E-09
   25.2299995      -5.21257348E-09
   25.2900009      -7.30011607E-09
   25.3500004      -9.40958245E-09
   25.4099998      -1.15310499E-08
   25.4699993      -1.36590863E-08
   25.5300007      -1.57907998E-08
   25.5900002      -1.79229946E-08
   25.6499996      -2.00496437E-08
   25.7099991      -2.21606697E-08
   25.7700005      -2.42423912E-08
   25.8299999      -2.62792383E-08
   25.8899994      -2.82558918E-08
   25.9500008      -3.01591285E-08
   26.0100002      -3.19790239E-08
   26.0699997      -3.37095898E-08
   26.1299992      -3.53488971E-08
   26.1900005      -3.68986406E-08
   26.2500000      -3.83628134E-08
   26.3099995      -3.97454230E-08
   26.3700008      -4.10477305E-08
   26.4300003      -4.22660307E-08
   26.4899998      -4.33911289E-08
   26.5499992      -4.44101538E-08
   26.6100006      -4.53101414E-08
   26.6700001      -4.60818761E-08
   26.7299995      -4.67221284E-08
   26.7900009      -4.72331507E-08
   26.8500004      -4.76197286E-08
   26.9099998      -4.78853046E-08
   26.9699993      -4.80292961E-08
   27.0300007      -4.80469780E-08
   27.0900002      -4.79318913E-08
   27.1499996      -4.76794533E-08
   27.2099991      -4.72898414E-08
   27.2700005      -4.67687933E-08
   27.3299999      -4.61261855E-08
   27.3899994      -4.53734437E-08
   27.4500008      -4.45212613E-08
   27.5100002      -4.35786447E-08
   27.5699997      -4.25533315E-08
   27.6299992      -4.14528181E-08
   27.6900005      -4.02849274E-08
   27.7500000      -3.90573334E-08
   27.8099995      -3.77761573E-08
   27.8700008      -3.64442378E-08
   27.9300003      -3.50598413E-08
   27.9899998      -3.36161925E-08
   28.0499992      -3.21018696E-08
   28.1100006      -3.05021075E-08
   28.1700001      -2.88009172E-08
   28.2299995      -2.69841323E-08
   28.2900009      -2.50431107E-08
   28.3500004      -2.29782930E-08
   28.4099998      -2.08013997E-08
   28.4699993      -1.85350597E-08
   28.5300007      -1.62094977E-08
   28.5900002      -1.38571066E-08
   28.6499996      -1.15068071E-08
   28.7099991      -9.18021037E-09
   28.7700005      -6.89074930E-09
   28.8299999      -4.64544891E-09
   28.8899994      -2.44774756E-09
   28.9500008      -2.99505698E-10
   29.0100002       1.79883042E-09
   29.0699997       3.84955667E-09
   29.1299992       5.85908788E-09
   29.1900005       7.83783083E-09
   29.2500000       9.79787362E-09
   29.3099995       1.17490506E-08
   29.3700008       1.36948088E-08
   29.4300003       1.56292312E-08
   29.4899998       1.75358839E-08
   29.5499992       1.93882581E-08
   29.6100006       2.11512479E-08
   29.6700001       2.27833681E-08
   29.7299995       2.42398901E-08
   29.7900009       2.54772665E-08
   29.8500004       2.64586806E-08
   29.9099998       2.71596416E-08
   29.9699993       2.75718879E-08
   30.0300007       2.77039689E-08
   30.0900002       2.75779612E-08
   30.1499996       2.72233045E-08
   30.2099991       2.66697988E-08
   30.2700005       2.59419650E-08
   30.3299999       2.50560923E-08
   30.3899994       2.40199594E-08
   30.4500008       2.28342643E-08
   30.5100002       2.14945235E-08
   30.5699997       1.99926582E-08
   30.6299992       1.83181061E-08
   30.6900005       1.64588041E-08
   30.7500000       1.44023309E-08
   30.8099995       1.21374155E-08
   30.8700008       9.65583169E-09
   30.9300003       6.95472346E-09
   30.9899998       4.03940348E-09
   31.0499992       9.26406230E-10
   31.1100006      -2.35394504E-09
   31.1700001      -5.75666403E-09
   31.2299995      -9.22409882E-09
   31.2900009      -1.26911761E-08
   31.3500004      -1.60929439E-08
   31.4099998      -1.93723082E-08
   31.4699993      -2.24855441E-08
   31.5300007      -2.54040451E-08
   31.5900002      -2.81124066E-08
   31.6499996      -3.06044257E-08
   31.7099991      -3.28792282E-08
   31.7700005      -3.49390170E-08
   31.8299999      -3.67886592E-08
   31.8899994      -3.84358998E-08
   31.9500008      -3.98907467E-08
   32.0099983      -4.11631547E-08
   32.0699997      -4.22593196E-08
   32.1300011      -4.31779981E-08
   32.1899986      -4.39084040E-08
   32.2500000      -4.44305712E-08
   32.3100014      -4.47181243E-08
   32.3699989      -4.47423574E-08
   32.4300003      -4.44764332E-08
   32.4900017      -4.38987371E-08
   32.5499992      -4.29949800E-08
   32.6100006      -4.17591757E-08
   32.6699982      -4.01937719E-08
   32.7299995      -3.83091461E-08
   32.7900009      -3.61225148E-08
   32.8499985      -3.36563275E-08
   32.9099998      -3.09363237E-08
   32.9700012      -2.79894472E-08
   33.0299988      -2.48419170E-08
   33.0900002      -2.15177298E-08
   33.1500015      -1.80376887E-08
   33.2099991      -1.44190206E-08
   33.2700005      -1.06756017E-08
   33.3300018      -6.81875756E-09
   33.3899994      -2.85857804E-09
   33.4500008       1.19435684E-09
   33.5099983       5.32698152E-09
   33.5699997       9.52161194E-09
   33.6300011       1.37538230E-08
   33.6899986       1.79905832E-08
   33.7500000       2.21890879E-08
   33.8100014       2.62969113E-08
   33.8699989       3.02540890E-08
   33.9300003       3.39974129E-08
   33.9900017       3.74665134E-08
   34.0499992       4.06104839E-08
   34.1100006       4.33932605E-08
   34.1699982       4.57960745E-08
   34.2299995       4.78160800E-08
   34.2900009       4.94615477E-08
   34.3499985       5.07453350E-08
   34.4099998       5.16789171E-08
   34.4700012       5.22689803E-08
   34.5299988       5.25175281E-08
   34.5900002       5.24248094E-08
   34.6500015       5.19933607E-08
   34.7099991       5.12310478E-08
   34.7700005       5.01516944E-08
   34.8300018       4.87731917E-08
   34.8899994       4.71142023E-08
   34.9500008       4.51911681E-08
   35.0099983       4.30171241E-08
   35.0699997       4.06026572E-08
   35.1300011       3.79583582E-08
   35.1899986       3.50974005E-08
   35.2500000       3.20369935E-08
   35.3100014       2.87981443E-08
   35.3699989       2.54040504E-08
   35.4300003       2.18779252E-08
   35.4900017       1.82410975E-08
   35.5499992       1.45118388E-08
   35.6100006       1.07051292E-08
   35.6699982       6.83330503E-09
   35.7299995       2.90766633E-09
   35.7900009      -1.05900144E-09
   35.8499985      -5.04937026E-09
   35.9099998      -9.03889497E-09
   35.9700012      -1.29947892E-08
   36.0299988      -1.68776246E-08
   36.0900002      -2.06455937E-08
   36.1500015      -2.42601832E-08
   36.2099991      -2.76911756E-08
   36.2700005      -3.09190327E-08
   36.3300018      -3.39338158E-08
   36.3899994      -3.67314605E-08
   36.4500008      -3.93092563E-08
   36.5099983      -4.16626200E-08
   36.5699997      -4.37843326E-08
   36.6300011      -4.56661411E-08
   36.6899986      -4.73016257E-08
   36.7500000      -4.86890244E-08
   36.8100014      -4.98330941E-08
   36.8699989      -5.07456122E-08
   36.9300003      -5.14445269E-08
   36.9900017      -5.19518260E-08
   37.0499992      -5.22902468E-08
   37.1100006      -5.24794110E-08
   37.1699982      -5.25324495E-08
   37.2299995      -5.24544177E-08
   37.2900009      -5.22434824E-08
   37.3499985      -5.18946806E-08
   37.4099998      -5.14047649E-08
   37.4700012      -5.07759239E-08
   37.5299988      -5.00166060E-08
   37.5900002      -4.91391781E-08
   37.6500015      -4.81556590E-08
   37.7099991      -4.70737760E-08
   37.7700005      -4.58951313E-08
   37.8300018      -4.46161970E-08
   37.8899994      -4.32313882E-08
   37.9500008      -4.17369073E-08
   38.0099983      -4.01341005E-08
   38.0699997      -3.84317076E-08
   38.1300011      -3.66466786E-08
   38.1899986      -3.48033460E-08
   38.2500000      -3.29306395E-08
   38.3100014      -3.10575352E-08
   38.3699989      -2.92076354E-08
   38.4300003      -2.73949645E-08
   38.4900017      -2.56230503E-08
   38.5499992      -2.38882443E-08
   38.6100006      -2.21861196E-08
   38.6699982      -2.05179145E-08
   38.7299995      -1.88935818E-08
   38.7900009      -1.73296382E-08
   38.8499985      -1.58427405E-08
   38.9099998      -1.44423744E-08
   38.9700012      -1.31264528E-08
   39.0299988      -1.18821024E-08
   39.0900002      -1.06910738E-08
   39.1500015      -9.53705115E-09
   39.2099991      -8.41161807E-09
   39.2700005      -7.31691197E-09
   39.3300018      -6.26494634E-09
   39.3899994      -5.27487387E-09
   39.4500008      -4.36950831E-09
   39.5099983      -3.57167940E-09
   39.5699997      -2.90038127E-09
   39.6300011      -2.36691533E-09
   39.6899986      -1.97207672E-09
   39.7500000      -1.70598513E-09
   39.8100014      -1.55158686E-09
   39.8699989      -1.49117774E-09
   39.9300003      -1.51347679E-09
   39.9900017      -1.61809044E-09
   40.0499992      -1.81528581E-09
   40.1100006      -2.12128981E-09
   40.1699982      -2.55151167E-09
   40.2299995      -3.11482951E-09
   40.2900009      -3.81107901E-09
   40.3499985      -4.63192062E-09
   40.4099998      -5.56366819E-09
   40.4700012      -6.59029453E-09
   40.5299988      -7.69563702E-09
   40.5900002      -8.86488394E-09
   40.6500015      -1.00858193E-08
   40.7099991      -1.13499015E-08
   40.7700005      -1.26525146E-08
   40.8300018      -1.39916194E-08
   40.8899994      -1.53647726E-08
   40.9500008      -1.67656786E-08
   41.0099983      -1.81820958E-08
   41.0699997      -1.95963761E-08
   41.1300011      -2.09885478E-08
   41.1899986      -2.23402736E-08
   41.2500000      -2.36377105E-08
   41.3100014      -2.48720209E-08
   41.3699989      -2.60378989E-08
   41.4300003      -2.71315184E-08
   41.4900017      -2.81492518E-08
   41.5499992      -2.90875004E-08
   41.6100006      -2.99427683E-08
   41.6699982      -3.07109929E-08
   41.7299995      -3.13858877E-08
   41.7900009      -3.19572457E-08
   41.8499985      -3.24109060E-08
   41.9099998      -3.27312364E-08
   41.9700012      -3.29055787E-08
   42.0299988      -3.29286500E-08
   42.0900002      -3.28046106E-08
   42.1500015      -3.25455325E-08
   42.2099991      -3.21668736E-08
   42.2700005      -3.16818713E-08
   42.3300018      -3.10970805E-08
   42.3899994      -3.04104368E-08
   42.4500008      -2.96120017E-08
   42.5099983      -2.86867010E-08
   42.5699997      -2.76181247E-08
   42.6300011      -2.63926729E-08
   42.6899986      -2.50033558E-08
   42.7500000      -2.34524400E-08
   42.8100014      -2.17518910E-08
   42.8699989      -1.99209857E-08
   42.9300003      -1.79813942E-08
   42.9900017      -1.59513398E-08
   43.0499992      -1.38411638E-08
   43.1100006      -1.16522907E-08
   43.1699982      -9.38013400E-09
   43.2299995      -7.01977276E-09
   43.2900009      -4.57204852E-09
   43.3499985      -2.04770378E-09
   43.4099998       5.31821032E-10
   43.4700012       3.13701465E-09
   43.5299988       5.73537173E-09
   43.5900002       8.29747648E-09
   43.6500015       1.08025500E-08
   43.7099991       1.32420057E-08
   43.7700005       1.56197935E-08
   43.8300018       1.79489117E-08
   43.8899994       2.02446504E-08
   43.9500008       2.25165593E-08
   44.0099983       2.47621408E-08
   44.0699997       2.69650826E-08
   44.1300011       2.90991373E-08
   44.1899986       3.11364161E-08
   44.2500000       3.30567502E-08
   44.3100014       3.48543594E-08
   44.3699989       3.65392943E-08
   44.4300003       3.81334608E-08
   44.4900017       3.96631350E-08
   44.5499992       4.11508445E-08
   44.6100006       4.26091056E-08
   44.6699982       4.40372787E-08
   44.7299995       4.54219951E-08
   44.7900009       4.67407730E-08
   44.8499985       4.79683209E-08
   44.9099998       4.90843632E-08
   44.9700012       5.00811232E-08
   45.0299988       5.09678486E-08
   45.0900002       5.17701437E-08
   45.1500015       5.25233830E-08
   45.2099991       5.32618643E-08
   45.2700005       5.40076819E-08
   45.3300018       5.47635999E-08
   45.3899994       5.55129809E-08
   45.4500008       5.62267708E-08
   45.5099983       5.68747005E-08
   45.5699997       5.74363632E-08
   45.6300011       5.79080606E-08
   45.6899986       5.83032715E-08
   45.7500000       5.86469362E-08
   45.8100014       5.89657247E-08
   45.8699989       5.92774434E-08
   45.9300003       5.95830301E-08
   45.9900017       5.98638579E-08
   46.0499992       6.00858598E-08
   46.1100006       6.02098993E-08
   46.1699982       6.02055721E-08
   46.2299995       6.00637549E-08
   46.2900009       5.98029359E-08
   46.3499985       5.94661032E-08
   46.4099998       5.91082099E-08
   46.4700012       5.87782800E-08
   46.5299988       5.85023407E-08
   46.5900002       5.82732369E-08
   46.6500015       5.80509329E-08
   46.7099991       5.77729438E-08
   46.7700005       5.73713521E-08
   46.8300018       5.67911194E-08
   46.8899994       5.60046409E-08
   46.9500008       5.50189760E-08
   47.0099983       5.38741460E-08
   47.0699997       5.26328563E-08
   47.1300011       5.13639193E-08
   47.1899986       5.01234929E-08
   47.2500000       4.89393663E-08
   47.3100014       4.78034714E-08
   47.3699989       4.66757442E-08
   47.4300003       4.54986697E-08
   47.4900017       4.42177637E-08
   47.5499992       4.28005329E-08
   47.6100006       4.12466967E-08
   47.6699982       3.95858351E-08
   47.7299995       3.78637282E-08
   47.7900009       3.61231436E-08
   47.8499985       3.43867903E-08
   47.9099998       3.26490763E-08
   47.9700012       3.08794270E-08
   48.0299988       2.90356272E-08
   48.0900002       2.70820646E-08
   48.1500015       2.50064609E-08
   48.2099991       2.28294059E-08
   48.2700005       2.06034620E-08
   48.3300018       1.84017726E-08
   48.3899994       1.62993210E-08
   48.4500008       1.43523833E-08
   48.5099983       1.25826265E-08
   48.5699997       1.09713074E-08
   48.6300011       9.46605816E-09
   48.6899986       7.99865152E-09
   48.7500000       6.50825704E-09
   48.8100014       4.96257524E-09
   48.8699989       3.36978223E-09
   48.9300003       1.77739490E-09
   48.9900017       2.58672195E-10
   49.0499992      -1.10864395E-09
   49.1100006      -2.26413421E-09
   49.1699982      -3.18016480E-09
   49.2299995      -3.86658128E-09
   49.2900009      -4.36386172E-09
   49.3499985      -4.72757167E-09
   49.4099998      -5.00949371E-09
   49.4700012      -5.24160493E-09
   49.5299988      -5.42805134E-09
   49.5900002      -5.54765700E-09
   49.6500015      -5.56603075E-09
   49.7099991      -5.45301670E-09
   49.7700005      -5.19917487E-09
   49.8300018      -4.82504081E-09
   49.8899994      -4.37925030E-09
   49.9500008      -3.92557586E-09
   50.0099983      -3.52304275E-09
   50.0699997      -3.20604787E-09
   50.1300011      -2.97165181E-09
   50.1899986      -2.77879075E-09
   50.2500000      -2.55999133E-09
   50.3100014      -2.24179897E-09
   50.3699989      -1.76717263E-09
   50.4300003      -1.11255904E-09
   50.4900017      -2.94332253E-10
   50.5499992       6.37045028E-10
   50.6100006       1.61274138E-09