 -0.750000000       0.00000000    
 -0.689999998       0.00000000    
 -0.629999995       0.00000000    
 -0.569999993       0.00000000    
 -0.509999990       0.00000000    
 -0.449999988       3.24075483E-19
 -0.389999986       2.45198109E-18
 -0.330000013       9.16107243E-18
 -0.270000011       2.14082896E-17
 -0.209999993       3.10039006E-17
 -0.150000006       1.39789570E-17
  -9.00000036E-02  -6.44980914E-17
  -2.99999993E-02  -2.24981903E-16
   2.99999993E-02  -4.34772589E-16
   9.00000036E-02  -5.82226096E-16
  0.150000006      -4.99123111E-16
  0.209999993      -4.37490830E-17
  0.270000011       7.89997190E-16
  0.330000013       1.81222763E-15
  0.389999986       2.69113231E-15
  0.449999988       3.11430552E-15
  0.509999990       2.95230899E-15
  0.569999993       2.27607070E-15
  0.629999995       1.15498734E-15
  0.689999998      -6.57987370E-16
  0.750000000      -3.87552005E-15
  0.810000002      -9.36566871E-15
  0.870000005      -1.73130773E-14
  0.930000007      -2.61734959E-14
  0.990000010      -3.20798618E-14
   1.04999995      -2.93860395E-14
   1.11000001      -1.26301743E-14
   1.16999996       2.05203523E-14
   1.23000002       6.64838058E-14
   1.28999996       1.14574298E-13
   1.35000002       1.48481393E-13
   1.40999997       1.50530738E-13
   1.47000003       1.07636285E-13
   1.52999997       1.69504896E-14
   1.59000003      -1.10925321E-13
   1.64999998      -2.52539851E-13
   1.71000004      -3.75972094E-13
   1.76999998      -4.47578958E-13
   1.83000004      -4.39027748E-13
   1.88999999      -3.32926964E-13
   1.95000005      -1.26553756E-13
   2.00999999       1.65712591E-13
   2.06999993       5.10533347E-13
   2.13000011       8.54821043E-13
   2.19000006       1.12826859E-12
   2.25000000       1.25220006E-12
   2.30999994       1.15610570E-12
   2.36999989       7.99215024E-13
   2.43000007       1.90003029E-13
   2.49000001      -6.05337612E-13
   2.54999995      -1.47142303E-12
   2.60999990      -2.26776757E-12
   2.67000008      -2.85882125E-12
   2.73000002      -3.13655005E-12
   2.78999996      -3.02618412E-12
   2.84999990      -2.47661245E-12
   2.91000009      -1.44869641E-12
   2.97000003       8.02223549E-14
   3.02999997       2.08416162E-12
   3.08999991       4.43425028E-12
   3.15000010       6.84691800E-12
   3.21000004       8.86889520E-12
   3.26999998       9.92656391E-12
   3.32999992       9.44432900E-12
   3.39000010       7.00720775E-12
   3.45000005       2.52019564E-12
   3.50999999      -3.68785341E-12
   3.56999993      -1.08524882E-11
   3.63000011      -1.78614450E-11
   3.69000006      -2.34189647E-11
   3.75000000      -2.62442186E-11
   3.80999994      -2.52591593E-11
   3.86999989      -1.97339211E-11
   3.93000007      -9.37762975E-12
   3.99000001       5.62114981E-12
   4.05000019       2.45937697E-11
   4.11000013       4.64249680E-11
   4.17000008       6.96250488E-11
   4.23000002       9.24526081E-11
   4.28999996       1.13095887E-10
   4.34999990       1.29903657E-10
   4.40999985       1.41633191E-10
   4.46999979       1.47663298E-10
   4.53000021       1.48118920E-10
   4.59000015       1.43872469E-10
   4.65000010       1.36423081E-10
   4.71000004       1.27688055E-10
   4.76999998       1.19758967E-10
   4.82999992       1.14666263E-10
   4.88999987       1.14170826E-10
   4.94999981       1.19576626E-10
   5.01000023       1.31552977E-10
   5.07000017       1.49974907E-10
   5.13000011       1.73821346E-10
   5.19000006       2.01188941E-10
   5.25000000       2.29465072E-10
   5.30999994       2.55653998E-10
   5.36999989       2.76790063E-10
   5.42999983       2.90333119E-10
   5.48999977       2.94449853E-10
   5.55000019       2.88139068E-10
   5.61000013       2.71230344E-10
   5.67000008       2.44332499E-10
   5.73000002       2.08804182E-10
   5.78999996       1.66762826E-10
   5.84999990       1.21073804E-10
   5.90999985       7.52162915E-11
   5.96999979       3.29362405E-11
   6.03000021      -2.32375512E-12
   6.09000015      -2.81177130E-11
   6.15000010      -4.36212802E-11
   6.21000004      -4.99715755E-11
   6.26999998      -5.01634186E-11
   6.32999992      -4.84733920E-11
   6.38999987      -4.95361009E-11
   6.44999981      -5.73151665E-11
   6.51000023      -7.42462897E-11
   6.57000017      -1.00766423E-10
   6.63000011      -1.35304379E-10
   6.69000006      -1.74655568E-10
   6.75000000      -2.14564713E-10
   6.80999994      -2.50334559E-10
   6.86999989      -2.77363937E-10
   6.92999983      -2.91629804E-10
   6.98999977      -2.90189289E-10
   7.05000019      -2.71741490E-10
   7.11000013      -2.37170839E-10
   7.17000008      -1.89869093E-10
   7.23000002      -1.35606748E-10
   7.28999996      -8.18375021E-11
   7.34999990      -3.65394798E-11
   7.40999985      -6.89966010E-12
   7.46999979       1.78352580E-12
   7.53000021      -1.32737319E-11
   7.59000015      -5.21988043E-11
   7.65000010      -1.12611691E-10
   7.71000004      -1.89831276E-10
   7.76999998      -2.77057932E-10
   7.82999992      -3.65681652E-10
   7.88999987      -4.45982584E-10
   7.94999981      -5.08371401E-10
   8.01000023      -5.44989498E-10
   8.06999969      -5.51158785E-10
   8.13000011      -5.26080679E-10
   8.18999958      -4.72451078E-10
   8.25000000      -3.95185995E-10
   8.31000042      -2.99934966E-10
   8.36999989      -1.92189764E-10
   8.43000031      -7.74381184E-11
   8.48999977       3.78529812E-11
   8.55000019       1.45233145E-10
   8.60999966       2.34193193E-10
   8.67000008       2.93522817E-10
   8.72999954       3.13800597E-10
   8.78999996       2.90002716E-10
   8.85000038       2.23023253E-10
   8.90999985       1.19359869E-10
   8.97000027      -1.09107020E-11
   9.02999973      -1.56943139E-10
   9.09000015      -3.09507364E-10
   9.14999962      -4.62078209E-10
   9.21000004      -6.10517636E-10
   9.27000046      -7.51941120E-10
   9.32999992      -8.83632389E-10
   9.39000034      -1.00261832E-09
   9.44999981      -1.10595588E-09
   9.51000023      -1.19130306E-09
   9.56999969      -1.25722555E-09
   9.63000011      -1.30296618E-09
   9.68999958      -1.32783240E-09
   9.75000000      -1.33065192E-09
   9.81000042      -1.30971245E-09
   9.86999989      -1.26329303E-09
   9.93000031      -1.19053722E-09
   9.98999977      -1.09223275E-09
   10.0500002      -9.71150382E-10
   10.1099997      -8.31849201E-10
   10.1700001      -6.80102474E-10
   10.2299995      -5.22189791E-10
   10.2900000      -3.64237029E-10
   10.3500004      -2.11670390E-10
   10.4099998      -6.87985224E-11
   10.4700003       6.14300347E-11
   10.5299997       1.77405424E-10
   10.5900002       2.78539275E-10
   10.6499996       3.64787867E-10
   10.7100000       4.36327752E-10
   10.7700005       4.93714236E-10
   10.8299999       5.38622036E-10
   10.8900003       5.74865711E-10
   10.9499998       6.09060136E-10
   11.0100002       6.50251519E-10
   11.0699997       7.08229975E-10
   11.1300001       7.90870258E-10
   11.1899996       9.01417607E-10
   11.2500000       1.03681819E-09
   11.3100004       1.18786225E-09
   11.3699999       1.34120692E-09
   11.4300003       1.48260260E-09
   11.4899998       1.60021185E-09
   11.5500002       1.68692937E-09
   11.6099997       1.74105241E-09
   11.6700001       1.76527126E-09
   11.7299995       1.76450998E-09
   11.7900000       1.74347248E-09
   11.8500004       1.70479142E-09
   11.9099998       1.64843905E-09
   11.9700003       1.57262181E-09
   12.0299997       1.47581836E-09
   12.0900002       1.35911393E-09
   12.1499996       1.22773458E-09
   12.2100000       1.09086951E-09
   12.2700005       9.59526014E-10
   12.3299999       8.43056569E-10
   12.3900003       7.45726092E-10
   12.4499998       6.64838240E-10
   12.5100002       5.91336369E-10
   12.5699997       5.12682008E-10
   12.6300001       4.16740614E-10
   12.6899996       2.94949259E-10
   12.7500000       1.43478215E-10
   12.8100004      -3.77881199E-11
   12.8699999      -2.47459719E-10
   12.9300003      -4.84481066E-10
   12.9899998      -7.48397844E-10
   13.0500002      -1.03790199E-09
   13.1099997      -1.34863942E-09
   13.1700001      -1.67180392E-09
   13.2299995      -1.99467265E-09
   13.2900000      -2.30317898E-09
   13.3500004      -2.58546629E-09
   13.4099998      -2.83476909E-09
   13.4700003      -3.05024250E-09
   13.5299997      -3.23533933E-09
   13.5900002      -3.39448913E-09
   13.6499996      -3.52959217E-09
   13.7100000      -3.63785446E-09
   13.7700005      -3.71182973E-09
   13.8299999      -3.74155151E-09
   13.8900003      -3.71779763E-09
   13.9499998      -3.63517194E-09
   14.0100002      -3.49389206E-09
   14.0699997      -3.29977556E-09
   14.1300001      -3.06263592E-09
   14.1899996      -2.79385248E-09
   14.2500000      -2.50404519E-09
   14.3100004      -2.20158958E-09
   14.3699999      -1.89225369E-09
   14.4300003      -1.57975844E-09
   14.4899998      -1.26676158E-09
   14.5500002      -9.55759138E-10
   14.6099997      -6.49601206E-10
   14.6700001      -3.51615292E-10
   14.7299995      -6.54912166E-11
   14.7900000       2.04938275E-10
   14.8500004       4.56024274E-10
   14.9099998       6.84835355E-10
   14.9700003       8.89920415E-10
   15.0299997       1.07209464E-09
   15.0900002       1.23482080E-09
   15.1499996       1.38374978E-09
   15.2100000       1.52527402E-09
   15.2700005       1.66442204E-09
   15.3299999       1.80282334E-09
   15.3900003       1.93755256E-09
   15.4499998       2.06135065E-09
   15.5100002       2.16418949E-09
   15.5699997       2.23565277E-09
   15.6300001       2.26739982E-09
   15.6899996       2.25507457E-09
   15.7500000       2.19930207E-09
   15.8100004       2.10567341E-09
   15.8699999       1.98380556E-09
   15.9300003       1.84566207E-09
   15.9899998       1.70348480E-09
   16.0499992       1.56786206E-09
   16.1100006       1.44654666E-09
   16.1700001       1.34445677E-09
   16.2299995       1.26479838E-09
   16.2900009       1.21063914E-09
   16.3500004       1.18590326E-09
   16.4099998       1.19494226E-09
   16.4699993       1.24056521E-09
   16.5300007       1.32134703E-09
   16.5900002       1.42960654E-09
   16.6499996       1.55131852E-09
   16.7099991       1.66837311E-09
   16.7700005       1.76250203E-09
   16.8299999       1.81940663E-09
   16.8899994       1.83157112E-09
   16.9500008       1.79887816E-09
   17.0100002       1.72708559E-09
   17.0699997       1.62498515E-09
   17.1299992       1.50135460E-09
   17.1900005       1.36265255E-09
   17.2500000       1.21200039E-09
   17.3099995       1.04959141E-09
   17.3700008       8.74297135E-10
   17.4300003       6.85921098E-10
   17.4899998       4.87273499E-10
   17.5499992       2.85135915E-10
   17.6100006       8.94586002E-11
   17.6700001      -8.91813220E-11
   17.7299995      -2.42967674E-10
   17.7900009      -3.69612591E-10
   17.8500004      -4.73160733E-10
   17.9099998      -5.62370983E-10
   17.9699993      -6.47414400E-10
   18.0300007      -7.36473937E-10
   18.0900002      -8.33792202E-10
   18.1499996      -9.39806344E-10
   18.2099991      -1.05278286E-09
   18.2700005      -1.17058363E-09
   18.3299999      -1.29132649E-09
   18.3899994      -1.41261913E-09
   18.4500008      -1.53012081E-09
   18.5100002      -1.63670444E-09
   18.5699997      -1.72314851E-09
   18.6299992      -1.78034898E-09
   18.6900005      -1.80213078E-09
   18.7500000      -1.78741999E-09
   18.8099995      -1.74091963E-09
   18.8700008      -1.67218450E-09
   18.9300003      -1.59360736E-09
   18.9899998      -1.51798929E-09
   19.0499992      -1.45617884E-09
   19.1100006      -1.41502410E-09
   19.1700001      -1.39585987E-09
   19.2299995      -1.39392520E-09
   19.2900009      -1.39917300E-09
   19.3500004      -1.39865131E-09
   19.4099998      -1.37999379E-09
   19.4699993      -1.33492506E-09
   19.5300007      -1.26149347E-09
   19.5900002      -1.16421006E-09
   19.6499996      -1.05218911E-09
   19.7099991      -9.36243083E-10
   19.7700005      -8.26184399E-10
   19.8299999      -7.29224625E-10
   19.8899994      -6.49604315E-10
   19.9500008      -5.88960436E-10
   20.0100002      -5.46776069E-10
   20.0699997      -5.20569421E-10
   20.1299992      -5.05934850E-10
   20.1900005      -4.96791996E-10
   20.2500000      -4.86078844E-10
   20.3099995      -4.66788275E-10
   20.3700008      -4.32990227E-10
   20.4300003      -3.80495191E-10
   20.4899998      -3.07061376E-10
   20.5499992      -2.12315290E-10
   20.6100006      -9.76340189E-11
   20.6700001       3.38974022E-11
   20.7299995       1.77551696E-10
   20.7900009       3.27248062E-10
   20.8500004       4.76183315E-10
   20.9099998       6.17741802E-10
   20.9699993       7.46476880E-10
   21.0300007       8.58935423E-10
   21.0900002       9.54153534E-10
   21.1499996       1.03370468E-09
   21.2099991       1.10119724E-09
   21.2700005       1.16118026E-09
   21.3299999       1.21760468E-09
   21.3899994       1.27229627E-09
   21.4500008       1.32412170E-09
   21.5100002       1.36943712E-09
   21.5699997       1.40389300E-09
   21.6299992       1.42493461E-09
   21.6900005       1.43381151E-09
   21.7500000       1.43597090E-09
   21.8099995       1.43943102E-09
   21.8700008       1.45174717E-09
   21.9300003       1.47691426E-09
   21.9899998       1.51357282E-09
   22.0499992       1.55519875E-09
   22.1100006       1.59198721E-09
   22.1700001       1.61346547E-09
   22.2299995       1.61080027E-09
   22.2900009       1.57821256E-09
   22.3500004       1.51348400E-09
   22.4099998       1.41784695E-09
   22.4699993       1.29551492E-09
   22.5300007       1.15290977E-09
   22.5900002       9.97578464E-10
   22.6499996       8.36934022E-10
   22.7099991       6.77152667E-10
   22.7700005       5.22568100E-10
   22.8299999       3.75632581E-10
   22.8899994       2.37167619E-10
   22.9500008       1.06510183E-10
   23.0100002      -1.85715679E-11
   23.0699997      -1.41865686E-10
   23.1299992      -2.68051803E-10
   23.1900005      -4.01141564E-10
   23.2500000      -5.42497713E-10
   23.3099995      -6.89517221E-10
   23.3700008      -8.35997382E-10
   23.4300003      -9.74339276E-10
   23.4899998      -1.09855469E-09
   23.5499992      -1.20637100E-09
   23.6100006      -1.29914224E-09
   23.6700001      -1.37961131E-09
   23.7299995      -1.44899659E-09
   23.7900009      -1.50537649E-09
   23.8500004      -1.54451885E-09
   23.9099998      -1.56263857E-09
   23.9699993      -1.55920110E-09
   24.0300007      -1.53779500E-09
   24.0900002      -1.50437185E-09
   24.1499996      -1.46395140E-09
   24.2099991      -1.41795964E-09
   24.2700005      -1.36395317E-09
   24.3299999      -1.29785416E-09
   24.3899994      -1.21713462E-09
   24.4500008      -1.12279708E-09
   24.5100002      -1.01892528E-09
   24.5699997      -9.10327369E-10
   24.6299992      -8.00129629E-10
   24.6900005      -6.89144353E-10
   24.7500000      -5.77483561E-10
   24.8099995      -4.67190120E-10
   24.8700008      -3.63823749E-10
   24.9300003      -2.75567041E-10
   24.9899998      -2.10058734E-10
   25.0499992      -1.70702563E-10
   25.1100006      -1.54608548E-10
   25.1700001      -1.53368845E-10
   25.2299995      -1.56221383E-10
   25.2900009      -1.53892968E-10
   25.3500004      -1.41255299E-10
   25.4099998      -1.17841140E-10
   25.4699993      -8.65423427E-11
   25.5300007      -5.16305748E-11
   25.5900002      -1.72371839E-11
   25.6499996       1.31997746E-11
   25.7099991       3.67230274E-11
   25.7700005       5.04274504E-11
   25.8299999       5.12755706E-11
   25.8899994       3.63247800E-11
   25.9500008       3.29974589E-12
   26.0100002      -4.86457090E-11
   26.0699997      -1.18175386E-10
   26.1299992      -2.01306791E-10
   26.1900005      -2.91585533E-10
   26.2500000      -3.81127102E-10
   26.3099995      -4.62377997E-10
   26.3700008      -5.29969513E-10
   26.4300003      -5.81812931E-10
   26.4899998      -6.18881335E-10
   26.5499992      -6.43846088E-10
   26.6100006      -6.59438004E-10
   26.6700001      -6.67573608E-10
   26.7299995      -6.69725275E-10
   26.7900009      -6.68085698E-10
   26.8500004      -6.66420807E-10
   26.9099998      -6.69658828E-10
   26.9699993      -6.82154055E-10
   27.0300007      -7.05586201E-10
   27.0900002      -7.37858719E-10
   27.1499996      -7.73801634E-10
   27.2099991      -8.07329037E-10
   27.2700005      -8.33763836E-10
   27.3299999      -8.50993442E-10
   27.3899994      -8.59001037E-10
   27.4500008      -8.58481786E-10
   27.5100002      -8.49847803E-10
   27.5699997      -8.33491387E-10
   27.6299992      -8.11054224E-10
   27.6900005      -7.86466836E-10
   27.7500000      -7.65456254E-10
   27.8099995      -7.53174578E-10
   27.8700008      -7.50947471E-10
   27.9300003      -7.53941409E-10
   27.9899998      -7.51237295E-10
   28.0499992      -7.28552940E-10
   28.1100006      -6.72458145E-10
   28.1700001      -5.74239656E-10
   28.2299995      -4.31919167E-10
   28.2900009      -2.49974347E-10
   28.3500004      -3.73481593E-11
   28.4099998       1.95216426E-10
   28.4699993       4.37666542E-10
   28.5300007       6.82562951E-10
   28.5900002       9.26332622E-10
   28.6499996       1.16972021E-09
   28.7099991       1.41718526E-09
   28.7700005       1.67510938E-09
   28.8299999       1.94914307E-09
   28.8899994       2.24158536E-09
   28.9500008       2.54989785E-09
   29.0100002       2.86707413E-09
   29.0699997       3.18371773E-09
   29.1299992       3.49085294E-09
   29.1900005       3.78217013E-09
   29.2500000       4.05479827E-09
   29.3099995       4.30850067E-09
   29.3700008       4.54394922E-09
   29.4300003       4.76103512E-09
   29.4899998       4.95795849E-09
   29.5499992       5.13135001E-09
   29.6100006       5.27720756E-09
   29.6700001       5.39219780E-09
   29.7299995       5.47481660E-09
   29.7900009       5.52599122E-09
   29.8500004       5.54886581E-09
   29.9099998       5.54776713E-09
   29.9699993       5.52671908E-09
   30.0300007       5.48816814E-09
   30.0900002       5.43261081E-09
   30.1499996       5.35939559E-09
   30.2099991       5.26827693E-09
   30.2700005       5.16073495E-09
   30.3299999       5.04007502E-09
   30.3899994       4.91002083E-09
   30.4500008       4.77250151E-09
   30.5100002       4.62602445E-09
   30.5699997       4.46580595E-09
   30.6299992       4.28583924E-09
   30.6900005       4.08186063E-09
   30.7500000       3.85355214E-09
   30.8099995       3.60476871E-09
   30.8700008       3.34179018E-09
   30.9300003       3.07078141E-09
   30.9899998       2.79602363E-09
   31.0499992       2.51978860E-09
   31.1100006       2.24351027E-09
   31.1700001       1.96902095E-09
   31.2299995       1.69870673E-09
   31.2900009       1.43437573E-09
   31.3500004       1.17572463E-09
   31.4099998       9.19692600E-10
   31.4699993       6.61402710E-10
   31.5300007       3.96236655E-10
   31.5900002       1.21729529E-10
   31.6499996      -1.61941877E-10
   31.7099991      -4.53118737E-10
   31.7700005      -7.50519313E-10
   31.8299999      -1.05432663E-09
   31.8899994      -1.36556566E-09
   31.9500008      -1.68404690E-09
   32.0099983      -2.00621431E-09
   32.0699997      -2.32439312E-09
   32.1300011      -2.62808086E-09
   32.1899986      -2.90668400E-09
   32.2500000      -3.15228066E-09
   32.3100014      -3.36110983E-09
   32.3699989      -3.53338603E-09
   32.4300003      -3.67201536E-09
   32.4900017      -3.78120690E-09
   32.5499992      -3.86562782E-09
   32.6100006      -3.93001987E-09
   32.6699982      -3.97874045E-09
   32.7299995      -4.01483025E-09
   32.7900009      -4.03886036E-09
   32.8499985      -4.04832301E-09
   32.9099998      -4.03828704E-09
   32.9700012      -4.00333011E-09
   33.0299988      -3.93989197E-09
   33.0900002      -3.84778254E-09
   33.1500015      -3.73000919E-09
   33.2099991      -3.59109564E-09
   33.2700005      -3.43499074E-09
   33.3300018      -3.26388738E-09
   33.3899994      -3.07861270E-09
   33.4500008      -2.88015900E-09
   33.5099983      -2.67115818E-09
   33.5699997      -2.45616993E-09
   33.6300011      -2.24050445E-09
   33.6899986      -2.02834793E-09
   33.7500000      -1.82146220E-09
   33.8100014      -1.61934910E-09
   33.8699989      -1.42075918E-09
   33.9300003      -1.22550503E-09
   33.9900017      -1.03531295E-09
   34.0499992      -8.53113247E-10
   34.1100006      -6.81234680E-10
   34.1699982      -5.19736920E-10
   34.2299995      -3.66050218E-10
   34.2900009      -2.16235252E-10
   34.3499985      -6.71258882E-11
   34.4099998       8.19391222E-11
   34.4700012       2.28791694E-10
   34.5299988       3.69586528E-10
   34.5900002       5.00585018E-10
   34.6500015       6.19428453E-10
   34.7099991       7.25230431E-10
   34.7700005       8.17694246E-10
   34.8300018       8.96098473E-10
   34.8899994       9.58984447E-10
   34.9500008       1.00476449E-09
   35.0099983       1.03274012E-09
   35.0699997       1.04370146E-09
   35.1300011       1.03960374E-09
   35.1899986       1.02248532E-09
   35.2500000       9.93335969E-10
   35.3100014       9.51624446E-10
   35.3699989       8.95717334E-10
   35.4300003       8.23844548E-10
   35.4900017       7.35013383E-10
   35.5499992       6.29493568E-10
   35.6100006       5.08919795E-10
   35.6699982       3.76290721E-10
   35.7299995       2.35980346E-10
   35.7900009       9.35075628E-11
   35.8499985      -4.53512852E-11
   35.9099998      -1.76181944E-10
   35.9700012      -2.97685654E-10
   36.0299988      -4.12479634E-10
   36.0900002      -5.26089061E-10
   36.1500015      -6.44248044E-10
   36.2099991      -7.69785291E-10
   36.2700005      -9.00872654E-10
   36.3300018      -1.03178499E-09
   36.3899994      -1.15583165E-09
   36.4500008      -1.26872857E-09
   36.5099983      -1.37034684E-09
   36.5699997      -1.46380486E-09
   36.6300011      -1.55260771E-09
   36.6899986      -1.63780645E-09
   36.7500000      -1.71706338E-09
   36.8100014      -1.78612103E-09
   36.8699989      -1.84147697E-09
   36.9300003      -1.88226501E-09
   36.9900017      -1.91004101E-09
   37.0499992      -1.92679894E-09
   37.1100006      -1.93291205E-09
   37.1699982      -1.92674987E-09
   37.2299995      -1.90640437E-09
   37.2900009      -1.87226723E-09
   37.3499985      -1.82840920E-09
   37.4099998      -1.78149029E-09
   37.4700012      -1.73771575E-09
   37.5299988      -1.69985304E-09
   37.5900002      -1.66638559E-09
   37.6500015      -1.63339209E-09
   37.7099991      -1.59779789E-09
   37.7700005      -1.55963809E-09
   37.8300018      -1.52169721E-09
   37.8899994      -1.48680868E-09
   37.9500008      -1.45482337E-09
   38.0099983      -1.42150269E-09
   38.0699997      -1.38019440E-09
   38.1300011      -1.32511158E-09
   38.1899986      -1.25388899E-09
   38.2500000      -1.16765786E-09
   38.3100014      -1.06873477E-09
   38.3699989      -9.57781410E-10
   38.4300003      -8.32653169E-10
   38.4900017      -6.89865276E-10
   38.5499992      -5.27628552E-10
   38.6100006      -3.48219259E-10
   38.6699982      -1.57891783E-10
   38.7299995       3.57094423E-11
   38.7900009       2.26952970E-10
   38.8499985       4.14262069E-10
   38.9099998       5.99667316E-10
   38.9700012       7.86486265E-10
   39.0299988       9.76895231E-10
   39.0900002       1.17093713E-09
   39.1500015       1.36722267E-09
   39.2099991       1.56429592E-09
   39.2700005       1.76132409E-09
   39.3300018       1.95758987E-09
   39.3899994       2.15143814E-09
   39.4500008       2.33985986E-09
   39.5099983       2.51934651E-09
   39.5699997       2.68748757E-09
   39.6300011       2.84402168E-09
   39.6899986       2.99033576E-09
   39.7500000       3.12758930E-09
   39.8100014       3.25476135E-09
   39.8699989       3.36809802E-09
   39.9300003       3.46246698E-09
   39.9900017       3.53374419E-09
   40.0499992       3.58062491E-09
   40.1100006       3.60471253E-09
   40.1699982       3.60905039E-09
   40.2299995       3.59637298E-09
   40.2900009       3.56840579E-09
   40.3499985       3.52652929E-09
   40.4099998       3.47288354E-09
   40.4700012       3.41054807E-09
   40.5299988       3.34222294E-09
   40.5900002       3.26819904E-09
   40.6500015       3.18529669E-09
   40.7099991       3.08802561E-09
   40.7700005       2.97170799E-09
   40.8300018       2.83578849E-09
   40.8899994       2.68518230E-09
   40.9500008       2.52861598E-09
   41.0099983       2.37480990E-09
   41.0699997       2.22869412E-09
   41.1300011       2.08976680E-09
   41.1899986       1.95328442E-09
   41.2500000       1.81324278E-09
   41.3100014       1.66525371E-09
   41.3699989       1.50787294E-09
   41.4300003       1.34221578E-09
   41.4900017       1.17076815E-09
   41.5499992       9.96456362E-10
   41.6100006       8.22351687E-10
   41.6699982       6.51573628E-10
   41.7299995       4.86780782E-10
   41.7900009       3.29192756E-10
   41.8499985       1.77831236E-10
   41.9099998       2.98635526E-11
   41.9700012      -1.17703028E-10
   42.0299988      -2.65746980E-10
   42.0900002      -4.11536583E-10
   42.1500015      -5.49013446E-10
   42.2099991      -6.70764277E-10
   42.2700005      -7.70545572E-10
   42.3300018      -8.44995129E-10
   42.3899994      -8.93866037E-10
   42.4500008      -9.19164467E-10
   42.5099983      -9.24150922E-10
   42.5699997      -9.12872111E-10
   42.6300011      -8.90083618E-10
   42.6899986      -8.60858551E-10
   42.7500000      -8.29407931E-10
   42.8100014      -7.97491184E-10
   42.8699989      -7.63522190E-10
   42.9300003      -7.23357263E-10
   42.9900017      -6.72725264E-10
   43.0499992      -6.10038242E-10
   43.1100006      -5.37860645E-10
   43.1699982      -4.62063804E-10
   43.2299995      -3.89186516E-10
   43.2900009      -3.23692656E-10
   43.3499985      -2.66807298E-10
   43.4099998      -2.17418028E-10
   43.4700012      -1.74048470E-10
   43.5299988      -1.36253925E-10
   43.5900002      -1.04430860E-10
   43.6500015      -7.84415727E-11
   43.7099991      -5.65036629E-11
   43.7700005      -3.56316053E-11
   43.8300018      -1.36426330E-11
   43.8899994       8.65720690E-12
   43.9500008       2.68841824E-11
   44.0099983       3.48778367E-11
   44.0699997       2.79910539E-11
   44.1300011       5.81994695E-12
   44.1899986      -2.74143139E-11
   44.2500000      -6.50977466E-11
   44.3100014      -1.01631099E-10
   44.3699989      -1.34885492E-10
   44.4300003      -1.66343161E-10
   44.4900017      -1.99166961E-10
   44.5499992      -2.35718833E-10
   44.6100006      -2.76143358E-10
   44.6699982      -3.18622267E-10
   44.7299995      -3.60662250E-10
   44.7900009      -4.00242367E-10
   44.8499985      -4.36123831E-10
   44.9099998      -4.67554828E-10
   44.9700012      -4.94154273E-10
   45.0299988      -5.16430065E-10
   45.0900002      -5.36522105E-10
   45.1500015      -5.58190660E-10
   45.2099991      -5.85392401E-10
   45.2700005      -6.19883755E-10
   45.3300018      -6.59302390E-10
   45.3899994      -6.97242375E-10
   45.4500008      -7.25741856E-10
   45.5099983      -7.39029282E-10
   45.5699997      -7.36441075E-10
   45.6300011      -7.22815863E-10
   45.6899986      -7.06174730E-10
   45.7500000      -6.94081237E-10
   45.8100014      -6.90712487E-10
   45.8699989      -6.95993596E-10
   45.9300003      -7.06761594E-10
   45.9900017      -7.18817006E-10
   46.0499992      -7.28595850E-10
   46.1100006      -7.33914984E-10
   46.1699982      -7.34099226E-10
   46.2299995      -7.30047689E-10
   46.2900009      -7.24366955E-10
   46.3499985      -7.21103566E-10
   46.4099998      -7.24541149E-10
   46.4700012      -7.37188310E-10
   46.5299988      -7.57973462E-10
   46.5900002      -7.81971599E-10
   46.6500015      -8.02279632E-10
   46.7099991      -8.13290491E-10
   46.7700005      -8.13547174E-10
   46.8300018      -8.06427924E-10
   46.8899994      -7.98188071E-10
   46.9500008      -7.94540433E-10
   47.0099983      -7.97860500E-10
   47.0699997      -8.06632872E-10
   47.1300011      -8.17246215E-10
   47.1899986      -8.26760715E-10
   47.2500000      -8.34813607E-10
   47.3100014      -8.43628556E-10
   47.3699989      -8.56463789E-10
   47.4300003      -8.75780282E-10
   47.4900017      -9.02303454E-10
   47.5499992      -9.35232225E-10
   47.6100006      -9.72941838E-10
   47.6699982      -1.01335129E-09
   47.7299995      -1.05373266E-09
   47.7900009      -1.09052489E-09
   47.8499985      -1.11990817E-09
   47.9099998      -1.13927723E-09
   47.9700012      -1.14880261E-09
   48.0299988      -1.15184617E-09
   48.0900002      -1.15354848E-09
   48.1500015      -1.15814480E-09
   48.2099991      -1.16658772E-09
   48.2700005      -1.17602805E-09
   48.3300018      -1.18157395E-09
   48.3899994      -1.17925691E-09
   48.4500008      -1.16834897E-09
   48.5099983      -1.15165755E-09
   48.5699997      -1.13382626E-09
   48.6300011      -1.11896337E-09
   48.6899986      -1.10919562E-09
   48.7500000      -1.10486742E-09
   48.8100014      -1.10578380E-09
   48.8699989      -1.11217724E-09
   48.9300003      -1.12447285E-09
   48.9900017      -1.14208698E-09
   49.0499992      -1.16246723E-09
   49.1100006      -1.18153964E-09
   49.1699982      -1.19567878E-09
   49.2299995      -1.20402910E-09
   49.2900009      -1.20950738E-09
   49.3499985      -1.21755395E-09
   49.4099998      -1.23318566E-09
   49.4700012      -1.25810684E-09
   49.5299988      -1.28965116E-09
   49.5900002      -1.32215494E-09
   49.6500015      -1.34978628E-09
   49.7099991      -1.36898959E-09
   49.7700005      -1.37909706E-09
   49.8300018      -1.38099210E-09
   49.8899994      -1.37501721E-09
   49.9500008      -1.35970224E-09
   50.0099983      -1.33216249E-09
   50.0699997      -1.28976707E-09
   50.1300011      -1.23180344E-09
   50.1899986      -1.15995258E-09
   50.2500000      -1.07727927E-09
   50.3100014      -9.86472570E-10
   50.3699989      -8.88519869E-10
   50.4300003      -7.82640563E-10
   50.4900017      -6.67462530E-10
   50.5499992      -5.42694112E-10
   50.6100006      -4.10339041E-10