 -0.750000000       0.00000000    
 -0.689999998       0.00000000    
 -0.629999995       0.00000000    
 -0.569999993       0.00000000    
 -0.509999990       0.00000000    
 -0.449999988      -1.67116434E-21
 -0.389999986       2.39501455E-20
 -0.330000013       2.85270683E-19
 -0.270000011       1.39292955E-18
 -0.209999993       4.23225389E-18
 -0.150000006       8.82743989E-18
  -9.00000036E-02   1.22227764E-17
  -2.99999993E-02   7.18340270E-18
   2.99999993E-02  -1.50197752E-17
   9.00000036E-02  -5.58989004E-17
  0.150000006      -9.88988853E-17
  0.209999993      -1.07270655E-16
  0.270000011      -4.29661102E-17
  0.330000013       9.23972391E-17
  0.389999986       2.16898827E-16
  0.449999988       1.72644174E-16
  0.509999990      -1.82545685E-16
  0.569999993      -7.99436578E-16
  0.629999995      -1.26461659E-15
  0.689999998      -7.95061229E-16
  0.750000000       1.43716832E-15
  0.810000002       5.62910865E-15
  0.870000005       1.05704824E-14
  0.930000007       1.32935900E-14
  0.990000010       9.74196564E-15
   1.04999995      -3.28866873E-15
   1.11000001      -2.54303990E-14
   1.16999996      -5.05876130E-14
   1.23000002      -6.70867577E-14
   1.28999996      -6.12900979E-14
   1.35000002      -2.41812033E-14
   1.40999997       4.16685221E-14
   1.47000003       1.18678776E-13
   1.52999997       1.77695545E-13
   1.59000003       1.88688082E-13
   1.64999998       1.34984580E-13
   1.71000004       2.41936716E-14
   1.76999998      -1.10915759E-13
   1.83000004      -2.24113452E-13
   1.88999999      -2.75849710E-13
   1.95000005      -2.52089365E-13
   2.00999999      -1.71216150E-13
   2.06999993      -7.37368201E-14
   2.13000011       1.03699809E-15
   2.19000006       3.87057973E-14
   2.25000000       5.92109776E-14
   2.30999994       1.03950519E-13
   2.36999989       2.05277391E-13
   2.43000007       3.55044336E-13
   2.49000001       4.92668027E-13
   2.54999995       5.25227106E-13
   2.60999990       3.75226299E-13
   2.67000008       3.42810361E-14
   2.73000002      -4.07073599E-13
   2.78999996      -7.76131600E-13
   2.84999990      -8.83459267E-13
   2.91000009      -6.14203512E-13
   2.97000003      -5.20961177E-15
   3.02999997       7.32239735E-13
   3.08999991       1.26544511E-12
   3.15000010       1.25954705E-12
   3.21000004       5.23192058E-13
   3.26999998      -8.75812606E-13
   3.32999992      -2.57625518E-12
   3.39000010      -3.99605175E-12
   3.45000005      -4.49892727E-12
   3.50999999      -3.60674229E-12
   3.56999993      -1.18889198E-12
   3.63000011       2.43592624E-12
   3.69000006       6.52339077E-12
   3.75000000       1.00502237E-11
   3.80999994       1.19427081E-11
   3.86999989       1.13230024E-11
   3.93000007       7.70981889E-12
   3.99000001       1.13221097E-12
   4.05000019      -7.85172621E-12
   4.11000013      -1.82098763E-11
   4.17000008      -2.85289639E-11
   4.23000002      -3.71138918E-11
   4.28999996      -4.20801519E-11
   4.34999990      -4.14464782E-11
   4.40999985      -3.32465340E-11
   4.46999979      -1.56748937E-11
   4.53000021       1.27345781E-11
   4.59000015       5.29223436E-11
   4.65000010       1.05150340E-10
   4.71000004       1.68926914E-10
   4.76999998       2.43039588E-10
   4.82999992       3.25698274E-10
   4.88999987       4.14760976E-10
   4.94999981       5.07992703E-10
   5.01000023       6.03302741E-10
   5.07000017       6.98920866E-10
   5.13000011       7.93498267E-10
   5.19000006       8.86143825E-10
   5.25000000       9.76419390E-10
   5.30999994       1.06431042E-09
   5.36999989       1.15016929E-09
   5.42999983       1.23461474E-09
   5.48999977       1.31837330E-09
   5.55000019       1.40207068E-09
   5.61000013       1.48602430E-09
   5.67000008       1.57010405E-09
   5.73000002       1.65372904E-09
   5.78999996       1.73600900E-09
   5.84999990       1.81597870E-09
   5.90999985       1.89281413E-09
   5.96999979       1.96591898E-09
   6.03000021       2.03482964E-09
   6.09000015       2.09898832E-09
   6.15000010       2.15751905E-09
   6.21000004       2.20917173E-09
   6.26999998       2.25251706E-09
   6.32999992       2.28637087E-09
   6.38999987       2.31026709E-09
   6.44999981       2.32476105E-09
   6.51000023       2.33137909E-09
   6.57000017       2.33218644E-09
   6.63000011       2.32912090E-09
   6.69000006       2.32335240E-09
   6.75000000       2.31492647E-09
   6.80999994       2.30283148E-09
   6.86999989       2.28543273E-09
   6.92999983       2.26108088E-09
   6.98999977       2.22863150E-09
   7.05000019       2.18770313E-09
   7.11000013       2.13862905E-09
   7.17000008       2.08221063E-09
   7.23000002       2.01942552E-09
   7.28999996       1.95122585E-09
   7.34999990       1.87845473E-09
   7.40999985       1.80182969E-09
   7.46999979       1.72191494E-09
   7.53000021       1.63905112E-09
   7.59000015       1.55327906E-09
   7.65000010       1.46434154E-09
   7.71000004       1.37182010E-09
   7.76999998       1.27537259E-09
   7.82999992       1.17495946E-09
   7.88999987       1.07090758E-09
   7.94999981       9.63732205E-10
   8.01000023       8.53760729E-10
   8.06999969       7.40732309E-10
   8.13000011       6.23598395E-10
   8.18999958       5.00691710E-10
   8.25000000       3.70286163E-10
   8.31000042       2.31409392E-10
   8.36999989       8.46560044E-11
   8.43000031      -6.72637293E-11
   8.48999977      -2.19436122E-10
   8.55000019      -3.65192099E-10
   8.60999966      -4.97041797E-10
   8.67000008      -6.07937922E-10
   8.72999954      -6.92629842E-10
   8.78999996      -7.48813678E-10
   8.85000038      -7.77776898E-10
   8.90999985      -7.84304677E-10
   8.97000027      -7.75772280E-10
   9.02999973      -7.60586094E-10
   9.09000015      -7.46359419E-10
   9.14999962      -7.38336003E-10
   9.21000004      -7.38515415E-10
   9.27000046      -7.45694173E-10
   9.32999992      -7.56308294E-10
   9.39000034      -7.65686903E-10
   9.44999981      -7.69240616E-10
   9.51000023      -7.63235808E-10
   9.56999969      -7.45084883E-10
   9.63000011      -7.13344717E-10
   9.68999958      -6.67718048E-10
   9.75000000      -6.09246098E-10
   9.81000042      -5.40625711E-10
   9.86999989      -4.66355732E-10
   9.93000031      -3.92366278E-10
   9.98999977      -3.24977073E-10
   10.0500002      -2.69381628E-10
   10.1099997      -2.28180641E-10
   10.1700001      -2.00592057E-10
   10.2299995      -1.82759724E-10
   10.2900000      -1.69136830E-10
   10.3500004      -1.54442542E-10
   10.4099998      -1.35415984E-10
   10.4700003      -1.11667522E-10
   10.5299997      -8.53256354E-11
   10.5900002      -5.97125474E-11
   10.6499996      -3.76987469E-11
   10.7100000      -2.04938930E-11
   10.7700005      -7.39044763E-12
   10.8299999       3.48366301E-12
   10.8900003       1.38041479E-11
   10.9499998       2.37330624E-11
   11.0100002       3.12508942E-11
   11.0699997       3.24516317E-11
   11.1300001       2.27190194E-11
   11.1899996      -1.63165878E-12
   11.2500000      -4.18273922E-11
   11.3100004      -9.57718765E-11
   11.3699999      -1.58181565E-10
   11.4300003      -2.21759763E-10
   11.4899998      -2.79113899E-10
   11.5500002      -3.24850480E-10
   11.6099997      -3.57159885E-10
   11.6700001      -3.78301196E-10
   11.7299995      -3.93728938E-10
   11.7900000      -4.10087825E-10
   11.8500004      -4.32762132E-10
   11.9099998      -4.63895422E-10
   11.9700003      -5.01661712E-10
   12.0299997      -5.41084455E-10
   12.0900002      -5.76064585E-10
   12.1499996      -6.01771077E-10
   12.2100000      -6.16407259E-10
   12.2700005      -6.21660889E-10
   12.3299999      -6.21731944E-10
   12.3900003      -6.21433183E-10
   12.4499998      -6.24206575E-10
   12.5100002      -6.30853592E-10
   12.5699997      -6.39408748E-10
   12.6300001      -6.46085241E-10
   12.6899996      -6.46822262E-10
   12.7500000      -6.38807895E-10
   12.8100004      -6.21459051E-10
   12.8699999      -5.96604322E-10
   12.9300003      -5.67920211E-10
   12.9899998      -5.39893685E-10
   13.0500002      -5.16682030E-10
   13.1099997      -5.01213959E-10
   13.1700001      -4.94754404E-10
   13.2299995      -4.96984620E-10
   13.2900000      -5.06482911E-10
   13.3500004      -5.21381549E-10
   13.4099998      -5.39948641E-10
   13.4700003      -5.60918978E-10
   13.5299997      -5.83523008E-10
   13.5900002      -6.07285500E-10
   13.6499996      -6.31729835E-10
   13.7100000      -6.56115773E-10
   13.7700005      -6.79285572E-10
   13.8299999      -6.99638125E-10
   13.8900003      -7.15225101E-10
   13.9499998      -7.23959614E-10
   14.0100002      -7.23916482E-10
   14.0699997      -7.13672288E-10
   14.1300001      -6.92589264E-10
   14.1899996      -6.60936972E-10
   14.2500000      -6.19797491E-10
   14.3100004      -5.70799463E-10
   14.3699999      -5.15814558E-10
   14.4300003      -4.56761740E-10
   14.4899998      -3.95575073E-10
   14.5500002      -3.34257039E-10
   14.6099997      -2.74849976E-10
   14.6700001      -2.19191928E-10
   14.7299995      -1.68472375E-10
   14.7900000      -1.22774860E-10
   14.8500004      -8.08698108E-11
   14.9099998      -4.04357346E-11
   14.9700003       1.31865525E-12
   15.0299997       4.68625451E-11
   15.0900002       9.76920350E-11
   15.1499996       1.54039698E-10
   15.2100000       2.14970139E-10
   15.2700005       2.78713330E-10
   15.3299999       3.43031825E-10
   15.3900003       4.05493195E-10
   15.4499998       4.63641570E-10
   15.5100002       5.15140430E-10
   15.5699997       5.57940583E-10
   15.6300001       5.90456906E-10
   15.6899996       6.11684203E-10
   15.7500000       6.21209972E-10
   15.8100004       6.19160112E-10
   15.8699999       6.06172612E-10
   15.9300003       5.83467941E-10
   15.9899998       5.52977053E-10
   16.0499992       5.17371812E-10
   16.1100006       4.79828344E-10
   16.1700001       4.43467985E-10
   16.2299995       4.10616624E-10
   16.2900009       3.82173210E-10
   16.3500004       3.57378044E-10
   16.4099998       3.34111544E-10
   16.4699993       3.09617443E-10
   16.5300007       2.81367846E-10
   16.5900002       2.47757731E-10
   16.6499996       2.08433520E-10
   16.7099991       1.64235098E-10
   16.7700005       1.16864893E-10
   16.8299999       6.84404061E-11
   16.8899994       2.10558376E-11
   16.9500008      -2.35709403E-11
   17.0100002      -6.43155321E-11
   17.0699997      -1.00684128E-10
   17.1299992      -1.32646227E-10
   17.1900005      -1.60295013E-10
   17.2500000      -1.83444399E-10
   17.3099995      -2.01323958E-10
   17.3700008      -2.12515672E-10
   17.4300003      -2.15190393E-10
   17.4899998      -2.07583742E-10
   17.5499992      -1.88560501E-10
   17.6100006      -1.58086461E-10
   17.6700001      -1.17457655E-10
   17.7299995      -6.92031987E-11
   17.7900009      -1.66587785E-11
   17.8500004       3.67083204E-11
   17.9099998       8.80611833E-11
   17.9699993       1.35825226E-10
   18.0300007       1.79979184E-10
   18.0900002       2.21886440E-10
   18.1499996       2.63706473E-10
   18.2099991       3.07584291E-10
   18.2700005       3.54888618E-10
   18.3299999       4.05719014E-10
   18.3899994       4.58768995E-10
   18.4500008       5.11502007E-10
   18.5100002       5.60553659E-10
   18.5699997       6.02308647E-10
   18.6299992       6.33633368E-10
   18.6900005       6.52689514E-10
   18.7500000       6.59599653E-10
   18.8099995       6.56602273E-10
   18.8700008       6.47382148E-10
   18.9300003       6.35570818E-10
   18.9899998       6.22884910E-10
   19.0499992       6.07728701E-10
   19.1100006       5.85064885E-10
   19.1700001       5.47863921E-10
   19.2299995       4.89678742E-10
   19.2900009       4.07262252E-10
   19.3500004       3.02026210E-10
   19.4099998       1.79637402E-10
   19.4699993       4.79216319E-11
   19.5300007      -8.59633476E-11
   19.5900002      -2.17829865E-10
   19.6499996      -3.47306128E-10
   19.7099991      -4.77028472E-10
   19.7700005      -6.10717865E-10
   19.8299999      -7.51067375E-10
   19.8899994      -8.98285613E-10
   19.9500008      -1.04973141E-09
   20.0100002      -1.20059152E-09
   20.0699997      -1.34520728E-09
   20.1299992      -1.47853341E-09
   20.1900005      -1.59727154E-09
   20.2500000      -1.70038239E-09
   20.3099995      -1.78890280E-09
   20.3700008      -1.86522287E-09
   20.4300003      -1.93216598E-09
   20.4899998      -1.99226968E-09
   20.5499992      -2.04752415E-09
   20.6100006      -2.09954476E-09
   20.6700001      -2.14986895E-09
   20.7299995      -2.19999108E-09
   20.7900009      -2.25095165E-09
   20.8500004      -2.30266650E-09
   20.9099998      -2.35348030E-09
   20.9699993      -2.40039899E-09
   21.0300007      -2.44008103E-09
   21.0900002      -2.47018361E-09
   21.1499996      -2.49036214E-09
   21.2099991      -2.50238164E-09
   21.2700005      -2.50929877E-09
   21.3299999      -2.51421173E-09
   21.3899994      -2.51928700E-09
   21.4500008      -2.52553156E-09
   21.5100002      -2.53324450E-09
   21.5699997      -2.54266674E-09
   21.6299992      -2.55430366E-09
   21.6900005      -2.56874988E-09
   21.7500000      -2.58627364E-09
   21.8099995      -2.60660649E-09
   21.8700008      -2.62916577E-09
   21.9300003      -2.65351541E-09
   21.9899998      -2.67956679E-09
   22.0499992      -2.70717027E-09
   22.1100006      -2.73519118E-09
   22.1700001      -2.76066503E-09
   22.2299995      -2.77873147E-09
   22.2900009      -2.78366552E-09
   22.3500004      -2.77068057E-09
   22.4099998      -2.73768186E-09
   22.4699993      -2.68614997E-09
   22.5300007      -2.62080668E-09
   22.5900002      -2.54833132E-09
   22.6499996      -2.47577780E-09
   22.7099991      -2.40927833E-09
   22.7700005      -2.35326181E-09
   22.8299999      -2.31006902E-09
   22.8899994      -2.27976416E-09
   22.9500008      -2.26010788E-09
   23.0100002      -2.24684715E-09
   23.0699997      -2.23445107E-09
   23.1299992      -2.21717000E-09
   23.1900005      -2.19002927E-09
   23.2500000      -2.14933626E-09
   23.3099995      -2.09258300E-09
   23.3700008      -2.01805439E-09
   23.4300003      -1.92465177E-09
   23.4899998      -1.81223814E-09
   23.5499992      -1.68230641E-09
   23.6100006      -1.53835067E-09
   23.6700001      -1.38534995E-09
   23.7299995      -1.22830002E-09
   23.7900009      -1.07041687E-09
   23.8500004      -9.11990206E-10
   23.9099998      -7.50585205E-10
   23.9699993      -5.82517201E-10
   24.0300007      -4.04756784E-10
   24.0900002      -2.16180393E-10
   24.1499996      -1.75272487E-11
   24.2099991       1.89732507E-10
   24.2700005       4.04743905E-10
   24.3299999       6.27879360E-10
   24.3899994       8.60206517E-10
   24.4500008       1.10215359E-09
   24.5100002       1.35218259E-09
   24.5699997       1.60620539E-09
   24.6299992       1.85798577E-09
   24.6900005       2.10025286E-09
   24.7500000       2.32601782E-09
   24.8099995       2.52971133E-09
   24.8700008       2.70801048E-09
   24.9300003       2.86035196E-09
   24.9899998       2.98906766E-09
   25.0499992       3.09895043E-09
   25.1100006       3.19612914E-09
   25.1700001       3.28642802E-09
   25.2299995       3.37376238E-09
   25.2900009       3.45924356E-09
   25.3500004       3.54139273E-09
   25.4099998       3.61729335E-09
   25.4699993       3.68401998E-09
   25.5300007       3.73958686E-09
   25.5900002       3.78304943E-09
   25.6499996       3.81396026E-09
   25.7099991       3.83176735E-09
   25.7700005       3.83565579E-09
   25.8299999       3.82492882E-09
   25.8899994       3.79959131E-09
   25.9500008       3.76068199E-09
   26.0100002       3.71016307E-09
   26.0699997       3.65054542E-09
   26.1299992       3.58460839E-09
   26.1900005       3.51539620E-09
   26.2500000       3.44632900E-09
   26.3099995       3.38104944E-09
   26.3700008       3.32278205E-09
   26.4300003       3.27339733E-09
   26.4899998       3.23272320E-09
   26.5499992       3.19861115E-09
   26.6100006       3.16781112E-09
   26.6700001       3.13715254E-09
   26.7299995       3.10429082E-09
   26.7900009       3.06757930E-09
   26.8500004       3.02527892E-09
   26.9099998       2.97485858E-09
   26.9699993       2.91314106E-09
   27.0300007       2.83749713E-09
   27.0900002       2.74750533E-09
   27.1499996       2.64605626E-09
   27.2099991       2.53909183E-09
   27.2700005       2.43389597E-09
   27.3299999       2.33667063E-09
   27.3899994       2.25051355E-09
   27.4500008       2.17467244E-09
   27.5100002       2.10530571E-09
   27.5699997       2.03730810E-09
   27.6299992       1.96641081E-09
   27.6900005       1.89080951E-09
   27.7500000       1.81184878E-09
   27.8099995       1.73360559E-09
   27.8700008       1.66148939E-09
   27.9300003       1.60026292E-09
   27.9899998       1.55217439E-09
   28.0499992       1.51605084E-09
   28.1100006       1.48801216E-09
   28.1700001       1.46381884E-09
   28.2299995       1.44196088E-09
   28.2900009       1.42594780E-09
   28.3500004       1.42433942E-09
   28.4099998       1.44801549E-09
   28.4699993       1.50559176E-09
   28.5300007       1.59899494E-09
   28.5900002       1.72132364E-09
   28.6499996       1.85813132E-09
   28.7099991       1.99167816E-09
   28.7700005       2.10638018E-09
   28.8299999       2.19329599E-09
   28.8899994       2.25213959E-09
   28.9500008       2.29049957E-09
   29.0100002       2.32099451E-09
   29.0699997       2.35754682E-09
   29.1299992       2.41183051E-09
   29.1900005       2.49059373E-09
   29.2500000       2.59428812E-09
   29.3099995       2.71732170E-09
   29.3700008       2.85003665E-09
   29.4300003       2.98206038E-09
   29.4899998       3.10601544E-09
   29.5499992       3.22013705E-09
   29.6100006       3.32856653E-09
   29.6700001       3.43901529E-09
   29.7299995       3.55877172E-09
   29.7900009       3.69090292E-09
   29.8500004       3.83244902E-09
   29.9099998       3.97540667E-09
   29.9699993       4.10988621E-09
   30.0300007       4.22781765E-09
   30.0900002       4.32546843E-09
   30.1499996       4.40379733E-09
   30.2099991       4.46679582E-09
   30.2700005       4.51877336E-09
   30.3299999       4.56179183E-09
   30.3899994       4.59410598E-09
   30.4500008       4.60998884E-09
   30.5100002       4.60089833E-09
   30.5699997       4.55770799E-09
   30.6299992       4.47349402E-09
   30.6900005       4.34613900E-09
   30.7500000       4.17980717E-09
   30.8099995       3.98452560E-09
   30.8700008       3.77372533E-09
   30.9300003       3.56049878E-09
   30.9899998       3.35404327E-09
   31.0499992       3.15777915E-09
   31.1100006       2.96985569E-09
   31.1700001       2.78557089E-09
   31.2299995       2.60030641E-09
   31.2900009       2.41147968E-09
   31.3500004       2.21876206E-09
   31.4099998       2.02290851E-09
   31.4699993       1.82430182E-09
   31.5300007       1.62228619E-09
   31.5900002       1.41566758E-09
   31.6499996       1.20390586E-09
   31.7099991       9.88107707E-10
   31.7700005       7.71149866E-10
   31.8299999       5.56888535E-10
   31.8899994       3.48951423E-10
   31.9500008       1.49740165E-10
   32.0099983      -4.00125488E-11
   32.0699997      -2.21165197E-10
   32.1300011      -3.95769528E-10
   32.1899986      -5.66451330E-10
   32.2500000      -7.35510763E-10
   32.3100014      -9.03743358E-10
   32.3699989      -1.06930620E-09
   32.4300003      -1.22728039E-09
   32.4900017      -1.37053924E-09
   32.5499992      -1.49197232E-09
   32.6100006      -1.58726388E-09
   32.6699982      -1.65685854E-09
   32.7299995      -1.70591441E-09
   32.7900009      -1.74199066E-09
   32.8499985      -1.77145865E-09
   32.9099998      -1.79642157E-09
   32.9700012      -1.81376525E-09
   33.0299988      -1.81689630E-09
   33.0900002      -1.79934534E-09
   33.1500015      -1.75849624E-09
   33.2099991      -1.69771419E-09
   33.2700005      -1.62600955E-09
   33.3300018      -1.55555246E-09
   33.3899994      -1.49820345E-09
   33.4500008      -1.46242507E-09
   33.5099983      -1.45153933E-09
   33.5699997      -1.46366763E-09
   33.6300011      -1.49314594E-09
   33.6899986      -1.53290358E-09
   33.7500000      -1.57714886E-09
   33.8100014      -1.62362546E-09
   33.8699989      -1.67470304E-09
   33.9300003      -1.73678405E-09
   33.9900017      -1.81801241E-09
   34.0499992      -1.92497152E-09
   34.1100006      -2.05962647E-09
   34.1699982      -2.21783347E-09
   34.2299995      -2.39017872E-09
   34.2900009      -2.56490185E-09
   34.3499985      -2.73172973E-09
   34.4099998      -2.88502378E-09
   34.4700012      -3.02499314E-09
   34.5299988      -3.15659299E-09
   34.5900002      -3.28669292E-09
   34.6500015      -3.42071305E-09
   34.7099991      -3.55994434E-09
   34.7700005      -3.70037645E-09
   34.8300018      -3.83324839E-09
   34.8899994      -3.94705024E-09
   34.9500008      -4.03037914E-09
   35.0099983      -4.07489820E-09
   35.0699997      -4.07761602E-09
   35.1300011      -4.04176959E-09
   35.1899986      -3.97591959E-09
   35.2500000      -3.89137655E-09
   35.3100014      -3.79873555E-09
   35.3699989      -3.70472031E-09
   35.4300003      -3.61054431E-09
   35.4900017      -3.51241236E-09
   35.5499992      -3.40389450E-09
   35.6100006      -3.27909522E-09
   35.6699982      -3.13523785E-09
   35.7299995      -2.97365532E-09
   35.7900009      -2.79899481E-09
   35.8499985      -2.61729372E-09
   35.9099998      -2.43399678E-09
   35.9700012      -2.25279906E-09
   36.0299988      -2.07560125E-09
   36.0900002      -1.90320804E-09
   36.1500015      -1.73610382E-09
   36.2099991      -1.57479407E-09
   36.2700005      -1.41964818E-09
   36.3300018      -1.27059474E-09
   36.3899994      -1.12709897E-09
   36.4500008      -9.88579774E-10
   36.5099983      -8.55001681E-10
   36.5699997      -7.27103655E-10
   36.6300011      -6.05852701E-10
   36.6899986      -4.91163721E-10
   36.7500000      -3.80463744E-10
   36.8100014      -2.67956740E-10
   36.8699989      -1.45255974E-10
   36.9300003      -3.45665922E-12
   36.9900017       1.63993291E-10
   37.0499992       3.58727797E-10
   37.1100006       5.76277304E-10
   37.1699982       8.06820000E-10
   37.2299995       1.03766007E-09
   37.2900009       1.25655597E-09
   37.3499985       1.45472456E-09
   37.4099998       1.62851399E-09
   37.4700012       1.77926207E-09
   37.5299988       1.91151028E-09
   37.5900002       2.03028061E-09
   37.6500015       2.13840101E-09
   37.7099991       2.23479013E-09
   37.7700005       2.31428876E-09
   37.8300018       2.36908182E-09
   37.8899994       2.39123055E-09
   37.9500008       2.37543030E-09
   38.0099983       2.32101183E-09
   38.0699997       2.23245511E-09
   38.1300011       2.11821272E-09
   38.1899986       1.98826977E-09
   38.2500000       1.85133830E-09
   38.3100014       1.71269376E-09
   38.3699989       1.57339808E-09
   38.4300003       1.43109502E-09
   38.4900017       1.28199418E-09
   38.5499992       1.12326071E-09
   38.6100006       9.54955004E-10
   38.6699982       7.80868592E-10
   38.7299995       6.07979500E-10
   38.7900009       4.44670523E-10
   38.8499985       2.98213815E-10
   38.9099998       1.72275055E-10
   38.9700012       6.52754448E-11
   39.0299988      -2.96978379E-11
   39.0900002      -1.23156069E-10
   39.1500015      -2.25993738E-10
   39.2099991      -3.45776796E-10
   39.2700005      -4.83877383E-10
   39.3300018      -6.34648611E-10
   39.3899994      -7.87132692E-10
   39.4500008      -9.28796207E-10
   39.5099983      -1.04991749E-09
   39.5699997      -1.14693366E-09
   39.6300011      -1.22347721E-09
   39.6899986      -1.28878541E-09
   39.7500000      -1.35423728E-09
   39.8100014      -1.42943879E-09
   39.8699989      -1.51929902E-09
   39.9300003      -1.62296931E-09
   39.9900017      -1.73469072E-09
   40.0499992      -1.84591264E-09
   40.1100006      -1.94776373E-09
   40.1699982      -2.03306816E-09
   40.2299995      -2.09745576E-09
   40.2900009      -2.13949947E-09
   40.3499985      -2.16007501E-09
   40.4099998      -2.16131291E-09
   40.4700012      -2.14554285E-09
   40.5299988      -2.11462403E-09
   40.5900002      -2.06988782E-09
   40.6500015      -2.01266670E-09
   40.7099991      -1.94507233E-09
   40.7700005      -1.87051152E-09
   40.8300018      -1.79351023E-09
   40.8899994      -1.71878078E-09
   40.9500008      -1.64993019E-09
   41.0099983      -1.58847779E-09
   41.0699997      -1.53374302E-09
   41.1300011      -1.48367818E-09
   41.1899986      -1.43615664E-09
   41.2500000      -1.38993173E-09
   41.3100014      -1.34468070E-09
   41.3699989      -1.30013278E-09
   41.4300003      -1.25489097E-09
   41.4900017      -1.20579280E-09
   41.5499992      -1.14834375E-09
   41.6100006      -1.07810438E-09
   41.6699982      -9.92318339E-10
   41.7299995      -8.90933549E-10
   41.7900009      -7.76544939E-10
   41.8499985      -6.53413768E-10
   41.9099998      -5.26157173E-10
   41.9700012      -3.98701183E-10
   42.0299988      -2.73706197E-10
   42.0900002      -1.52260662E-10
   42.1500015      -3.35419227E-11
   42.2099991       8.55592819E-11
   42.2700005       2.10430173E-10
   42.3300018       3.47787299E-10
   42.3899994       5.03616315E-10
   42.4500008       6.80564216E-10
   42.5099983       8.75957029E-10
   42.5699997       1.08160503E-09
   42.6300011       1.28581612E-09
   42.6899986       1.47692980E-09
   42.7500000       1.64685665E-09
   42.8100014       1.79307424E-09
   42.8699989       1.91831107E-09
   42.9300003       2.02828754E-09
   42.9900017       2.12871476E-09
   43.0499992       2.22285412E-09
   43.1100006       2.31040898E-09
   43.1699982       2.38776598E-09
   43.2299995       2.44914089E-09
   43.2900009       2.48818477E-09
   43.3499985       2.49980125E-09
   43.4099998       2.48201837E-09
   43.4700012       2.43749443E-09
   43.5299988       2.37391662E-09
   43.5900002       2.30254571E-09
   43.6500015       2.23480745E-09
   43.7099991       2.17791696E-09
   43.7700005       2.13143236E-09
   43.8300018       2.08664663E-09
   43.8899994       2.02962824E-09
   43.9500008       1.94693572E-09
   44.0099983       1.83154814E-09
   44.0699997       1.68625269E-09
   44.1300011       1.52286528E-09
   44.1899986       1.35764777E-09
   44.2500000       1.20506449E-09
   44.3100014       1.07264331E-09
   44.3699989       9.58938928E-10
   44.4300003       8.54974813E-10
   44.4900017       7.47994000E-10
   44.5499992       6.25648422E-10
   44.6100006       4.79054241E-10
   44.6699982       3.04043679E-10
   44.7299995       1.00821532E-10
   44.7900009      -1.27326857E-10
   44.8499985      -3.75637937E-10
   44.9099998      -6.39356068E-10
   44.9700012      -9.14823384E-10
   45.0299988      -1.19994814E-09
   45.0900002      -1.49392232E-09
   45.1500015      -1.79631188E-09
   45.2099991      -2.10597917E-09
   45.2700005      -2.42045028E-09
   45.3300018      -2.73613310E-09
   45.3899994      -3.04924552E-09
   45.4500008      -3.35680439E-09
   45.5099983      -3.65691655E-09
   45.5699997      -3.94808275E-09
   45.6300011      -4.22797797E-09
   45.6899986      -4.49268978E-09
   45.7500000      -4.73726303E-09
   45.8100014      -4.95758679E-09
   45.8699989      -5.15268495E-09
   45.9300003      -5.32598499E-09
   45.9900017      -5.48451906E-09
   46.0499992      -5.63611025E-09
   46.1100006      -5.78575010E-09
   46.1699982      -5.93292215E-09
   46.2299995      -6.07119022E-09
   46.2900009      -6.19025542E-09
   46.3499985      -6.27950758E-09
   46.4099998      -6.33153308E-09
   46.4700012      -6.34422825E-09
   46.5299988      -6.32097086E-09
   46.5900002      -6.26912922E-09
   46.6500015      -6.19767215E-09
   46.7099991      -6.11468431E-09
   46.7700005      -6.02537087E-09
   46.8300018      -5.93092775E-09
   46.8899994      -5.82851500E-09
   46.9500008      -5.71246073E-09
   47.0099983      -5.57655611E-09
   47.0699997      -5.41688383E-09
   47.1300011      -5.23426058E-09
   47.1899986      -5.03528286E-09
   47.2500000      -4.83137219E-09
   47.3100014      -4.63594585E-09
   47.3699989      -4.46059589E-09
   47.4300003      -4.31158131E-09
   47.4900017      -4.18783186E-09
   47.5499992      -4.08111278E-09
   47.6100006      -3.97828126E-09
   47.6699982      -3.86491994E-09
   47.7299995      -3.72926667E-09
   47.7900009      -3.56528052E-09
   47.8499985      -3.37390316E-09
   47.9099998      -3.16203796E-09
   47.9700012      -2.93944580E-09
   48.0299988      -2.71451128E-09
   48.0900002      -2.49036947E-09
   48.1500015      -2.26296670E-09
   48.2099991      -2.02202344E-09
   48.2700005      -1.75476522E-09
   48.3300018      -1.45109647E-09
   48.3899994      -1.10817533E-09
   48.4500008      -7.32480687E-10
   48.5099983      -3.38452100E-10
   48.5699997       5.58158138E-11
   48.6300011       4.34156794E-10
   48.6899986       7.87069965E-10
   48.7500000       1.11392362E-09
   48.8100014       1.42201539E-09
   48.8699989       1.72308035E-09
   48.9300003       2.02867589E-09
   48.9900017       2.34606357E-09
   49.0499992       2.67580380E-09
   49.1100006       3.01154346E-09
   49.1699982       3.34173622E-09
   49.2299995       3.65257447E-09
   49.2900009       3.93126420E-09
   49.3499985       4.16889812E-09
   49.4099998       4.36239356E-09
   49.4700012       4.51515980E-09
   49.5299988       4.63630556E-09
   49.5900002       4.73839812E-09
   49.6500015       4.83408114E-09
   49.7099991       4.93227814E-09
   49.7700005       5.03508346E-09
   49.8300018       5.13650189E-09
   49.8899994       5.22378807E-09
   49.9500008       5.28126298E-09
   50.0099983       5.29549338E-09
   50.0699997       5.26003197E-09
   50.1300011       5.17794430E-09
   50.1899986       5.06113995E-09
   50.2500000       4.92675900E-09
   50.3100014       4.79197571E-09
   50.3699989       4.66909933E-09
   50.4300003       4.56260540E-09
   50.4900017       4.46889459E-09
   50.5499992       4.37858461E-09
   50.6100006       4.28040225E-09