 -0.750000000       0.00000000    
 -0.689999998       0.00000000    
 -0.629999995       0.00000000    
 -0.569999993       0.00000000    
 -0.509999990       0.00000000    
 -0.449999988       4.59203527E-19
 -0.389999986       3.49907449E-18
 -0.330000013       1.33696640E-17
 -0.270000011       3.29104428E-17
 -0.209999993       5.43574030E-17
 -0.150000006       4.93791720E-17
  -9.00000036E-02  -2.91010941E-17
  -2.99999993E-02  -2.20053098E-16
   2.99999993E-02  -5.02600605E-16
   9.00000036E-02  -7.45912989E-16
  0.150000006      -7.12437083E-16
  0.209999993      -1.64811806E-16
  0.270000011       9.24602001E-16
  0.330000013       2.16141865E-15
  0.389999986       2.70836223E-15
  0.449999988       1.64466418E-15
  0.509999990      -1.29298139E-15
  0.569999993      -4.93159861E-15
  0.629999995      -6.49643269E-15
  0.689999998      -2.67193219E-15
  0.750000000       8.09351840E-15
  0.810000002       2.30339954E-14
  0.870000005       3.40963491E-14
  0.930000007       3.02626170E-14
  0.990000010       3.35688305E-15
   1.04999995      -4.49135087E-14
   1.11000001      -9.88994314E-14
   1.16999996      -1.31989661E-13
   1.23000002      -1.17647401E-13
   1.28999996      -4.46541845E-14
   1.35000002       7.13067097E-14
   1.40999997       1.87840032E-13
   1.47000003       2.51161613E-13
   1.52999997       2.21884834E-13
   1.59000003       9.94528353E-14
   1.64999998      -6.84566471E-14
   1.71000004      -1.99836878E-13
   1.76999998      -2.13181117E-13
   1.83000004      -6.99687704E-14
   1.88999999       1.94063231E-13
   1.95000005       4.65143603E-13
   2.00999999       5.81689807E-13
   2.06999993       3.92188967E-13
   2.13000011      -1.76651825E-13
   2.19000006      -1.06460218E-12
   2.25000000      -2.05756115E-12
   2.30999994      -2.81669978E-12
   2.36999989      -2.95856221E-12
   2.43000007      -2.17121698E-12
   2.49000001      -3.35904807E-13
   2.54999995       2.38535775E-12
   2.60999990       5.53225044E-12
   2.67000008       8.41654611E-12
   2.73000002       1.02698709E-11
   2.78999996       1.04302851E-11
   2.84999990       8.51398639E-12
   2.91000009       4.52345062E-12
   2.97000003      -1.13364743E-12
   3.02999997      -7.71027513E-12
   3.08999991      -1.42425950E-11
   3.15000010      -1.96926416E-11
   3.21000004      -2.30806867E-11
   3.26999998      -2.35904924E-11
   3.32999992      -2.06441374E-11
   3.39000010      -1.39533151E-11
   3.45000005      -3.56286224E-12
   3.50999999       1.00895637E-11
   3.56999993       2.60715460E-11
   3.63000011       4.27995799E-11
   3.69000006       5.78540167E-11
   3.75000000       6.78447160E-11
   3.80999994       6.84509116E-11
   3.86999989       5.47568414E-11
   3.93000007       2.19340952E-11
   3.99000001      -3.38088238E-11
   4.05000019      -1.14230972E-10
   4.11000013      -2.18320861E-10
   4.17000008      -3.42086276E-10
   4.23000002      -4.78986684E-10
   4.28999996      -6.20897722E-10
   4.34999990      -7.59300345E-10
   4.40999985      -8.86311913E-10
   4.46999979      -9.95264759E-10
   4.53000021      -1.08075615E-09
   4.59000015      -1.13834031E-09
   4.65000010      -1.16419197E-09
   4.71000004      -1.15506416E-09
   4.76999998      -1.10868426E-09
   4.82999992      -1.02447373E-09
   4.88999987      -9.04255615E-10
   4.94999981      -7.52543916E-10
   5.01000023      -5.76134140E-10
   5.07000017      -3.82986615E-10
   5.13000011      -1.80698831E-10
   5.19000006       2.49401489E-11
   5.25000000       2.30817976E-10
   5.30999994       4.36504305E-10
   5.36999989       6.43443521E-10
   5.42999983       8.53711268E-10
   5.48999977       1.06888987E-09
   5.55000019       1.28956901E-09
   5.61000013       1.51571122E-09
   5.67000008       1.74774539E-09
   5.73000002       1.98790251E-09
   5.78999996       2.24114816E-09
   5.84999990       2.51514876E-09
   5.90999985       2.81904322E-09
   5.96999979       3.16124638E-09
   6.03000021       3.54692209E-09
   6.09000015       3.97598399E-09
   6.15000010       4.44235271E-09
   6.21000004       4.93482588E-09
   6.26999998       5.43933343E-09
   6.32999992       5.94184213E-09
   6.38999987       6.43092823E-09
   6.44999981       6.89916169E-09
   6.51000023       7.34293337E-09
   6.57000017       7.76098030E-09
   6.63000011       8.15239254E-09
   6.69000006       8.51506154E-09
   6.75000000       8.84526674E-09
   6.80999994       9.13857434E-09
   6.86999989       9.39158085E-09
   6.92999983       9.60368673E-09
   6.98999977       9.77808323E-09
   7.05000019       9.92152760E-09
   7.11000013       1.00430269E-08
   7.17000008       1.01520374E-08
   7.23000002       1.02569286E-08
   7.28999996       1.03642783E-08
   7.34999990       1.04791287E-08
   7.40999985       1.06058886E-08
   7.46999979       1.07492326E-08
   7.53000021       1.09144001E-08
   7.59000015       1.11065335E-08
   7.65000010       1.13291563E-08
   7.71000004       1.15822703E-08
   7.76999998       1.18607995E-08
   7.82999992       1.21540404E-08
   7.88999987       1.24464838E-08
   7.94999981       1.27198927E-08
   8.01000023       1.29560940E-08
   8.06999969       1.31396209E-08
   8.13000011       1.32594264E-08
   8.18999958       1.33091484E-08
   8.25000000       1.32859688E-08
   8.31000042       1.31885818E-08
   8.36999989       1.30151694E-08
   8.43000031       1.27622268E-08
   8.48999977       1.24247945E-08
   8.55000019       1.19980976E-08
   8.60999966       1.14800454E-08
   8.67000008       1.08736469E-08
   8.72999954       1.01883968E-08
   8.78999996       9.43999456E-09
   8.85000038       8.64836824E-09
   8.90999985       7.83463516E-09
   8.97000027       7.01805547E-09
   9.02999973       6.21404883E-09
   9.09000015       5.43390977E-09
   9.14999962       4.68604888E-09
   9.21000004       3.97789446E-09
   9.27000046       3.31725003E-09
   9.32999992       2.71218492E-09
   9.39000034       2.16933649E-09
   9.44999981       1.69142000E-09
   9.51000023       1.27529665E-09
   9.56999969       9.11788312E-10
   9.63000011       5.87616567E-10
   9.68999958       2.88771451E-10
   9.75000000       3.86012576E-12
   9.81000042      -2.74022943E-10
   9.86999989      -5.47623891E-10
   9.93000031      -8.17685586E-10
   9.98999977      -1.08571341E-09
   10.0500002      -1.35595057E-09
   10.1099997      -1.63569813E-09
   10.1700001      -1.93400096E-09
   10.2299995      -2.25946040E-09
   10.2900000      -2.61816480E-09
   10.3500004      -3.01244518E-09
   10.4099998      -3.44063200E-09
   10.4700003      -3.89759247E-09
   10.5299997      -4.37570868E-09
   10.5900002      -4.86608931E-09
   10.6499996      -5.35990763E-09
   10.7100000      -5.84973314E-09
   10.7700005      -6.33051922E-09
   10.8299999      -6.79981360E-09
   10.8900003      -7.25693372E-09
   10.9499998      -7.70128228E-09
   11.0100002      -8.13054157E-09
   11.0699997      -8.53964988E-09
   11.1300001      -8.92125840E-09
   11.1899996      -9.26760713E-09
   11.2500000      -9.57306501E-09
   11.3100004      -9.83613191E-09
   11.3699999      -1.00599715E-08
   11.4300003      -1.02511688E-08
   11.4899998      -1.04173088E-08
   11.5500002      -1.05644320E-08
   11.6099997      -1.06954401E-08
   11.6700001      -1.08100089E-08
   11.7299995      -1.09058531E-08
   11.7900000      -1.09806351E-08
   11.8500004      -1.10336051E-08
   11.9099998      -1.10662652E-08
   11.9700003      -1.10818030E-08
   12.0299997      -1.10835883E-08
   12.0900002      -1.10733609E-08
   12.1499996      -1.10499299E-08
   12.2100000      -1.10089395E-08
   12.2700005      -1.09439249E-08
   12.3299999      -1.08482610E-08
   12.3900003      -1.07173026E-08
   12.4499998      -1.05498552E-08
   12.5100002      -1.03484625E-08
   12.5699997      -1.01185140E-08
   12.6300001      -9.86673143E-09
   12.6899996      -9.59979030E-09
   12.7500000      -9.32364763E-09
   12.8100004      -9.04367958E-09
   12.8699999      -8.76520811E-09
   12.9300003      -8.49383763E-09
   12.9899998      -8.23518942E-09
   13.0500002      -7.99407029E-09
   13.1099997      -7.77347076E-09
   13.1700001      -7.57388374E-09
   13.2299995      -7.39326245E-09
   13.2900000      -7.22756344E-09
   13.3500004      -7.07168102E-09
   13.4099998      -6.92052415E-09
   13.4700003      -6.77014800E-09
   13.5299997      -6.61888544E-09
   13.5900002      -6.46829301E-09
   13.6499996      -6.32350705E-09
   13.7100000      -6.19254603E-09
   13.7700005      -6.08436768E-09
   13.8299999      -6.00609518E-09
   13.8900003      -5.96042726E-09
   13.9499998      -5.94443739E-09
   14.0100002      -5.95051119E-09
   14.0699997      -5.96922023E-09
   14.1300001      -5.99293903E-09
   14.1899996      -6.01859540E-09
   14.2500000      -6.04828188E-09
   14.3100004      -6.08751582E-09
   14.3699999      -6.14204332E-09
   14.4300003      -6.21473939E-09
   14.4899998      -6.30398889E-09
   14.5500002      -6.40409681E-09
   14.6099997      -6.50726495E-09
   14.6700001      -6.60599397E-09
   14.7299995      -6.69476963E-09
   14.7900000      -6.77040868E-09
   14.8500004      -6.83122492E-09
   14.9099998      -6.87570267E-09
   14.9700003      -6.90151802E-09
   15.0299997      -6.90543311E-09
   15.0900002      -6.88408797E-09
   15.1499996      -6.83524481E-09
   15.2100000      -6.75881395E-09
   15.2700005      -6.65704025E-09
   15.3299999      -6.53357946E-09
   15.3900003      -6.39164144E-09
   15.4499998      -6.23182528E-09
   15.5100002      -6.05054051E-09
   15.5699997      -5.83979354E-09
   15.6300001      -5.58871172E-09
   15.6899996      -5.28649036E-09
   15.7500000      -4.92580821E-09
   15.8100004      -4.50544713E-09
   15.8699999      -4.03106570E-09
   15.9300003      -3.51375129E-09
   15.9899998      -2.96687563E-09
   16.0499992      -2.40246645E-09
   16.1100006      -1.82849724E-09
   16.1700001      -1.24806332E-09
   16.2299995      -6.60578703E-10
   16.2900009      -6.42582237E-11
   16.3500004       5.41346357E-10
   16.4099998       1.15390986E-09
   16.4699993       1.76853920E-09
   16.5300007       2.37933384E-09
   16.5900002       2.98135983E-09
   16.6499996       3.57192964E-09
   16.7099991       4.15048396E-09
   16.7700005       4.71713379E-09
   16.8299999       5.27066746E-09
   16.8899994       5.80715920E-09
   16.9500008       6.32005115E-09
   17.0100002       6.80182444E-09
   17.0699997       7.24650384E-09
   17.1299992       7.65172903E-09
   17.1900005       8.01924482E-09
   17.2500000       8.35340508E-09
   17.3099995       8.65826255E-09
   17.3700008       8.93457042E-09
   17.4300003       9.17810450E-09
   17.4899998       9.38016154E-09
   17.5499992       9.53008339E-09
   17.6100006       9.61880886E-09
   17.6700001       9.64206937E-09
   17.7299995       9.60207647E-09
   17.7900009       9.50729362E-09
   17.8500004       9.37061362E-09
   17.9099998       9.20678378E-09
   17.9699993       9.03000608E-09
   18.0300007       8.85234108E-09
   18.0900002       8.68312799E-09
   18.1499996       8.52923332E-09
   18.2099991       8.39572589E-09
   18.2700005       8.28653235E-09
   18.3299999       8.20474355E-09
   18.3899994       8.15246182E-09
   18.4500008       8.13032219E-09
   18.5100002       8.13703060E-09
   18.5699997       8.16932566E-09
   18.6299992       8.22266077E-09
   18.6900005       8.29253555E-09
   18.7500000       8.37607228E-09
   18.8099995       8.47312975E-09
   18.8700008       8.58635030E-09
   18.9300003       8.71988615E-09
   18.9899998       8.87709994E-09
   19.0499992       9.05801922E-09
   19.1100006       9.25747745E-09
   19.1700001       9.46467260E-09
   19.2299995       9.66432800E-09
   19.2900009       9.83907977E-09
   19.3500004       9.97229677E-09
   19.4099998       1.00504378E-08
   19.4699993       1.00643094E-08
   19.5300007       1.00090292E-08
   19.5900002       9.88299664E-09
   19.6499996       9.68652891E-09
   19.7099991       9.42086320E-09
   19.7700005       9.08798548E-09
   19.8299999       8.69129391E-09
   19.8899994       8.23664692E-09
   19.9500008       7.73306486E-09
   20.0100002       7.19252347E-09
   20.0699997       6.62866695E-09
   20.1299992       6.05485795E-09
   20.1900005       5.48233858E-09
   20.2500000       4.91922236E-09
   20.3099995       4.37061454E-09
   20.3700008       3.83955223E-09
   20.4300003       3.32808292E-09
   20.4899998       2.83783042E-09
   20.5499992       2.36981479E-09
   20.6100006       1.92383887E-09
   20.6700001       1.49803681E-09
   20.7299995       1.08906206E-09
   20.7900009       6.92954305E-10
   20.8500004       3.06280279E-10
   20.9099998      -7.29998978E-11
   20.9699993      -4.45264658E-10
   21.0300007      -8.09473488E-10
   21.0900002      -1.16355681E-09
   21.1499996      -1.50464441E-09
   21.2099991      -1.82914939E-09
   21.2700005      -2.13303242E-09
   21.3299999      -2.41256659E-09
   21.3899994      -2.66556133E-09
   21.4500008      -2.89251645E-09
   21.5100002      -3.09695403E-09
   21.5699997      -3.28447536E-09
   21.6299992      -3.46080253E-09
   21.6900005      -3.62976760E-09
   21.7500000      -3.79241794E-09
   21.8099995      -3.94790867E-09
   21.8700008      -4.09583922E-09
   21.9300003      -4.23880575E-09
   21.9899998      -4.38366810E-09
   22.0499992      -4.54065763E-09
   22.1100006      -4.72059325E-09
   22.1700001      -4.93155783E-09
   22.2299995      -5.17670928E-09
   22.2900009      -5.45436496E-09
   22.3500004      -5.76027936E-09
   22.4099998      -6.09093842E-09
   22.4699993      -6.44617471E-09
   22.5300007      -6.82982382E-09
   22.5900002      -7.24814520E-09
   22.6499996      -7.70682984E-09
   22.7099991      -8.20802359E-09
   22.7700005      -8.74867645E-09
   22.8299999      -9.32084721E-09
   22.8899994      -9.91370097E-09
   22.9500008      -1.05163265E-08
   23.0100002      -1.11203056E-08
   23.0699997      -1.17212560E-08
   23.1299992      -1.23190524E-08
   23.1900005      -1.29168702E-08
   23.2500000      -1.35194913E-08
   23.3099995      -1.41313734E-08
   23.3700008      -1.47549306E-08
   23.4300003      -1.53893840E-08
   23.4899998      -1.60304268E-08
   23.5499992      -1.66708158E-08
   23.6100006      -1.73018062E-08
   23.6700001      -1.79150632E-08
   23.7299995      -1.85044673E-08
   23.7900009      -1.90671123E-08
   23.8500004      -1.96030427E-08
   23.9099998      -2.01136405E-08
   23.9699993      -2.05992876E-08
   24.0300007      -2.10572804E-08
   24.0900002      -2.14810552E-08
   24.1499996      -2.18613181E-08
   24.2099991      -2.21887486E-08
   24.2700005      -2.24571401E-08
   24.3299999      -2.26654695E-08
   24.3899994      -2.28177122E-08
   24.4500008      -2.29203110E-08
   24.5100002      -2.29783303E-08
   24.5699997      -2.29921664E-08
   24.6299992      -2.29564083E-08
   24.6900005      -2.28615651E-08
   24.7500000      -2.26978525E-08
   24.8099995      -2.24592789E-08
   24.8700008      -2.21461711E-08
   24.9300003      -2.17651177E-08
   24.9899998      -2.13266471E-08
   25.0499992      -2.08420143E-08
   25.1100006      -2.03206820E-08
   25.1700001      -1.97693932E-08
   25.2299995      -1.91927700E-08
   25.2900009      -1.85944788E-08
   25.3500004      -1.79779800E-08
   25.4099998      -1.73464034E-08
   25.4699993      -1.67018559E-08
   25.5300007      -1.60448472E-08
   25.5900002      -1.53744111E-08
   25.6499996      -1.46889114E-08
   25.7099991      -1.39870719E-08
   25.7700005      -1.32686857E-08
   25.8299999      -1.25347857E-08
   25.8899994      -1.17875283E-08
   25.9500008      -1.10301865E-08
   26.0100002      -1.02673825E-08
   26.0699997      -9.50527657E-09
   26.1299992      -8.75119888E-09
   26.1900005      -8.01246802E-09
   26.2500000      -7.29473859E-09
   26.3099995      -6.60073018E-09
   26.3700008      -5.93013594E-09
   26.4300003      -5.28089261E-09
   26.4899998      -4.65114258E-09
   26.5499992      -4.04075173E-09
   26.6100006      -3.45154838E-09
   26.6700001      -2.88629431E-09
   26.7299995      -2.34727127E-09
   26.7900009      -1.83557014E-09
   26.8500004      -1.35157507E-09
   26.9099998      -8.96146768E-10
   26.9699993      -4.71373884E-10
   27.0300007      -7.99844635E-11
   27.0900002       2.76496298E-10
   27.1499996       5.99716277E-10
   27.2099991       8.95143348E-10
   27.2700005       1.17067456E-09
   27.3299999       1.43381318E-09
   27.3899994       1.68903780E-09
   27.4500008       1.93695504E-09
   27.5100002       2.17569340E-09
   27.5699997       2.40354181E-09
   27.6299992       2.62101962E-09
   27.6900005       2.83098656E-09
   27.7500000       3.03675285E-09
   27.8099995       3.23951865E-09
   27.8700008       3.43688278E-09
   27.9300003       3.62337382E-09
   27.9899998       3.79251919E-09
   28.0499992       3.93893318E-09
   28.1100006       4.05895939E-09
   28.1700001       4.14951806E-09
   28.2299995       4.20611146E-09
   28.2900009       4.22155644E-09
   28.3500004       4.18650403E-09
   28.4099998       4.09157286E-09
   28.4699993       3.92991462E-09
   28.5300007       3.69887299E-09
   28.5900002       3.40017015E-09
   28.6499996       3.03904146E-09
   28.7099991       2.62322009E-09
   28.7700005       2.16229190E-09
   28.8299999       1.66713254E-09
   28.8899994       1.14866661E-09
   28.9500008       6.15545948E-10
   29.0100002       7.13447773E-11
   29.0699997      -4.87292429E-10
   29.1299992      -1.07018927E-09
   29.1900005      -1.69063497E-09
   29.2500000      -2.36110487E-09
   29.3099995      -3.08977977E-09
   29.3700008      -3.87941146E-09
   29.4300003      -4.72851580E-09
   29.4899998      -5.63328628E-09
   29.5499992      -6.58818156E-09
   29.6100006      -7.58419194E-09
   29.6700001      -8.60568150E-09
   29.7299995      -9.62813473E-09
   29.7900009      -1.06190594E-08
   29.8500004      -1.15426877E-08
   29.9099998      -1.23668826E-08
   29.9699993      -1.30693172E-08
   30.0300007      -1.36402445E-08
   30.0900002      -1.40810013E-08
   30.1499996      -1.43995438E-08
   30.2099991      -1.46055559E-08
   30.2700005      -1.47074433E-08
   30.3299999      -1.47120236E-08
   30.3899994      -1.46260923E-08
   30.4500008      -1.44582089E-08
   30.5100002      -1.42193004E-08
   30.5699997      -1.39216967E-08
   30.6299992      -1.35771856E-08
   30.6900005      -1.31950531E-08
   30.7500000      -1.27808422E-08
   30.8099995      -1.23359856E-08
   30.8700008      -1.18581669E-08
   30.9300003      -1.13421406E-08
   30.9899998      -1.07808615E-08
   31.0499992      -1.01668114E-08
   31.1100006      -9.49321421E-09
   31.1700001      -8.75473116E-09
   31.2299995      -7.94732724E-09
   31.2900009      -7.06743730E-09
   31.3500004      -6.11107343E-09
   31.4099998      -5.07370324E-09
   31.4699993      -3.95139432E-09
   31.5300007      -2.74298029E-09
   31.5900002      -1.45227796E-09
   31.6499996      -8.92604393E-11
   31.7099991       1.33042477E-09
   31.7700005       2.78730417E-09
   31.8299999       4.26033075E-09
   31.8899994       5.72851278E-09
   31.9500008       7.17149629E-09
   32.0099983       8.56948734E-09
   32.0699997       9.90337057E-09
   32.1300011       1.11556631E-08
   32.1899986       1.23122392E-08
   32.2500000       1.33639997E-08
   32.3100014       1.43074317E-08
   32.3699989       1.51434953E-08
   32.4300003       1.58751607E-08
   32.4900017       1.65046856E-08
   32.5499992       1.70319083E-08
   32.6100006       1.74542034E-08
   32.6699982       1.77679134E-08
   32.7299995       1.79701871E-08
   32.7900009       1.80600974E-08
   32.8499985       1.80384365E-08
   32.9099998       1.79064621E-08
   32.9700012       1.76645809E-08
   33.0299988       1.73120647E-08
   33.0900002       1.68482561E-08
   33.1500015       1.62748783E-08
   33.2099991       1.55982232E-08
   33.2700005       1.48300092E-08
   33.3300018       1.39862015E-08
   33.3899994       1.30841205E-08
   33.4500008       1.21390276E-08
   33.5099983       1.11615872E-08
   33.5699997       1.01571587E-08
   33.6300011       9.12692588E-09
   33.6899986       8.07002021E-09
   33.7500000       6.98551439E-09
   33.8100014       5.87345950E-09
   33.8699989       4.73490935E-09
   33.9300003       3.57146912E-09
   33.9900017       2.38507969E-09
   34.0499992       1.17835730E-09
   34.1100006      -4.47589570E-11
   34.1699982      -1.27865851E-09
   34.2299995      -2.51646104E-09
   34.2900009      -3.75108122E-09
   34.3499985      -4.97629848E-09
   34.4099998      -6.18704199E-09
   34.4700012      -7.37850137E-09
   34.5299988      -8.54442828E-09
   34.5900002      -9.67557234E-09
   34.6500015      -1.07592513E-08
   34.7099991      -1.17804788E-08
   34.7700005      -1.27242323E-08
   34.8300018      -1.35778135E-08
   34.8899994      -1.43322367E-08
   34.9500008      -1.49821506E-08
   35.0099983      -1.55246305E-08
   35.0699997      -1.59577294E-08
   35.1300011      -1.62797278E-08
   35.1899986      -1.64894569E-08
   35.2500000      -1.65874017E-08
   35.3100014      -1.65767560E-08
   35.3699989      -1.64636607E-08
   35.4300003      -1.62563687E-08
   35.4900017      -1.59636500E-08
   35.5499992      -1.55931748E-08
   35.6100006      -1.51506327E-08
   35.6699982      -1.46397774E-08
   35.7299995      -1.40631320E-08
   35.7900009      -1.34227278E-08
   35.8499985      -1.27203768E-08
   35.9099998      -1.19574786E-08
   35.9700012      -1.11348673E-08
   36.0299988      -1.02533262E-08
   36.0900002      -9.31507138E-09
   36.1500015      -8.32568681E-09
   36.2099991      -7.29544336E-09
   36.2700005      -6.23883301E-09
   36.3300018      -5.17198506E-09
   36.3899994      -4.10880308E-09
   36.4500008      -3.05769565E-09
   36.5099983      -2.02080774E-09
   36.5699997      -9.96571048E-10
   36.6300011       1.54076578E-11
   36.6899986       1.00958342E-09
   36.7500000       1.97255678E-09
   36.8100014       2.88542723E-09
   36.8699989       3.72960907E-09
   36.9300003       4.49332793E-09
   36.9900017       5.17547427E-09
   37.0499992       5.78471981E-09
   37.1100006       6.33423625E-09
   37.1699982       6.83461376E-09
   37.2299995       7.28846716E-09
   37.2900009       7.68927233E-09
   37.3499985       8.02473732E-09
   37.4099998       8.28279578E-09
   37.4700012       8.45716297E-09
   37.5299988       8.54994209E-09
   37.5900002       8.57039861E-09
   37.6500015       8.53096616E-09
   37.7099991       8.44261816E-09
   37.7700005       8.31174329E-09
   37.8300018       8.13960455E-09
   37.8899994       7.92417865E-09
   37.9500008       7.66313679E-09
   38.0099983       7.35644168E-09
   38.0699997       7.00739911E-09
   38.1300011       6.62180266E-09
   38.1899986       6.20569995E-09
   38.2500000       5.76290304E-09
   38.3100014       5.29352251E-09
   38.3699989       4.79438667E-09
   38.4300003       4.26135749E-09
   38.4900017       3.69264086E-09
   38.5499992       3.09161341E-09
   38.6100006       2.46782794E-09
   38.6699982       1.83567739E-09
   38.7299995       1.21133348E-09
   38.7900009       6.09413686E-10
   38.8499985       4.08731243E-11
   38.9099998      -4.87124729E-10
   38.9700012      -9.69739289E-10
   39.0299988      -1.40257705E-09
   39.0900002      -1.78063786E-09
   39.1500015      -2.09858642E-09
   39.2099991      -2.35188180E-09
   39.2700005      -2.53772425E-09
   39.3300018      -2.65497291E-09
   39.3899994      -2.70300249E-09
   39.4500008      -2.68032418E-09
   39.5099983      -2.58411958E-09
   39.5699997      -2.41136178E-09
   39.6300011      -2.16120677E-09
   39.6899986      -1.83745319E-09
   39.7500000      -1.44960410E-09
   39.8100014      -1.01166286E-09
   39.8699989      -5.38893652E-10
   39.9300003      -4.38383982E-11
   39.9900017       4.66686523E-10
   40.0499992       9.92283034E-10
   40.1100006       1.53706115E-09
   40.1699982       2.10599937E-09
   40.2299995       2.70120193E-09
   40.2900009       3.31967254E-09
   40.3499985       3.95348465E-09
   40.4099998       4.59211158E-09
   40.4700012       5.22571675E-09
   40.5299988       5.84786664E-09
   40.5900002       6.45651888E-09
   40.6500015       7.05308745E-09
   40.7099991       7.64029107E-09
   40.7700005       8.21996604E-09
   40.8300018       8.79180462E-09
   40.8899994       9.35327016E-09
   40.9500008       9.90029747E-09
   41.0099983       1.04280771E-08
   41.0699997       1.09315286E-08
   41.1300011       1.14055316E-08
   41.1899986       1.18452803E-08
   41.2500000       1.22469368E-08
   41.3100014       1.26083028E-08
   41.3699989       1.29288660E-08
   41.4300003       1.32087994E-08
   41.4900017       1.34471714E-08
   41.5499992       1.36403973E-08
   41.6100006       1.37821106E-08
   41.6699982       1.38649865E-08
   41.7299995       1.38838008E-08
   41.7900009       1.38380996E-08
   41.8499985       1.37328637E-08
   41.9099998       1.35766429E-08
   41.9700012       1.33781750E-08
   42.0299988       1.31434463E-08
   42.0900002       1.28748487E-08
   42.1500015       1.25727375E-08
   42.2099991       1.22380959E-08
   42.2700005       1.18743735E-08
   42.3300018       1.14871908E-08
   42.3899994       1.10821832E-08
   42.4500008       1.06625686E-08
   42.5099983       1.02282591E-08
   42.5699997       9.77723946E-09
   42.6300011       9.30835498E-09
   42.6899986       8.82365736E-09
   42.7500000       8.32874036E-09
   42.8100014       7.83090215E-09
   42.8699989       7.33638128E-09
   42.9300003       6.84851420E-09
   42.9900017       6.36787689E-09
   43.0499992       5.89406879E-09
   43.1100006       5.42765966E-09
   43.1699982       4.97079267E-09
   43.2299995       4.52599780E-09
   43.2900009       4.09410861E-09
   43.3499985       3.67282138E-09
   43.4099998       3.25697136E-09
   43.4700012       2.84036861E-09
   43.5299988       2.41791032E-09
   43.5900002       1.98650074E-09
   43.6500015       1.54415181E-09
   43.7099991       1.08794096E-09
   43.7700005       6.12367435E-10
   43.8300018       1.09505523E-10
   43.8899994      -4.28703406E-10
   43.9500008      -1.00697184E-09
   44.0099983      -1.62371061E-09
   44.0699997      -2.27011476E-09
   44.1300011      -2.93183766E-09
   44.1899986      -3.59261576E-09
   44.2500000      -4.23841806E-09
   44.3100014      -4.86059148E-09
   44.3699989      -5.45699796E-09
   44.4300003      -6.03096284E-09
   44.4900017      -6.58861810E-09
   44.5499992      -7.13567783E-09
   44.6100006      -7.67477015E-09
   44.6699982      -8.20417245E-09
   44.7299995      -8.71828032E-09
   44.7900009      -9.20956111E-09
   44.8499985      -9.67124869E-09
   44.9099998      -1.00998667E-08
   44.9700012      -1.04967386E-08
   45.0299988      -1.08680158E-08
   45.0900002      -1.12231859E-08
   45.1500015      -1.15723990E-08
   45.2099991      -1.19232597E-08
   45.2700005      -1.22779209E-08
   45.3300018      -1.26313946E-08
   45.3899994      -1.29718494E-08
   45.4500008      -1.32831737E-08
   45.5099983      -1.35492968E-08
   45.5699997      -1.37589220E-08
   45.6300011      -1.39088918E-08
   45.6899986      -1.40047778E-08
   45.7500000      -1.40583785E-08
   45.8100014      -1.40831888E-08
   45.8699989      -1.40898875E-08
   45.9300003      -1.40837564E-08
   45.9900017      -1.40649608E-08
   46.0499992      -1.40310981E-08
   46.1100006      -1.39804337E-08
   46.1699982      -1.39141560E-08
   46.2299995      -1.38368117E-08
   46.2900009      -1.37552281E-08
   46.3499985      -1.36768259E-08
   46.4099998      -1.36081866E-08
   46.4700012      -1.35540823E-08
   46.5299988      -1.35166891E-08
   46.5900002      -1.34946943E-08
   46.6500015      -1.34825129E-08
   46.7099991      -1.34703084E-08
   46.7700005      -1.34454989E-08
   46.8300018      -1.33956952E-08
   46.8899994      -1.33121167E-08
   46.9500008      -1.31920004E-08
   47.0099983      -1.30388713E-08
   47.0699997      -1.28605810E-08
   47.1300011      -1.26661215E-08
   47.1899986      -1.24627313E-08
   47.2500000      -1.22543939E-08
   47.3100014      -1.20419319E-08
   47.3699989      -1.18240973E-08
   47.4300003      -1.15987895E-08
   47.4900017      -1.13638841E-08
   47.5499992      -1.11176890E-08
   47.6100006      -1.08592193E-08
   47.6699982      -1.05883586E-08
   47.7299995      -1.03056754E-08
   47.7900009      -1.00116644E-08
   47.8499985      -9.70563185E-09
   47.9099998      -9.38498257E-09
   47.9700012      -9.04578012E-09
   48.0299988      -8.68489369E-09
   48.0900002      -8.30299030E-09
   48.1500015      -7.90681387E-09
   48.2099991      -7.50919149E-09
   48.2700005      -7.12631776E-09
   48.3300018      -6.77329481E-09
   48.3899994      -6.45993969E-09
   48.4500008      -6.18876594E-09
   48.5099983      -5.95580163E-09
   48.5699997      -5.75342662E-09
   48.6300011      -5.57348567E-09
   48.6899986      -5.40919620E-09
   48.7500000      -5.25545119E-09
   48.8100014      -5.10826892E-09
   48.8699989      -4.96450570E-09
   48.9300003      -4.82242069E-09
   48.9900017      -4.68264716E-09
   49.0499992      -4.54848426E-09
   49.1100006      -4.42469217E-09
   49.1699982      -4.31496527E-09
   49.2299995      -4.21938040E-09
   49.2900009      -4.13344203E-09
   49.3499985      -4.04968015E-09
   49.4099998      -3.96136279E-09
   49.4700012      -3.86663501E-09
   49.5299988      -3.77104126E-09
   49.5900002      -3.68708131E-09
   49.6500015      -3.63089514E-09
   49.7099991      -3.61746832E-09
   49.7700005      -3.65634278E-09
   49.8300018      -3.74943943E-09
   49.8899994      -3.89155597E-09
   49.9500008      -4.07299483E-09
   50.0099983      -4.28305214E-09
   50.0699997      -4.51302640E-09
   50.1300011      -4.75782302E-09
   50.1899986      -5.01590058E-09
   50.2500000      -5.28792077E-09
   50.3100014      -5.57480773E-09
   50.3699989      -5.87603877E-09
   50.4300003      -6.18880991E-09
   50.4900017      -6.50838716E-09
   50.5499992      -6.82953827E-09
   50.6100006      -7.14851556E-09