  -2.400000      0.0000000E+00
  -2.340000      0.0000000E+00
  -2.280000      0.0000000E+00
  -2.220000      0.0000000E+00
  -2.160000      0.0000000E+00
  -2.100000     -1.6711648E-21
  -2.040000      2.3950171E-20
  -1.980000      2.8527084E-19
  -1.920000      1.3929294E-18
  -1.860000      4.2322510E-18
  -1.800000      8.8274324E-18
  -1.740000      1.2222769E-17
  -1.680000      7.1834126E-18
  -1.620000     -1.5019734E-17
  -1.560000     -5.5898828E-17
  -1.500000     -9.8898826E-17
  -1.440000     -1.0727072E-16
  -1.380000     -4.2966295E-17
  -1.320000      9.2397014E-17
  -1.260000      2.1689876E-16
  -1.200000      1.7264436E-16
  -1.140000     -1.8254526E-16
  -1.080000     -7.9943610E-16
  -1.020000     -1.2646163E-15
 -0.9600000     -7.9506065E-16
 -0.9000000      1.4371677E-15
 -0.8400000      5.6291057E-15
 -0.7800000      1.0570476E-14
 -0.7200000      1.3293582E-14
 -0.6600000      9.7419563E-15
 -0.6000000     -3.2886806E-15
 -0.5400000     -2.5430404E-14
 -0.4800000     -5.0587603E-14
 -0.4200000     -6.7086731E-14
 -0.3600000     -6.1290064E-14
 -0.3000000     -2.4181158E-14
 -0.2400000      4.1668532E-14
 -0.1800000      1.1867875E-13
 -0.1200000      1.7769552E-13
 -5.9999999E-02  1.8868807E-13
  0.0000000E+00  1.3498465E-13
  5.9999999E-02  2.4193770E-14
  0.1200000     -1.1091566E-13
  0.1800000     -2.2411341E-13
  0.2400000     -2.7584979E-13
  0.3000000     -2.5208958E-13
  0.3600000     -1.7121641E-13
  0.4200000     -7.3736929E-14
  0.4800000      1.0372815E-15
  0.5400000      3.8706644E-14
  0.6000000      5.9212272E-14
  0.6600000      1.0395170E-13
  0.7200000      2.0527758E-13
  0.7800000      3.5504279E-13
  0.8400000      4.9266456E-13
  0.9000000      5.2522255E-13
  0.9600000      3.7522277E-13
   1.020000      3.4281128E-14
   1.080000     -4.0706793E-13
   1.140000     -7.7612087E-13
   1.200000     -8.8344707E-13
   1.260000     -6.1419554E-13
   1.320000     -5.2121630E-15
   1.380000      7.3222326E-13
   1.440000      1.2654173E-12
   1.500000      1.2595172E-12
   1.560000      5.2317493E-13
   1.620000     -8.7580279E-13
   1.680000     -2.5762116E-12
   1.740000     -3.9959811E-12
   1.800000     -4.4988518E-12
   1.860000     -3.6066937E-12
   1.920000     -1.1889006E-12
   1.980000      2.4358454E-12
   2.040000      6.5232507E-12
   2.100000      1.0050068E-11
   2.160000      1.1942601E-11
   2.220000      1.1323008E-11
   2.280000      7.7099681E-12
   2.340000      1.1324870E-12
   2.400000     -7.8513966E-12
   2.460000     -1.8209595E-11
   2.520000     -2.8528841E-11
   2.580000     -3.7113992E-11
   2.640000     -4.2080488E-11
   2.700000     -4.1446988E-11
   2.760000     -3.3247110E-11
   2.820000     -1.5675393E-11
   2.880000      1.2734286E-11
   2.940000      5.2922385E-11
   3.000000      1.0515083E-10
   3.060000      1.6892791E-10
   3.120000      2.4304106E-10
   3.180000      3.2570002E-10
   3.240000      4.1476264E-10
   3.300000      5.0799370E-10
   3.360000      6.0330246E-10
   3.420000      6.9891892E-10
   3.480000      7.9349466E-10
   3.540000      8.8613922E-10
   3.600000      9.7641517E-10
   3.660000      1.0643082E-09
   3.720000      1.1501707E-09
   3.780000      1.2346207E-09
   3.840000      1.3183832E-09
   3.900000      1.4020825E-09
   3.960000      1.4860346E-09
   4.020000      1.5701095E-09
   4.080000      1.6537265E-09
   4.140000      1.7359973E-09
   4.200000      1.8159595E-09
   4.260000      1.8927917E-09
   4.320000      1.9658990E-09
   4.380000      2.0348183E-09
   4.440000      2.0989903E-09
   4.500000      2.1575373E-09
   4.560000      2.2092037E-09
   4.620000      2.2525577E-09
   4.680000      2.2864108E-09
   4.740000      2.3102962E-09
   4.800000      2.3247699E-09
   4.860000      2.3313613E-09
   4.920000      2.3321411E-09
   4.980000      2.3290543E-09
   5.040000      2.3232765E-09
   5.100000      2.3148576E-09
   5.160000      2.3027866E-09
   5.220000      2.2854267E-09
   5.280000      2.2611226E-09
   5.340000      2.2287201E-09
   5.400000      2.1878266E-09
   5.460000      2.1387661E-09
   5.520000      2.0823314E-09
   5.580000      2.0194990E-09
   5.640000      1.9512256E-09
   5.700000      1.8783666E-09
   5.760000      1.8016580E-09
   5.820000      1.7216858E-09
   5.880000      1.6388094E-09
   5.940000      1.5530802E-09
   6.000000      1.4642405E-09
   6.060000      1.3718560E-09
   6.120000      1.2755578E-09
   6.180000      1.1752724E-09
   6.240000      1.0712934E-09
   6.300000      9.6411157E-10
   6.360000      8.5404572E-10
   6.420000      7.4084544E-10
   6.480000      6.2349120E-10
   6.540000      5.0035837E-10
   6.600000      3.6976971E-10
   6.660000      2.3079776E-10
   6.720000      8.4069120E-11
   6.780000     -6.7694579E-11
   6.840000     -2.1959316E-10
   6.900000     -3.6499651E-10
   6.960000     -4.9647486E-10
   7.020000     -6.0705441E-10
   7.080000     -6.9155875E-10
   7.140000     -7.4774648E-10
   7.200000     -7.7694262E-10
   7.260000     -7.8393386E-10
   7.320000     -7.7605700E-10
   7.380000     -7.6164008E-10
   7.440000     -7.4818807E-10
   7.500000     -7.4082063E-10
   7.560000     -7.4141721E-10
   7.620000     -7.4867790E-10
   7.680000     -7.5898332E-10
   7.740000     -7.6766044E-10
   7.800000     -7.7017481E-10
   7.860000     -7.6290052E-10
   7.920000     -7.4339818E-10
   7.980000     -7.1039363E-10
   8.040000     -6.6375688E-10
   8.100000     -6.0467081E-10
   8.160000     -5.3592641E-10
   8.220000     -4.6205448E-10
   8.280000     -3.8894721E-10
   8.340000     -3.2281955E-10
   8.400000     -2.6870711E-10
   8.460000     -2.2902252E-10
   8.520000     -2.0279511E-10
   8.580000     -1.8601029E-10
   8.640000     -1.7301904E-10
   8.700000     -1.5851009E-10
   8.760000     -1.3926513E-10
   8.820000     -1.1499549E-10
   8.880000     -8.7962512E-11
   8.940000     -6.1621069E-11
   9.000000     -3.8945503E-11
   9.060000     -2.1203319E-11
   9.120000     -7.6970904E-12
   9.180000      3.4696989E-12
   9.240000      1.4010122E-11
   9.300000      2.4114738E-11
   9.360000      3.1770316E-11
   9.420000      3.3053511E-11
   9.480000      2.3316255E-11
   9.540000     -1.1593842E-12
   9.600000     -4.1625436E-11
   9.660000     -9.6001297E-11
   9.720000     -1.5901681E-10
   9.780000     -2.2339496E-10
   9.840000     -2.8177025E-10
   9.900000     -3.2877195E-10
   9.960000     -3.6258394E-10
   10.02000     -3.8540054E-10
   10.08000     -4.0253473E-10
   10.14000     -4.2041823E-10
   10.20000     -4.4418569E-10
   10.26000     -4.7575366E-10
   10.32000     -5.1315702E-10
   10.38000     -5.5141747E-10
   10.44000     -5.8458460E-10
   10.50000     -6.0809491E-10
   10.56000     -6.2046862E-10
   10.62000     -6.2367311E-10
   10.68000     -6.2207417E-10
   10.74000     -6.2049460E-10
   10.80000     -6.2223526E-10
   10.86000     -6.2785410E-10
   10.92000     -6.3511690E-10
   10.98000     -6.4002126E-10
   11.04000     -6.3840250E-10
   11.10000     -6.2748001E-10
   11.16000     -6.0682198E-10
   11.22000     -5.7848670E-10
   11.28000     -5.4640520E-10
   11.34000     -5.1529775E-10
   11.40000     -4.8950577E-10
   11.46000     -4.7208731E-10
   11.52000     -4.6439180E-10
   11.58000     -4.6615478E-10
   11.64000     -4.7598547E-10
   11.70000     -4.9201282E-10
   11.76000     -5.1244198E-10
   11.82000     -5.3585308E-10
   11.88000     -5.6120908E-10
   11.94000     -5.8765892E-10
   12.00000     -6.1428557E-10
   12.06000     -6.3992273E-10
   12.12000     -6.6309924E-10
   12.18000     -6.8210321E-10
   12.24000     -6.9512984E-10
   12.30000     -7.0048095E-10
   12.36000     -6.9679335E-10
   12.42000     -6.8325912E-10
   12.48000     -6.5977834E-10
   12.54000     -6.2697275E-10
   12.60000     -5.8603722E-10
   12.66000     -5.3848315E-10
   12.72000     -4.8589627E-10
   12.78000     -4.2982815E-10
   12.84000     -3.7184861E-10
   12.90000     -3.1365871E-10
   12.96000     -2.5708838E-10
   13.02000     -2.0384978E-10
   13.08000     -1.5507301E-10
   13.14000     -1.1082337E-10
   13.20000     -6.9872906E-11
   13.26000     -2.9908461E-11
   13.32000      1.1849719E-11
   13.38000      5.7851630E-11
   13.44000      1.0955630E-10
   13.50000      1.6713048E-10
   13.56000      2.2953853E-10
   13.62000      2.9488159E-10
   13.68000      3.6078543E-10
   13.74000      4.2470513E-10
   13.80000      4.8413040E-10
   13.86000      5.3674920E-10
   13.92000      5.8061206E-10
   13.98000      6.1427469E-10
   14.04000      6.3685729E-10
   14.10000      6.4799544E-10
   14.16000      6.4774114E-10
   14.22000      6.3653166E-10
   14.28000      6.1530281E-10
   14.34000      5.8569899E-10
   14.40000      5.5020111E-10
   14.46000      5.1196547E-10
   14.52000      4.7428772E-10
   14.58000      4.3981652E-10
   14.64000      4.0981818E-10
   14.70000      3.8382111E-10
   14.76000      3.5981765E-10
   14.82000      3.3495923E-10
   14.88000      3.0647532E-10
   14.94000      2.7248240E-10
   15.00000      2.3243828E-10
   15.06000      1.8716531E-10
   15.12000      1.3852214E-10
   15.18000      8.8881361E-11
   15.24000      4.0575175E-11
   15.30000     -4.5606669E-12
   15.36000     -4.5448995E-11
   15.42000     -8.1779458E-11
   15.48000     -1.1375698E-10
   15.54000     -1.4166396E-10
   15.60000     -1.6538890E-10
   15.66000     -1.8410824E-10
   15.72000     -1.9626516E-10
   15.78000     -1.9987970E-10
   15.84000     -1.9309680E-10
   15.90000     -1.7479113E-10
   15.96000     -1.4503235E-10
   16.02000     -1.0526262E-10
   16.08000     -5.8122361E-11
   16.14000     -6.9509992E-12
   16.20000      4.4924939E-11
   16.26000      9.4933374E-11
   16.32000      1.4181008E-10
   16.38000      1.8577646E-10
   16.44000      2.2826586E-10
   16.50000      2.7128411E-10
   16.56000      3.1662939E-10
   16.62000      3.6523659E-10
   16.68000      4.1682732E-10
   16.74000      4.6989418E-10
   16.80000      5.2192778E-10
   16.86000      5.6978117E-10
   16.92000      6.1013788E-10
   16.98000      6.4011402E-10
   17.04000      6.5796868E-10
   17.10000      6.6373068E-10
   17.16000      6.5938438E-10
   17.22000      6.4827865E-10
   17.28000      6.3372585E-10
   17.34000      6.1722361E-10
   17.40000      5.9710886E-10
   17.46000      5.6843730E-10
   17.52000      5.2440430E-10
   17.58000      4.5886478E-10
   17.64000      3.6889050E-10
   17.70000      2.5618602E-10
   17.76000      1.2667280E-10
   17.82000     -1.1586154E-11
   17.88000     -1.5118078E-10
   17.94000     -2.8764088E-10
   18.00000     -4.2030968E-10
   18.06000     -5.5160765E-10
   18.12000     -6.8519895E-10
   18.18000     -8.2393931E-10
   18.24000     -9.6841524E-10
   18.30000     -1.1164992E-09
   18.36000     -1.2639015E-09
   18.42000     -1.4053796E-09
   18.48000     -1.5361332E-09
   18.54000     -1.6529466E-09
   18.60000     -1.7547582E-09
   18.66000     -1.8425431E-09
   18.72000     -1.9186193E-09
   18.78000     -1.9857136E-09
   18.84000     -2.0462028E-09
   18.90000     -2.1018283E-09
   18.96000     -2.1538875E-09
   19.02000     -2.2036017E-09
   19.08000     -2.2522491E-09
   19.14000     -2.3008380E-09
   19.20000     -2.3494768E-09
   19.26000     -2.3969031E-09
   19.32000     -2.4406295E-09
   19.38000     -2.4778133E-09
   19.44000     -2.5064699E-09
   19.50000     -2.5263667E-09
   19.56000     -2.5390889E-09
   19.62000     -2.5472504E-09
   19.68000     -2.5533515E-09
   19.74000     -2.5589539E-09
   19.80000     -2.5645983E-09
   19.86000     -2.5703324E-09
   19.92000     -2.5763554E-09
   19.98000     -2.5832521E-09
   20.04000     -2.5917046E-09
   20.10000     -2.6019973E-09
   20.16000     -2.6138052E-09
   20.22000     -2.6264908E-09
   20.28000     -2.6396625E-09
   20.34000     -2.6534519E-09
   20.40000     -2.6681133E-09
   20.46000     -2.6830458E-09
   20.52000     -2.6958678E-09
   20.58000     -2.7022797E-09
   20.64000     -2.6970566E-09
   20.70000     -2.6758318E-09
   20.76000     -2.6368239E-09
   20.82000     -2.5816727E-09
   20.88000     -2.5150475E-09
   20.94000     -2.4433389E-09
   21.00000     -2.3731179E-09
   21.06000     -2.3099591E-09
   21.12000     -2.2578148E-09
   21.18000     -2.2187578E-09
   21.24000     -2.1928275E-09
   21.30000     -2.1779287E-09
   21.36000     -2.1699671E-09
   21.42000     -2.1634237E-09
   21.48000     -2.1523248E-09
   21.54000     -2.1312561E-09
   21.60000     -2.0959929E-09
   21.66000     -2.0435769E-09
   21.72000     -1.9720687E-09
   21.78000     -1.8804360E-09
   21.84000     -1.7688538E-09
   21.90000     -1.6392459E-09
   21.96000     -1.4954946E-09
   22.02000     -1.3427973E-09
   22.08000     -1.1861564E-09
   22.14000     -1.0286465E-09
   22.20000     -8.7041202E-10
   22.26000     -7.0903650E-10
   22.32000     -5.4112770E-10
   22.38000     -3.6421760E-10
   22.44000     -1.7787168E-10
   22.50000      1.6588671E-11
   22.56000      2.1746097E-10
   22.62000      4.2415790E-10
   22.68000      6.3780908E-10
   22.74000      8.6054947E-10
   22.80000      1.0938956E-09
   22.86000      1.3371255E-09
   22.92000      1.5864985E-09
   22.98000      1.8356223E-09
   23.04000      2.0766879E-09
   23.10000      2.3020026E-09
   23.16000      2.5053499E-09
   23.22000      2.6829590E-09
   23.28000      2.8340477E-09
   23.34000      2.9608791E-09
   23.40000      3.0682010E-09
   23.46000      3.1620144E-09
   23.52000      3.2479022E-09
   23.58000      3.3294889E-09
   23.64000      3.4076844E-09
   23.70000      3.4810494E-09
   23.76000      3.5470500E-09
   23.82000      3.6034826E-09
   23.88000      3.6493053E-09
   23.94000      3.6845325E-09
   24.00000      3.7094627E-09
   24.06000      3.7238947E-09
   24.12000      3.7269041E-09
   24.18000      3.7172971E-09
   24.24000      3.6943721E-09
   24.30000      3.6584873E-09
   24.36000      3.6111483E-09
   24.42000      3.5547358E-09
   24.48000      3.4921945E-09
   24.54000      3.4268910E-09
   24.60000      3.3625354E-09
   24.66000      3.3028691E-09
   24.72000      3.2509582E-09
   24.78000      3.2083003E-09
   24.84000      3.1742686E-09
   24.90000      3.1463316E-09
   24.96000      3.1210377E-09
   25.02000      3.0952223E-09
   25.08000      3.0666967E-09
   25.14000      3.0340139E-09
   25.20000      2.9955740E-09
   25.26000      2.9488647E-09
   25.32000      2.8906078E-09
   25.38000      2.8179947E-09
   25.44000      2.7304128E-09
   25.50000      2.6306086E-09
   25.56000      2.5244635E-09
   25.62000      2.4192990E-09
   25.68000      2.3214444E-09
   25.74000      2.2341904E-09
   25.80000      2.1570126E-09
   25.86000      2.0863036E-09
   25.92000      2.0171793E-09
   25.98000      1.9455773E-09
   26.04000      1.8698945E-09
   26.10000      1.7916811E-09
   26.16000      1.7152125E-09
   26.22000      1.6460533E-09
   26.28000      1.5890227E-09
   26.34000      1.5462736E-09
   26.40000      1.5163617E-09
   26.46000      1.4949785E-09
   26.52000      1.4773510E-09
   26.58000      1.4614024E-09
   26.64000      1.4501075E-09
   26.70000      1.4515765E-09
   26.76000      1.4763722E-09
   26.82000      1.5329740E-09
   26.88000      1.6234061E-09
   26.94000      1.7411361E-09
   27.00000      1.8723514E-09
   27.06000      2.0001369E-09
   27.12000      2.1097837E-09
   27.18000      2.1930955E-09
   27.24000      2.2502373E-09
   27.30000      2.2888513E-09
   27.36000      2.3212001E-09
   27.42000      2.3605242E-09
   27.48000      2.4176410E-09
   27.54000      2.4984519E-09
   27.60000      2.6027489E-09
   27.66000      2.7245890E-09
   27.72000      2.8543174E-09
   27.78000      2.9818628E-09
   27.84000      3.1003049E-09
   27.90000      3.2083156E-09
   27.96000      3.3102967E-09
   28.02000      3.4139911E-09
   28.08000      3.5265575E-09
   28.14000      3.6509364E-09
   28.20000      3.7842280E-09
   28.26000      3.9187760E-09
   28.32000      4.0452828E-09
   28.38000      4.1563304E-09
   28.44000      4.2486419E-09
   28.50000      4.3232369E-09
   28.56000      4.3837107E-09
   28.62000      4.4336423E-09
   28.68000      4.4742867E-09
   28.74000      4.5033053E-09
   28.80000      4.5147872E-09
   28.86000      4.5004422E-09
   28.92000      4.4516724E-09
   28.98000      4.3620942E-09
   29.04000      4.2298725E-09
   29.10000      4.0590615E-09
   29.16000      3.8592409E-09
   29.22000      3.6432899E-09
   29.28000      3.4239638E-09
   29.34000      3.2105918E-09
   29.40000      3.0072644E-09
   29.46000      2.8131730E-09
   29.52000      2.6246818E-09
   29.58000      2.4378806E-09
   29.64000      2.2502835E-09
   29.70000      2.0610307E-09
   29.76000      1.8699464E-09
   29.82000      1.6764543E-09
   29.88000      1.4792599E-09
   29.94000      1.2770395E-09
   30.00000      1.0696002E-09
   30.06000      8.5865898E-10
   30.12000      6.4767697E-10
   30.18000      4.4082288E-10
   30.24000      2.4164745E-10
   30.30000      5.2113289E-11
   30.36000     -1.2770544E-10
   30.42000     -2.9934621E-10
   30.48000     -4.6536708E-10
   30.54000     -6.2858885E-10
   30.60000     -7.9114537E-10
   30.66000     -9.5335295E-10
   30.72000     -1.1127050E-09
   30.78000     -1.2636010E-09
   30.84000     -1.3983628E-09
   30.90000     -1.5095387E-09
   30.96000     -1.5926893E-09
   31.02000     -1.6483082E-09
   31.08000     -1.6817282E-09
   31.14000     -1.7007976E-09
   31.20000     -1.7123096E-09
   31.26000     -1.7189329E-09
   31.32000     -1.7182212E-09
   31.38000     -1.7042470E-09
   31.44000     -1.6710782E-09
   31.50000     -1.6164371E-09
   31.56000     -1.5438747E-09
   31.62000     -1.4626065E-09
   31.68000     -1.3852391E-09
   31.74000     -1.3244384E-09
   31.80000     -1.2897897E-09
   31.86000     -1.2857896E-09
   31.92000     -1.3113740E-09
   31.98000     -1.3609255E-09
   32.04000     -1.4264114E-09
   32.10000     -1.5001124E-09
   32.16000     -1.5772169E-09
   32.22000     -1.6574698E-09
   32.28000     -1.7451807E-09
   32.34000     -1.8473953E-09
   32.40000     -1.9707560E-09
   32.46000     -2.1182307E-09
   32.52000     -2.2870974E-09
   32.58000     -2.4691185E-09
   32.64000     -2.6529212E-09
   32.70000     -2.8276315E-09
   32.76000     -2.9862772E-09
   32.82000     -3.1276248E-09
   32.88000     -3.2558152E-09
   32.94000     -3.3780636E-09
   33.00000     -3.5013668E-09
   33.06000     -3.6293906E-09
   33.12000     -3.7605212E-09
   33.18000     -3.8876204E-09
   33.24000     -3.9995278E-09
   33.30000     -4.0839114E-09
   33.36000     -4.1306940E-09
   33.42000     -4.1350612E-09
   33.48000     -4.0990562E-09
   33.54000     -4.0310999E-09
   33.60000     -3.9434300E-09
   33.66000     -3.8482351E-09
   33.72000     -3.7538492E-09
   33.78000     -3.6624401E-09
   33.84000     -3.5700567E-09
   33.90000     -3.4689482E-09
   33.96000     -3.3511203E-09
   34.02000     -3.2116361E-09
   34.08000     -3.0503939E-09
   34.14000     -2.8718941E-09
   34.20000     -2.6834039E-09
   34.26000     -2.4925488E-09
   34.32000     -2.3053697E-09
   34.38000     -2.1254547E-09
   34.44000     -1.9541044E-09
   34.50000     -1.7910632E-09
   34.56000     -1.6352757E-09
   34.62000     -1.4853987E-09
   34.68000     -1.3401196E-09
   34.74000     -1.1984892E-09
   34.80000     -1.0603501E-09
   34.86000     -9.2666347E-10
   34.92000     -7.9935886E-10
   34.98000     -6.8043698E-10
   35.04000     -5.7044891E-10
   35.10000     -4.6694715E-10
   35.16000     -3.6374387E-10
   35.22000     -2.5162017E-10
   35.28000     -1.2054105E-10
   35.34000      3.7288166E-11
   35.40000      2.2466787E-10
   35.46000      4.3807330E-10
   35.52000      6.6833139E-10
   35.58000      9.0308871E-10
   35.64000      1.1301531E-09
   35.70000      1.3404922E-09
   35.76000      1.5298776E-09
   35.82000      1.6987250E-09
   35.88000      1.8503600E-09
   35.94000      1.9884467E-09
   36.00000      2.1145403E-09
   36.06000      2.2266005E-09
   36.12000      2.3189568E-09
   36.18000      2.3837325E-09
   36.24000      2.4132443E-09
   36.30000      2.4025621E-09
   36.36000      2.3513125E-09
   36.42000      2.2640365E-09
   36.48000      2.1489241E-09
   36.54000      2.0153645E-09
   36.60000      1.8712363E-09
   36.66000      1.7209734E-09
   36.72000      1.5651267E-09
   36.78000      1.4015197E-09
   36.84000      1.2274488E-09
   36.90000      1.0419983E-09
   36.96000      8.4755736E-10
   37.02000      6.5000560E-10
   37.08000      4.5755127E-10
   37.14000      2.7865102E-10
   37.20000      1.1968442E-10
   37.26000     -1.6922377E-11
   37.32000     -1.3355703E-10
   37.38000     -2.3693383E-10
   37.44000     -3.3625414E-10
   37.50000     -4.4041307E-10
   37.56000     -5.5504862E-10
   37.62000     -6.8045125E-10
   37.68000     -8.1121299E-10
   37.74000     -9.3794916E-10
   37.80000     -1.0506168E-09
   37.86000     -1.1422425E-09
   37.92000     -1.2116126E-09
   37.98000     -1.2638528E-09
   38.04000     -1.3086858E-09
   38.10000     -1.3571074E-09
   38.16000     -1.4178133E-09
   38.22000     -1.4946843E-09
   38.28000     -1.5860671E-09
   38.34000     -1.6858042E-09
   38.40000     -1.7853470E-09
   38.46000     -1.8760731E-09
   38.52000     -1.9510982E-09
   38.58000     -2.0062352E-09
   38.64000     -2.0400883E-09
   38.70000     -2.0534798E-09
   38.76000     -2.0485023E-09
   38.82000     -2.0275412E-09
   38.88000     -1.9926030E-09
   38.94000     -1.9452093E-09
   39.00000     -1.8868767E-09
   39.06000     -1.8198937E-09
   39.12000     -1.7478697E-09
   39.18000     -1.6755692E-09
   39.24000     -1.6079028E-09
   39.30000     -1.5484594E-09
   39.36000     -1.4983228E-09
   39.42000     -1.4558610E-09
   39.48000     -1.4176749E-09
   39.54000     -1.3802344E-09
   39.60000     -1.3413169E-09
   39.66000     -1.3004667E-09
   39.72000     -1.2582855E-09
   39.78000     -1.2150679E-09
   39.84000     -1.1696716E-09
   39.90000     -1.1193242E-09
   39.96000     -1.0604664E-09
   40.02000     -9.9009501E-10
   40.08000     -9.0684471E-10
   40.14000     -8.1129781E-10
   40.20000     -7.0555733E-10
   40.26000     -5.9250937E-10
   40.32000     -4.7520465E-10
   40.38000     -3.5644809E-10
   40.44000     -2.3834631E-10
   40.50000     -1.2155345E-10
   40.56000     -4.3399321E-12
   40.62000      1.1791279E-10
   40.68000      2.5205721E-10
   40.74000      4.0508183E-10
   40.80000      5.8114807E-10
   40.86000      7.7906320E-10
   40.92000      9.9155995E-10
   40.98000      1.2069939E-09
   41.04000      1.4128800E-09
   41.10000      1.5997266E-09
   41.16000      1.7634884E-09
   41.22000      1.9056843E-09
   41.28000      2.0313990E-09
   41.34000      2.1463007E-09
   41.40000      2.2540094E-09
   41.46000      2.3546876E-09
   41.52000      2.4449969E-09
   41.58000      2.5190745E-09
   41.64000      2.5701172E-09
   41.70000      2.5923259E-09
   41.76000      2.5829776E-09
   41.82000      2.5441507E-09
   41.88000      2.4832885E-09
   41.94000      2.4118225E-09
   42.00000      2.3417444E-09
   42.06000      2.2811315E-09
   42.12000      2.2305504E-09
   42.18000      2.1822852E-09
   42.24000      2.1232263E-09
   42.30000      2.0404716E-09
   42.36000      1.9271948E-09
   42.42000      1.7860273E-09
   42.48000      1.6283307E-09
   42.54000      1.4697155E-09
   42.60000      1.3239185E-09
   42.66000      1.1977760E-09
   42.72000      1.0892529E-09
   42.78000      9.8889041E-10
   42.84000      8.8350588E-10
   42.90000      7.6030954E-10
   42.96000      6.0990779E-10
   43.02000      4.2755907E-10
   43.08000      2.1289846E-10
   43.14000     -3.1243289E-11
   43.20000     -3.0033245E-10
   43.26000     -5.8954641E-10
   43.32000     -8.9484914E-10
   43.38000     -1.2134930E-09
   43.44000     -1.5437924E-09
   43.50000     -1.8842692E-09
   43.56000     -2.2326156E-09
   43.62000     -2.5851021E-09
   43.68000     -2.9368472E-09
   43.74000     -3.2828298E-09
   43.80000     -3.6189804E-09
   43.86000     -3.9425858E-09
   43.92000     -4.2516839E-09
   43.98000     -4.5439013E-09
   44.04000     -4.8156976E-09
   44.10000     -5.0628581E-09
   44.16000     -5.2822755E-09
   44.22000     -5.4740750E-09
   44.28000     -5.6426810E-09
   44.34000     -5.7958127E-09
   44.40000     -5.9415162E-09
   44.46000     -6.0845213E-09
   44.52000     -6.2236971E-09
   44.58000     -6.3519088E-09
   44.64000     -6.4583920E-09
   44.70000     -6.5325536E-09
   44.76000     -6.5675185E-09
   44.82000     -6.5620673E-09
   44.88000     -6.5204517E-09
   44.94000     -6.4505365E-09
   45.00000     -6.3611951E-09
   45.06000     -6.2598740E-09
   45.12000     -6.1509118E-09
   45.18000     -6.0348557E-09
   45.24000     -5.9088103E-09
   45.30000     -5.7677885E-09
   45.36000     -5.6068341E-09
   45.42000     -5.4234381E-09
   45.48000     -5.2194844E-09
   45.54000     -5.0019322E-09
   45.60000     -4.7817705E-09
   45.66000     -4.5714188E-09
   45.72000     -4.3813682E-09
   45.78000     -4.2171866E-09
   45.84000     -4.0778962E-09
   45.90000     -3.9562158E-09
   45.96000     -3.8405590E-09
   46.02000     -3.7181440E-09
   46.08000     -3.5783088E-09
   46.14000     -3.4151020E-09
   46.20000     -3.2283902E-09
   46.26000     -3.0230924E-09
   46.32000     -2.8066838E-09
   46.38000     -2.5857145E-09
   46.44000     -2.3625730E-09
   46.50000     -2.1338069E-09
   46.56000     -1.8908604E-09
   46.62000     -1.6231482E-09
   46.68000     -1.3223801E-09
   46.74000     -9.8640718E-10
   46.80000     -6.2097283E-10
   46.86000     -2.3858152E-10
   46.92000      1.4510697E-10
   46.98000      5.1595289E-10
   47.04000      8.6531088E-10
   47.10000      1.1919227E-09
   47.16000      1.5012449E-09
   47.22000      1.8026979E-09
   47.28000      2.1059627E-09
   47.34000      2.4175775E-09
   47.40000      2.7387648E-09
   47.46000      3.0648972E-09
   47.52000      3.3865084E-09
   47.58000      3.6914429E-09
   47.64000      3.9675898E-09
   47.70000      4.2056372E-09
   47.76000      4.4012824E-09
   47.82000      4.5563762E-09
   47.88000      4.6785860E-09
   47.94000      4.7794368E-09
   48.00000      4.8710032E-09
   48.06000      4.9620801E-09
   48.12000      5.0550022E-09
   48.18000      5.1443521E-09
   48.24000      5.2182592E-09
   48.30000      5.2621463E-09
   48.36000      5.2637708E-09
   48.42000      5.2177915E-09
   48.48000      5.1281583E-09
   48.54000      5.0073732E-09
   48.60000      4.8728728E-09
   48.66000      4.7418331E-09
   48.72000      4.6262350E-09
   48.78000      4.5298294E-09
   48.84000      4.4478674E-09
   48.90000      4.3694994E-09
   48.96000      4.2819326E-09
   49.02000      4.1750110E-09
   49.08000      4.0448387E-09
   49.14000      3.8953716E-09
   49.20000      3.7374503E-09
   49.26000      3.5854781E-09
   49.32000      3.4527265E-09
   49.38000      3.3468406E-09
   49.44000      3.2672138E-09
   49.50000      3.2053429E-09
   49.56000      3.1481679E-09
   49.62000      3.0831584E-09
   49.68000      3.0031340E-09
   49.74000      2.9088827E-09
   49.80000      2.8085743E-09
   49.86000      2.7143452E-09
   49.92000      2.6375582E-09
   49.98000      2.5846518E-09
   50.04000      2.5550484E-09
   50.10000      2.5416249E-09
   50.16000      2.5332614E-09
   50.22000      2.5184170E-09
   50.28000      2.4886155E-09
   50.34000      2.4410365E-09
   50.40000      2.3797677E-09
   50.46000      2.3155524E-09
   50.52000      2.2640225E-09
   50.58000      2.2425986E-09
   50.64000      2.2665654E-09
   50.70000      2.3452076E-09
   50.76000      2.4791662E-09
   50.82000      2.6600564E-09
   50.88000      2.8728129E-09
   50.94000      3.1003098E-09
   51.00000      3.3289005E-09
   51.06000      3.5530485E-09
   51.12000      3.7774313E-09
   51.18000      4.0157788E-09
   51.24000      4.2868931E-09
   51.30000      4.6093152E-09
   51.36000      4.9965134E-09
   51.42000      5.4541660E-09
   51.48000      5.9802479E-09
   51.54000      6.5676433E-09
   51.60000      7.2082811E-09
   51.66000      7.8974667E-09
   51.72000      8.6371701E-09
   51.78000      9.4373904E-09
   51.84000      1.0315119E-08
   51.90000      1.1291054E-08
   51.96000      1.2384861E-08
   52.02000      1.3610379E-08
   52.08000      1.4972509E-08
   52.14000      1.6467100E-08
   52.20000      1.8084114E-08
   52.26000      1.9813010E-08
   52.32000      2.1648157E-08
   52.38000      2.3592145E-08
   52.44000      2.5655723E-08
   52.50000      2.7854590E-08
   52.56000      3.0204589E-08
   52.62000      3.2717043E-08
   52.68000      3.5395466E-08
   52.74000      3.8233942E-08
   52.80000      4.1216737E-08
   52.86000      4.4318920E-08
   52.92000      4.7508088E-08
   52.98000      5.0747431E-08
   53.04000      5.3999830E-08
   53.10000      5.7231766E-08
   53.16000      6.0415140E-08
   53.22000      6.3525540E-08
   53.28000      6.6537162E-08
   53.34000      6.9416082E-08
   53.40000      7.2114922E-08
   53.46000      7.4570998E-08
   53.52000      7.6708588E-08
   53.58000      7.8443591E-08
   53.64000      7.9688341E-08
   53.70000      8.0354745E-08
   53.76000      8.0355179E-08
   53.82000      7.9602017E-08
   53.88000      7.8006998E-08
   53.94000      7.5480685E-08
   54.00000      7.1931801E-08
   54.06000      6.7266093E-08
   54.12000      6.1384995E-08
   54.18000      5.4185168E-08
   54.24000      4.5560373E-08
   54.30000      3.5405879E-08
   54.36000      2.3624382E-08
   54.42000      1.0131152E-08
   54.48000     -5.1434399E-09
   54.54000     -2.2254460E-08
   54.60000     -4.1244796E-08
   54.66000     -6.2147372E-08
   54.72000     -8.4985707E-08
   54.78000     -1.0977240E-07
   54.84000     -1.3650657E-07
   54.90000     -1.6517114E-07
   54.96000     -1.9573065E-07
   55.02000     -2.2812922E-07
   55.08000     -2.6228855E-07
   55.14000     -2.9810596E-07
   55.20000     -3.3545385E-07
   55.26000     -3.7418062E-07
   55.32000     -4.1411363E-07
   55.38000     -4.5506300E-07
   55.44000     -4.9682512E-07
   55.50000     -5.3918376E-07
   55.56000     -5.8191006E-07