 -0.750000000       0.00000000    
 -0.689999998       0.00000000    
 -0.629999995       0.00000000    
 -0.569999993       0.00000000    
 -0.509999990       0.00000000    
 -0.449999988       1.11055106E-21
 -0.389999986      -1.43326166E-20
 -0.330000013      -1.90279445E-19
 -0.270000011      -1.00917462E-18
 -0.209999993      -3.32656329E-18
 -0.150000006      -7.48689692E-18
  -9.00000036E-02  -1.07434086E-17
  -2.99999993E-02  -3.44268435E-18
   2.99999993E-02   3.27990116E-17
   9.00000036E-02   1.18788536E-16
  0.150000006       2.57364555E-16
  0.209999993       3.99867393E-16
  0.270000011       4.14850877E-16
  0.330000013       9.10402129E-17
  0.389999986      -7.87180911E-16
  0.449999988      -2.27318232E-15
  0.509999990      -4.03620517E-15
  0.569999993      -5.19753181E-15
  0.629999995      -4.39879117E-15
  0.689999998      -2.59611522E-16
  0.750000000       7.76317301E-15
  0.810000002       1.83686345E-14
  0.870000005       2.77953269E-14
  0.930000007       3.02484105E-14
  0.990000010       1.97801963E-14
   1.04999995      -6.61810813E-15
   1.11000001      -4.58137997E-14
   1.16999996      -8.69347658E-14
   1.23000002      -1.12962862E-13
   1.28999996      -1.05997263E-13
   1.35000002      -5.48803285E-14
   1.40999997       3.77531394E-14
   1.47000003       1.52428688E-13
   1.52999997       2.55999378E-13
   1.59000003       3.10683689E-13
   1.64999998       2.85962904E-13
   1.71000004       1.69019245E-13
   1.76999998      -2.97705382E-14
   1.83000004      -2.77319861E-13
   1.88999999      -5.22869129E-13
   1.95000005      -7.05342252E-13
   2.00999999      -7.62084514E-13
   2.06999993      -6.40132858E-13
   2.13000011      -3.11726068E-13
   2.19000006       2.06857711E-13
   2.25000000       8.39164350E-13
   2.30999994       1.44557521E-12
   2.36999989       1.84356350E-12
   2.43000007       1.85399742E-12
   2.49000001       1.36391712E-12
   2.54999995       3.84491430E-13
   2.60999990      -9.21320637E-13
   2.67000008      -2.25949294E-12
   2.73000002      -3.27486410E-12
   2.78999996      -3.65109158E-12
   2.84999990      -3.20791766E-12
   2.91000009      -1.96248746E-12
   2.97000003      -1.34222725E-13
   3.02999997       1.90700862E-12
   3.08999991       3.73092529E-12
   3.15000010       4.94660216E-12
   3.21000004       5.28495867E-12
   3.26999998       4.64703970E-12
   3.32999992       3.11416041E-12
   3.39000010       9.26211256E-13
   3.45000005      -1.56109587E-12
   3.50999999      -3.93031354E-12
   3.56999993      -5.76188142E-12
   3.63000011      -6.69689608E-12
   3.69000006      -6.50082939E-12
   3.75000000      -5.12207637E-12
   3.80999994      -2.73283653E-12
   3.86999989       2.65141641E-13
   3.93000007       3.28614544E-12
   3.99000001       5.66287598E-12
   4.05000019       6.79198277E-12
   4.11000013       6.28818525E-12
   4.17000008       4.09964554E-12
   4.23000002       5.41409094E-13
   4.28999996      -3.77310162E-12
   4.34999990      -8.08754452E-12
   4.40999985      -1.16974069E-11
   4.46999979      -1.41207853E-11
   4.53000021      -1.51910429E-11
   4.59000015      -1.50476073E-11
   4.65000010      -1.40397095E-11
   4.71000004      -1.25882239E-11
   4.76999998      -1.10608762E-11
   4.82999992      -9.70314887E-12
   4.88999987      -8.63814142E-12
   4.94999981      -7.91609486E-12
   5.01000023      -7.57214343E-12
   5.07000017      -7.64855887E-12
   5.13000011      -8.15788322E-12
   5.19000006      -8.99900293E-12
   5.25000000      -9.87447624E-12
   5.30999994      -1.02752416E-11
   5.36999989      -9.58363250E-12
   5.42999983      -7.29634755E-12
   5.48999977      -3.30350742E-12
   5.55000019       1.89003479E-12
   5.61000013       7.11808217E-12
   5.67000008       1.07428857E-11
   5.73000002       1.10479932E-11
   5.78999996       6.71023783E-12
   5.84999990      -2.81205723E-12
   5.90999985      -1.71020281E-11
   5.96999979      -3.48525375E-11
   6.03000021      -5.41133596E-11
   6.09000015      -7.25974558E-11
   6.15000010      -8.79463030E-11
   6.21000004      -9.79285056E-11
   6.26999998      -1.00621872E-10
   6.32999992      -9.46527440E-11
   6.38999987      -7.95192870E-11
   6.44999981      -5.59342364E-11
   6.51000023      -2.60475235E-11
   6.57000017       6.59862746E-12
   6.63000011       3.74549385E-11
   6.69000006       6.16407342E-11
   6.75000000       7.47489362E-11
   6.80999994       7.35705802E-11
   6.86999989       5.65592226E-11
   6.92999983       2.39407140E-11
   6.98999977      -2.25291296E-11
   7.05000019      -8.00810529E-11
   7.11000013      -1.45606222E-10
   7.17000008      -2.16359125E-10
   7.23000002      -2.90566043E-10
   7.28999996      -3.67832542E-10
   7.34999990      -4.49277171E-10
   7.40999985      -5.37369649E-10
   7.46999979      -6.35513364E-10
   7.53000021      -7.47464035E-10
   7.59000015      -8.76698159E-10
   7.65000010      -1.02583819E-09
   7.71000004      -1.19620924E-09
   7.76999998      -1.38757261E-09
   7.82999992      -1.59805458E-09
   7.88999987      -1.82426907E-09
   7.94999981      -2.06159778E-09
   8.01000023      -2.30455344E-09
   8.06999969      -2.54711940E-09
   8.13000011      -2.78296675E-09
   8.18999958      -3.00550940E-09
   8.25000000      -3.20785465E-09
   8.31000042      -3.38278450E-09
   8.36999989      -3.52291618E-09
   8.43000031      -3.62111496E-09
   8.48999977      -3.67110808E-09
   8.55000019      -3.66813491E-09
   8.60999966      -3.60945696E-09
   8.67000008      -3.49461349E-09
   8.72999954      -3.32543237E-09
   8.78999996      -3.10589954E-09
   8.85000038      -2.84198043E-09
   8.90999985      -2.54142196E-09
   8.97000027      -2.21347274E-09
   9.02999973      -1.86842941E-09
   9.09000015      -1.51698110E-09
   9.14999962      -1.16944376E-09
   9.21000004      -8.35043368E-10
   9.27000046      -5.21404975E-10
   9.32999992      -2.34297692E-10
   9.39000034       2.24287377E-11
   9.44999981       2.46820869E-10
   9.51000023       4.38756254E-10
   9.56999969       5.99763794E-10
   9.63000011       7.32596706E-10
   9.68999958       8.40498837E-10
   9.75000000       9.26299037E-10
   9.81000042       9.91671079E-10
   9.86999989       1.03694875E-09
   9.93000031       1.06170406E-09
   9.98999977       1.06593667E-09
   10.0500002       1.05136866E-09
   10.1099997       1.02218789E-09
   10.1700001       9.84777371E-10
   10.2299995       9.46410728E-10
   10.2900000       9.13402465E-10
   10.3500004       8.89487761E-10
   10.4099998       8.75134187E-10
   10.4700003       8.68064787E-10
   10.5299997       8.64714023E-10
   10.5900002       8.61910876E-10
   10.6499996       8.57988625E-10
   10.7100000       8.52801108E-10
   10.7700005       8.46639259E-10
   10.8299999       8.38558778E-10
   10.8900003       8.24920354E-10
   10.9499998       7.98894229E-10
   11.0100002       7.51318785E-10
   11.0699997       6.72773837E-10
   11.1300001       5.56239166E-10
   11.1899996       3.99435041E-10
   11.2500000       2.05985409E-10
   11.3100004      -1.51003845E-11
   11.3699999      -2.51583171E-10
   11.4300003      -4.91179430E-10
   11.4899998      -7.24788063E-10
   11.5500002      -9.48716661E-10
   11.6099997      -1.16517018E-09
   11.6700001      -1.38084499E-09
   11.7299995      -1.60412306E-09
   11.7900000      -1.84185245E-09
   11.8500004      -2.09684337E-09
   11.9099998      -2.36694930E-09
   11.9700003      -2.64600719E-09
   12.0299997      -2.92623104E-09
   12.0900002      -3.20111559E-09
   12.1499996      -3.46774653E-09
   12.2100000      -3.72767861E-09
   12.2700005      -3.98614164E-09
   12.3299999      -4.25002034E-09
   12.3900003      -4.52552662E-09
   12.4499998      -4.81659601E-09
   12.5100002      -5.12464515E-09
   12.5699997      -5.44971579E-09
   12.6300001      -5.79235460E-09
   12.6899996      -6.15522611E-09
   12.7500000      -6.54356835E-09
   12.8100004      -6.96410973E-09
   12.8699999      -7.42278994E-09
   12.9300003      -7.92219534E-09
   12.9899998      -8.45978576E-09
   13.0500002      -9.02768260E-09
   13.1099997      -9.61412194E-09
   13.1700001      -1.02060307E-08
   13.2299995      -1.07917142E-08
   13.2900000      -1.13627285E-08
   13.3500004      -1.19144046E-08
   13.4099998      -1.24450725E-08
   13.4700003      -1.29545787E-08
   13.5299997      -1.34428300E-08
   13.5900002      -1.39089611E-08
   13.6499996      -1.43513441E-08
   13.7100000      -1.47682560E-08
   13.7700005      -1.51587525E-08
   13.8299999      -1.55232929E-08
   13.8900003      -1.58638205E-08
   13.9499998      -1.61832094E-08
   14.0100002      -1.64842451E-08
   14.0699997      -1.67684107E-08
   14.1300001      -1.70347789E-08
   14.1899996      -1.72793566E-08
   14.2500000      -1.74950792E-08
   14.3100004      -1.76725834E-08
   14.3699999      -1.78016677E-08
   14.4300003      -1.78731856E-08
   14.4899998      -1.78808861E-08
   14.5500002      -1.78227193E-08
   14.6099997      -1.77012183E-08
   14.6700001      -1.75228241E-08
   14.7299995      -1.72964185E-08
   14.7900000      -1.70314678E-08
   14.8500004      -1.67363901E-08
   14.9099998      -1.64175304E-08
   14.9700003      -1.60790012E-08
   15.0299997      -1.57232538E-08
   15.0900002      -1.53520769E-08
   15.1499996      -1.49676627E-08
   15.2100000      -1.45733745E-08
   15.2700005      -1.41739909E-08
   15.3299999      -1.37754146E-08
   15.3900003      -1.33839464E-08
   15.4499998      -1.30054136E-08
   15.5100002      -1.26444517E-08
   15.5699997      -1.23041950E-08
   15.6300001      -1.19864723E-08
   15.6899996      -1.16923564E-08
   15.7500000      -1.14227259E-08
   15.8100004      -1.11784342E-08
   15.8699999      -1.09598339E-08
   15.9300003      -1.07657243E-08
   15.9899998      -1.05921405E-08
   16.0499992      -1.04316005E-08
   16.1100006      -1.02733848E-08
   16.1700001      -1.01050235E-08
   16.2299995      -9.91474725E-09
   16.2900009      -9.69411929E-09
   16.3500004      -9.44001055E-09
   16.4099998      -9.15515486E-09
   16.4699993      -8.84702711E-09
   16.5300007      -8.52530935E-09
   16.5900002      -8.19867552E-09
   16.6499996      -7.87181431E-09
   16.7099991      -7.54357465E-09
   16.7700005      -7.20675120E-09
   16.8299999      -6.84962043E-09
   16.8899994      -6.45882858E-09
   16.9500008      -6.02292305E-09
   17.0100002      -5.53561996E-09
   17.0699997      -4.99804287E-09
   17.1299992      -4.41948211E-09
   17.1900005      -3.81668075E-09
   17.2500000      -3.21206239E-09
   17.3099995      -2.63150568E-09
   17.3700008      -2.10219109E-09
   17.4300003      -1.65074354E-09
   17.4899998      -1.30156264E-09
   17.5499992      -1.07506504E-09
   17.6100006      -9.85667326E-10
   17.6700001      -1.03965692E-09
   17.7299995      -1.23344546E-09
   17.7900009      -1.55284208E-09
   17.8500004      -1.97380712E-09
   17.9099998      -2.46470977E-09
   17.9699993      -2.98962211E-09
   18.0300007      -3.51187923E-09
   18.0900002      -3.99715061E-09
   18.1499996      -4.41557857E-09
   18.2099991      -4.74295003E-09
   18.2700005      -4.96116304E-09
   18.3299999      -5.05833730E-09
   18.3899994      -5.02876452E-09
   18.4500008      -4.87269913E-09
   18.5100002      -4.59584415E-09
   18.5699997      -4.20839497E-09
   18.6299992      -3.72366582E-09
   18.6900005      -3.15646420E-09
   18.7500000      -2.52150123E-09
   18.8099995      -1.83212190E-09
   18.8700008      -1.09954679E-09
   18.9300003      -3.32692152E-10
   18.9899998       4.61490623E-10
   19.0499992       1.27732980E-09
   19.1100006       2.10965156E-09
   19.1700001       2.95318592E-09
   19.2299995       3.80239840E-09
   19.2900009       4.65184380E-09
   19.3500004       5.49695001E-09
   19.4099998       6.33495700E-09
   19.4699993       7.16568183E-09
   19.5300007       7.99186584E-09
   19.5900002       8.81904327E-09
   19.6499996       9.65503055E-09
   19.7099991       1.05092548E-08
   19.7700005       1.13920171E-08
   19.8299999       1.23136976E-08
   19.8899994       1.32838034E-08
   19.9500008       1.43098857E-08
   20.0100002       1.53964468E-08
   20.0699997       1.65441758E-08
   20.1299992       1.77497768E-08
   20.1900005       1.90064693E-08
   20.2500000       2.03048103E-08
   20.3099995       2.16333316E-08
   20.3700008       2.29784849E-08
   20.4300003       2.43238034E-08
   20.4899998       2.56486796E-08
   20.5499992       2.69276423E-08
   20.6100006       2.81309571E-08
   20.6700001       2.92269444E-08
   20.7299995       3.01856744E-08
   20.7900009       3.09830419E-08
   20.8500004       3.16038147E-08
   20.9099998       3.20427667E-08
   20.9699993       3.23034435E-08
   21.0300007       3.23951177E-08
   21.0900002       3.23290799E-08
   21.1499996       3.21155298E-08
   21.2099991       3.17620774E-08
   21.2700005       3.12741086E-08
   21.3299999       3.06566292E-08
   21.3899994       2.99165990E-08
   21.4500008       2.90648305E-08
   21.5100002       2.81165704E-08
   21.5699997       2.70905733E-08
   21.6299992       2.60069548E-08
   21.6900005       2.48845016E-08
   21.7500000       2.37382096E-08
   21.8099995       2.25776500E-08
   21.8700008       2.14064535E-08
   21.9300003       2.02228119E-08
   21.9899998       1.90207672E-08
   22.0499992       1.77919208E-08
   22.1100006       1.65272134E-08
   22.1700001       1.52185713E-08
   22.2299995       1.38601060E-08
   22.2900009       1.24487460E-08
   22.3500004       1.09842091E-08
   22.4099998       9.46847312E-09
   22.4699993       7.90509525E-09
   22.5300007       6.29879837E-09
   22.5900002       4.65565275E-09
   22.6499996       2.98376857E-09
   22.7099991       1.29406696E-09
   22.7700005      -3.99541678E-10
   22.8299999      -2.08110884E-09
   22.8899994      -3.73478359E-09
   22.9500008      -5.34759836E-09
   23.0100002      -6.91194613E-09
   23.0699997      -8.42680414E-09
   23.1299992      -9.89717019E-09
   23.1900005      -1.13318759E-08
   23.2500000      -1.27405144E-08
   23.3099995      -1.41304870E-08
   23.3700008      -1.55050177E-08
   23.4300003      -1.68625078E-08
   23.4899998      -1.81971398E-08
   23.5499992      -1.95001864E-08
   23.6100006      -2.07614939E-08
   23.6700001      -2.19706813E-08
   23.7299995      -2.31178650E-08
   23.7900009      -2.41940121E-08
   23.8500004      -2.51911487E-08
   23.9099998      -2.61026489E-08
   23.9699993      -2.69237486E-08
   24.0300007      -2.76520993E-08
   24.0900002      -2.82881221E-08
   24.1499996      -2.88348350E-08
   24.2099991      -2.92969737E-08
   24.2700005      -2.96795726E-08
   24.3299999      -2.99864737E-08
   24.3899994      -3.02193293E-08
   24.4500008      -3.03775778E-08
   24.5100002      -3.04593506E-08
   24.5699997      -3.04629530E-08
   24.6299992      -3.03882182E-08
   24.6900005      -3.02370502E-08
   24.7500000      -3.00130090E-08
   24.8099995      -2.97199474E-08
   24.8700008      -2.93602707E-08
   24.9300003      -2.89334263E-08
   24.9899998      -2.84351636E-08
   25.0499992      -2.78578831E-08
   25.1100006      -2.71921721E-08
   25.1700001      -2.64293369E-08
   25.2299995      -2.55644022E-08
   25.2900009      -2.45986644E-08
   25.3500004      -2.35407533E-08
   25.4099998      -2.24053203E-08
   25.4699993      -2.12091997E-08
   25.5300007      -1.99659080E-08
   25.5900002      -1.86803142E-08
   25.6499996      -1.73456804E-08
   25.7099991      -1.59447016E-08
   25.7700005      -1.44548125E-08
   25.8299999      -1.28564235E-08
   25.8899994      -1.11414931E-08
   25.9500008      -9.31960020E-09
   26.0100002      -7.41938111E-09
   26.0699997      -5.48471668E-09
   26.1299992      -3.56665564E-09
   26.1900005      -1.71336934E-09
   26.2500000       3.90068394E-11
   26.3099995       1.67197256E-09
   26.3700008       3.18497717E-09
   26.4300003       4.59021043E-09
   26.4899998       5.90336979E-09
   26.5499992       7.13340587E-09
   26.6100006       8.27492652E-09
   26.6700001       9.30635125E-09
   26.7299995       1.01950048E-08
   26.7900009       1.09076925E-08
   26.8500004       1.14229213E-08
   26.9099998       1.17399086E-08
   26.9699993       1.18804397E-08
   27.0300007       1.18822081E-08
   27.0900002       1.17855894E-08
   27.1499996       1.16183481E-08
   27.2099991       1.13837597E-08
   27.2700005       1.10564624E-08
   27.3299999       1.05878319E-08
   27.3899994       9.91943594E-09
   27.4500008       9.00053365E-09
   27.5100002       7.80425768E-09
   27.5699997       6.33736086E-09
   27.6299992       4.64026284E-09
   27.6900005       2.77702505E-09
   27.7500000       8.18042190E-10
   27.8099995      -1.17916310E-09
   27.8700008      -3.18475202E-09
   27.9300003      -5.20184029E-09
   27.9899998      -7.26023419E-09
   28.0499992      -9.40072997E-09
   28.1100006      -1.16555769E-08
   28.1700001      -1.40322669E-08
   28.2299995      -1.65065810E-08
   28.2900009      -1.90274427E-08
   28.3500004      -2.15317080E-08
   28.4099998      -2.39634215E-08
   28.4699993      -2.62905715E-08
   28.5300007      -2.85133410E-08
   28.5900002      -3.06607788E-08
   28.6499996      -3.27768319E-08
   28.7099991      -3.49000828E-08
   28.7700005      -3.70437974E-08
   28.8299999      -3.91829218E-08
   28.8899994      -4.12528429E-08
   28.9500008      -4.31610303E-08
   29.0100002      -4.48086688E-08
   29.0699997      -4.61156944E-08
   29.1299992      -4.70411443E-08
   29.1900005      -4.75918682E-08
   29.2500000      -4.78163962E-08
   29.3099995      -4.77857540E-08
   29.3700008      -4.75676103E-08
   29.4300003      -4.72024659E-08
   29.4899998      -4.66898626E-08
   29.5499992      -4.59889300E-08
   29.6100006      -4.50328805E-08
   29.6700001      -4.37522942E-08
   29.7299995      -4.20994581E-08
   29.7900009      -4.00660021E-08
   29.8500004      -3.76881850E-08
   29.9099998      -3.50381839E-08
   29.9699993      -3.22041487E-08
   30.0300007      -2.92651521E-08
   30.0900002      -2.62692605E-08
   30.1499996      -2.32220092E-08
   30.2099991      -2.00896260E-08
   30.2700005      -1.68164451E-08
   30.3299999      -1.33510207E-08
   30.3899994      -9.67204183E-09
   30.4500008      -5.80484771E-09
   30.5100002      -1.82234083E-09
   30.5699997       2.17054885E-09
   30.6299992       6.06384232E-09
   30.6900005       9.77189440E-09
   30.7500000       1.32552778E-08
   30.8099995       1.65278582E-08
   30.8700008       1.96467909E-08
   30.9300003       2.26888641E-08
   30.9899998       2.57209241E-08
   31.0499992       2.87739752E-08
   31.1100006       3.18291313E-08
   31.1700001       3.48198199E-08
   31.2299995       3.76492153E-08
   31.2900009       4.02171985E-08
   31.3500004       4.24478763E-08
   31.4099998       4.43087842E-08
   31.4699993       4.58156677E-08
   31.5300007       4.70218104E-08
   31.5900002       4.79960889E-08
   31.6499996       4.87975669E-08
   31.7099991       4.94554229E-08
   31.7700005       4.99605299E-08
   31.8299999       5.02708239E-08
   31.8899994       5.03277349E-08
   31.9500008       5.00775030E-08
   32.0099983       4.94900370E-08
   32.0699997       4.85693263E-08
   32.1300011       4.73525148E-08
   32.1899986       4.58983891E-08
   32.2500000       4.42693846E-08
   32.3100014       4.25130047E-08
   32.3699989       4.06484943E-08
   32.4300003       3.86629644E-08
   32.4900017       3.65181485E-08
   32.5499992       3.41655877E-08
   32.6100006       3.15653459E-08
   32.6699982       2.87023596E-08
   32.7299995       2.55952557E-08
   32.7900009       2.22950955E-08
   32.8499985       1.88748199E-08
   32.9099998       1.54130539E-08
   32.9700012       1.19774795E-08
   33.0299988       8.61272831E-09
   33.0900002       5.33596012E-09
   33.1500015       2.14071383E-09
   33.2099991      -9.92880889E-10
   33.2700005      -4.08510026E-09
   33.3300018      -7.14489401E-09
   33.3899994      -1.01628110E-08
   33.4500008      -1.31103981E-08
   33.5099983      -1.59459397E-08
   33.5699997      -1.86245543E-08
   33.6300011      -2.11094893E-08
   33.6899986      -2.33811441E-08
   33.7500000      -2.54410875E-08
   33.8100014      -2.73098237E-08
   33.8699989      -2.90189064E-08
   33.9300003      -3.05996259E-08
   33.9900017      -3.20715507E-08
   34.0499992      -3.34344001E-08
   34.1100006      -3.46658027E-08
   34.1699982      -3.57260674E-08
   34.2299995      -3.65688386E-08
   34.2900009      -3.71547628E-08
   34.3499985      -3.74639377E-08
   34.4099998      -3.75030602E-08
   34.4700012      -3.73046340E-08
   34.5299988      -3.69181663E-08
   34.5900002      -3.63960631E-08
   34.6500015      -3.57786796E-08
   34.7099991      -3.50835414E-08
   34.7700005      -3.43020794E-08
   34.8300018      -3.34047350E-08
   34.8899994      -3.23524176E-08
   34.9500008      -3.11104280E-08
   35.0099983      -2.96604270E-08
   35.0699997      -2.80070918E-08
   35.1300011      -2.61778332E-08
   35.1899986      -2.42162326E-08
   35.2500000      -2.21714931E-08
   35.3100014      -2.00872794E-08
   35.3699989      -1.79932993E-08
   35.4300003      -1.59020850E-08
   35.4900017      -1.38118432E-08
   35.5499992      -1.17142456E-08
   35.6100006      -9.60437507E-09
   35.6699982      -7.48933981E-09
   35.7299995      -5.39253842E-09
   35.7900009      -3.35219585E-09
   35.8499985      -1.41484580E-09
   35.9099998       3.73867964E-10
   35.9700012       1.97803018E-09
   36.0299988       3.37737371E-09
   36.0900002       4.56897098E-09
   36.1500015       5.56476820E-09
   36.2099991       6.38605036E-09
   36.2700005       7.05635994E-09
   36.3300018       7.59445662E-09
   36.3899994       8.00874300E-09
   36.4500008       8.29437141E-09
   36.5099983       8.43381454E-09
   36.5699997       8.40094661E-09
   36.6300011       8.16777046E-09
   36.6899986       7.71201858E-09
   36.7500000       7.02346581E-09
   36.8100014       6.10714723E-09
   36.8699989       4.98264985E-09
   36.9300003       3.67986086E-09
   36.9900017       2.23254371E-09
   37.0499992       6.71538769E-10
   37.1100006      -9.80733383E-10
   37.1699982      -2.71325074E-09
   37.2299995      -4.52623672E-09
   37.2900009      -6.42791465E-09
   37.3499985      -8.42891534E-09
   37.4099998      -1.05357802E-08
   37.4700012      -1.27455104E-08
   37.5299988      -1.50430424E-08
   37.5900002      -1.74027388E-08
   37.6500015      -1.97936600E-08
   37.7099991      -2.21868000E-08
   37.7700005      -2.45617269E-08
   37.8300018      -2.69101079E-08
   37.8899994      -2.92347888E-08
   37.9500008      -3.15447615E-08
   38.0099983      -3.38477761E-08
   38.0699997      -3.61429926E-08
   38.1300011      -3.84160010E-08
   38.1899986      -4.06376444E-08
   38.2500000      -4.27670344E-08
   38.3100014      -4.47580639E-08
   38.3699989      -4.65679513E-08
   38.4300003      -4.81657096E-08
   38.4900017      -4.95380910E-08
   38.5499992      -5.06911277E-08
   38.6100006      -5.16462855E-08
   38.6699982      -5.24319397E-08
   38.7299995      -5.30726574E-08
   38.7900009      -5.35796758E-08
   38.8499985      -5.39459677E-08
   38.9099998      -5.41477263E-08
   38.9700012      -5.41519363E-08
   39.0299988      -5.39274794E-08
   39.0900002      -5.34560982E-08
   39.1500015      -5.27394164E-08
   39.2099991      -5.17998124E-08
   39.2700005      -5.06747355E-08
   39.3300018      -4.94063777E-08
   39.3899994      -4.80299640E-08
   39.4500008      -4.65644270E-08
   39.5099983      -4.50086333E-08
   39.5699997      -4.33446878E-08
   39.6300011      -4.15475796E-08
   39.6899986      -3.95983442E-08
   39.7500000      -3.74963776E-08
   39.8100014      -3.52665097E-08
   39.8699989      -3.29579812E-08
   39.9300003      -3.06349008E-08
   39.9900017      -2.83609065E-08
   40.0499992      -2.61827058E-08
   40.1100006      -2.41178792E-08
   40.1699982      -2.21510064E-08
   40.2299995      -2.02395363E-08
   40.2900009      -1.83277233E-08
   40.3499985      -1.63642664E-08
   40.4099998      -1.43181884E-08
   40.4700012      -1.21879262E-08
   40.5299988      -1.00007949E-08
   40.5900002      -7.80300269E-09
   40.6500015      -5.64349634E-09
   40.7099991      -3.55700669E-09
   40.7700005      -1.55202262E-09
   40.8300018       3.92122862E-10
   40.8899994       2.31797626E-09
   40.9500008       4.27498170E-09
   41.0099983       6.30206642E-09
   41.0699997       8.41397618E-09
   41.1300011       1.05962341E-08
   41.1899986       1.28104540E-08
   41.2500000       1.50080339E-08
   41.3100014       1.71472792E-08
   41.3699989       1.92078513E-08
   41.4300003       2.11976126E-08
   41.4900017       2.31495854E-08
   41.5499992       2.51103511E-08
   41.6100006       2.71239635E-08
   41.6699982       2.92168387E-08
   41.7299995       3.13885664E-08
   41.7900009       3.36114425E-08
   41.8499985       3.58384789E-08
   41.9099998       3.80170846E-08
   41.9700012       4.01036431E-08
   42.0299988       4.20743014E-08
   42.0900002       4.39285586E-08
   42.1500015       4.56848177E-08
   42.2099991       4.73696353E-08
   42.2700005       4.90044982E-08
   42.3300018       5.05947106E-08
   42.3899994       5.21240544E-08
   42.4500008       5.35569740E-08
   42.5099983       5.48473622E-08
   42.5699997       5.59508031E-08
   42.6300011       5.68360612E-08
   42.6899986       5.74918744E-08
   42.7500000       5.79270605E-08
   42.8100014       5.81642858E-08
   42.8699989       5.82301958E-08
   42.9300003       5.81455737E-08
   42.9900017       5.79191273E-08
   43.0499992       5.75465862E-08
   43.1100006       5.70149368E-08
   43.1699982       5.63095455E-08
   43.2299995       5.54214168E-08
   43.2900009       5.43520855E-08
   43.3499985       5.31149240E-08
   43.4099998       5.17331209E-08
   43.4700012       5.02354176E-08
   43.5299988       4.86512164E-08
   43.5900002       4.70064094E-08
   43.6500015       4.53208457E-08
   43.7099991       4.36077485E-08
   43.7700005       4.18750332E-08
   43.8300018       4.01278903E-08
   43.8899994       3.83719048E-08
   43.9500008       3.66155355E-08
   44.0099983       3.48713698E-08
   44.0699997       3.31558958E-08
   44.1300011       3.14880282E-08
   44.1899986       2.98872784E-08
   44.2500000       2.83720283E-08
   44.3100014       2.69580784E-08
   44.3699989       2.56571795E-08
   44.4300003       2.44751366E-08
   44.4900017       2.34096849E-08
   44.5499992       2.24490062E-08
   44.6100006       2.15722409E-08
   44.6699982       2.07528821E-08
   44.7299995       1.99647854E-08
   44.7900009       1.91890628E-08
   44.8499985       1.84192022E-08
   44.9099998       1.76622077E-08
   44.9700012       1.69349494E-08
   45.0299988       1.62569727E-08
   45.0900002       1.56424989E-08
   45.1500015       1.50946438E-08
   45.2099991       1.46038373E-08
   45.2700005       1.41508103E-08
   45.3300018       1.37127820E-08
   45.3899994       1.32706353E-08
   45.4500008       1.28147857E-08
   45.5099983       1.23480373E-08
   45.5699997       1.18845946E-08
   45.6300011       1.14453371E-08
   45.6899986       1.10504219E-08
   45.7500000       1.07112106E-08
   45.8100014       1.04240847E-08
   45.8699989       1.01686615E-08
   45.9300003       9.91180737E-09
   45.9900017       9.61689750E-09
   46.0499992       9.25561761E-09
   46.1100006       8.81818885E-09
   46.1699982       8.31810354E-09
   46.2299995       7.78926967E-09
   46.2900009       7.27630756E-09
   46.3499985       6.82133994E-09
   46.4099998       6.45189013E-09
   46.4700012       6.17395957E-09
   46.5299988       5.97230665E-09
   46.5900002       5.81734172E-09
   46.6500015       5.67589309E-09
   46.7099991       5.52213519E-09
   46.7700005       5.34525002E-09
   46.8300018       5.15170973E-09
   46.8899994       4.96183850E-09
   46.9500008       4.80204054E-09
   47.0099983       4.69536499E-09
   47.0699997       4.65356464E-09
   47.1300011       4.67338257E-09
   47.1899986       4.73842610E-09
   47.2500000       4.82606577E-09
   47.3100014       4.91689756E-09
   47.3699989       5.00323338E-09
   47.4300003       5.09325959E-09
   47.4900017       5.20902921E-09
   47.5499992       5.37874500E-09
   47.6100006       5.62595792E-09
   47.6699982       5.95947958E-09
   47.7299995       6.36759623E-09
   47.7900009       6.81866519E-09
   47.8499985       7.26800531E-09
   47.9099998       7.66895614E-09
   47.9700012       7.98471955E-09
   48.0299988       8.19739210E-09
   48.0900002       8.31148306E-09
   48.1500015       8.35083735E-09
   48.2099991       8.34983016E-09
   48.2700005       8.34144487E-09
   48.3300018       8.34585467E-09
   48.3899994       8.36306491E-09
   48.4500008       8.37192893E-09
   48.5099983       8.33574010E-09
   48.5699997       8.21236856E-09
   48.6300011       7.96538124E-09
   48.6899986       7.57238183E-09
   48.7500000       7.02806213E-09
   48.8100014       6.34166897E-09
   48.8699989       5.53068302E-09
   48.9300003       4.61376404E-09
   48.9900017       3.60574925E-09
   49.0499992       2.51615195E-09
   49.1100006       1.35077782E-09
   49.1699982       1.14790760E-10
   49.2299995      -1.18469801E-09
   49.2900009      -2.53769561E-09
   49.3499985      -3.93202493E-09
   49.4099998      -5.35470690E-09
   49.4700012      -6.79290357E-09
   49.5299988      -8.23384205E-09
   49.5900002      -9.66399405E-09
   49.6500015      -1.10683454E-08
   49.7099991      -1.24306041E-08
   49.7700005      -1.37346277E-08
   49.8300018      -1.49666697E-08
   49.8899994      -1.61175819E-08
   49.9500008      -1.71841741E-08
   50.0099983      -1.81692226E-08
   50.0699997      -1.90801810E-08
   50.1300011      -1.99268619E-08
   50.1899986      -2.07185202E-08
   50.2500000      -2.14608011E-08
   50.3100014      -2.21532126E-08
   50.3699989      -2.27878889E-08
   50.4300003      -2.33505020E-08
   50.4900017      -2.38236115E-08
   50.5499992      -2.41918787E-08
   50.6100006      -2.44474485E-08