  -2.400000      0.0000000E+00
  -2.340000      0.0000000E+00
  -2.280000      0.0000000E+00
  -2.220000      0.0000000E+00
  -2.160000      0.0000000E+00
  -2.100000      3.2407034E-19
  -2.040000      2.4519879E-18
  -1.980000      9.1612577E-18
  -1.920000      2.1409074E-17
  -1.860000      3.1005585E-17
  -1.800000      1.3980732E-17
  -1.740000     -6.4498435E-17
  -1.680000     -2.2498545E-16
  -1.620000     -4.3477476E-16
  -1.560000     -5.8221794E-16
  -1.500000     -4.9910712E-16
  -1.440000     -4.3762867E-17
  -1.380000      7.8988866E-16
  -1.320000      1.8120205E-15
  -1.260000      2.6910440E-15
  -1.200000      3.1148546E-15
  -1.140000      2.9540524E-15
  -1.080000      2.2788388E-15
  -1.020000      1.1569214E-15
 -0.9600000     -6.6061757E-16
 -0.9000000     -3.8864993E-15
 -0.8400000     -9.3846600E-15
 -0.7800000     -1.7330948E-14
 -0.7200000     -2.6171438E-14
 -0.6600000     -3.2037093E-14
 -0.6000000     -2.9297054E-14
 -0.5400000     -1.2524462E-14
 -0.4800000      2.0571361E-14
 -0.4200000      6.6389297E-14
 -0.3600000      1.1428082E-13
 -0.3000000      1.4804440E-13
 -0.2400000      1.5015574E-13
 -0.1800000      1.0763715E-13
 -0.1200000      1.7600875E-14
 -5.9999999E-02 -1.0960952E-13
  0.0000000E+00 -2.5097703E-13
  5.9999999E-02 -3.7500621E-13
  0.1200000     -4.4818801E-13
  0.1800000     -4.4178504E-13
  0.2400000     -3.3742711E-13
  0.3000000     -1.3113961E-13
  0.3600000      1.6361543E-13
  0.4200000      5.1339293E-13
  0.4800000      8.6356942E-13
  0.5400000      1.1410950E-12
  0.6000000      1.2643176E-12
  0.6600000      1.1609969E-12
  0.7200000      7.9126202E-13
  0.7800000      1.6765612E-13
  0.8400000     -6.3725631E-13
  0.9000000     -1.5017096E-12
  0.9600000     -2.2818713E-12
   1.020000     -2.8444421E-12
   1.080000     -3.0899569E-12
   1.140000     -2.9565671E-12
   1.200000     -2.4059474E-12
   1.260000     -1.4059782E-12
   1.320000      6.9295447E-14
   1.380000      2.0086959E-12
   1.440000      4.3062312E-12
   1.500000      6.7017138E-12
   1.560000      8.7564444E-12
   1.620000      9.8951012E-12
   1.680000      9.5219345E-12
   1.740000      7.1881437E-12
   1.800000      2.7620011E-12
   1.860000     -3.4541749E-12
   1.920000     -1.0701828E-11
   1.980000     -1.7850409E-11
   2.040000     -2.3566768E-11
   2.100000     -2.6525480E-11
   2.160000     -2.5610784E-11
   2.220000     -2.0072798E-11
   2.280000     -9.6220991E-12
   2.340000      5.5334331E-12
   2.400000      2.4696037E-11
   2.460000      4.6719136E-11
   2.520000      7.0083030E-11
   2.580000      9.3016518E-11
   2.640000      1.1367583E-10
   2.700000      1.3037720E-10
   2.760000      1.4185458E-10
   2.820000      1.4749028E-10
   2.880000      1.4745787E-10
   2.940000      1.4273258E-10
   3.000000      1.3495971E-10
   3.060000      1.2621205E-10
   3.120000      1.1869429E-10
   3.180000      1.1445449E-10
   3.240000      1.1514140E-10
   3.300000      1.2181771E-10
   3.360000      1.3482344E-10
   3.420000      1.5368812E-10
   3.480000      1.7711077E-10
   3.540000      2.0304125E-10
   3.600000      2.2888752E-10
   3.660000      2.5183799E-10
   3.720000      2.6924099E-10
   3.780000      2.7895342E-10
   3.840000      2.7957986E-10
   3.900000      2.7056798E-10
   3.960000      2.5218713E-10
   4.020000      2.2545502E-10
   4.080000      1.9207051E-10
   4.140000      1.5436113E-10
   4.200000      1.1519345E-10
   4.260000      7.7761443E-11
   4.320000      4.5193124E-11
   4.380000      1.9994976E-11
   4.440000      3.4530805E-12
   4.500000     -4.8196946E-12
   4.560000     -7.0018869E-12
   4.620000     -6.7400326E-12
   4.680000     -8.4162928E-12
   4.740000     -1.6181547E-11
   4.800000     -3.3015975E-11
   4.860000     -6.0073377E-11
   4.920000     -9.6464864E-11
   4.980000     -1.3948374E-10
   5.040000     -1.8513470E-10
   5.100000     -2.2876583E-10
   5.160000     -2.6564065E-10
   5.220000     -2.9139752E-10
   5.280000     -3.0245628E-10
   5.340000     -2.9646999E-10
   5.400000     -2.7284933E-10
   5.460000     -2.3324953E-10
   5.520000     -1.8179289E-10
   5.580000     -1.2480206E-10
   5.640000     -6.9970051E-11
   5.700000     -2.5129343E-11
   5.760000      3.0243106E-12
   5.820000      9.8749958E-12
   5.880000     -6.7124474E-12
   5.940000     -4.6466900E-11
   6.000000     -1.0698530E-10
   6.060000     -1.8392603E-10
   6.120000     -2.7104533E-10
   6.180000     -3.6028280E-10
   6.240000     -4.4224588E-10
   6.300000     -5.0732085E-10
   6.360000     -5.4727728E-10
   6.420000     -5.5685256E-10
   6.480000     -5.3466592E-10
   6.540000     -4.8304483E-10
   6.600000     -4.0687301E-10
   6.660000     -3.1208000E-10
   6.720000     -2.0458099E-10
   6.780000     -9.0181529E-11
   6.840000      2.4657202E-11
   6.900000      1.3189061E-10
   6.960000      2.2169214E-10
   7.020000      2.8352079E-10
   7.080000      3.0827513E-10
   7.140000      2.9067829E-10
   7.200000      2.3080982E-10
   7.260000      1.3405876E-10
   7.320000      9.5199569E-12
   7.380000     -1.3242615E-10
   7.440000     -2.8231453E-10
   7.500000     -4.3279966E-10
   7.560000     -5.7870092E-10
   7.620000     -7.1631900E-10
   7.680000     -8.4268842E-10
   7.740000     -9.5523023E-10
   7.800000     -1.0518321E-09
   7.860000     -1.1310205E-09
   7.920000     -1.1918502E-09
   7.980000     -1.2334066E-09
   8.040000     -1.2541839E-09
   8.100000     -1.2517934E-09
   8.160000     -1.2233321E-09
   8.220000     -1.1663740E-09
   8.280000     -1.0801764E-09
   8.340000     -9.6654740E-10
   8.400000     -8.2998042E-10
   8.460000     -6.7702127E-10
   8.520000     -5.1516336E-10
   8.580000     -3.5171077E-10
   8.640000     -1.9295382E-10
   8.700000     -4.3785368E-11
   8.760000      9.2308446E-11
   8.820000      2.1303409E-10
   8.880000      3.1699182E-10
   8.940000      4.0339992E-10
   9.000000      4.7195392E-10
   9.060000      5.2294646E-10
   9.120000      5.5772775E-10
   9.180000      5.7942295E-10
   9.240000      5.9359634E-10
   9.300000      6.0839594E-10
   9.360000      6.3376865E-10
   9.420000      6.7966172E-10
   9.480000      7.5358758E-10
   9.540000      8.5831731E-10
   9.600000      9.9055797E-10
   9.660000      1.1411859E-09
   9.720000      1.2970678E-09
   9.780000      1.4439320E-09
   9.840000      1.5693977E-09
   9.900000      1.6652526E-09
   9.960000      1.7283638E-09
   10.02000      1.7600813E-09
   10.08000      1.7644781E-09
   10.14000      1.7461275E-09
   10.20000      1.7082531E-09
   10.26000      1.6519576E-09
   10.32000      1.5768307E-09
   10.38000      1.4826761E-09
   10.44000      1.3715468E-09
   10.50000      1.2490193E-09
   10.56000      1.1238384E-09
   10.62000      1.0057544E-09
   10.68000      9.0225954E-10
   10.74000      8.1558610E-10
   10.80000      7.4137302E-10
   10.86000      6.6972516E-10
   10.92000      5.8828559E-10
   10.98000      4.8597393E-10
   11.04000      3.5575137E-10
   11.10000      1.9532934E-10
   11.16000      5.8578589E-12
   11.22000     -2.1031739E-10
   11.28000     -4.5133969E-10
   11.34000     -7.1594897E-10
   11.40000     -1.0020442E-09
   11.46000     -1.3047385E-09
   11.52000     -1.6153109E-09
   11.58000     -1.9219912E-09
   11.64000     -2.2124733E-09
   11.70000     -2.4770550E-09
   11.76000     -2.7108902E-09
   11.82000     -2.9142397E-09
   11.88000     -3.0905627E-09
   11.94000     -3.2433101E-09
   12.00000     -3.3728562E-09
   12.06000     -3.4748857E-09
   12.12000     -3.5408720E-09
   12.18000     -3.5604011E-09
   12.24000     -3.5243837E-09
   12.30000     -3.4279564E-09
   12.36000     -3.2720830E-09
   12.42000     -3.0634379E-09
   12.48000     -2.8127696E-09
   12.54000     -2.5324438E-09
   12.60000     -2.2340318E-09
   12.66000     -1.9266662E-09
   12.72000     -1.6164943E-09
   12.78000     -1.3071231E-09
   12.84000     -1.0006325E-09
   12.90000     -6.9865219E-10
   12.96000     -4.0315321E-10
   13.02000     -1.1682309E-10
   13.08000      1.5691851E-10
   13.14000      4.1418236E-10
   13.20000      6.5112205E-10
   13.26000      8.6469998E-10
   13.32000      1.0536134E-09
   13.38000      1.2190947E-09
   13.44000      1.3651551E-09
   13.50000      1.4979123E-09
   13.56000      1.6239683E-09
   13.62000      1.7482612E-09
   13.68000      1.8721489E-09
   13.74000      1.9924731E-09
   13.80000      2.1019964E-09
   13.86000      2.1910673E-09
   13.92000      2.2499340E-09
   13.98000      2.2710094E-09
   14.04000      2.2505393E-09
   14.10000      2.1894320E-09
   14.16000      2.0932256E-09
   14.22000      1.9712771E-09
   14.28000      1.8353004E-09
   14.34000      1.6974916E-09
   14.40000      1.5686685E-09
   14.46000      1.4569885E-09
   14.52000      1.3676962E-09
   14.58000      1.3039342E-09
   14.64000      1.2680749E-09
   14.70000      1.2626642E-09
   14.76000      1.2901937E-09
   14.82000      1.3515458E-09
   14.88000      1.4437899E-09
   14.94000      1.5585341E-09
   15.00000      1.6819228E-09
   15.06000      1.7966453E-09
   15.12000      1.8853665E-09
   15.18000      1.9343358E-09
   15.24000      1.9359030E-09
   15.30000      1.8892135E-09
   15.36000      1.7991164E-09
   15.42000      1.6739093E-09
   15.48000      1.5227395E-09
   15.54000      1.3533835E-09
   15.60000      1.1708865E-09
   15.66000      9.7733532E-10
   15.72000      7.7280882E-10
   15.78000      5.5722810E-10
   15.84000      3.3242925E-10
   15.90000      1.0350152E-10
   15.96000     -1.2143790E-10
   16.02000     -3.3322781E-10
   16.08000     -5.2468846E-10
   16.14000     -6.9328954E-10
   16.20000     -8.4208701E-10
   16.26000     -9.7837827E-10
   16.32000     -1.1107262E-09
   16.38000     -1.2458660E-09
   16.44000     -1.3869956E-09
   16.50000     -1.5340406E-09
   16.56000     -1.6852653E-09
   16.62000     -1.8388486E-09
   16.68000     -1.9932229E-09
   16.74000     -2.1459661E-09
   16.80000     -2.2921463E-09
   16.86000     -2.4235134E-09
   16.92000     -2.5294793E-09
   16.98000     -2.5997728E-09
   17.04000     -2.6276334E-09
   17.10000     -2.6121065E-09
   17.16000     -2.5584994E-09
   17.22000     -2.4769944E-09
   17.28000     -2.3801714E-09
   17.34000     -2.2803930E-09
   17.40000     -2.1876698E-09
   17.46000     -2.1081792E-09
   17.52000     -2.0433721E-09
   17.58000     -1.9897279E-09
   17.64000     -1.9394026E-09
   17.70000     -1.8819877E-09
   17.76000     -1.8071984E-09
   17.82000     -1.7077731E-09
   17.88000     -1.5815625E-09
   17.94000     -1.4320184E-09
   18.00000     -1.2669537E-09
   18.06000     -1.0962014E-09
   18.12000     -9.2918589E-10
   18.18000     -7.7325568E-10
   18.24000     -6.3307587E-10
   18.30000     -5.1080379E-10
   18.36000     -4.0652096E-10
   18.42000     -3.1852998E-10
   18.48000     -2.4346467E-10
   18.54000     -1.7642138E-10
   18.60000     -1.1134177E-10
   18.66000     -4.1705896E-11
   18.72000      3.8600321E-11
   18.78000      1.3445060E-10
   18.84000      2.4882563E-10
   18.90000      3.8239323E-10
   18.96000      5.3333277E-10
   19.02000      6.9743911E-10
   19.08000      8.6856256E-10
   19.14000      1.0393869E-09
   19.20000      1.2024310E-09
   19.26000      1.3510698E-09
   19.32000      1.4803732E-09
   19.38000      1.5876519E-09
   19.44000      1.6726863E-09
   19.50000      1.7376157E-09
   19.56000      1.7864095E-09
   19.62000      1.8238427E-09
   19.68000      1.8540691E-09
   19.74000      1.8791886E-09
   19.80000      1.8984412E-09
   19.86000      1.9085864E-09
   19.92000      1.9055477E-09
   19.98000      1.8867368E-09
   20.04000      1.8529813E-09
   20.10000      1.8090480E-09
   20.16000      1.7623681E-09
   20.22000      1.7204672E-09
   20.28000      1.6882205E-09
   20.34000      1.6661001E-09
   20.40000      1.6500259E-09
   20.46000      1.6326639E-09
   20.52000      1.6054712E-09
   20.58000      1.5606986E-09
   20.64000      1.4928465E-09
   20.70000      1.3994417E-09
   20.76000      1.2812048E-09
   20.82000      1.1416907E-09
   20.88000      9.8645669E-10
   20.94000      8.2189588E-10
   21.00000      6.5404993E-10
   21.06000      4.8778598E-10
   21.12000      3.2655845E-10
   21.18000      1.7260915E-10
   21.24000      2.7166993E-11
   21.30000     -1.0973229E-10
   21.36000     -2.3975241E-10
   21.42000     -3.6653530E-10
   21.48000     -4.9507781E-10
   21.54000     -6.3001165E-10
   21.60000     -7.7341944E-10
   21.66000     -9.2340940E-10
   21.72000     -1.0744855E-09
   21.78000     -1.2197735E-09
   21.84000     -1.3539718E-09
   21.90000     -1.4753130E-09
   21.96000     -1.5853414E-09
   22.02000     -1.6866736E-09
   22.08000     -1.7802346E-09
   22.14000     -1.8638302E-09
   22.20000     -1.9330302E-09
   22.26000     -1.9837658E-09
   22.32000     -2.0148700E-09
   22.38000     -2.0288040E-09
   22.44000     -2.0300686E-09
   22.50000     -2.0223758E-09
   22.56000     -2.0064885E-09
   22.62000     -1.9801361E-09
   22.68000     -1.9399531E-09
   22.74000     -1.8840054E-09
   22.80000     -1.8131470E-09
   22.86000     -1.7303841E-09
   22.92000     -1.6389111E-09
   22.98000     -1.5404436E-09
   23.04000     -1.4352135E-09
   23.10000     -1.3237170E-09
   23.16000     -1.2089293E-09
   23.22000     -1.0972395E-09
   23.28000     -9.9712194E-10
   23.34000     -9.1604341E-10
   23.40000     -8.5728341E-10
   23.46000     -8.1844687E-10
   23.52000     -7.9245854E-10
   23.58000     -7.7042051E-10
   23.64000     -7.4480022E-10
   23.70000     -7.1148198E-10
   23.76000     -6.7007394E-10
   23.82000     -6.2286765E-10
   23.88000     -5.7338218E-10
   23.94000     -5.2529020E-10
   24.00000     -4.8200072E-10
   24.06000     -4.4669832E-10
   24.12000     -4.2247872E-10
   24.18000     -4.1233930E-10
   24.24000     -4.1895240E-10
   24.30000     -4.4422652E-10
   24.36000     -4.8867627E-10
   24.42000     -5.5070526E-10
   24.48000     -6.2609645E-10
   24.54000     -7.0814282E-10
   24.60000     -7.8871476E-10
   24.66000     -8.6010715E-10
   24.72000     -9.1697028E-10
   24.78000     -9.5740704E-10
   24.84000     -9.8267428E-10
   24.90000     -9.9570874E-10
   24.96000     -9.9941155E-10
   25.02000     -9.9575459E-10
   25.08000     -9.8616604E-10
   25.14000     -9.7271402E-10
   25.20000     -9.5899400E-10
   25.26000     -9.4980113E-10
   25.32000     -9.4953545E-10
   25.38000     -9.6023778E-10
   25.44000     -9.8050201E-10
   25.50000     -1.0059727E-09
   25.56000     -1.0311194E-09
   25.62000     -1.0511776E-09
   25.68000     -1.0631669E-09
   25.74000     -1.0656626E-09
   25.80000     -1.0579468E-09
   25.86000     -1.0395548E-09
   25.92000     -1.0107776E-09
   25.98000     -9.7373642E-10
   26.04000     -9.3293573E-10
   26.10000     -8.9432234E-10
   26.16000     -8.6279861E-10
   26.22000     -8.3924306E-10
   26.28000     -8.1862511E-10
   26.34000     -7.9036488E-10
   26.40000     -7.4096340E-10
   26.46000     -6.5780853E-10
   26.52000     -5.3260135E-10
   26.58000     -3.6322326E-10
   26.64000     -1.5370831E-10
   26.70000      8.7259179E-11
   26.76000      3.4861952E-10
   26.82000      6.1940836E-10
   26.88000      8.9106661E-10
   26.94000      1.1592648E-09
   27.00000      1.4247865E-09
   27.06000      1.6929868E-09
   27.12000      1.9716786E-09
   27.18000      2.2679596E-09
   27.24000      2.5851064E-09
   27.30000      2.9208111E-09
   27.36000      3.2675147E-09
   27.42000      3.6146337E-09
   27.48000      3.9516390E-09
   27.54000      4.2706212E-09
   27.60000      4.5673882E-09
   27.66000      4.8409174E-09
   27.72000      5.0917364E-09
   27.78000      5.3201608E-09
   27.84000      5.5251603E-09
   27.90000      5.7042340E-09
   27.96000      5.8541993E-09
   28.02000      5.9724692E-09
   28.08000      6.0582539E-09
   28.14000      6.1131362E-09
   28.20000      6.1406995E-09
   28.26000      6.1452887E-09
   28.32000      6.1304202E-09
   28.38000      6.0976513E-09
   28.44000      6.0465712E-09
   28.50000      5.9759899E-09
   28.56000      5.8856591E-09
   28.62000      5.7774083E-09
   28.68000      5.6548153E-09
   28.74000      5.5214016E-09
   28.80000      5.3783329E-09
   28.86000      5.2230811E-09
   28.92000      5.0500542E-09
   28.98000      4.8530606E-09
   29.04000      4.6283364E-09
   29.10000      4.3764907E-09
   29.16000      4.1023567E-09
   29.22000      3.8130210E-09
   29.28000      3.5153307E-09
   29.34000      3.2143297E-09
   29.40000      2.9132718E-09
   29.46000      2.6146842E-09
   29.52000      2.3212769E-09
   29.58000      2.0357609E-09
   29.64000      1.7596009E-09
   29.70000      1.4916942E-09
   29.76000      1.2281450E-09
   29.82000      9.6359609E-10
   29.88000      6.9345790E-10
   29.94000      4.1567963E-10
   30.00000      1.3095397E-10
   30.06000     -1.5870326E-10
   30.12000     -4.5193835E-10
   30.18000     -7.4914364E-10
   30.24000     -1.0517754E-09
   30.30000     -1.3602469E-09
   30.36000     -1.6717286E-09
   30.42000     -1.9793103E-09
   30.48000     -2.2731619E-09
   30.54000     -2.5431486E-09
   30.60000     -2.7815688E-09
   30.66000     -2.9847518E-09
   30.72000     -3.1530509E-09
   30.78000     -3.2896805E-09
   30.84000     -3.3992915E-09
   30.90000     -3.4869436E-09
   30.96000     -3.5575263E-09
   31.02000     -3.6152277E-09
   31.08000     -3.6627179E-09
   31.14000     -3.7001866E-09
   31.20000     -3.7248484E-09
   31.26000     -3.7315377E-09
   31.32000     -3.7144672E-09
   31.38000     -3.6694721E-09
   31.44000     -3.5956453E-09
   31.50000     -3.4955125E-09
   31.56000     -3.3737153E-09
   31.62000     -3.2350378E-09
   31.68000     -3.0829559E-09
   31.74000     -2.9194709E-09
   31.80000     -2.7461058E-09
   31.86000     -2.5651645E-09
   31.92000     -2.3802225E-09
   31.98000     -2.1954172E-09
   32.04000     -2.0140101E-09
   32.10000     -1.8372613E-09
   32.16000     -1.6644944E-09
   32.22000     -1.4944052E-09
   32.28000     -1.3267705E-09
   32.34000     -1.1633640E-09
   32.40000     -1.0073605E-09
   32.46000     -8.6152491E-10
   32.52000     -7.2634548E-10
   32.58000     -5.9938421E-10
   32.64000     -4.7637561E-10
   32.70000     -3.5348310E-10
   32.76000     -2.2936648E-10
   32.82000     -1.0583589E-10
   32.88000      1.3214728E-11
   32.94000      1.2381485E-10
   33.00000      2.2355261E-10
   33.06000      3.1188760E-10
   33.12000      3.8916237E-10
   33.18000      4.5522577E-10
   33.24000      5.0876087E-10
   33.30000      5.4781474E-10
   33.36000      5.7108546E-10
   33.42000      5.7895788E-10
   33.48000      5.7346988E-10
   33.54000      5.5717647E-10
   33.60000      5.3166826E-10
   33.66000      4.9672466E-10
   33.72000      4.5060930E-10
   33.78000      3.9124351E-10
   33.84000      3.1748768E-10
   33.90000      2.2985526E-10
   33.96000      1.3051420E-10
   34.02000      2.2909804E-11
   34.08000     -8.8613436E-11
   34.14000     -1.9917265E-10
   34.20000     -3.0401473E-10
   34.26000     -3.9972506E-10
   34.32000     -4.8565407E-10
   34.38000     -5.6467320E-10
   34.44000     -6.4238598E-10
   34.50000     -7.2470885E-10
   34.56000     -8.1487350E-10
   34.62000     -9.1155156E-10
   34.68000     -1.0093658E-09
   34.74000     -1.1016632E-09
   34.80000     -1.1839578E-09
   34.86000     -1.2559517E-09
   34.92000     -1.3209194E-09
   34.98000     -1.3829676E-09
   35.04000     -1.4440611E-09
   35.10000     -1.5027769E-09
   35.16000     -1.5554464E-09
   35.22000     -1.5986232E-09
   35.28000     -1.6309346E-09
   35.34000     -1.6529754E-09
   35.40000     -1.6655177E-09
   35.46000     -1.6676963E-09
   35.52000     -1.6568984E-09
   35.58000     -1.6307432E-09
   35.64000     -1.5898071E-09
   35.70000     -1.5389523E-09
   35.76000     -1.4859654E-09
   35.82000     -1.4381145E-09
   35.88000     -1.3988201E-09
   35.94000     -1.3666682E-09
   36.00000     -1.3374075E-09
   36.06000     -1.3074621E-09
   36.12000     -1.2764411E-09
   36.18000     -1.2468769E-09
   36.24000     -1.2214891E-09
   36.30000     -1.2000819E-09
   36.36000     -1.1784448E-09
   36.42000     -1.1501208E-09
   36.48000     -1.1097683E-09
   36.54000     -1.0556593E-09
   36.60000     -9.8951414E-10
   36.66000     -9.1385760E-10
   36.72000     -8.2893437E-10
   36.78000     -7.3154133E-10
   36.84000     -6.1671845E-10
   36.90000     -4.8113213E-10
   36.96000     -3.2575381E-10
   37.02000     -1.5595288E-10
   37.08000      2.1026505E-11
   37.14000      1.9944578E-10
   37.20000      3.7709649E-10
   37.26000      5.5488719E-10
   37.32000      7.3469608E-10
   37.38000      9.1728369E-10
   37.44000      1.1017097E-09
   37.50000      1.2863187E-09
   37.56000      1.4700977E-09
   37.62000      1.6530595E-09
   37.68000      1.8353012E-09
   37.74000      2.0156494E-09
   37.80000      2.1912379E-09
   37.86000      2.3586153E-09
   37.92000      2.5156406E-09
   37.98000      2.6626337E-09
   38.04000      2.8016902E-09
   38.10000      2.9344442E-09
   38.16000      3.0598342E-09
   38.22000      3.1735281E-09
   38.28000      3.2695286E-09
   38.34000      3.3429051E-09
   38.40000      3.3918162E-09
   38.46000      3.4175747E-09
   38.52000      3.4229963E-09
   38.58000      3.4105052E-09
   38.64000      3.3814842E-09
   38.70000      3.3371828E-09
   38.76000      3.2800818E-09
   38.82000      3.2141481E-09
   38.88000      3.1432807E-09
   38.94000      3.0688392E-09
   39.00000      2.9881453E-09
   39.06000      2.8954321E-09
   39.12000      2.7850839E-09
   39.18000      2.6553051E-09
   39.24000      2.5098814E-09
   39.30000      2.3568181E-09
   39.36000      2.2046178E-09
   39.42000      2.0584248E-09
   39.48000      1.9182318E-09
   39.54000      1.7799149E-09
   39.60000      1.6380911E-09
   39.66000      1.4888980E-09
   39.72000      1.3312385E-09
   39.78000      1.1663340E-09
   39.84000      9.9652231E-10
   39.90000      8.2438689E-10
   39.96000      6.5259603E-10
   40.02000      4.8399207E-10
   40.08000      3.2125547E-10
   40.14000      1.6601165E-10
   40.20000      1.8004646E-11
   40.26000     -1.2479791E-10
   40.32000     -2.6486038E-10
   40.38000     -4.0312456E-10
   40.44000     -5.3763760E-10
   40.50000     -6.6365813E-10
   40.56000     -7.7518048E-10
   40.62000     -8.6693280E-10
   40.68000     -9.3573960E-10
   40.74000     -9.8076591E-10
   40.80000     -1.0030136E-09
   40.86000     -1.0048161E-09
   40.92000     -9.8971109E-10
   40.98000     -9.6236619E-10
   41.04000     -9.2789620E-10
   41.10000     -8.9034108E-10
   41.16000     -8.5095303E-10
   41.22000     -8.0750906E-10
   41.28000     -7.5550244E-10
   41.34000     -6.9088557E-10
   41.40000     -6.1286626E-10
   41.46000     -5.2502164E-10
   41.52000     -4.3398027E-10
   41.58000     -3.4649869E-10
   41.64000     -2.6679930E-10
   41.70000     -1.9576915E-10
   41.76000     -1.3223184E-10
   41.82000     -7.5028053E-11
   41.88000     -2.4176950E-11
   41.94000      1.9723192E-11
   42.00000      5.7166480E-11
   42.06000      9.0827998E-11
   42.12000      1.2479373E-10
   42.18000      1.6212064E-10
   42.24000      2.0235046E-10
   42.30000      2.4087349E-10
   42.36000      2.7087954E-10
   42.42000      2.8685251E-10
   42.48000      2.8745215E-10
   42.54000      2.7600069E-10
   42.60000      2.5837638E-10
   42.66000      2.3977564E-10
   42.72000      2.2238926E-10
   42.78000      2.0521414E-10
   42.84000      1.8569182E-10
   42.90000      1.6176323E-10
   42.96000      1.3297981E-10
   43.02000      1.0030040E-10
   43.08000      6.5245941E-11
   43.14000      2.9352718E-11
   43.20000     -5.7451730E-12
   43.26000     -3.8108738E-11
   43.32000     -6.5911360E-11
   43.38000     -8.8623317E-11
   43.44000     -1.0815292E-10
   43.50000     -1.2873913E-10
   43.56000     -1.5503704E-10
   43.62000     -1.8917150E-10
   43.68000     -2.2856053E-10
   43.74000     -2.6614760E-10
   43.80000     -2.9330363E-10
   43.86000     -3.0394767E-10
   43.92000     -2.9757802E-10
   43.98000     -2.7951552E-10
   44.04000     -2.5834523E-10
   44.10000     -2.4213923E-10
   44.16000     -2.3553884E-10
   44.22000     -2.3893573E-10
   44.28000     -2.4956778E-10
   44.34000     -2.6335981E-10
   44.40000     -2.7638117E-10
   44.46000     -2.8558569E-10
   44.52000     -2.8923763E-10
   44.58000     -2.8746144E-10
   44.64000     -2.8275260E-10
   44.70000     -2.7972635E-10
   44.76000     -2.8354022E-10
   44.82000     -2.9734687E-10
   44.88000     -3.2014266E-10
   44.94000     -3.4655734E-10
   45.00000     -3.6914494E-10
   45.06000     -3.8212836E-10
   45.12000     -3.8445028E-10
   45.18000     -3.8024883E-10
   45.24000     -3.7642561E-10
   45.30000     -3.7880757E-10
   45.36000     -3.8925935E-10
   45.42000     -4.0540360E-10
   45.48000     -4.2287335E-10
   45.54000     -4.3844423E-10
   45.60000     -4.5203594E-10
   45.66000     -4.6655851E-10
   45.72000     -4.8609866E-10
   45.78000     -5.1388227E-10
   45.84000     -5.5124233E-10
   45.90000     -5.9779143E-10
   45.96000     -6.5206718E-10
   46.02000     -7.1181028E-10
   46.08000     -7.7373358E-10
   46.14000     -8.3343360E-10
   46.20000     -8.8620572E-10
   46.26000     -9.2879482E-10
   46.32000     -9.6111552E-10
   46.38000     -9.8660879E-10
   46.44000     -1.0106010E-09
   46.50000     -1.0373867E-09
   46.56000     -1.0677782E-09
   46.62000     -1.0987261E-09
   46.68000     -1.1253265E-09
   46.74000     -1.1439553E-09
   46.80000     -1.1545315E-09
   46.86000     -1.1605369E-09
   46.92000     -1.1669582E-09
   46.98000     -1.1776722E-09
   47.04000     -1.1940067E-09
   47.10000     -1.2151984E-09
   47.16000     -1.2400349E-09
   47.22000     -1.2681869E-09
   47.28000     -1.3001661E-09
   47.34000     -1.3360718E-09
   47.40000     -1.3743495E-09
   47.46000     -1.4118232E-09
   47.52000     -1.4452534E-09
   47.58000     -1.4734132E-09
   47.64000     -1.4981297E-09
   47.70000     -1.5233712E-09
   47.76000     -1.5528211E-09
   47.82000     -1.5874677E-09
   47.88000     -1.6247659E-09
   47.94000     -1.6598637E-09
   48.00000     -1.6880101E-09
   48.06000     -1.7065390E-09
   48.12000     -1.7152340E-09
   48.18000     -1.7150745E-09
   48.24000     -1.7064643E-09
   48.30000     -1.6882755E-09
   48.36000     -1.6583264E-09
   48.42000     -1.6148100E-09
   48.48000     -1.5575274E-09
   48.54000     -1.4879898E-09
   48.60000     -1.4083085E-09
   48.66000     -1.3196718E-09
   48.72000     -1.2214704E-09
   48.78000     -1.1116890E-09
   48.84000     -9.8837549E-10
   48.90000     -8.5138008E-10
   48.96000     -7.0346284E-10
   49.02000     -5.5023508E-10
   49.08000     -3.9892586E-10
   49.14000     -2.5636451E-10
   49.20000     -1.2677991E-10
   49.26000     -1.0101164E-11
   49.32000      9.8556788E-11
   49.38000      2.0772947E-10
   49.44000      3.2677894E-10
   49.50000      4.6220336E-10
   49.56000      6.1455391E-10
   49.62000      7.7751006E-10
   49.68000      9.3987917E-10
   49.74000      1.0898789E-09
   49.80000      1.2197880E-09
   49.86000      1.3287101E-09
   49.92000      1.4220880E-09
   49.98000      1.5083103E-09
   50.04000      1.5942598E-09
   50.10000      1.6821049E-09
   50.16000      1.7687607E-09
   50.22000      1.8478766E-09
   50.28000      1.9128894E-09
   50.34000      1.9594026E-09
   50.40000      1.9859141E-09
   50.46000      1.9930964E-09
   50.52000      1.9825919E-09
   50.58000      1.9562436E-09
   50.64000      1.9160122E-09
   50.70000      1.8641977E-09
   50.76000      1.8034360E-09
   50.82000      1.7363162E-09
   50.88000      1.6649467E-09
   50.94000      1.5909046E-09
   51.00000      1.5156475E-09
   51.06000      1.4409755E-09
   51.12000      1.3689745E-09
   51.18000      1.3012563E-09
   51.24000      1.2379570E-09
   51.30000      1.1773145E-09
   51.36000      1.1163672E-09
   51.42000      1.0525282E-09
   51.48000      9.8508546E-10
   51.54000      9.1561897E-10
   51.60000      8.4702051E-10
   51.66000      7.8176926E-10
   51.72000      7.2064665E-10
   51.78000      6.6274652E-10
   51.84000      6.0667599E-10
   51.90000      5.5196753E-10
   51.96000      4.9958426E-10
   52.02000      4.5110993E-10
   52.08000      4.0723919E-10
   52.14000      3.6673620E-10
   52.20000      3.2670389E-10
   52.26000      2.8404484E-10
   52.32000      2.3713861E-10
   52.38000      1.8664317E-10
   52.44000      1.3501089E-10
   52.50000      8.5233827E-11
   52.56000      3.9783874E-11
   52.62000      3.6308950E-13
   52.68000     -3.1721910E-11
   52.74000     -5.5304879E-11
   52.80000     -6.9795662E-11
   52.86000     -7.6117085E-11
   52.92000     -7.7267408E-11
   52.98000     -7.7675796E-11
   53.04000     -8.1357164E-11
   53.10000     -8.9902169E-11
   53.16000     -1.0171727E-10
   53.22000     -1.1325311E-10
   53.28000     -1.2162593E-10
   53.34000     -1.2700017E-10
   53.40000     -1.3315089E-10
   53.46000     -1.4578895E-10
   53.52000     -1.6972478E-10
   53.58000     -2.0670325E-10
   53.64000     -2.5525340E-10
   53.70000     -3.1249919E-10
   53.76000     -3.7661779E-10
   53.82000     -4.4834253E-10
   53.88000     -5.3073351E-10
   53.94000     -6.2765959E-10
   54.00000     -7.4216194E-10
   54.06000     -8.7565488E-10
   54.12000     -1.0280501E-09
   54.18000     -1.1982144E-09
   54.24000     -1.3841855E-09
   54.30000     -1.5831905E-09
   54.36000     -1.7921021E-09
   54.42000     -2.0088098E-09
   54.48000     -2.2341577E-09
   54.54000     -2.4732603E-09
   54.60000     -2.7349509E-09
   54.66000     -3.0291512E-09
   54.72000     -3.3633727E-09
   54.78000     -3.7403485E-09
   54.84000     -4.1583914E-09
   54.90000     -4.6143271E-09
   54.96000     -5.1073807E-09
   55.02000     -5.6416920E-09
   55.08000     -6.2261800E-09
   55.14000     -6.8721584E-09
   55.20000     -7.5902928E-09
   55.26000     -8.3887262E-09
   55.32000     -9.2730170E-09
   55.38000     -1.0247272E-08
   55.44000     -1.1315245E-08
   55.50000     -1.2480708E-08
   55.56000     -1.3747222E-08