 -0.750000000       0.00000000    
 -0.689999998       0.00000000    
 -0.629999995       0.00000000    
 -0.569999993       0.00000000    
 -0.509999990       0.00000000    
 -0.449999988       3.66536654E-21
 -0.389999986      -4.70779958E-20
 -0.330000013      -5.46204781E-19
 -0.270000011      -2.49982418E-18
 -0.209999993      -6.76007193E-18
 -0.150000006      -1.09624940E-17
  -9.00000036E-02  -5.11773708E-18
  -2.99999993E-02   2.86619968E-17
   2.99999993E-02   1.04228079E-16
   9.00000036E-02   2.05119563E-16
  0.150000006       2.58168945E-16
  0.209999993       1.38066357E-16
  0.270000011      -2.68429426E-16
  0.330000013      -9.45812235E-16
  0.389999986      -1.64580492E-15
  0.449999988      -1.89847210E-15
  0.509999990      -1.20763552E-15
  0.569999993       6.16256544E-16
  0.629999995       3.17241791E-15
  0.689999998       5.47375772E-15
  0.750000000       6.35425101E-15
  0.810000002       5.12438458E-15
  0.870000005       2.06743357E-15
  0.930000007      -1.64582589E-15
  0.990000010      -4.72335048E-15
   1.04999995      -6.78151815E-15
   1.11000001      -8.86439292E-15
   1.16999996      -1.28236434E-14
   1.23000002      -1.96215098E-14
   1.28999996      -2.74839457E-14
   1.35000002      -3.12600965E-14
   1.40999997      -2.39087179E-14
   1.47000003       1.47188240E-16
   1.52999997       4.12915958E-14
   1.59000003       9.25639096E-14
   1.64999998       1.40337435E-13
   1.71000004       1.67639448E-13
   1.76999998       1.58703928E-13
   1.83000004       1.03152580E-13
   1.88999999      -9.73491366E-16
   1.95000005      -1.45127237E-13
   2.00999999      -3.08799996E-13
   2.06999993      -4.59396735E-13
   2.13000011      -5.55337948E-13
   2.19000006      -5.54146789E-13
   2.25000000      -4.25023000E-13
   2.30999994      -1.61997409E-13
   2.36999989       2.08379023E-13
   2.43000007       6.29485938E-13
   2.49000001       1.02697668E-12
   2.54999995       1.32510225E-12
   2.60999990       1.45887469E-12
   2.67000008       1.37760831E-12
   2.73000002       1.04330000E-12
   2.78999996       4.33860711E-13
   2.84999990      -4.39675233E-13
   2.91000009      -1.50307100E-12
   2.97000003      -2.59164673E-12
   3.02999997      -3.45066228E-12
   3.08999991      -3.78274452E-12
   3.15000010      -3.34080983E-12
   3.21000004      -2.03744378E-12
   3.26999998      -2.32630010E-14
   3.32999992       2.30956248E-12
   3.39000010       4.41472119E-12
   3.45000005       5.74635868E-12
   3.50999999       5.92528240E-12
   3.56999993       4.85455513E-12
   3.63000011       2.74472459E-12
   3.69000006       4.85646510E-14
   3.75000000      -2.65919123E-12
   3.80999994      -4.80811181E-12
   3.86999989      -5.92823186E-12
   3.93000007      -5.70812451E-12
   3.99000001      -4.03064301E-12
   4.05000019      -1.00647735E-12
   4.11000013       2.99057350E-12
   4.17000008       7.30617043E-12
   4.23000002       1.10372041E-11
   4.28999996       1.31323737E-11
   4.34999990       1.25497382E-11
   4.40999985       8.42638112E-12
   4.46999979       2.02410408E-13
   4.53000021      -1.23400231E-11
   4.59000015      -2.91196234E-11
   4.65000010      -4.98352054E-11
   4.71000004      -7.40197278E-11
   4.76999998      -1.01031059E-10
   4.82999992      -1.29994682E-10
   4.88999987      -1.59765701E-10
   4.94999981      -1.88994209E-10
   5.01000023      -2.16340779E-10
   5.07000017      -2.40809123E-10
   5.13000011      -2.62079830E-10
   5.19000006      -2.80690637E-10
   5.25000000      -2.97944502E-10
   5.30999994      -3.15531906E-10
   5.36999989      -3.34980349E-10
   5.42999983      -3.57133739E-10
   5.48999977      -3.81865123E-10
   5.55000019      -4.08134276E-10
   5.61000013      -4.34354969E-10
   5.67000008      -4.58904859E-10
   5.73000002      -4.80557261E-10
   5.78999996      -4.98662167E-10
   5.84999990      -5.13029119E-10
   5.90999985      -5.23604882E-10
   5.96999979      -5.30123778E-10
   6.03000021      -5.31911570E-10
   6.09000015      -5.27934585E-10
   6.15000010      -5.17070886E-10
   6.21000004      -4.98480590E-10
   6.26999998      -4.71918227E-10
   6.32999992      -4.37865605E-10
   6.38999987      -3.97445354E-10
   6.44999981      -3.52159690E-10
   6.51000023      -3.03555042E-10
   6.57000017      -2.52921045E-10
   6.63000011      -2.01101719E-10
   6.69000006      -1.48444007E-10
   6.75000000      -9.48638876E-11
   6.80999994      -3.99804599E-11
   6.86999989       1.67337255E-11
   6.92999983       7.58245550E-11
   6.98999977       1.37768769E-10
   7.05000019       2.02929604E-10
   7.11000013       2.71551642E-10
   7.17000008       3.43790885E-10
   7.23000002       4.19775159E-10
   7.28999996       4.99684349E-10
   7.34999990       5.83828264E-10
   7.40999985       6.72693012E-10
   7.46999979       7.66927521E-10
   7.53000021       8.67263150E-10
   7.59000015       9.74386682E-10
   7.65000010       1.08880827E-09
   7.71000004       1.21077481E-09
   7.76999998       1.34025124E-09
   7.82999992       1.47696966E-09
   7.88999987       1.62050706E-09
   7.94999981       1.77035597E-09
   8.01000023       1.92595939E-09
   8.06999969       2.08671413E-09
   8.13000011       2.25195640E-09
   8.18999958       2.42094234E-09
   8.25000000       2.59281085E-09
   8.31000042       2.76650991E-09
   8.36999989       2.94066926E-09
   8.43000031       3.11344550E-09
   8.48999977       3.28241123E-09
   8.55000019       3.44458129E-09
   8.60999966       3.59664076E-09
   8.67000008       3.73536979E-09
   8.72999954       3.85816268E-09
   8.78999996       3.96346023E-09
   8.85000038       4.05093381E-09
   8.90999985       4.12128998E-09
   8.97000027       4.17573620E-09
   9.02999973       4.21527435E-09
   9.09000015       4.24008428E-09
   9.14999962       4.24924895E-09
   9.21000004       4.24096180E-09
   9.27000046       4.21314583E-09
   9.32999992       4.16423607E-09
   9.39000034       4.09378131E-09
   9.44999981       4.00257960E-09
   9.51000023       3.89229182E-09
   9.56999969       3.76472853E-09
   9.63000011       3.62120156E-09
   9.68999958       3.46230644E-09
   9.75000000       3.28827521E-09
   9.81000042       3.09971382E-09
   9.86999989       2.89826940E-09
   9.93000031       2.68676592E-09
   9.98999977       2.46859644E-09
   10.0500002       2.24656893E-09
   10.1099997       2.02174588E-09
   10.1700001       1.79287740E-09
   10.2299995       1.55679214E-09
   10.2900000       1.30963662E-09
   10.3500004       1.04845932E-09
   10.4099998       7.72474862E-10
   10.4700003       4.83520279E-10
   10.5299997       1.85609847E-10
   10.5900002      -1.16118205E-10
   10.6499996      -4.16573387E-10
   10.7100000      -7.11576076E-10
   10.7700005      -9.98218064E-10
   10.8299999      -1.27477406E-09
   10.8900003      -1.54035795E-09
   10.9499998      -1.79452753E-09
   11.0100002      -2.03697459E-09
   11.0699997      -2.26737540E-09
   11.1300001      -2.48543475E-09
   11.1899996      -2.69111378E-09
   11.2500000      -2.88494184E-09
   11.3100004      -3.06822034E-09
   11.3699999      -3.24288107E-09
   11.4300003      -3.41087758E-09
   11.4899998      -3.57323549E-09
   11.5500002      -3.72916631E-09
   11.6099997      -3.87576371E-09
   11.6700001      -4.00862232E-09
   11.7299995      -4.12330170E-09
   11.7900000      -4.21709112E-09
   11.8500004      -4.29027613E-09
   11.9099998      -4.34629888E-09
   11.9700003      -4.39066206E-09
   12.0299997      -4.42905534E-09
   12.0900002      -4.46550619E-09
   12.1499996      -4.50132331E-09
   12.2100000      -4.53516869E-09
   12.2700005      -4.56404692E-09
   12.3299999      -4.58464378E-09
   12.3900003      -4.59438887E-09
   12.4499998      -4.59191218E-09
   12.5100002      -4.57690330E-09
   12.5699997      -4.54967441E-09
   12.6300001      -4.51073756E-09
   12.6899996      -4.46059145E-09
   12.7500000      -4.39972148E-09
   12.8100004      -4.32871294E-09
   12.8699999      -4.24837276E-09
   12.9300003      -4.15980184E-09
   12.9899998      -4.06441103E-09
   13.0500002      -3.96386124E-09
   13.1099997      -3.85990750E-09
   13.1700001      -3.75413656E-09
   13.2299995      -3.64763753E-09
   13.2900000      -3.54072416E-09
   13.3500004      -3.43282514E-09
   13.4099998      -3.32262662E-09
   13.4700003      -3.20843374E-09
   13.5299997      -3.08865356E-09
   13.5900002      -2.96226599E-09
   13.6499996      -2.82919244E-09
   13.7100000      -2.69051847E-09
   13.7700005      -2.54852850E-09
   13.8299999      -2.40650988E-09
   13.8900003      -2.26826691E-09
   13.9499998      -2.13736451E-09
   14.0100002      -2.01625228E-09
   14.0699997      -1.90555971E-09
   14.1300001      -1.80386484E-09
   14.1899996      -1.70809855E-09
   14.2500000      -1.61447655E-09
   14.3100004      -1.51959134E-09
   14.3699999      -1.42122070E-09
   14.4300003      -1.31855094E-09
   14.4899998      -1.21183596E-09
   14.5500002      -1.10179255E-09
   14.6099997      -9.89145765E-10
   14.6700001      -8.74591122E-10
   14.7299995      -7.59142915E-10
   14.7900000      -6.44583442E-10
   14.8500004      -5.33647182E-10
   14.9099998      -4.29732611E-10
   14.9700003      -3.36204953E-10
   15.0299997      -2.55579474E-10
   15.0900002      -1.88923654E-10
   15.1499996      -1.35680703E-10
   15.2100000      -9.39001793E-11
   15.2700005      -6.06986683E-11
   15.3299999      -3.27559785E-11
   15.3900003      -6.74770049E-12
   15.4499998       2.02618408E-11
   15.5100002       5.04017175E-11
   15.5699997       8.45475287E-11
   15.6300001       1.21953433E-10
   15.6899996       1.60134406E-10
   15.7500000       1.95116714E-10
   15.8100004       2.22019292E-10
   15.8699999       2.35765907E-10
   15.9300003       2.31667963E-10
   15.9899998       2.05706216E-10
   16.0499992       1.54533900E-10
   16.1100006       7.53987081E-11
   16.1700001      -3.37836009E-11
   16.2299995      -1.74105327E-10
   16.2900009      -3.45226903E-10
   16.3500004      -5.45126555E-10
   16.4099998      -7.70327968E-10
   16.4699993      -1.01666464E-09
   16.5300007      -1.28032140E-09
   16.5900002      -1.55866731E-09
   16.6499996      -1.85043425E-09
   16.7099991      -2.15508833E-09
   16.7700005      -2.47165866E-09
   16.8299999      -2.79757839E-09
   16.8899994      -3.12809423E-09
   16.9500008      -3.45648754E-09
   17.0100002      -3.77491594E-09
   17.0699997      -4.07537470E-09
   17.1299992      -4.35025305E-09
   17.1900005      -4.59230076E-09
   17.2500000      -4.79418638E-09
   17.3099995      -4.94818142E-09
   17.3700008      -5.04641218E-09
   17.4300003      -5.08185760E-09
   17.4899998      -5.04980147E-09
   17.5499992      -4.94917352E-09
   17.6100006      -4.78321160E-09
   17.6700001      -4.55914462E-09
   17.7299995      -4.28701608E-09
   17.7900009      -3.97807876E-09
   17.8500004      -3.64329344E-09
   17.9099998      -3.29236038E-09
   17.9699993      -2.93342950E-09
   18.0300007      -2.57338928E-09
   18.0900002      -2.21842900E-09
   18.1499996      -1.87454186E-09
   18.2099991      -1.54769586E-09
   18.2700005      -1.24359489E-09
   18.3299999      -9.67137370E-10
   18.3899994      -7.21853244E-10
   18.4500008      -5.09631504E-10
   18.5100002      -3.30925704E-10
   18.5699997      -1.85389162E-10
   18.6299992      -7.26437868E-11
   18.6900005       7.21487670E-12
   18.7500000       5.36684482E-11
   18.8099995       6.64002950E-11
   18.8700008       4.62258634E-11
   18.9300003      -4.07271569E-12
   18.9899998      -7.93152974E-11
   19.0499992      -1.71957656E-10
   19.1100006      -2.72425305E-10
   19.1700001      -3.69520747E-10
   19.2299995      -4.50802368E-10
   19.2900009      -5.03024178E-10
   19.3500004      -5.12812848E-10
   19.4099998      -4.67663075E-10
   19.4699993      -3.57117169E-10
   19.5300007      -1.73830034E-10
   19.5900002       8.57474994E-11
   19.6499996       4.21124774E-10
   19.7099991       8.27787672E-10
   19.7700005       1.29722688E-09
   19.8299999       1.81690185E-09
   19.8899994       2.37035169E-09
   19.9500008       2.93783331E-09
   20.0100002       3.49773188E-09
   20.0699997       4.02859657E-09
   20.1299992       4.51123450E-09
   20.1900005       4.93015540E-09
   20.2500000       5.27397503E-09
   20.3099995       5.53491208E-09
   20.3700008       5.70805314E-09
   20.4300003       5.79112713E-09
   20.4899998       5.78513726E-09
   20.5499992       5.69554803E-09
   20.6100006       5.53322543E-09
   20.6700001       5.31431388E-09
   20.7299995       5.05873521E-09
   20.7900009       4.78771689E-09
   20.8500004       4.52128335E-09
   20.9099998       4.27664437E-09
   20.9699993       4.06792688E-09
   21.0300007       3.90697474E-09
   21.0900002       3.80441945E-09
   21.1499996       3.77012821E-09
   21.2099991       3.81253740E-09
   21.2700005       3.93700095E-09
   21.3299999       4.14382040E-09
   21.3899994       4.42684644E-09
   21.4500008       4.77332662E-09
   21.5100002       5.16518739E-09
   21.5699997       5.58138735E-09
   21.6299992       6.00057071E-09
   21.6900005       6.40322328E-09
   21.7500000       6.77278944E-09
   21.8099995       7.09572712E-09
   21.8700008       7.36092609E-09
   21.9300003       7.55914620E-09
   21.9899998       7.68293962E-09
   22.0499992       7.72713538E-09
   22.1100006       7.68948816E-09
   22.1700001       7.57093943E-09
   22.2299995       7.37513073E-09
   22.2900009       7.10730053E-09
   22.3500004       6.77308609E-09
   22.4099998       6.37788444E-09
   22.4699993       5.92704552E-09
   22.5300007       5.42665068E-09
   22.5900002       4.88423568E-09
   22.6499996       4.30887415E-09
   22.7099991       3.71050590E-09
   22.7700005       3.09899373E-09
   22.8299999       2.48364307E-09
   22.8899994       1.87367055E-09
   22.9500008       1.27943134E-09
   23.0100002       7.13598791E-10
   23.0699997       1.91312410E-10
   23.1299992      -2.71223211E-10
   23.1900005      -6.59379773E-10
   23.2500000      -9.62958158E-10
   23.3099995      -1.17804566E-09
   23.3700008      -1.30712741E-09
   23.4300003      -1.35753009E-09
   23.4899998      -1.33900724E-09
   23.5499992      -1.26155453E-09
   23.6100006      -1.13427923E-09
   23.6700001      -9.65553193E-10
   23.7299995      -7.64069419E-10
   23.7900009      -5.40061718E-10
   23.8500004      -3.05931613E-10
   23.9099998      -7.58009142E-11
   23.9699993       1.36035877E-10
   24.0300007       3.17304211E-10
   24.0900002       4.59761895E-10
   24.1499996       5.60123670E-10
   24.2099991       6.19302665E-10
   24.2700005       6.40039022E-10
   24.3299999       6.23761376E-10
   24.3899994       5.68014025E-10
   24.4500008       4.65670225E-10
   24.5100002       3.06403736E-10
   24.5699997       7.98647468E-11
   24.6299992      -2.20758897E-10
   24.6900005      -5.96197092E-10
   24.7500000      -1.04034115E-09
   24.8099995      -1.54112967E-09
   24.8700008      -2.08228323E-09
   24.9300003      -2.64507194E-09
   24.9899998      -3.20978755E-09
   25.0499992      -3.75712172E-09
   25.1100006      -4.26976010E-09
   25.1700001      -4.73410555E-09
   25.2299995      -5.14148812E-09
   25.2900009      -5.48806733E-09
   25.3500004      -5.77314863E-09
   25.4099998      -5.99659167E-09
   25.4699993      -6.15672402E-09
   25.5300007      -6.25011687E-09
   25.5900002      -6.27355901E-09
   25.6499996      -6.22725427E-09
   25.7099991      -6.11739193E-09
   25.7700005      -5.95646865E-09
   25.8299999      -5.76097081E-09
   25.8899994      -5.54747048E-09
   25.9500008      -5.32900613E-09
   26.0100002      -5.11329379E-09
   26.0699997      -4.90316276E-09
   26.1299992      -4.69840433E-09
   26.1900005      -4.49769288E-09
   26.2500000      -4.29963976E-09
   26.3099995      -4.10290291E-09
   26.3700008      -3.90590449E-09
   26.4300003      -3.70672293E-09
   26.4899998      -3.50320195E-09
   26.5499992      -3.29284844E-09
   26.6100006      -3.07216586E-09
   26.6700001      -2.83567259E-09
   26.7299995      -2.57552557E-09
   26.7900009      -2.28272912E-09
   26.8500004      -1.95016292E-09
   26.9099998      -1.57643576E-09
   26.9699993      -1.16873000E-09
   27.0300007      -7.42945649E-10
   27.0900002      -3.20640015E-10
   27.1499996       7.61695637E-11
   27.2099991       4.30237374E-10
   27.2700005       7.32334193E-10
   27.3299999       9.81560278E-10
   27.3899994       1.18315213E-09
   27.4500008       1.34508904E-09
   27.5100002       1.47485468E-09
   27.5699997       1.57714874E-09
   27.6299992       1.65274239E-09
   27.6900005       1.69842007E-09
   27.7500000       1.70803072E-09
   27.8099995       1.67469294E-09
   27.8700008       1.59384972E-09
   27.9300003       1.46622225E-09
   27.9899998       1.29925759E-09
   28.0499992       1.10592313E-09
   28.1100006       9.00797437E-10
   28.1700001       6.94851454E-10
   28.2299995       4.91241547E-10
   28.2900009       2.84205715E-10
   28.3500004       6.17758900E-11
   28.4099998      -1.88799504E-10
   28.4699993      -4.75291140E-10
   28.5300007      -7.96807287E-10
   28.5900002      -1.14352772E-09
   28.6499996      -1.49963431E-09
   28.7099991      -1.84804927E-09
   28.7700005      -2.17525820E-09
   28.8299999      -2.47487431E-09
   28.8899994      -2.74926282E-09
   28.9500008      -3.00901215E-09
   29.0100002      -3.27031779E-09
   29.0699997      -3.55062268E-09
   29.1299992      -3.86337007E-09
   29.1900005      -4.21336077E-09
   29.2500000      -4.59450478E-09
   29.3099995      -4.99125408E-09
   29.3700008      -5.38366374E-09
   29.4300003      -5.75436987E-09
   29.4899998      -6.09465900E-09
   29.5499992      -6.40697095E-09
   29.6100006      -6.70265443E-09
   29.6700001      -6.99588831E-09
   29.7299995      -7.29638572E-09
   29.7900009      -7.60394148E-09
   29.8500004      -7.90695331E-09
   29.9099998      -8.18528623E-09
   29.9699993      -8.41612557E-09
   30.0300007      -8.58052118E-09
   30.0900002      -8.66835581E-09
   30.1499996      -8.68025118E-09
   30.2099991      -8.62600480E-09
   30.2700005      -8.52022097E-09
   30.3299999      -8.37649594E-09
   30.3899994      -8.20203194E-09
   30.4500008      -7.99447353E-09
   30.5100002      -7.74220954E-09
   30.5699997      -7.42827178E-09
   30.6299992      -7.03660952E-09
   30.6900005      -6.55852483E-09
   30.7500000      -5.99680439E-09
   30.8099995      -5.36596456E-09
   30.8700008      -4.68855577E-09
   30.9300003      -3.98904421E-09
   30.9899998      -3.28763394E-09
   31.0499992      -2.59621413E-09
   31.1100006      -1.91754634E-09
   31.1700001      -1.24752320E-09
   31.2299995      -5.79320869E-10
   31.2900009       9.20803017E-11
   31.3500004       7.66359975E-10
   31.4099998       1.43620060E-09
   31.4699993       2.08789075E-09
   31.5300007       2.70404676E-09
   31.5900002       3.26774408E-09
   31.6499996       3.76681175E-09
   31.7099991       4.19677804E-09
   31.7700005       4.56124560E-09
   31.8299999       4.86937735E-09
   31.8899994       5.13140908E-09
   31.9500008       5.35400702E-09
   32.0099983       5.53738078E-09
   32.0699997       5.67520742E-09
   32.1300011       5.75705661E-09
   32.1899986       5.77189629E-09
   32.2500000       5.71101255E-09
   32.3100014       5.56931390E-09
   32.3699989       5.34507238E-09
   32.4300003       5.03891906E-09
   32.4900017       4.65298022E-09
   32.5499992       4.19049906E-09
   32.6100006       3.65565667E-09
   32.6699982       3.05314907E-09
   32.7299995       2.38745490E-09
   32.7900009       1.66230774E-09
   32.8499985       8.81112017E-10
   32.9099998       4.85938234E-11
   32.9700012      -8.26885338E-10
   33.0299988      -1.73161652E-09
   33.0900002      -2.64664868E-09
   33.1500015      -3.55006025E-09
   33.2099991      -4.42054882E-09
   33.2700005      -5.24073940E-09
   33.3300018      -5.99873040E-09
   33.3899994      -6.68738487E-09
   33.4500008      -7.30204874E-09
   33.5099983      -7.83805998E-09
   33.5699997      -8.28925195E-09
   33.6300011      -8.64788774E-09
   33.6899986      -8.90562379E-09
   33.7500000      -9.05474984E-09
   33.8100014      -9.08914988E-09
   33.8699989      -9.00488661E-09
   33.9300003      -8.80064022E-09
   33.9900017      -8.47812309E-09
   34.0499992      -8.04232680E-09
   34.1100006      -7.50128670E-09
   34.1699982      -6.86520396E-09
   34.2299995      -6.14520479E-09
   34.2900009      -5.35231370E-09
   34.3499985      -4.49716753E-09
   34.4099998      -3.59050367E-09
   34.4700012      -2.64395017E-09
   34.5299988      -1.67044167E-09
   34.5900002      -6.83896717E-10
   34.6500015       3.01635050E-10
   34.7099991       1.27275113E-09
   34.7700005       2.21691954E-09
   34.8300018       3.12220116E-09
   34.8899994       3.97707334E-09
   34.9500008       4.77103290E-09
   35.0099983       5.49611512E-09
   35.0699997       6.14870288E-09
   35.1300011       6.73048861E-09
   35.1899986       7.24774107E-09
   35.2500000       7.70885844E-09
   35.3100014       8.12122458E-09
   35.3699989       8.48877768E-09
   35.4300003       8.81132678E-09
   35.4900017       9.08570996E-09
   35.5499992       9.30791622E-09
   35.6100006       9.47499412E-09
   35.6699982       9.58594626E-09
   35.7299995       9.64156133E-09
   35.7900009       9.64372582E-09
   35.8499985       9.59488311E-09
   35.9099998       9.49789758E-09
   35.9700012       9.35619671E-09
   36.0299988       9.17385901E-09
   36.0900002       8.95551366E-09
   36.1500015       8.70621886E-09
   36.2099991       8.43161807E-09
   36.2700005       8.13843570E-09
   36.3300018       7.83502418E-09
   36.3899994       7.53143503E-09
   36.4500008       7.23861859E-09
   36.5099983       6.96676139E-09
   36.5699997       6.72324907E-09
   36.6300011       6.51088294E-09
   36.6899986       6.32686836E-09
   36.7500000       6.16276763E-09
   36.8100014       6.00539485E-09
   36.8699989       5.83853410E-09
   36.9300003       5.64534197E-09
   36.9900017       5.41114176E-09
   37.0499992       5.12599341E-09
   37.1100006       4.78617990E-09
   37.1699982       4.39386616E-09
   37.2299995       3.95482269E-09
   37.2900009       3.47501006E-09
   37.3499985       2.95750135E-09
   37.4099998       2.40116527E-09
   37.4700012       1.80169757E-09
   37.5299988       1.15439203E-09
   37.5900002       4.57189064E-10
   37.6500015      -2.87466578E-10
   37.7099991      -1.07262454E-09
   37.7700005      -1.88827842E-09
   37.8300018      -2.72321032E-09
   37.8899994      -3.56627483E-09
   37.9500008      -4.40684067E-09
   38.0099983      -5.23477528E-09
   38.0699997      -6.04056627E-09
   38.1300011      -6.81579548E-09
   38.1899986      -7.55371055E-09
   38.2500000      -8.24940294E-09
   38.3100014      -8.89940743E-09
   38.3699989      -9.50103995E-09
   38.4300003      -1.00520499E-08
   38.4900017      -1.05508740E-08
   38.5499992      -1.09971667E-08
   38.6100006      -1.13918226E-08
   38.6699982      -1.17359678E-08
   38.7299995      -1.20291608E-08
   38.7900009      -1.22679715E-08
   38.8499985      -1.24462254E-08
   38.9099998      -1.25574093E-08
   38.9700012      -1.25983233E-08
   39.0299988      -1.25719897E-08
   39.0900002      -1.24879103E-08
   39.1500015      -1.23590880E-08
   39.2099991      -1.21970807E-08
   39.2700005      -1.20075505E-08
   39.3300018      -1.17885932E-08
   39.3899994      -1.15326051E-08
   39.4500008      -1.12305756E-08
   39.5099983      -1.08765148E-08
   39.5699997      -1.04699671E-08
   39.6300011      -1.00158308E-08
   39.6899986      -9.52220880E-09
   39.7500000      -8.99776875E-09
   39.8100014      -8.44981685E-09
   39.8699989      -7.88346988E-09
   39.9300003      -7.30154914E-09
   39.9900017      -6.70478872E-09
   40.0499992      -6.09230888E-09
   40.1100006      -5.46273249E-09
   40.1699982      -4.81611862E-09
   40.2299995      -4.15621804E-09
   40.2900009      -3.49184659E-09
   40.3499985      -2.83614465E-09
   40.4099998      -2.20338259E-09
   40.4700012      -1.60436553E-09
   40.5299988      -1.04254394E-09
   40.5900002      -5.12894061E-10
   40.6500015      -4.42537066E-12
   40.7099991       4.94627006E-10
   40.7700005       9.91222771E-10
   40.8300018       1.48404256E-09
   40.8899994       1.96357997E-09
   40.9500008       2.41558551E-09
   41.0099983       2.82621904E-09
   41.0699997       3.18671822E-09
   41.1300011       3.49581986E-09
   41.1899986       3.75923914E-09
   41.2500000       3.98662747E-09
   41.3100014       4.18722790E-09
   41.3699989       4.36571712E-09
   41.4300003       4.51957716E-09
   41.4900017       4.63884131E-09
   41.5499992       4.70835948E-09
   41.6100006       4.71197970E-09
   41.6699982       4.63736338E-09
   41.7299995       4.47989779E-09
   41.7900009       4.24440039E-09
   41.8499985       3.94405131E-09
   41.9099998       3.59696650E-09
   41.9700012       3.22161853E-09
   42.0299988       2.83264789E-09
   42.0900002       2.43835330E-09
   42.1500015       2.04049533E-09
   42.2099991       1.63624225E-09
   42.2700005       1.22142430E-09
   42.3300018       7.93896171E-10
   42.3899994       3.55804886E-10
   42.4500008      -8.60635868E-11
   42.5099983      -5.21992560E-10
   42.5699997      -9.42413703E-10
   42.6300011      -1.34100819E-09
   42.6899986      -1.71633663E-09
   42.7500000      -2.07105244E-09
   42.8100014      -2.40886200E-09
   42.8699989      -2.73054357E-09
   42.9300003      -3.03092862E-09
   42.9900017      -3.29840377E-09
   43.0499992      -3.51729756E-09
   43.1100006      -3.67211972E-09
   43.1699982      -3.75175668E-09
   43.2299995      -3.75185438E-09
   43.2900009      -3.67462594E-09
   43.3499985      -3.52660812E-09
   43.4099998      -3.31571215E-09
   43.4700012      -3.04894821E-09
   43.5299988      -2.73150569E-09
   43.5900002      -2.36705544E-09
   43.6500015      -1.95862393E-09
   43.7099991      -1.50941848E-09
   43.7700005      -1.02328712E-09
   43.8300018      -5.04801145E-10
   43.8899994       4.09928029E-11
   43.9500008       6.09184980E-10
   44.0099983       1.19599386E-09
   44.0699997       1.79990733E-09
   44.1300011       2.42242759E-09
   44.1899986       3.06778625E-09
   44.2500000       3.74138232E-09
   44.3100014       4.44740378E-09
   44.3699989       5.18669552E-09
   44.4300003       5.95598149E-09
   44.4900017       6.74883749E-09
   44.5499992       7.55782281E-09
   44.6100006       8.37643999E-09
   44.6699982       9.19969434E-09
   44.7299995       1.00229434E-08
   44.7900009       1.08398108E-08
   44.8499985       1.16406005E-08
   44.9099998       1.24123227E-08
   44.9700012       1.31404718E-08
   45.0299988       1.38116452E-08
   45.0900002       1.44157077E-08
   45.1500015       1.49466661E-08
   45.2099991       1.54023141E-08
   45.2700005       1.57833906E-08
   45.3300018       1.60930291E-08
   45.3899994       1.63365872E-08
   45.4500008       1.65213532E-08
   45.5099983       1.66553757E-08
   45.5699997       1.67452949E-08
   45.6300011       1.67939671E-08
   45.6899986       1.67991985E-08
   45.7500000       1.67546119E-08
   45.8100014       1.66526757E-08
   45.8699989       1.64886043E-08
   45.9300003       1.62632467E-08
   45.9900017       1.59835292E-08
   46.0499992       1.56601416E-08
   46.1100006       1.53035469E-08
   46.1699982       1.49201949E-08
   46.2299995       1.45105776E-08
   46.2900009       1.40699319E-08
   46.3499985       1.35912019E-08
   46.4099998       1.30690774E-08
   46.4700012       1.25036150E-08
   46.5299988       1.19021824E-08
   46.5900002       1.12789982E-08
   46.6500015       1.06522853E-08
   46.7099991       1.00397548E-08
   46.7700005       9.45380219E-09
   46.8300018       8.89806717E-09
   46.8899994       8.36675973E-09
   46.9500008       7.84722776E-09
   47.0099983       7.32496996E-09
   47.0699997       6.78925716E-09
   47.1300011       6.23714946E-09
   47.1899986       5.67440850E-09
   47.2500000       5.11314058E-09
   47.3100014       4.56737492E-09
   47.3699989       4.04847134E-09
   47.4300003       3.56201846E-09
   47.4900017       3.10696935E-09
   47.5499992       2.67675282E-09
   47.6100006       2.26154340E-09
   47.6699982       1.85087767E-09
   47.7299995       1.43609269E-09
   47.7900009       1.01228415E-09
   47.8499985       5.79444437E-10
   47.9099998       1.42342957E-10
   47.9700012      -2.91140889E-10
   48.0299988      -7.12945758E-10
   48.0900002      -1.11799203E-09
   48.1500015      -1.50613966E-09
   48.2099991      -1.88183558E-09
   48.2700005      -2.25141794E-09
   48.3300018      -2.61928346E-09
   48.3899994      -2.98481706E-09
   48.4500008      -3.34162009E-09
   48.5099983      -3.67936592E-09
   48.5699997      -3.98722300E-09
   48.6300011      -4.25705160E-09
   48.6899986      -4.48490578E-09
   48.7500000      -4.67045247E-09
   48.8100014      -4.81510476E-09
   48.8699989      -4.92016650E-09
   48.9300003      -4.98594899E-09
   48.9900017      -5.01197128E-09
   49.0499992      -4.99765784E-09
   49.1100006      -4.94282615E-09
   49.1699982      -4.84772800E-09
   49.2299995      -4.71298955E-09
   49.2900009      -4.53998661E-09
   49.3499985      -4.33182601E-09
   49.4099998      -4.09445455E-09
   49.4700012      -3.83699561E-09
   49.5299988      -3.57062935E-09
   49.5900002      -3.30610228E-09
   49.6500015      -3.05082803E-09
   49.7099991      -2.80697243E-09
   49.7700005      -2.57156429E-09
   49.8300018      -2.33875097E-09
   49.8899994      -2.10328044E-09
   49.9500008      -1.86369742E-09
   50.0099983      -1.62387803E-09
   50.0699997      -1.39227530E-09
   50.1300011      -1.17923571E-09
   50.1899986      -9.93546356E-10
   50.2500000      -8.39665393E-10
   50.3100014      -7.16800563E-10
   50.3699989      -6.20250962E-10
   50.4300003      -5.44477130E-10
   50.4900017      -4.86572560E-10
   50.5499992      -4.48521525E-10
   50.6100006      -4.37045733E-10