  -2.400000      0.0000000E+00
  -2.340000      0.0000000E+00
  -2.280000      0.0000000E+00
  -2.220000      0.0000000E+00
  -2.160000      0.0000000E+00
  -2.100000      1.1105509E-21
  -2.040000     -1.4332613E-20
  -1.980000     -1.9027948E-19
  -1.920000     -1.0091745E-18
  -1.860000     -3.3265623E-18
  -1.800000     -7.4868953E-18
  -1.740000     -1.0743407E-17
  -1.680000     -3.4426835E-18
  -1.620000      3.2799008E-17
  -1.560000      1.1878851E-16
  -1.500000      2.5736450E-16
  -1.440000      3.9986734E-16
  -1.380000      4.1485082E-16
  -1.320000      9.1040147E-17
  -1.260000     -7.8718091E-16
  -1.200000     -2.2731821E-15
  -1.140000     -4.0362043E-15
  -1.080000     -5.1975310E-15
  -1.020000     -4.3987899E-15
 -0.9600000     -2.5961115E-16
 -0.9000000      7.7631739E-15
 -0.8400000      1.8368633E-14
 -0.7800000      2.7795323E-14
 -0.7200000      3.0248407E-14
 -0.6600000      1.9780196E-14
 -0.6000000     -6.6181132E-15
 -0.5400000     -4.5813803E-14
 -0.4800000     -8.6934759E-14
 -0.4200000     -1.1296286E-13
 -0.3600000     -1.0599725E-13
 -0.3000000     -5.4880284E-14
 -0.2400000      3.7753197E-14
 -0.1800000      1.5242873E-13
 -0.1200000      2.5599935E-13
 -5.9999999E-02  3.1068358E-13
  0.0000000E+00  2.8596271E-13
  5.9999999E-02  1.6901907E-13
  0.1200000     -2.9770667E-14
  0.1800000     -2.7731986E-13
  0.2400000     -5.2286897E-13
  0.3000000     -7.0534198E-13
  0.3600000     -7.6208419E-13
  0.4200000     -6.4013264E-13
  0.4800000     -3.1172620E-13
  0.5400000      2.0685733E-13
  0.6000000      8.3916408E-13
  0.6600000      1.4455755E-12
  0.7200000      1.8435648E-12
  0.7800000      1.8540000E-12
  0.8400000      1.3639203E-12
  0.9000000      3.8449376E-13
  0.9600000     -9.2132075E-13
   1.020000     -2.2594964E-12
   1.080000     -3.2748708E-12
   1.140000     -3.6510990E-12
   1.200000     -3.2079220E-12
   1.260000     -1.9624840E-12
   1.320000     -1.3420928E-13
   1.380000      1.9070301E-12
   1.440000      3.7309474E-12
   1.500000      4.9466139E-12
   1.560000      5.2849496E-12
   1.620000      4.6470054E-12
   1.680000      3.1141086E-12
   1.740000      9.2616106E-13
   1.800000     -1.5611190E-12
   1.860000     -3.9302893E-12
   1.920000     -5.7618055E-12
   1.980000     -6.6967890E-12
   2.040000     -6.5007309E-12
   2.100000     -5.1220326E-12
   2.160000     -2.7328773E-12
   2.220000      2.6501951E-13
   2.280000      3.2859841E-12
   2.340000      5.6627420E-12
   2.400000      6.7919372E-12
   2.460000      6.2882525E-12
   2.520000      4.0997952E-12
   2.580000      5.4156760E-13
   2.640000     -3.7730140E-12
   2.700000     -8.0875653E-12
   2.760000     -1.1697501E-11
   2.820000     -1.4120856E-11
   2.880000     -1.5190984E-11
   2.940000     -1.5047385E-11
   3.000000     -1.4039412E-11
   3.060000     -1.2588061E-11
   3.120000     -1.1061087E-11
   3.180000     -9.7038671E-12
   3.240000     -8.6392620E-12
   3.300000     -7.9172363E-12
   3.360000     -7.5727402E-12
   3.420000     -7.6480810E-12
   3.480000     -8.1561051E-12
   3.540000     -8.9962074E-12
   3.600000     -9.8714743E-12
   3.660000     -1.0273171E-11
   3.720000     -9.5835761E-12
   3.780000     -7.2989011E-12
   3.840000     -3.3084577E-12
   3.900000      1.8837685E-12
   3.960000      7.1122275E-12
   4.020000      1.0739338E-11
   4.080000      1.1048266E-11
   4.140000      6.7149780E-12
   4.200000     -2.8033448E-12
   4.260000     -1.7090957E-11
   4.320000     -3.4841519E-11
   4.380000     -5.4105078E-11
   4.440000     -7.2594285E-11
   4.500000     -8.7949766E-11
   4.560000     -9.7938935E-11
   4.620000     -1.0063823E-10
   4.680000     -9.4672666E-11
   4.740000     -7.9539236E-11
   4.800000     -5.5949873E-11
   4.860000     -2.6054277E-11
   4.920000      6.6046825E-12
   4.980000      3.7475974E-11
   5.040000      6.1676074E-11
   5.100000      7.4794171E-11
   5.160000      7.3617376E-11
   5.220000      5.6596238E-11
   5.280000      2.3955567E-11
   5.340000     -2.2546734E-11
   5.400000     -8.0135787E-11
   5.460000     -1.4569418E-10
   5.520000     -2.1646639E-10
   5.580000     -2.9066982E-10
   5.640000     -3.6790523E-10
   5.700000     -4.4929274E-10
   5.760000     -5.3731108E-10
   5.820000     -6.3537892E-10
   5.880000     -7.4727075E-10
   5.940000     -8.7648050E-10
   6.000000     -1.0256423E-09
   6.060000     -1.1960836E-09
   6.120000     -1.3875563E-09
   6.180000     -1.5981687E-09
   6.240000     -1.8245103E-09
   6.300000     -2.0619377E-09
   6.360000     -2.3049425E-09
   6.420000     -2.5474935E-09
   6.480000     -2.7832570E-09
   6.540000     -3.0056504E-09
   6.600000     -3.2077949E-09
   6.660000     -3.3824958E-09
   6.720000     -3.5224019E-09
   6.780000     -3.6204166E-09
   6.840000     -3.6703058E-09
   6.900000     -3.6673418E-09
   6.960000     -3.6088057E-09
   7.020000     -3.4942360E-09
   7.080000     -3.3254399E-09
   7.140000     -3.1063621E-09
   7.200000     -2.8429146E-09
   7.260000     -2.5427911E-09
   7.320000     -2.2151958E-09
   7.380000     -1.8703976E-09
   7.440000     -1.5190776E-09
   7.500000     -1.1715555E-09
   7.560000     -8.3706647E-10
   7.620000     -5.2323917E-10
   7.680000     -2.3583607E-10
   7.740000      2.1308594E-11
   7.800000      2.4625724E-10
   7.860000      4.3889095E-10
   7.920000      6.0071825E-10
   7.980000      7.3444251E-10
   8.040000      8.4323121E-10
   8.100000      9.2982327E-10
   8.160000      9.9580622E-10
   8.220000      1.0414474E-09
   8.280000      1.0662795E-09
   8.340000      1.0702910E-09
   8.400000      1.0552080E-09
   8.460000      1.0252271E-09
   8.520000      9.8673447E-10
   8.580000      9.4700370E-10
   8.640000      9.1235913E-10
   8.700000      8.8657814E-10
   8.760000      8.7022251E-10
   8.820000      8.6117141E-10
   8.880000      8.5606816E-10
   8.940000      8.5197371E-10
   9.000000      8.4743268E-10
   9.060000      8.4244278E-10
   9.120000      8.3733637E-10
   9.180000      8.3109530E-10
   9.240000      8.1990559E-10
   9.300000      7.9669876E-10
   9.360000      7.5205803E-10
   9.420000      6.7633688E-10
   9.480000      5.6234595E-10
   9.540000      4.0770221E-10
   9.600000      2.1598148E-10
   9.660000     -3.8192388E-12
   9.720000     -2.3945609E-10
   9.780000     -4.7863252E-10
   9.840000     -7.1222434E-10
   9.900000     -9.3649699E-10
   9.960000     -1.1535879E-09
   10.02000     -1.3701057E-09
   10.08000     -1.5943424E-09
   10.14000     -1.8330826E-09
   10.20000     -2.0891289E-09
   10.26000     -2.3603990E-09
   10.32000     -2.6408611E-09
   10.38000     -2.9228941E-09
   10.44000     -3.2001390E-09
   10.50000     -3.4697487E-09
   10.56000     -3.7332173E-09
   10.62000     -3.9955643E-09
   10.68000     -4.2633248E-09
   10.74000     -4.5422706E-09
   10.80000     -4.8358770E-09
   10.86000     -5.1451616E-09
   10.92000     -5.4698943E-09
   10.98000     -5.8105187E-09
   11.04000     -6.1697811E-09
   11.10000     -6.5531642E-09
   11.16000     -6.9677650E-09
   11.22000     -7.4199664E-09
   11.28000     -7.9128135E-09
   11.34000     -8.4441982E-09
   11.40000     -9.0066026E-09
   11.46000     -9.5885389E-09
   11.52000     -1.0177103E-08
   11.58000     -1.0760674E-08
   11.64000     -1.1330787E-08
   11.70000     -1.1882660E-08
   11.76000     -1.2414432E-08
   11.82000     -1.2925670E-08
   11.88000     -1.3415920E-08
   11.94000     -1.3883895E-08
   12.00000     -1.4327538E-08
   12.06000     -1.4744753E-08
   12.12000     -1.5134374E-08
   12.18000     -1.5496870E-08
   12.24000     -1.5834454E-08
   12.30000     -1.6150494E-08
   12.36000     -1.6448398E-08
   12.42000     -1.6730223E-08
   12.48000     -1.6995427E-08
   12.54000     -1.7240094E-08
   12.60000     -1.7456914E-08
   12.66000     -1.7636024E-08
   12.72000     -1.7766638E-08
   12.78000     -1.7839103E-08
   12.84000     -1.7846862E-08
   12.90000     -1.7787816E-08
   12.96000     -1.7664636E-08
   13.02000     -1.7483995E-08
   13.08000     -1.7254939E-08
   13.14000     -1.6986972E-08
   13.20000     -1.6688421E-08
   13.26000     -1.6365501E-08
   13.32000     -1.6022279E-08
   13.38000     -1.5661351E-08
   13.44000     -1.5284897E-08
   13.50000     -1.4895650E-08
   13.56000     -1.4497527E-08
   13.62000     -1.4095681E-08
   13.68000     -1.3696067E-08
   13.74000     -1.3304671E-08
   13.80000     -1.2926723E-08
   13.86000     -1.2566155E-08
   13.92000     -1.2225520E-08
   13.98000     -1.1906359E-08
   14.04000     -1.1609836E-08
   14.10000     -1.1337233E-08
   14.16000     -1.1089960E-08
   14.22000     -1.0868868E-08
   14.28000     -1.0673018E-08
   14.34000     -1.0498384E-08
   14.40000     -1.0337163E-08
   14.46000     -1.0178186E-08
   14.52000     -1.0008628E-08
   14.58000     -9.8165920E-09
   14.64000     -9.5938315E-09
   14.70000     -9.3376400E-09
   14.76000     -9.0512486E-09
   14.82000     -8.7425116E-09
   14.88000     -8.4212228E-09
   14.94000     -8.0958680E-09
   15.00000     -7.7707583E-09
   15.06000     -7.4443700E-09
   15.12000     -7.1093647E-09
   15.18000     -6.7542705E-09
   15.24000     -6.3663985E-09
   15.30000     -5.9352225E-09
   15.36000     -5.4553908E-09
   15.42000     -4.9286561E-09
   15.48000     -4.3643968E-09
   15.54000     -3.7788008E-09
   15.60000     -3.1931728E-09
   15.66000     -2.6319393E-09
   15.72000     -2.1208117E-09
   15.78000     -1.6852302E-09
   15.84000     -1.3489010E-09
   15.90000     -1.1320991E-09
   15.96000     -1.0495700E-09
   16.02000     -1.1082286E-09
   16.08000     -1.3052183E-09
   16.14000     -1.6270348E-09
   16.20000     -2.0502162E-09
   16.26000     -2.5436202E-09
   16.32000     -3.0717870E-09
   16.38000     -3.5985606E-09
   16.44000     -4.0901655E-09
   16.50000     -4.5172679E-09
   16.56000     -4.8559827E-09
   16.62000     -5.0881535E-09
   16.68000     -5.2012896E-09
   16.74000     -5.1884501E-09
   16.80000     -5.0481113E-09
   16.86000     -4.7838808E-09
   16.92000     -4.4039097E-09
   16.98000     -3.9199120E-09
   17.04000     -3.3458853E-09
   17.10000     -2.6967171E-09
   17.16000     -1.9868986E-09
   17.22000     -1.2295462E-09
   17.28000     -4.3585410E-10
   17.34000      3.8498141E-10
   17.40000      1.2254256E-09
   17.46000      2.0790312E-09
   17.52000      2.9398799E-09
   17.58000      3.8023100E-09
   17.64000      4.6610986E-09
   17.70000      5.5120841E-09
   17.76000      6.3530177E-09
   17.82000      7.1843309E-09
   17.88000      8.0095237E-09
   17.94000      8.8350678E-09
   18.00000      9.6698614E-09
   18.06000      1.0524401E-08
   18.12000      1.1409810E-08
   18.18000      1.2336780E-08
   18.24000      1.3314444E-08
   18.30000      1.4349256E-08
   18.36000      1.5444074E-08
   18.42000      1.6597737E-08
   18.48000      1.7805327E-08
   18.54000      1.9059071E-08
   18.60000      2.0349436E-08
   18.66000      2.1665828E-08
   18.72000      2.2996396E-08
   18.78000      2.4326852E-08
   18.84000      2.5638876E-08
   18.90000      2.6909035E-08
   18.96000      2.8109113E-08
   19.02000      2.9208310E-08
   19.08000      3.0176921E-08
   19.14000      3.0990428E-08
   19.20000      3.1632670E-08
   19.26000      3.2097045E-08
   19.32000      3.2385348E-08
   19.38000      3.2504833E-08
   19.44000      3.2464623E-08
   19.50000      3.2272808E-08
   19.56000      3.1935095E-08
   19.62000      3.1455389E-08
   19.68000      3.0837757E-08
   19.74000      3.0088895E-08
   19.80000      2.9219988E-08
   19.86000      2.8247287E-08
   19.92000      2.7191090E-08
   19.98000      2.6073469E-08
   20.04000      2.4915414E-08
   20.10000      2.3734167E-08
   20.16000      2.2541368E-08
   20.22000      2.1342334E-08
   20.28000      2.0136429E-08
   20.34000      1.8918303E-08
   20.40000      1.7679634E-08
   20.46000      1.6411056E-08
   20.52000      1.5103929E-08
   20.58000      1.3751663E-08
   20.64000      1.2350391E-08
   20.70000      1.0898958E-08
   20.76000      9.3983745E-09
   20.82000      7.8511428E-09
   20.88000      6.2609131E-09
   20.94000      4.6327551E-09
   21.00000      2.9739651E-09
   21.06000      1.2949218E-09
   21.12000     -3.9070833E-10
   21.18000     -2.0669533E-09
   21.24000     -3.7177452E-09
   21.30000     -5.3297926E-09
   21.36000     -6.8951307E-09
   21.42000     -8.4123846E-09
   21.48000     -9.8862118E-09
   21.54000     -1.1325112E-08
   21.60000     -1.2738350E-08
   21.66000     -1.4133020E-08
   21.72000     -1.5512112E-08
   21.78000     -1.6873932E-08
   21.84000     -1.8212754E-08
   21.90000     -1.9520154E-08
   21.96000     -2.0786477E-08
   22.02000     -2.2001927E-08
   22.08000     -2.3157186E-08
   22.14000     -2.4243626E-08
   22.20000     -2.5253417E-08
   22.26000     -2.6179775E-08
   22.32000     -2.7017443E-08
   22.38000     -2.7763290E-08
   22.44000     -2.8416727E-08
   22.50000     -2.8979604E-08
   22.56000     -2.9455441E-08
   22.62000     -2.9848124E-08
   22.68000     -3.0160539E-08
   22.74000     -3.0393714E-08
   22.80000     -3.0546836E-08
   22.86000     -3.0618214E-08
   22.92000     -3.0606714E-08
   22.98000     -3.0513043E-08
   23.04000     -3.0340260E-08
   23.10000     -3.0093172E-08
   23.16000     -2.9776874E-08
   23.22000     -2.9394862E-08
   23.28000     -2.8947374E-08
   23.34000     -2.8430566E-08
   23.40000     -2.7836826E-08
   23.46000     -2.7156393E-08
   23.52000     -2.6380006E-08
   23.58000     -2.5502057E-08
   23.64000     -2.4523258E-08
   23.70000     -2.3451719E-08
   23.76000     -2.2301620E-08
   23.82000     -2.1089329E-08
   23.88000     -1.9827938E-08
   23.94000     -1.8522044E-08
   24.00000     -1.7164975E-08
   24.06000     -1.5739973E-08
   24.12000     -1.4225530E-08
   24.18000     -1.2603483E-08
   24.24000     -1.0867287E-08
   24.30000     -9.0277181E-09
   24.36000     -7.1140236E-09
   24.42000     -5.1699938E-09
   24.48000     -3.2460048E-09
   24.54000     -1.3892603E-09
   24.60000      3.6501055E-10
   24.66000      1.9988668E-09
   24.72000      3.5118517E-09
   24.78000      4.9158544E-09
   24.84000      6.2261001E-09
   24.90000      7.4511517E-09
   24.96000      8.5855136E-09
   25.02000      9.6078390E-09
   25.08000      1.0485937E-08
   25.14000      1.1187143E-08
   25.20000      1.1690340E-08
   25.26000      1.1994818E-08
   25.32000      1.2122118E-08
   25.38000      1.2109499E-08
   25.44000      1.1996901E-08
   25.50000      1.1811899E-08
   25.56000      1.1557962E-08
   25.62000      1.1210383E-08
   25.68000      1.0721532E-08
   25.74000      1.0034081E-08
   25.80000      9.0981933E-09
   25.86000      7.8873912E-09
   25.92000      6.4081065E-09
   25.98000      4.6997375E-09
   26.04000      2.8248628E-09
   26.10000      8.5238594E-10
   26.16000     -1.1611593E-09
   26.22000     -3.1860019E-09
   26.28000     -5.2242592E-09
   26.34000     -7.3038748E-09
   26.40000     -9.4634203E-09
   26.46000     -1.1733214E-08
   26.52000     -1.4119658E-08
   26.58000     -1.6598573E-08
   26.64000     -1.9119945E-08
   26.70000     -2.1622268E-08
   26.76000     -2.4051214E-08
   26.82000     -2.6375851E-08
   26.88000     -2.8596583E-08
   26.94000     -3.0741877E-08
   27.00000     -3.2854604E-08
   27.06000     -3.4972302E-08
   27.12000     -3.7107664E-08
   27.18000     -3.9235843E-08
   27.24000     -4.1293184E-08
   27.30000     -4.3188674E-08
   27.36000     -4.4825132E-08
   27.42000     -4.6123787E-08
   27.48000     -4.7044299E-08
   27.54000     -4.7593254E-08
   27.60000     -4.7818133E-08
   27.66000     -4.7788340E-08
   27.72000     -4.7569763E-08
   27.78000     -4.7201354E-08
   27.84000     -4.6681681E-08
   27.90000     -4.5969710E-08
   27.96000     -4.4999283E-08
   28.02000     -4.3702219E-08
   28.08000     -4.2032340E-08
   28.14000     -3.9982659E-08
   28.20000     -3.7590297E-08
   28.26000     -3.4927570E-08
   28.32000     -3.2082028E-08
   28.38000     -2.9131771E-08
   28.44000     -2.6123940E-08
   28.50000     -2.3063748E-08
   28.56000     -1.9918053E-08
   28.62000     -1.6632841E-08
   28.68000     -1.3159018E-08
   28.74000     -9.4776915E-09
   28.80000     -5.6159282E-09
   28.86000     -1.6470122E-09
   28.92000      2.3253703E-09
   28.98000      6.1938938E-09
   29.04000      9.8762811E-09
   29.10000      1.3336188E-08
   29.16000      1.6589317E-08
   29.22000      1.9692807E-08
   29.28000      2.2721570E-08
   29.34000      2.5739364E-08
   29.40000      2.8774004E-08
   29.46000      3.1804547E-08
   29.52000      3.4764348E-08
   29.58000      3.7558745E-08
   29.64000      4.0091400E-08
   29.70000      4.2290640E-08
   29.76000      4.4127209E-08
   29.82000      4.5617949E-08
   29.88000      4.6814726E-08
   29.94000      4.7783011E-08
   30.00000      4.8577796E-08
   30.06000      4.9225097E-08
   30.12000      4.9714895E-08
   30.18000      5.0007039E-08
   30.24000      5.0047152E-08
   30.30000      4.9786564E-08
   30.36000      4.9199336E-08
   30.42000      4.8291110E-08
   30.48000      4.7097434E-08
   30.54000      4.5672689E-08
   30.60000      4.4073527E-08
   30.66000      4.2342258E-08
   30.72000      4.0495294E-08
   30.78000      3.8520252E-08
   30.84000      3.6382477E-08
   30.90000      3.4038912E-08
   30.96000      3.1454892E-08
   31.02000      2.8618615E-08
   31.08000      2.5548824E-08
   31.14000      2.2293504E-08
   31.20000      1.8920391E-08
   31.26000      1.5502451E-08
   31.32000      1.2103007E-08
   31.38000      8.7647720E-09
   31.44000      5.5056444E-09
   31.50000      2.3218170E-09
   31.56000     -8.0333418E-10
   31.62000     -3.8876458E-09
   31.68000     -6.9393873E-09
   31.74000     -9.9503898E-09
   31.80000     -1.2894898E-08
   31.86000     -1.5734262E-08
   31.92000     -1.8425908E-08
   31.98000     -2.0933792E-08
   32.04000     -2.3237119E-08
   32.10000     -2.5334664E-08
   32.16000     -2.7243294E-08
   32.22000     -2.8991026E-08
   32.28000     -3.0606600E-08
   32.34000     -3.2108538E-08
   32.40000     -3.3497091E-08
   32.46000     -3.4751540E-08
   32.52000     -3.5834212E-08
   32.58000     -3.6700310E-08
   32.64000     -3.7310958E-08
   32.70000     -3.7645449E-08
   32.76000     -3.7708745E-08
   32.82000     -3.7531311E-08
   32.88000     -3.7161065E-08
   32.94000     -3.6649737E-08
   33.00000     -3.6038081E-08
   33.06000     -3.5344762E-08
   33.12000     -3.4562600E-08
   33.18000     -3.3663142E-08
   33.24000     -3.2607797E-08
   33.30000     -3.1361740E-08
   33.36000     -2.9906097E-08
   33.42000     -2.8244948E-08
   33.48000     -2.6405376E-08
   33.54000     -2.4431122E-08
   33.60000     -2.2372115E-08
   33.66000     -2.0273195E-08
   33.72000     -1.8165437E-08
   33.78000     -1.6062650E-08
   33.84000     -1.3963878E-08
   33.90000     -1.1860988E-08
   33.96000     -9.7485389E-09
   34.02000     -7.6325133E-09
   34.08000     -5.5348250E-09
   34.14000     -3.4921483E-09
   34.20000     -1.5496767E-09
   34.26000      2.4786911E-10
   34.32000      1.8649338E-09
   34.38000      3.2809548E-09
   34.44000      4.4920276E-09
   34.50000      5.5085403E-09
   34.56000      6.3499055E-09
   34.62000      7.0379240E-09
   34.68000      7.5902600E-09
   34.74000      8.0152809E-09
   34.80000      8.3092893E-09
   34.86000      8.4568290E-09
   34.92000      8.4342062E-09
   34.98000      8.2155331E-09
   35.04000      7.7797910E-09
   35.10000      7.1169337E-09
   35.16000      6.2312746E-09
   35.22000      5.1411946E-09
   35.28000      3.8753800E-09
   35.34000      2.4667706E-09
   35.40000      9.4589514E-10
   35.46000     -6.6471828E-10
   35.52000     -2.3537925E-09
   35.58000     -4.1214867E-09
   35.64000     -5.9764509E-09
   35.70000     -7.9303906E-09
   35.76000     -9.9915276E-09
   35.82000     -1.2158875E-08
   35.88000     -1.4419282E-08
   35.94000     -1.6748475E-08
   36.00000     -1.9116019E-08
   36.06000     -2.1492520E-08
   36.12000     -2.3856522E-08
   36.18000     -2.6198492E-08
   36.24000     -2.8520363E-08
   36.30000     -3.0830805E-08
   36.36000     -3.3137827E-08
   36.42000     -3.5441222E-08
   36.48000     -3.7727204E-08
   36.54000     -3.9966885E-08
   36.60000     -4.2119073E-08
   36.66000     -4.4136783E-08
   36.72000     -4.5975966E-08
   36.78000     -4.7604274E-08
   36.84000     -4.9007383E-08
   36.90000     -5.0190852E-08
   36.96000     -5.1176386E-08
   37.02000     -5.1993243E-08
   37.08000     -5.2667094E-08
   37.14000     -5.3209988E-08
   37.20000     -5.3614873E-08
   37.26000     -5.3856780E-08
   37.32000     -5.3900493E-08
   37.38000     -5.3712238E-08
   37.44000     -5.3271407E-08
   37.50000     -5.2578415E-08
   37.56000     -5.1655999E-08
   37.62000     -5.0543530E-08
   37.68000     -4.9286150E-08
   37.74000     -4.7922136E-08
   37.80000     -4.6472628E-08
   37.86000     -4.4937106E-08
   37.92000     -4.3296406E-08
   37.98000     -4.1522654E-08
   38.04000     -3.9593150E-08
   38.10000     -3.7503732E-08
   38.16000     -3.5276898E-08
   38.22000     -3.2961417E-08
   38.28000     -3.0622964E-08
   38.34000     -2.8328252E-08
   38.40000     -2.6127671E-08
   38.46000     -2.4042011E-08
   38.52000     -2.2057774E-08
   38.58000     -2.0132751E-08
   38.64000     -1.8210201E-08
   38.70000     -1.6237207E-08
   38.76000     -1.4181377E-08
   38.82000     -1.2040619E-08
   38.88000     -9.8429087E-09
   38.94000     -7.6361868E-09
   39.00000     -5.4717164E-09
   39.06000     -3.3864445E-09
   39.12000     -1.3902922E-09
   39.18000      5.3724108E-10
   39.24000      2.4399340E-09
   39.30000      4.3695803E-09
   39.36000      6.3679302E-09
   39.42000      8.4522176E-09
   39.48000      1.0609389E-08
   39.54000      1.2801063E-08
   39.60000      1.4977346E-08
   39.66000      1.7094530E-08
   39.72000      1.9130370E-08
   39.78000      2.1091623E-08
   39.84000      2.3011406E-08
   39.90000      2.4937490E-08
   39.96000      2.6915716E-08
   40.02000      2.8974243E-08
   40.08000      3.1113796E-08
   40.14000      3.3306890E-08
   40.20000      3.5505963E-08
   40.26000      3.7657411E-08
   40.32000      3.9716745E-08
   40.38000      4.1659881E-08
   40.44000      4.3487010E-08
   40.50000      4.5218087E-08
   40.56000      4.6881688E-08
   40.62000      4.8501221E-08
   40.68000      5.0083152E-08
   40.74000      5.1611295E-08
   40.80000      5.3048939E-08
   40.86000      5.4347957E-08
   40.92000      5.5461651E-08
   40.98000      5.6356853E-08
   41.04000      5.7021211E-08
   41.10000      5.7463499E-08
   41.16000      5.7707279E-08
   41.22000      5.7780717E-08
   41.28000      5.7706398E-08
   41.34000      5.7494699E-08
   41.40000      5.7142579E-08
   41.46000      5.6637525E-08
   41.52000      5.5964513E-08
   41.58000      5.5113222E-08
   41.64000      5.4083106E-08
   41.70000      5.2885074E-08
   41.76000      5.1539956E-08
   41.82000      5.0074775E-08
   41.88000      4.8518189E-08
   41.94000      4.6896425E-08
   42.00000      4.5230536E-08
   42.06000      4.3535444E-08
   42.12000      4.1820734E-08
   42.18000      4.0092836E-08
   42.24000      3.8357790E-08
   42.30000      3.6623714E-08
   42.36000      3.4902211E-08
   42.42000      3.3208476E-08
   42.48000      3.1560280E-08
   42.54000      2.9976484E-08
   42.60000      2.8475435E-08
   42.66000      2.7073391E-08
   42.72000      2.5782622E-08
   42.78000      2.4609085E-08
   42.84000      2.3549958E-08
   42.90000      2.2592198E-08
   42.96000      2.1713435E-08
   43.02000      2.0885979E-08
   43.08000      2.0083442E-08
   43.14000      1.9287894E-08
   43.20000      1.8494863E-08
   43.26000      1.7713923E-08
   43.32000      1.6964345E-08
   43.38000      1.6267277E-08
   43.44000      1.5637433E-08
   43.50000      1.5077351E-08
   43.56000      1.4576197E-08
   43.62000      1.4113261E-08
   43.68000      1.3664616E-08
   43.74000      1.3210636E-08
   43.80000      1.2741987E-08
   43.86000      1.2262425E-08
   43.92000      1.1787607E-08
   43.98000      1.1340096E-08
   44.04000      1.0941682E-08
   44.10000      1.0605032E-08
   44.16000      1.0327306E-08
   44.22000      1.0088246E-08
   44.28000      9.8541646E-09
   44.34000      9.5872830E-09
   44.40000      9.2577102E-09
   44.46000      8.8539291E-09
   44.52000      8.3878318E-09
   44.58000      7.8921403E-09
   44.64000      7.4108883E-09
   44.70000      6.9862263E-09
   44.76000      6.6461601E-09
   44.82000      6.3973289E-09
   44.88000      6.2249472E-09
   44.94000      6.0994383E-09
   45.00000      5.9871406E-09
   45.06000      5.8613727E-09
   45.12000      5.7103979E-09
   45.18000      5.5400529E-09
   45.24000      5.3705658E-09
   45.30000      5.2288640E-09
   45.36000      5.1390030E-09
   45.42000      5.1139297E-09
   45.48000      5.1513993E-09
   45.54000      5.2355267E-09
   45.60000      5.3435087E-09
   45.66000      5.4551217E-09
   45.72000      5.5614491E-09
   45.78000      5.6694058E-09
   45.84000      5.8000968E-09
   45.90000      5.9813181E-09
   45.96000      6.2367289E-09
   46.02000      6.5755170E-09
   46.08000      6.9862414E-09
   46.14000      7.4371265E-09
   46.20000      7.8828695E-09
   46.26000      8.2758893E-09
   46.32000      8.5785352E-09
   46.38000      8.7724663E-09
   46.44000      8.8623171E-09
   46.50000      8.8724779E-09
   46.56000      8.8379339E-09
   46.62000      8.7919751E-09
   46.68000      8.7546157E-09
   46.74000      8.7253662E-09
   46.80000      8.6826324E-09
   46.86000      8.5897263E-09
   46.92000      8.4052605E-09
   46.98000      8.0941929E-09
   47.04000      7.6358146E-09
   47.10000      7.0263328E-09
   47.16000      6.2759740E-09
   47.22000      5.4025828E-09
   47.28000      4.4247752E-09
   47.34000      3.3573255E-09
   47.40000      2.2100182E-09
   47.46000      9.8940078E-10
   47.52000     -2.9829972E-10
   47.58000     -1.6449666E-09
   47.64000     -3.0400822E-09
   47.70000     -4.4716826E-09
   47.76000     -5.9276886E-09
   47.82000     -7.3964781E-09
   47.88000     -8.8662500E-09
   47.94000     -1.0323675E-08
   48.00000     -1.1752908E-08
   48.06000     -1.3135903E-08
   48.12000     -1.4454332E-08
   48.18000     -1.5692498E-08
   48.24000     -1.6840188E-08
   48.30000     -1.7894399E-08
   48.36000     -1.8859380E-08
   48.42000     -1.9745007E-08
   48.48000     -2.0563878E-08
   48.54000     -2.1327738E-08
   48.60000     -2.2043865E-08
   48.66000     -2.2712218E-08
   48.72000     -2.3324217E-08
   48.78000     -2.3864018E-08
   48.84000     -2.4312509E-08
   48.90000     -2.4653245E-08
   48.96000     -2.4878412E-08
   49.02000     -2.4992374E-08
   49.08000     -2.5010953E-08
   49.14000     -2.4956208E-08
   49.20000     -2.4848449E-08
   49.26000     -2.4698691E-08
   49.32000     -2.4504608E-08
   49.38000     -2.4251676E-08
   49.44000     -2.3918917E-08
   49.50000     -2.3486773E-08
   49.56000     -2.2944104E-08
   49.62000     -2.2291960E-08
   49.68000     -2.1543437E-08
   49.74000     -2.0720250E-08
   49.80000     -1.9847517E-08
   49.86000     -1.8948061E-08
   49.92000     -1.8037353E-08
   49.98000     -1.7119925E-08
   50.04000     -1.6188213E-08
   50.10000     -1.5224703E-08
   50.16000     -1.4207559E-08
   50.22000     -1.3118685E-08
   50.28000     -1.1951691E-08
   50.34000     -1.0716687E-08
   50.40000     -9.4396304E-09
   50.46000     -8.1560465E-09
   50.52000     -6.9013764E-09
   50.58000     -5.7017089E-09
   50.64000     -4.5684154E-09
   50.70000     -3.4983931E-09
   50.76000     -2.4792042E-09
   50.82000     -1.4966154E-09
   50.88000     -5.4161825E-10
   50.94000      3.8517436E-10
   51.00000      1.2725295E-09
   51.06000      2.1007032E-09
   51.12000      2.8458547E-09
   51.18000      3.4858003E-09
   51.24000      4.0058987E-09
   51.30000      4.4034776E-09
   51.36000      4.6890474E-09
   51.42000      4.8831050E-09
   51.48000      5.0088400E-09
   51.54000      5.0829358E-09
   51.60000      5.1079709E-09
   51.66000      5.0697291E-09
   51.72000      4.9409170E-09
   51.78000      4.6901061E-09
   51.84000      4.2925170E-09
   51.90000      3.7385961E-09
   51.96000      3.0374405E-09
   52.02000      2.2143725E-09
   52.08000      1.3041610E-09
   52.14000      3.4267850E-10
   52.20000     -6.4015909E-10
   52.26000     -1.6241246E-09
   52.32000     -2.5982019E-09
   52.38000     -3.5561247E-09
   52.44000     -4.4891144E-09
   52.50000     -5.3777600E-09
   52.56000     -6.1854468E-09
   52.62000     -6.8555552E-09
   52.68000     -7.3136563E-09
   52.74000     -7.4742719E-09
   52.80000     -7.2500153E-09
   52.86000     -6.5599801E-09
   52.92000     -5.3345506E-09
   52.98000     -3.5152761E-09
   53.04000     -1.0503940E-09
   53.10000      2.1118740E-09
   53.16000      6.0296794E-09
   53.22000      1.0771529E-08
   53.28000      1.6417047E-08
   53.34000      2.3054788E-08
   53.40000      3.0778033E-08
   53.46000      3.9679655E-08
   53.52000      4.9846928E-08
   53.58000      6.1356950E-08
   53.64000      7.4272961E-08
   53.70000      8.8641791E-08
   53.76000      1.0449216E-07
   53.82000      1.2183371E-07
   53.88000      1.4065637E-07
   53.94000      1.6092974E-07
   54.00000      1.8260265E-07
   54.06000      2.0560239E-07
   54.12000      2.2983433E-07
   54.18000      2.5518133E-07
   54.24000      2.8150333E-07
   54.30000      3.0863680E-07
   54.36000      3.3639444E-07
   54.42000      3.6456515E-07
   54.48000      3.9291436E-07
   54.54000      4.2118498E-07
   54.60000      4.4909874E-07
   54.66000      4.7635791E-07
   54.72000      5.0264765E-07
   54.78000      5.2763761E-07
   54.84000      5.5098428E-07
   54.90000      5.7233188E-07
   54.96000      5.9131378E-07
   55.02000      6.0755366E-07
   55.08000      6.2066806E-07
   55.14000      6.3027068E-07
   55.20000      6.3597923E-07
   55.26000      6.3742402E-07
   55.32000      6.3425739E-07
   55.38000      6.2616226E-07
   55.44000      6.1285937E-07
   55.50000      5.9411218E-07
   55.56000      5.6973067E-07