  -2.400000      0.0000000E+00
  -2.340000      0.0000000E+00
  -2.280000      0.0000000E+00
  -2.220000      0.0000000E+00
  -2.160000      0.0000000E+00
  -2.100000      3.6653694E-21
  -2.040000     -4.7077960E-20
  -1.980000     -5.4620499E-19
  -1.920000     -2.4998254E-18
  -1.860000     -6.7600736E-18
  -1.800000     -1.0962493E-17
  -1.740000     -5.1177346E-18
  -1.680000      2.8661990E-17
  -1.620000      1.0422806E-16
  -1.560000      2.0511952E-16
  -1.500000      2.5816889E-16
  -1.440000      1.3806626E-16
  -1.380000     -2.6842948E-16
  -1.320000     -9.4581213E-16
  -1.260000     -1.6458045E-15
  -1.200000     -1.8984715E-15
  -1.140000     -1.2076348E-15
  -1.080000      6.1625702E-16
  -1.020000      3.1724183E-15
 -0.9600000      5.4737581E-15
 -0.9000000      6.3542510E-15
 -0.8400000      5.1243842E-15
 -0.7800000      2.0674306E-15
 -0.7200000     -1.6458335E-15
 -0.6600000     -4.7233619E-15
 -0.6000000     -6.7815270E-15
 -0.5400000     -8.8643921E-15
 -0.4800000     -1.2823628E-14
 -0.4200000     -1.9621483E-14
 -0.3600000     -2.7483915E-14
 -0.3000000     -3.1260076E-14
 -0.2400000     -2.3908708E-14
 -0.1800000      1.4719000E-16
 -0.1200000      4.1291592E-14
 -5.9999999E-02  9.2563910E-14
  0.0000000E+00  1.4033742E-13
  5.9999999E-02  1.6763941E-13
  0.1200000      1.5870383E-13
  0.1800000      1.0315245E-13
  0.2400000     -9.7361662E-16
  0.3000000     -1.4512733E-13
  0.3600000     -3.0880000E-13
  0.4200000     -4.5939657E-13
  0.4800000     -5.5533757E-13
  0.5400000     -5.5414625E-13
  0.6000000     -4.2502259E-13
  0.6600000     -1.6199721E-13
  0.7200000      2.0837891E-13
  0.7800000      6.2948561E-13
  0.8400000      1.0269765E-12
  0.9000000      1.3251026E-12
  0.9600000      1.4588754E-12
   1.020000      1.3776093E-12
   1.080000      1.0433000E-12
   1.140000      4.3385930E-13
   1.200000     -4.3967838E-13
   1.260000     -1.5030746E-12
   1.320000     -2.5916487E-12
   1.380000     -3.4506597E-12
   1.440000     -3.7827358E-12
   1.500000     -3.3407968E-12
   1.560000     -2.0374319E-12
   1.620000     -2.3260370E-14
   1.680000      2.3095497E-12
   1.740000      4.4146930E-12
   1.800000      5.7463231E-12
   1.860000      5.9252538E-12
   1.920000      4.8545495E-12
   1.980000      2.7447513E-12
   2.040000      4.8619051E-14
   2.100000     -2.6591281E-12
   2.160000     -4.8080667E-12
   2.220000     -5.9282297E-12
   2.280000     -5.7081731E-12
   2.340000     -4.0307293E-12
   2.400000     -1.0065715E-12
   2.460000      2.9905050E-12
   2.520000      7.3061496E-12
   2.580000      1.1037234E-11
   2.640000      1.3132440E-11
   2.700000      1.2549821E-11
   2.760000      8.4264705E-12
   2.820000      2.0250503E-13
   2.880000     -1.2339916E-11
   2.940000     -2.9119516E-11
   3.000000     -4.9835146E-11
   3.060000     -7.4019804E-11
   3.120000     -1.0103136E-10
   3.180000     -1.2999524E-10
   3.240000     -1.5976644E-10
   3.300000     -1.8899490E-10
   3.360000     -2.1634115E-10
   3.420000     -2.4080887E-10
   3.480000     -2.6207883E-10
   3.540000     -2.8068897E-10
   3.600000     -2.9794262E-10
   3.660000     -3.1553044E-10
   3.720000     -3.3497999E-10
   3.780000     -3.5713496E-10
   3.840000     -3.8186787E-10
   3.900000     -4.0813805E-10
   3.960000     -4.3435880E-10
   4.020000     -4.5890752E-10
   4.080000     -4.8055765E-10
   4.140000     -4.9865956E-10
   4.200000     -5.1302385E-10
   4.260000     -5.2359789E-10
   4.320000     -5.3011684E-10
   4.380000     -5.3190663E-10
   4.440000     -5.2793331E-10
   4.500000     -5.1707427E-10
   4.560000     -4.9848853E-10
   4.620000     -4.7192922E-10
   4.680000     -4.3787729E-10
   4.740000     -3.9745490E-10
   4.800000     -3.5216444E-10
   4.860000     -3.0355315E-10
   4.920000     -2.5291205E-10
   4.980000     -2.0108658E-10
   5.040000     -1.4842517E-10
   5.100000     -9.4844924E-11
   5.160000     -3.9965475E-11
   5.220000      1.6740774E-11
   5.280000      7.5820697E-11
   5.340000      1.3775280E-10
   5.400000      2.0290274E-10
   5.460000      2.7151795E-10
   5.520000      3.4375702E-10
   5.580000      4.1974951E-10
   5.640000      4.9967491E-10
   5.700000      5.8384075E-10
   5.760000      6.7272804E-10
   5.820000      7.6697954E-10
   5.880000      8.6732083E-10
   5.940000      9.7443476E-10
   6.000000      1.0888322E-09
   6.060000      1.2107649E-09
   6.120000      1.3402071E-09
   6.180000      1.4769008E-09
   6.240000      1.6204322E-09
   6.300000      1.7702974E-09
   6.360000      1.9259370E-09
   6.420000      2.0867386E-09
   6.480000      2.2520261E-09
   6.540000      2.4210420E-09
   6.600000      2.5929154E-09
   6.660000      2.7665901E-09
   6.720000      2.9406970E-09
   6.780000      3.1134022E-09
   6.840000      3.2822918E-09
   6.900000      3.4443950E-09
   6.960000      3.5964127E-09
   7.020000      3.7351371E-09
   7.080000      3.8579717E-09
   7.140000      3.9633647E-09
   7.200000      4.0509853E-09
   7.260000      4.1215311E-09
   7.320000      4.1761932E-09
   7.380000      4.2159507E-09
   7.440000      4.2409516E-09
   7.500000      4.2502455E-09
   7.560000      4.2419948E-09
   7.620000      4.2140980E-09
   7.680000      4.1649777E-09
   7.740000      4.0941859E-09
   7.800000      4.0025374E-09
   7.860000      3.8917225E-09
   7.920000      3.7635925E-09
   7.980000      3.6195078E-09
   8.040000      3.4601173E-09
   8.100000      3.2857095E-09
   8.160000      3.0969440E-09
   8.220000      2.8955149E-09
   8.280000      2.6842770E-09
   8.340000      2.4666333E-09
   8.400000      2.2453752E-09
   8.460000      2.0215205E-09
   8.520000      1.7937563E-09
   8.580000      1.5588353E-09
   8.640000      1.3128284E-09
   8.700000      1.0527172E-09
   8.760000      7.7765994E-10
   8.820000      4.8944537E-10
   8.880000      1.9204167E-10
   8.940000     -1.0946175E-10
   9.000000     -4.1002407E-10
   9.060000     -7.0550538E-10
   9.120000     -9.9300923E-10
   9.180000     -1.2707740E-09
   9.240000     -1.5378181E-09
   9.300000     -1.7935444E-09
   9.360000     -2.0374491E-09
   9.420000     -2.2690028E-09
   9.480000     -2.4877311E-09
   9.540000     -2.6934692E-09
   9.600000     -2.8866922E-09
   9.660000     -3.0687120E-09
   9.720000     -3.2415217E-09
   9.780000     -3.4071670E-09
   9.840000     -3.5667806E-09
   9.900000     -3.7196952E-09
   9.960000     -3.8631440E-09
   10.02000     -3.9928914E-09
   10.08000     -4.1046979E-09
   10.14000     -4.1960693E-09
   10.20000     -4.2674970E-09
   10.26000     -4.3225694E-09
   10.32000     -4.3668460E-09
   10.38000     -4.4059631E-09
   10.44000     -4.4437978E-09
   10.50000     -4.4814503E-09
   10.56000     -4.5173723E-09
   10.62000     -4.5484123E-09
   10.68000     -4.5711803E-09
   10.74000     -4.5831117E-09
   10.80000     -4.5828914E-09
   10.86000     -4.5702708E-09
   10.92000     -4.5455861E-09
   10.98000     -4.5093183E-09
   11.04000     -4.4618886E-09
   11.10000     -4.4036907E-09
   11.16000     -4.3352433E-09
   11.22000     -4.2573340E-09
   11.28000     -4.1710977E-09
   11.34000     -4.0780024E-09
   11.40000     -3.9797476E-09
   11.46000     -3.8780734E-09
   11.52000     -3.7744763E-09
   11.58000     -3.6698971E-09
   11.64000     -3.5644774E-09
   11.70000     -3.4575043E-09
   11.76000     -3.3475973E-09
   11.82000     -3.2330914E-09
   11.88000     -3.1125140E-09
   11.94000     -2.9850191E-09
   12.00000     -2.8507101E-09
   12.06000     -2.7108153E-09
   12.12000     -2.5677023E-09
   12.18000     -2.4246836E-09
   12.24000     -2.2855564E-09
   12.30000     -2.1538820E-09
   12.36000     -2.0321327E-09
   12.42000     -1.9209885E-09
   12.48000     -1.8190818E-09
   12.54000     -1.7233630E-09
   12.60000     -1.6299970E-09
   12.66000     -1.5354401E-09
   12.72000     -1.4372625E-09
   12.78000     -1.3344154E-09
   12.84000     -1.2269429E-09
   12.90000     -1.1154278E-09
   12.96000     -1.0005642E-09
   13.02000     -8.8311963E-10
   13.08000     -7.6426204E-10
   13.14000     -6.4597272E-10
   13.20000     -5.3119625E-10
   13.26000     -4.2352527E-10
   13.32000     -3.2648784E-10
   13.38000     -2.4272612E-10
   13.44000     -1.7339863E-10
   13.50000     -1.1800594E-10
   13.56000     -7.4624015E-11
   13.62000     -4.0367865E-11
   13.68000     -1.1891982E-11
   13.74000      1.4169255E-11
   13.80000      4.0798892E-11
   13.86000      7.0169232E-11
   13.92000      1.0318743E-10
   13.98000      1.3912776E-10
   14.04000      1.7552339E-10
   14.10000      2.0843217E-10
   14.16000      2.3303176E-10
   14.22000      2.4433638E-10
   14.28000      2.3776842E-10
   14.34000      2.0941823E-10
   14.40000      1.5602442E-10
   14.46000      7.4885806E-11
   14.52000     -3.6052345E-11
   14.58000     -1.7784479E-10
   14.64000     -3.5007422E-10
   14.70000     -5.5058774E-10
   14.76000     -7.7574497E-10
   14.82000     -1.0212347E-09
   14.88000     -1.2831795E-09
   14.94000     -1.5590138E-09
   15.00000     -1.8476639E-09
   15.06000     -2.1488700E-09
   15.12000     -2.4619284E-09
   15.18000     -2.7844471E-09
   15.24000     -3.1116945E-09
   15.30000     -3.4368144E-09
   15.36000     -3.7517083E-09
   15.42000     -4.0480685E-09
   15.48000     -4.3180122E-09
   15.54000     -4.5540931E-09
   15.60000     -4.7488840E-09
   15.66000     -4.8946318E-09
   15.72000     -4.9834799E-09
   15.78000     -5.0084323E-09
   15.84000     -4.9648077E-09
   15.90000     -4.8516244E-09
   15.96000     -4.6723470E-09
   16.02000     -4.4346651E-09
   16.08000     -4.1493911E-09
   16.14000     -3.8288563E-09
   16.20000     -3.4853311E-09
   16.26000     -3.1298872E-09
   16.32000     -2.7719012E-09
   16.38000     -2.4191360E-09
   16.44000     -2.0781661E-09
   16.50000     -1.7548250E-09
   16.56000     -1.4544146E-09
   16.62000     -1.1815574E-09
   16.68000     -9.3976893E-10
   16.74000     -7.3099682E-10
   16.80000     -5.5542521E-10
   16.86000     -4.1174353E-10
   16.92000     -2.9784653E-10
   16.98000     -2.1168926E-10
   17.04000     -1.5190960E-10
   17.10000     -1.1792008E-10
   17.16000     -1.0943274E-10
   17.22000     -1.2565254E-10
   17.28000     -1.6450180E-10
   17.34000     -2.2214922E-10
   17.40000     -2.9289135E-10
   17.46000     -3.6923886E-10
   17.52000     -4.4203263E-10
   17.58000     -5.0056070E-10
   17.64000     -5.3283067E-10
   17.70000     -5.2620897E-10
   17.76000     -4.6849269E-10
   17.82000     -3.4922704E-10
   17.88000     -1.6090455E-10
   17.94000      1.0027034E-10
   18.00000      4.3411641E-10
   18.06000      8.3650403E-10
   18.12000      1.2993894E-09
   18.18000      1.8107499E-09
   18.24000      2.3546369E-09
   18.30000      2.9117493E-09
   18.36000      3.4608090E-09
   18.42000      3.9806074E-09
   18.48000      4.4521462E-09
   18.54000      4.8601518E-09
   18.60000      5.1935274E-09
   18.66000      5.4448894E-09
   18.72000      5.6098388E-09
   18.78000      5.6867266E-09
   18.84000      5.6772511E-09
   18.90000      5.5875877E-09
   18.96000      5.4292393E-09
   19.02000      5.2188023E-09
   19.08000      4.9763602E-09
   19.14000      4.7229496E-09
   19.20000      4.4780499E-09
   19.26000      4.2580299E-09
   19.32000      4.0759791E-09
   19.38000      3.9426089E-09
   19.44000      3.8673877E-09
   19.50000      3.8590304E-09
   19.56000      3.9248582E-09
   19.62000      4.0691863E-09
   19.68000      4.2914334E-09
   19.74000      4.5848192E-09
   19.80000      4.9363020E-09
   19.86000      5.3279110E-09
   19.92000      5.7390781E-09
   19.98000      6.1492154E-09
   20.04000      6.5397527E-09
   20.10000      6.8951418E-09
   20.16000      7.2028303E-09
   20.22000      7.4526501E-09
   20.28000      7.6362587E-09
   20.34000      7.7470768E-09
   20.40000      7.7807769E-09
   20.46000      7.7358990E-09
   20.52000      7.6140383E-09
   20.58000      7.4192545E-09
   20.64000      7.1568755E-09
   20.70000      6.8322397E-09
   20.76000      6.4500596E-09
   20.82000      6.0146821E-09
   20.88000      5.5309926E-09
   20.94000      5.0052682E-09
   21.00000      4.4453752E-09
   21.06000      3.8601655E-09
   21.12000      3.2585572E-09
   21.18000      2.6490681E-09
   21.24000      2.0403068E-09
   21.30000      1.4422584E-09
   21.36000      8.6754892E-10
   21.42000      3.3168379E-10
   21.48000     -1.4829957E-10
   21.54000     -5.5648675E-10
   21.60000     -8.8103519E-10
   21.66000     -1.1162011E-09
   21.72000     -1.2626689E-09
   21.78000     -1.3262220E-09
   21.84000     -1.3155286E-09
   21.90000     -1.2400921E-09
   21.96000     -1.1091705E-09
   22.02000     -9.3187935E-10
   22.08000     -7.1810985E-10
   22.14000     -4.7955029E-10
   22.20000     -2.3009748E-10
   22.26000      1.4770204E-11
   22.32000      2.3965419E-10
   22.38000      4.3146781E-10
   22.44000      5.8143773E-10
   22.50000      6.8600975E-10
   22.56000      7.4609652E-10
   22.62000      7.6474471E-10
   22.68000      7.4403528E-10
   22.74000      6.8249839E-10
   22.80000      5.7421662E-10
   22.86000      4.1009079E-10
   22.92000      1.8076583E-10
   22.98000     -1.2001501E-10
   23.04000     -4.9294135E-10
   23.10000     -9.3229446E-10
   23.16000     -1.4266260E-09
   23.22000     -1.9602644E-09
   23.28000     -2.5149394E-09
   23.34000     -3.0712568E-09
   23.40000     -3.6102006E-09
   23.46000     -4.1148893E-09
   23.52000     -4.5723860E-09
   23.58000     -4.9748556E-09
   23.64000     -5.3192841E-09
   23.70000     -5.6055631E-09
   23.76000     -5.8337206E-09
   23.82000     -6.0017986E-09
   23.88000     -6.1057226E-09
   23.94000     -6.1414767E-09
   24.00000     -6.1085026E-09
   24.06000     -6.0124155E-09
   24.12000     -5.8653797E-09
   24.18000     -5.6837495E-09
   24.24000     -5.4840585E-09
   24.30000     -5.2792726E-09
   24.36000     -5.0768896E-09
   24.42000     -4.8793245E-09
   24.48000     -4.6858024E-09
   24.54000     -4.4944222E-09
   24.60000     -4.3034269E-09
   24.66000     -4.1115085E-09
   24.72000     -3.9176107E-09
   24.78000     -3.7207346E-09
   24.84000     -3.5197918E-09
   24.90000     -3.3131784E-09
   24.96000     -3.0978495E-09
   25.02000     -2.8682619E-09
   25.08000     -2.6161353E-09
   25.14000     -2.3319413E-09
   25.20000     -2.0082040E-09
   25.26000     -1.6434939E-09
   25.32000     -1.2452148E-09
   25.38000     -8.2952972E-10
   25.44000     -4.1804127E-10
   25.50000     -3.2417506E-11
   25.56000      3.1085062E-10
   25.62000      6.0353494E-10
   25.68000      8.4571339E-10
   25.74000      1.0432947E-09
   25.80000      1.2044276E-09
   25.86000      1.3362143E-09
   25.92000      1.4425457E-09
   25.98000      1.5232211E-09
   26.04000      1.5742129E-09
   26.10000      1.5889907E-09
   26.16000      1.5608386E-09
   26.22000      1.4858101E-09
   26.28000      1.3654026E-09
   26.34000      1.2076564E-09
   26.40000      1.0256839E-09
   26.46000      8.3369472E-10
   26.52000      6.4192468E-10
   26.58000      4.5270412E-10
   26.64000      2.5961683E-10
   26.70000      5.0338074E-11
   26.76000     -1.8799108E-10
   26.82000     -4.6316481E-10
   26.88000     -7.7440365E-10
   26.94000     -1.1121762E-09
   27.00000     -1.4611057E-09
   27.06000     -1.8046044E-09
   27.12000     -2.1295765E-09
   27.18000     -2.4298976E-09
   27.24000     -2.7079914E-09
   27.30000     -2.9742846E-09
   27.36000     -3.2445973E-09
   27.42000     -3.5358290E-09
   27.48000     -3.8608134E-09
   27.54000     -4.2238328E-09
   27.60000     -4.6185074E-09
   27.66000     -5.0292854E-09
   27.72000     -5.4364149E-09
   27.78000     -5.8226952E-09
   27.84000     -6.1792891E-09
   27.90000     -6.5080603E-09
   27.96000     -6.8193549E-09
   28.02000     -7.1261295E-09
   28.08000     -7.4369746E-09
   28.14000     -7.7509252E-09
   28.20000     -8.0561122E-09
   28.26000     -8.3325888E-09
   28.32000     -8.5580414E-09
   28.38000     -8.7141805E-09
   28.44000     -8.7915923E-09
   28.50000     -8.7916030E-09
   28.56000     -8.7246974E-09
   28.62000     -8.6061496E-09
   28.68000     -8.4502236E-09
   28.74000     -8.2648128E-09
   28.80000     -8.0483176E-09
   28.86000     -7.7899580E-09
   28.92000     -7.4735942E-09
   28.98000     -7.0838282E-09
   29.04000     -6.6121824E-09
   29.10000     -6.0610250E-09
   29.16000     -5.4437601E-09
   29.22000     -4.7812878E-09
   29.28000     -4.0962052E-09
   29.34000     -3.4069889E-09
   29.40000     -2.7241922E-09
   29.46000     -2.0497213E-09
   29.52000     -1.3790448E-09
   29.58000     -7.0527079E-10
   29.64000     -2.3649886E-11
   29.70000      6.6484573E-10
   29.76000      1.3518479E-09
   29.82000      2.0223105E-09
   29.88000      2.6575164E-09
   29.94000      3.2395864E-09
   30.00000      3.7560715E-09
   30.06000      4.2029544E-09
   30.12000      4.5847828E-09
   30.18000      4.9117239E-09
   30.24000      5.1946447E-09
   30.30000      5.4402540E-09
   30.36000      5.6482943E-09
   30.42000      5.8117653E-09
   30.48000      5.9196954E-09
   30.54000      5.9608380E-09
   30.60000      5.9265401E-09
   30.66000      5.8117879E-09
   30.72000      5.6146190E-09
   30.78000      5.3348903E-09
   30.84000      4.9733915E-09
   30.90000      4.5316626E-09
   30.96000      4.0121724E-09
   31.02000      3.4182899E-09
   31.08000      2.7538642E-09
   31.14000      2.0228506E-09
   31.20000      1.2296729E-09
   31.26000      3.8062950E-10
   31.32000     -5.1416582E-10
   31.38000     -1.4394624E-09
   31.44000     -2.3752658E-09
   31.50000     -3.2991969E-09
   31.56000     -4.1899462E-09
   31.62000     -5.0302718E-09
   31.68000     -5.8082001E-09
   31.74000     -6.5160797E-09
   31.80000     -7.1482762E-09
   31.86000     -7.6988957E-09
   31.92000     -8.1606721E-09
   31.98000     -8.5253182E-09
   32.04000     -8.7847800E-09
   32.10000     -8.9325560E-09
   32.16000     -8.9644763E-09
   32.22000     -8.8789101E-09
   32.28000     -8.6767251E-09
   32.34000     -8.3612788E-09
   32.40000     -7.9384082E-09
   32.46000     -7.4161544E-09
   32.52000     -6.8040675E-09
   32.58000     -6.1122640E-09
   32.64000     -5.3507088E-09
   32.70000     -4.5291206E-09
   32.76000     -3.6575076E-09
   32.82000     -2.7468607E-09
   32.88000     -1.8094208E-09
   32.94000     -8.5825530E-10
   33.00000      9.3584064E-11
   33.06000      1.0337166E-09
   33.12000      1.9504656E-09
   33.18000      2.8324068E-09
   33.24000      3.6681023E-09
   33.30000      4.4467283E-09
   33.36000      5.1597366E-09
   33.42000      5.8028702E-09
   33.48000      6.3773578E-09
   33.54000      6.8893606E-09
   33.60000      7.3476265E-09
   33.66000      7.7602937E-09
   33.72000      8.1322780E-09
   33.78000      8.4643021E-09
   33.84000      8.7537444E-09
   33.90000      8.9965511E-09
   33.96000      9.1891064E-09
   34.02000      9.3292929E-09
   34.08000      9.4166257E-09
   34.14000      9.4519033E-09
   34.20000      9.4368664E-09
   34.26000      9.3740802E-09
   34.32000      9.2668895E-09
   34.38000      9.1192032E-09
   34.44000      8.9351317E-09
   34.50000      8.7187422E-09
   34.56000      8.4743004E-09
   34.62000      8.2070333E-09
   34.68000      7.9240294E-09
   34.74000      7.6346227E-09
   34.80000      7.3497439E-09
   34.86000      7.0802106E-09
   34.92000      6.8344597E-09
   34.98000      6.6164336E-09
   35.04000      6.4242660E-09
   35.10000      6.2500711E-09
   35.16000      6.0808594E-09
   35.22000      5.9004370E-09
   35.28000      5.6920593E-09
   35.34000      5.4414007E-09
   35.40000      5.1391562E-09
   35.46000      4.7823767E-09
   35.52000      4.3738799E-09
   35.58000      3.9197396E-09
   35.64000      3.4257666E-09
   35.70000      2.8945009E-09
   35.76000      2.3241045E-09
   35.82000      1.7096432E-09
   35.88000      1.0460460E-09
   35.94000      3.3121955E-10
   36.00000     -4.3214618E-10
   36.06000     -1.2366959E-09
   36.12000     -2.0719793E-09
   36.18000     -2.9263716E-09
   36.24000     -3.7883816E-09
   36.30000     -4.6470761E-09
   36.36000     -5.4920344E-09
   36.42000     -6.3134329E-09
   36.48000     -7.1025128E-09
   36.54000     -7.8521643E-09
   36.60000     -8.5571674E-09
   36.66000     -9.2138954E-09
   36.72000     -9.8197876E-09
   36.78000     -1.0373086E-08
   36.84000     -1.0873099E-08
   36.90000     -1.1320597E-08
   36.96000     -1.1717587E-08
   37.02000     -1.2065998E-08
   37.08000     -1.2365662E-08
   37.14000     -1.2612803E-08
   37.20000     -1.2800397E-08
   37.26000     -1.2920839E-08
   37.32000     -1.2969912E-08
   37.38000     -1.2949963E-08
   37.44000     -1.2870274E-08
   37.50000     -1.2744072E-08
   37.56000     -1.2583433E-08
   37.62000     -1.2394627E-08
   37.68000     -1.2176249E-08
   37.74000     -1.1920934E-08
   37.80000     -1.1619551E-08
   37.86000     -1.1265644E-08
   37.92000     -1.0858026E-08
   37.98000     -1.0400782E-08
   38.04000     -9.9013322E-09
   38.10000     -9.3680104E-09
   38.16000     -8.8082652E-09
   38.22000     -8.2278229E-09
   38.28000     -7.6304332E-09
   38.34000     -7.0178183E-09
   38.40000     -6.3898975E-09
   38.46000     -5.7457328E-09
   38.52000     -5.0854472E-09
   38.58000     -4.4125921E-09
   38.64000     -3.7357162E-09
   38.70000     -3.0677900E-09
   38.76000     -2.4230831E-09
   38.82000     -1.8125168E-09
   38.88000     -1.2396376E-09
   38.94000     -6.9934880E-10
   39.00000     -1.8032886E-10
   39.06000      3.2975872E-10
   39.12000      8.3856472E-10
   39.18000      1.3454017E-09
   39.24000      1.8411639E-09
   39.30000      2.3116715E-09
   39.36000      2.7428360E-09
   39.42000      3.1254479E-09
   39.48000      3.4577943E-09
   39.54000      3.7453201E-09
   39.60000      3.9976848E-09
   39.66000      4.2243653E-09
   39.72000      4.4302992E-09
   39.78000      4.6129771E-09
   39.84000      4.7619593E-09
   39.90000      4.8610831E-09
   39.96000      4.8928195E-09
   40.02000      4.8434616E-09
   40.08000      4.7074598E-09
   40.14000      4.4894288E-09
   40.20000      4.2031201E-09
   40.26000      3.8677590E-09
   40.32000      3.5030627E-09
   40.38000      3.1246612E-09
   40.44000      2.7413718E-09
   40.50000      2.3550233E-09
   40.56000      1.9626047E-09
   40.62000      1.5597628E-09
   40.68000      1.1443076E-09
   40.74000      7.1846884E-10
   40.80000      2.8910199E-10
   40.86000     -1.3418938E-10
   40.92000     -5.4222798E-10
   40.98000     -9.2933194E-10
   41.04000     -1.2948067E-09
   41.10000     -1.6419868E-09
   41.16000     -1.9750563E-09
   41.22000     -2.2950213E-09
   41.28000     -2.5967422E-09
   41.34000     -2.8685534E-09
   41.40000     -3.0947862E-09
   41.46000     -3.2600989E-09
   41.52000     -3.3536720E-09
   41.58000     -3.3714795E-09
   41.64000     -3.3159082E-09
   41.70000     -3.1933134E-09
   41.76000     -3.0109626E-09
   41.82000     -2.7748033E-09
   41.88000     -2.4887588E-09
   41.94000     -2.1553386E-09
   42.00000     -1.7767865E-09
   42.06000     -1.3560228E-09
   42.12000     -8.9700813E-10
   42.18000     -4.0456863E-10
   42.24000      1.1615274E-10
   42.30000      6.6050687E-10
   42.36000      1.2253392E-09
   42.42000      1.8099541E-09
   42.48000      2.4165714E-09
   42.54000      3.0497607E-09
   42.60000      3.7146970E-09
   42.66000      4.4147623E-09
   42.72000      5.1495603E-09
   42.78000      5.9144201E-09
   42.84000      6.7017227E-09
   42.90000      7.5033570E-09
   42.96000      8.3128651E-09
   43.02000      9.1259746E-09
   43.08000      9.9391837E-09
   43.14000      1.0747255E-08
   43.20000      1.1541212E-08
   43.26000      1.2308155E-08
   43.32000      1.3033087E-08
   43.38000      1.3701849E-08
   43.44000      1.4303707E-08
   43.50000      1.4832506E-08
   43.56000      1.5286362E-08
   43.62000      1.5666613E-08
   43.68000      1.5976916E-08
   43.74000      1.6222826E-08
   43.80000      1.6411418E-08
   43.86000      1.6550251E-08
   43.92000      1.6645441E-08
   43.98000      1.6699460E-08
   44.04000      1.6709890E-08
   44.10000      1.6670205E-08
   44.16000      1.6572592E-08
   44.22000      1.6411743E-08
   44.28000      1.6187727E-08
   44.34000      1.5906547E-08
   44.40000      1.5578033E-08
   44.46000      1.5212070E-08
   44.52000      1.4814966E-08
   44.58000      1.4387587E-08
   44.64000      1.3926003E-08
   44.70000      1.3424303E-08
   44.76000      1.2878394E-08
   44.82000      1.2289364E-08
   44.88000      1.1665262E-08
   44.94000      1.1020629E-08
   45.00000      1.0373808E-08
   45.06000      9.7426680E-09
   45.12000      9.1399928E-09
   45.18000      8.5700735E-09
   45.24000      8.0278912E-09
   45.30000      7.5014084E-09
   45.36000      6.9763622E-09
   45.42000      6.4417973E-09
   45.48000      5.8941949E-09
   45.54000      5.3386056E-09
   45.60000      4.7865045E-09
   45.66000      4.2514694E-09
   45.72000      3.7445669E-09
   45.78000      3.2711549E-09
   45.84000      2.8299345E-09
   45.90000      2.4140414E-09
   45.96000      2.0133664E-09
   46.02000      1.6172375E-09
   46.08000      1.2168999E-09
   46.14000      8.0747664E-10
   46.20000      3.8908263E-10
   46.26000     -3.3329096E-11
   46.32000     -4.5166579E-10
   46.38000     -8.5766388E-10
   46.44000     -1.2461006E-09
   46.50000     -1.6167891E-09
   46.56000     -1.9742314E-09
   46.62000     -2.3248843E-09
   46.68000     -2.6732836E-09
   46.74000     -3.0189715E-09
   46.80000     -3.3557981E-09
   46.86000     -3.6738934E-09
   46.92000     -3.9631574E-09
   46.98000     -4.2163748E-09
   47.04000     -4.4304662E-09
   47.10000     -4.6055786E-09
   47.16000     -4.7429758E-09
   47.22000     -4.8431787E-09
   47.28000     -4.9053388E-09
   47.34000     -4.9278430E-09
   47.40000     -4.9093489E-09
   47.46000     -4.8494000E-09
   47.52000     -4.7483648E-09
   47.58000     -4.6071702E-09
   47.64000     -4.4275303E-09
   47.70000     -4.2129242E-09
   47.76000     -3.9697827E-09
   47.82000     -3.7078391E-09
   47.88000     -3.4388534E-09
   47.94000     -3.1738232E-09
   48.00000     -2.9198282E-09
   48.06000     -2.6780897E-09
   48.12000     -2.4443765E-09
   48.18000     -2.2117537E-09
   48.24000     -1.9744912E-09
   48.30000     -1.7313789E-09
   48.36000     -1.4870006E-09
   48.42000     -1.2504926E-09
   48.48000     -1.0324335E-09
   48.54000     -8.4125756E-10
   48.60000     -6.8069778E-10
   48.66000     -5.4927296E-10
   48.72000     -4.4198320E-10
   48.78000     -3.5349626E-10
   48.84000     -2.8147890E-10
   48.90000     -2.2859020E-10
   48.96000     -2.0211245E-10
   49.02000     -2.1115915E-10
   49.08000     -2.6251265E-10
   49.14000     -3.5690678E-10
   49.20000     -4.8752041E-10
   49.26000     -6.4151034E-10
   49.32000     -8.0397983E-10
   49.38000     -9.6258201E-10
   49.44000     -1.1106622E-09
   49.50000     -1.2476268E-09
   49.56000     -1.3766575E-09
   49.62000     -1.5011565E-09
   49.68000     -1.6217271E-09
   49.74000     -1.7349239E-09
   49.80000     -1.8339000E-09
   49.86000     -1.9101423E-09
   49.92000     -1.9552271E-09
   49.98000     -1.9619188E-09
   50.04000     -1.9245090E-09
   50.10000     -1.8386062E-09
   50.16000     -1.7004861E-09
   50.22000     -1.5058639E-09
   50.28000     -1.2480101E-09
   50.34000     -9.1559710E-10
   50.40000     -4.9125209E-10
   50.46000      4.8054651E-11
   50.52000      7.2830814E-10
   50.58000      1.5741971E-09
   50.64000      2.6052001E-09
   50.70000      3.8341228E-09
   50.76000      5.2692100E-09
   50.82000      6.9192181E-09
   50.88000      8.7992724E-09
   50.94000      1.0934869E-08
   51.00000      1.3362267E-08
   51.06000      1.6125252E-08
   51.12000      1.9269885E-08
   51.18000      2.2839519E-08
   51.24000      2.6871989E-08
   51.30000      3.1399608E-08
   51.36000      3.6451411E-08
   51.42000      4.2056328E-08
   51.48000      4.8245962E-08
   51.54000      5.5055974E-08
   51.60000      6.2525736E-08
   51.66000      7.0696309E-08
   51.72000      7.9607247E-08
   51.78000      8.9292705E-08
   51.84000      9.9777743E-08
   51.90000      1.1107537E-07
   51.96000      1.2318466E-07
   52.02000      1.3609012E-07
   52.08000      1.4976186E-07
   52.14000      1.6415562E-07
   52.20000      1.7921268E-07
   52.26000      1.9485866E-07
   52.32000      2.1100162E-07
   52.38000      2.2752936E-07
   52.44000      2.4430636E-07
   52.50000      2.6117112E-07
   52.56000      2.7793385E-07
   52.62000      2.9437462E-07
   52.68000      3.1024248E-07
   52.74000      3.2525460E-07
   52.80000      3.3909529E-07
   52.86000      3.5141514E-07
   52.92000      3.6183076E-07
   52.98000      3.6992500E-07
   53.04000      3.7524816E-07
   53.10000      3.7732002E-07
   53.16000      3.7563262E-07
   53.22000      3.6965332E-07
   53.28000      3.5882866E-07
   53.34000      3.4258983E-07
   53.40000      3.2035999E-07
   53.46000      2.9156320E-07
   53.52000      2.5563349E-07
   53.58000      2.1202362E-07
   53.64000      1.6021218E-07
   53.70000      9.9710668E-08
   53.76000      3.0071444E-08
   53.82000     -4.9102084E-08
   53.88000     -1.3814326E-07
   53.94000     -2.3730982E-07
   54.00000     -3.4677325E-07
   54.06000     -4.6661114E-07
   54.12000     -5.9680093E-07
   54.18000     -7.3721395E-07
   54.24000     -8.8760703E-07
   54.30000     -1.0476138E-06
   54.36000     -1.2167368E-06
   54.42000     -1.3943429E-06
   54.48000     -1.5796638E-06
   54.54000     -1.7717989E-06
   54.60000     -1.9697175E-06
   54.66000     -2.1722578E-06
   54.72000     -2.3781272E-06
   54.78000     -2.5859042E-06
   54.84000     -2.7940484E-06
   54.90000     -3.0009178E-06
   54.96000     -3.2047901E-06
   55.02000     -3.4038840E-06
   55.08000     -3.5963724E-06
   55.14000     -3.7803929E-06
   55.20000     -3.9540600E-06
   55.26000     -4.1154822E-06
   55.32000     -4.2627880E-06
   55.38000     -4.3941559E-06
   55.44000     -4.5078414E-06
   55.50000     -4.6022014E-06
   55.56000     -4.6757041E-06