  -2.400000      0.0000000E+00
  -2.340000      0.0000000E+00
  -2.280000      0.0000000E+00
  -2.220000      0.0000000E+00
  -2.160000      0.0000000E+00
  -2.100000      1.5809010E-19
  -2.040000      1.2479893E-18
  -1.980000      4.9698062E-18
  -1.920000      1.2841536E-17
  -1.860000      2.2426771E-17
  -1.800000      2.1460541E-17
  -1.740000     -1.6234981E-17
  -1.680000     -1.2593833E-16
  -1.620000     -3.3072595E-16
  -1.560000     -6.0143304E-16
  -1.500000     -8.0923950E-16
  -1.440000     -7.0246602E-16
  -1.380000      4.4605069E-17
  -1.320000      1.6712425E-15
  -1.260000      4.0705850E-15
  -1.200000      6.5357969E-15
  -1.140000      7.7044635E-15
  -1.080000      5.8961959E-15
  -1.020000     -1.0941299E-16
 -0.9600000     -1.0088320E-14
 -0.9000000     -2.1692055E-14
 -0.8400000     -3.0645852E-14
 -0.7800000     -3.2094705E-14
 -0.7200000     -2.2750842E-14
 -0.6600000     -2.8748561E-15
 -0.6000000      2.3075517E-14
 -0.5400000      4.7792807E-14
 -0.4800000      6.4054495E-14
 -0.4200000      6.7763469E-14
 -0.3600000      5.9278029E-14
 -0.3000000      4.2045177E-14
 -0.2400000      1.9270503E-14
 -0.1800000     -9.0096345E-15
 -0.1200000     -4.5739874E-14
 -5.9999999E-02 -9.2405602E-14
  0.0000000E+00 -1.4220571E-13
  5.9999999E-02 -1.7549223E-13
  0.1200000     -1.6270408E-13
  0.1800000     -7.7214148E-14
  0.2400000      8.5037622E-14
  0.3000000      2.8800026E-13
  0.3600000      4.5148653E-13
  0.4200000      4.6902418E-13
  0.4800000      2.4736834E-13
  0.5400000     -2.4343472E-13
  0.6000000     -9.2873430E-13
  0.6600000     -1.6169925E-12
  0.7200000     -2.0290375E-12
  0.7800000     -1.8673331E-12
  0.8400000     -9.0902551E-13
  0.9000000      9.0290546E-13
  0.9600000      3.3967792E-12
   1.020000      6.1564985E-12
   1.080000      8.5599635E-12
   1.140000      9.8670802E-12
   1.200000      9.3448140E-12
   1.260000      6.4128065E-12
   1.320000      7.9173387E-13
   1.380000     -7.3637303E-12
   1.440000     -1.7365409E-11
   1.500000     -2.7943240E-11
   1.560000     -3.7265312E-11
   1.620000     -4.3044523E-11
   1.680000     -4.2752642E-11
   1.740000     -3.3963849E-11
   1.800000     -1.4842542E-11
   1.860000      1.5234619E-11
   1.920000      5.4978602E-11
   1.980000      1.0052545E-10
   2.040000      1.4497746E-10
   2.100000      1.7832746E-10
   2.160000      1.8790099E-10
   2.220000      1.5934956E-10
   2.280000      7.8098458E-11
   2.340000     -6.8960802E-11
   2.400000     -2.9179822E-10
   2.460000     -5.9583838E-10
   2.520000     -9.8098518E-10
   2.580000     -1.4411493E-09
   2.640000     -1.9642785E-09
   2.700000     -2.5328619E-09
   2.760000     -3.1248897E-09
   2.820000     -3.7152528E-09
   2.880000     -4.2775561E-09
   2.940000     -4.7862523E-09
   3.000000     -5.2189391E-09
   3.060000     -5.5585758E-09
   3.120000     -5.7953655E-09
   3.180000     -5.9280367E-09
   3.240000     -5.9643139E-09
   3.300000     -5.9204259E-09
   3.360000     -5.8195844E-09
   3.420000     -5.6894782E-09
   3.480000     -5.5589915E-09
   3.540000     -5.4545279E-09
   3.600000     -5.3964921E-09
   3.660000     -5.3965419E-09
   3.720000     -5.4561573E-09
   3.780000     -5.5668297E-09
   3.840000     -5.7118288E-09
   3.900000     -5.8691492E-09
   3.960000     -6.0149921E-09
   4.020000     -6.1270811E-09
   4.080000     -6.1872600E-09
   4.140000     -6.1830985E-09
   4.200000     -6.1085212E-09
   4.260000     -5.9637140E-09
   4.320000     -5.7545901E-09
   4.380000     -5.4920402E-09
   4.440000     -5.1910289E-09
   4.500000     -4.8694671E-09
   4.560000     -4.5467656E-09
   4.620000     -4.2420676E-09
   4.680000     -3.9722972E-09
   4.740000     -3.7503143E-09
   4.800000     -3.5834895E-09
   4.860000     -3.4729515E-09
   4.920000     -3.4135910E-09
   4.980000     -3.3947622E-09
   5.040000     -3.4015470E-09
   5.100000     -3.4164569E-09
   5.160000     -3.4215168E-09
   5.220000     -3.4006640E-09
   5.280000     -3.3423075E-09
   5.340000     -3.2416865E-09
   5.400000     -3.1024716E-09
   5.460000     -2.9370182E-09
   5.520000     -2.7648677E-09
   5.580000     -2.6095217E-09
   5.640000     -2.4940392E-09
   5.700000     -2.4364217E-09
   5.760000     -2.4458939E-09
   5.820000     -2.5209816E-09
   5.880000     -2.6498210E-09
   5.940000     -2.8125517E-09
   6.000000     -2.9851648E-09
   6.060000     -3.1438980E-09
   6.120000     -3.2692586E-09
   6.180000     -3.3489247E-09
   6.240000     -3.3790895E-09
   6.300000     -3.3641532E-09
   6.360000     -3.3149836E-09
   6.420000     -3.2462337E-09
   6.480000     -3.1733625E-09
   6.540000     -3.1100109E-09
   6.600000     -3.0662477E-09
   6.660000     -3.0479135E-09
   6.720000     -3.0569498E-09
   6.780000     -3.0923226E-09
   6.840000     -3.1510083E-09
   6.900000     -3.2286112E-09
   6.960000     -3.3194218E-09
   7.020000     -3.4160696E-09
   7.080000     -3.5091789E-09
   7.140000     -3.5875141E-09
   7.200000     -3.6389454E-09
   7.260000     -3.6522279E-09
   7.320000     -3.6191994E-09
   7.380000     -3.5367216E-09
   7.440000     -3.4076497E-09
   7.500000     -3.2403669E-09
   7.560000     -3.0468672E-09
   7.620000     -2.8398830E-09
   7.680000     -2.6299058E-09
   7.740000     -2.4230098E-09
   7.800000     -2.2201185E-09
   7.860000     -2.0178441E-09
   7.920000     -1.8104779E-09
   7.980000     -1.5923397E-09
   8.040000     -1.3596229E-09
   8.100000     -1.1111535E-09
   8.160000     -8.4796448E-10
   8.220000     -5.7207905E-10
   8.280000     -2.8519415E-10
   8.340000      1.2074252E-11
   8.400000      3.2003653E-10
   8.460000      6.3898020E-10
   8.520000      9.6792485E-10
   8.580000      1.3037061E-09
   8.640000      1.6408374E-09
   8.700000      1.9722051E-09
   8.760000      2.2902646E-09
   8.820000      2.5882021E-09
   8.880000      2.8606146E-09
   8.940000      3.1035687E-09
   9.000000      3.3142216E-09
   9.060000      3.4903462E-09
   9.120000      3.6300161E-09
   9.180000      3.7314498E-09
   9.240000      3.7928065E-09
   9.300000      3.8117145E-09
   9.360000      3.7845633E-09
   9.420000      3.7059200E-09
   9.480000      3.5686192E-09
   9.540000      3.3649308E-09
   9.600000      3.0887619E-09
   9.660000      2.7382863E-09
   9.720000      2.3180533E-09
   9.780000      1.8396800E-09
   9.840000      1.3206993E-09
   9.900000      7.8179496E-10
   9.960000      2.4320435E-10
   10.02000     -2.7870714E-10
   10.08000     -7.7383805E-10
   10.14000     -1.2392312E-09
   10.20000     -1.6784025E-09
   10.26000     -2.0994411E-09
   10.32000     -2.5124320E-09
   10.38000     -2.9268707E-09
   10.44000     -3.3497243E-09
   10.50000     -3.7846384E-09
   10.56000     -4.2324451E-09
   10.62000     -4.6926831E-09
   10.68000     -5.1654547E-09
   10.74000     -5.6527805E-09
   10.80000     -6.1588410E-09
   10.86000     -6.6889791E-09
   10.92000     -7.2478721E-09
   10.98000     -7.8376079E-09
   11.04000     -8.4563503E-09
   11.10000     -9.0979606E-09
   11.16000     -9.7525472E-09
   11.22000     -1.0407726E-08
   11.28000     -1.1050338E-08
   11.34000     -1.1668468E-08
   11.40000     -1.2253577E-08
   11.46000     -1.2802375E-08
   11.52000     -1.3317771E-08
   11.58000     -1.3808257E-08
   11.64000     -1.4285438E-08
   11.70000     -1.4760205E-08
   11.76000     -1.5238719E-08
   11.82000     -1.5719786E-08
   11.88000     -1.6194740E-08
   11.94000     -1.6650006E-08
   12.00000     -1.7071445E-08
   12.06000     -1.7448787E-08
   12.12000     -1.7778611E-08
   12.18000     -1.8064947E-08
   12.24000     -1.8317719E-08
   12.30000     -1.8549965E-08
   12.36000     -1.8775037E-08
   12.42000     -1.9004736E-08
   12.48000     -1.9248601E-08
   12.54000     -1.9514033E-08
   12.60000     -1.9806631E-08
   12.66000     -2.0130145E-08
   12.72000     -2.0485771E-08
   12.78000     -2.0871047E-08
   12.84000     -2.1278892E-08
   12.90000     -2.1697595E-08
   12.96000     -2.2112339E-08
   13.02000     -2.2508356E-08
   13.08000     -2.2875055E-08
   13.14000     -2.3209800E-08
   13.20000     -2.3519837E-08
   13.26000     -2.3821244E-08
   13.32000     -2.4134989E-08
   13.38000     -2.4481270E-08
   13.44000     -2.4874206E-08
   13.50000     -2.5318826E-08
   13.56000     -2.5811348E-08
   13.62000     -2.6342244E-08
   13.68000     -2.6900512E-08
   13.74000     -2.7477185E-08
   13.80000     -2.8066802E-08
   13.86000     -2.8666683E-08
   13.92000     -2.9274899E-08
   13.98000     -2.9888259E-08
   14.04000     -3.0501255E-08
   14.10000     -3.1106225E-08
   14.16000     -3.1694327E-08
   14.22000     -3.2256679E-08
   14.28000     -3.2785344E-08
   14.34000     -3.3273956E-08
   14.40000     -3.3718205E-08
   14.46000     -3.4116081E-08
   14.52000     -3.4467753E-08
   14.58000     -3.4774811E-08
   14.64000     -3.5038909E-08
   14.70000     -3.5260321E-08
   14.76000     -3.5436997E-08
   14.82000     -3.5564849E-08
   14.88000     -3.5639140E-08
   14.94000     -3.5656434E-08
   15.00000     -3.5615987E-08
   15.06000     -3.5519633E-08
   15.12000     -3.5370132E-08
   15.18000     -3.5168490E-08
   15.24000     -3.4911693E-08
   15.30000     -3.4592052E-08
   15.36000     -3.4198862E-08
   15.42000     -3.3721967E-08
   15.48000     -3.3155921E-08
   15.54000     -3.2503191E-08
   15.60000     -3.1774842E-08
   15.66000     -3.0988325E-08
   15.72000     -3.0162873E-08
   15.78000     -2.9314238E-08
   15.84000     -2.8450744E-08
   15.90000     -2.7572334E-08
   15.96000     -2.6673124E-08
   16.02000     -2.5746481E-08
   16.08000     -2.4790520E-08
   16.14000     -2.3811566E-08
   16.20000     -2.2823876E-08
   16.26000     -2.1845551E-08
   16.32000     -2.0892283E-08
   16.38000     -1.9971596E-08
   16.44000     -1.9080129E-08
   16.50000     -1.8205125E-08
   16.56000     -1.7329498E-08
   16.62000     -1.6438356E-08
   16.68000     -1.5524348E-08
   16.74000     -1.4589948E-08
   16.80000     -1.3646186E-08
   16.86000     -1.2708699E-08
   16.92000     -1.1792840E-08
   16.98000     -1.0909536E-08
   17.04000     -1.0062962E-08
   17.10000     -9.2502850E-09
   17.16000     -8.4631928E-09
   17.22000     -7.6905815E-09
   17.28000     -6.9217498E-09
   17.34000     -6.1494214E-09
   17.40000     -5.3719043E-09
   17.46000     -4.5937658E-09
   17.52000     -3.8246770E-09
   17.58000     -3.0765910E-09
   17.64000     -2.3600020E-09
   17.70000     -1.6804195E-09
   17.76000     -1.0361757E-09
   17.82000     -4.1825693E-10
   17.88000      1.8783636E-10
   17.94000      7.9882273E-10
   18.00000      1.4299415E-09
   18.06000      2.0917961E-09
   18.12000      2.7884348E-09
   18.18000      3.5169612E-09
   18.24000      4.2685691E-09
   18.30000      5.0305862E-09
   18.36000      5.7889147E-09
   18.42000      6.5302355E-09
   18.48000      7.2434951E-09
   18.54000      7.9205131E-09
   18.60000      8.5559133E-09
   18.66000      9.1468282E-09
   18.72000      9.6928190E-09
   18.78000      1.0196180E-08
   18.84000      1.0662409E-08
   18.90000      1.1100392E-08
   18.96000      1.1521860E-08
   19.02000      1.1940026E-08
   19.08000      1.2367650E-08
   19.14000      1.2815077E-08
   19.20000      1.3288734E-08
   19.26000      1.3790364E-08
   19.32000      1.4317065E-08
   19.38000      1.4862066E-08
   19.44000      1.5416227E-08
   19.50000      1.5970151E-08
   19.56000      1.6516642E-08
   19.62000      1.7052761E-08
   19.68000      1.7580630E-08
   19.74000      1.8106251E-08
   19.80000      1.8636468E-08
   19.86000      1.9175213E-08
   19.92000      1.9720847E-08
   19.98000      2.0266294E-08
   20.04000      2.0802311E-08
   20.10000      2.1322665E-08
   20.16000      2.1828599E-08
   20.22000      2.2330005E-08
   20.28000      2.2842023E-08
   20.34000      2.3378147E-08
   20.40000      2.3942697E-08
   20.46000      2.4526216E-08
   20.52000      2.5106120E-08
   20.58000      2.5652694E-08
   20.64000      2.6138126E-08
   20.70000      2.6545072E-08
   20.76000      2.6871531E-08
   20.82000      2.7130474E-08
   20.88000      2.7344763E-08
   20.94000      2.7539443E-08
   21.00000      2.7734091E-08
   21.06000      2.7937471E-08
   21.12000      2.8145619E-08
   21.18000      2.8343512E-08
   21.24000      2.8509442E-08
   21.30000      2.8620782E-08
   21.36000      2.8659560E-08
   21.42000      2.8616407E-08
   21.48000      2.8491909E-08
   21.54000      2.8295135E-08
   21.60000      2.8040004E-08
   21.66000      2.7740814E-08
   21.72000      2.7408461E-08
   21.78000      2.7048443E-08
   21.84000      2.6661004E-08
   21.90000      2.6242892E-08
   21.96000      2.5789792E-08
   22.02000      2.5298405E-08
   22.08000      2.4767527E-08
   22.14000      2.4197929E-08
   22.20000      2.3591225E-08
   22.26000      2.2948182E-08
   22.32000      2.2267082E-08
   22.38000      2.1542775E-08
   22.44000      2.0767073E-08
   22.50000      1.9930686E-08
   22.56000      1.9026366E-08
   22.62000      1.8052143E-08
   22.68000      1.7013262E-08
   22.74000      1.5921584E-08
   22.80000      1.4792182E-08
   22.86000      1.3638112E-08
   22.92000      1.2465248E-08
   22.98000      1.1269218E-08
   23.04000      1.0035675E-08
   23.10000      8.7437968E-09
   23.16000      7.3716220E-09
   23.22000      5.9013745E-09
   23.28000      4.3231521E-09
   23.34000      2.6362901E-09
   23.40000      8.4859625E-10
   23.46000     -1.0258221E-09
   23.52000     -2.9693636E-09
   23.58000     -4.9638142E-09
   23.64000     -6.9929138E-09
   23.70000     -9.0442231E-09
   23.76000     -1.1109862E-08
   23.82000     -1.3185812E-08
   23.88000     -1.5269904E-08
   23.94000     -1.7359136E-08
   24.00000     -1.9447358E-08
   24.06000     -2.1524215E-08
   24.12000     -2.3575771E-08
   24.18000     -2.5586353E-08
   24.24000     -2.7540882E-08
   24.30000     -2.9426765E-08
   24.36000     -3.1234965E-08
   24.42000     -3.2960255E-08
   24.48000     -3.4600916E-08
   24.54000     -3.6158067E-08
   24.60000     -3.7634397E-08
   24.66000     -3.9032368E-08
   24.72000     -4.0351974E-08
   24.78000     -4.1588905E-08
   24.84000     -4.2734044E-08
   24.90000     -4.3774971E-08
   24.96000     -4.4699167E-08
   25.02000     -4.5497558E-08
   25.08000     -4.6166708E-08
   25.14000     -4.6708436E-08
   25.20000     -4.7126981E-08
   25.26000     -4.7425118E-08
   25.32000     -4.7601400E-08
   25.38000     -4.7649980E-08
   25.44000     -4.7563120E-08
   25.50000     -4.7335035E-08
   25.56000     -4.6965013E-08
   25.62000     -4.6458297E-08
   25.68000     -4.5824585E-08
   25.74000     -4.5075211E-08
   25.80000     -4.4220695E-08
   25.86000     -4.3269793E-08
   25.92000     -4.2230081E-08
   25.98000     -4.1109182E-08
   26.04000     -3.9915392E-08
   26.10000     -3.8657092E-08
   26.16000     -3.7341106E-08
   26.22000     -3.5970793E-08
   26.28000     -3.4544691E-08
   26.34000     -3.3056111E-08
   26.40000     -3.1493741E-08
   26.46000     -2.9842973E-08
   26.52000     -2.8088103E-08
   26.58000     -2.6215357E-08
   26.64000     -2.4216671E-08
   26.70000     -2.2093353E-08
   26.76000     -1.9858360E-08
   26.82000     -1.7535859E-08
   26.88000     -1.5157642E-08
   26.94000     -1.2757384E-08
   27.00000     -1.0364761E-08
   27.06000     -8.0016465E-09
   27.12000     -5.6814868E-09
   27.18000     -3.4113932E-09
   27.24000     -1.1951085E-09
   27.30000      9.6508768E-10
   27.36000      3.0684988E-09
   27.42000      5.1175721E-09
   27.48000      7.1192572E-09
   27.54000      9.0845829E-09
   27.60000      1.1025949E-08
   27.66000      1.2952943E-08
   27.72000      1.4868286E-08
   27.78000      1.6765226E-08
   27.84000      1.8626784E-08
   27.90000      2.0426414E-08
   27.96000      2.2129354E-08
   28.02000      2.3694490E-08
   28.08000      2.5077153E-08
   28.14000      2.6233460E-08
   28.20000      2.7126100E-08
   28.26000      2.7730410E-08
   28.32000      2.8038720E-08
   28.38000      2.8061176E-08
   28.44000      2.7822365E-08
   28.50000      2.7354758E-08
   28.56000      2.6691181E-08
   28.62000      2.5858620E-08
   28.68000      2.4874879E-08
   28.74000      2.3748166E-08
   28.80000      2.2478687E-08
   28.86000      2.1060997E-08
   28.92000      1.9486142E-08
   28.98000      1.7743295E-08
   29.04000      1.5820927E-08
   29.10000      1.3707791E-08
   29.16000      1.1393961E-08
   29.22000      8.8721688E-09
   29.28000      6.1397678E-09
   29.34000      3.2015179E-09
   29.40000      7.2920010E-11
   29.46000     -3.2168102E-09
   29.52000     -6.6235613E-09
   29.58000     -1.0090239E-08
   29.64000     -1.3552107E-08
   29.70000     -1.6944504E-08
   29.76000     -2.0210686E-08
   29.82000     -2.3307374E-08
   29.88000     -2.6206497E-08
   29.94000     -2.8893311E-08
   30.00000     -3.1362436E-08
   30.06000     -3.3613958E-08
   30.12000     -3.5650995E-08
   30.18000     -3.7478930E-08
   30.24000     -3.9105267E-08
   30.30000     -4.0538836E-08
   30.36000     -4.1787636E-08
   30.42000     -4.2855635E-08
   30.48000     -4.3739732E-08
   30.54000     -4.4428148E-08
   30.60000     -4.4900972E-08
   30.66000     -4.5132701E-08
   30.72000     -4.5095920E-08
   30.78000     -4.4765081E-08
   30.84000     -4.4119698E-08
   30.90000     -4.3146549E-08
   30.96000     -4.1840899E-08
   31.02000     -4.0206832E-08
   31.08000     -3.8256676E-08
   31.14000     -3.6009570E-08
   31.20000     -3.3489361E-08
   31.26000     -3.0722138E-08
   31.32000     -2.7733902E-08
   31.38000     -2.4548854E-08
   31.44000     -2.1188447E-08
   31.50000     -1.7671239E-08
   31.56000     -1.4013191E-08
   31.62000     -1.0228240E-08
   31.68000     -6.3289147E-09
   31.74000     -2.3270494E-09
   31.80000      1.7652206E-09
   31.86000      5.9339933E-09
   31.92000      1.0161567E-08
   31.98000      1.4424013E-08
   32.04000      1.8688807E-08
   32.10000      2.2913275E-08
   32.16000      2.7044662E-08
   32.22000      3.1022442E-08
   32.28000      3.4782953E-08
   32.34000      3.8265714E-08
   32.40000      4.1420005E-08
   32.46000      4.4210061E-08
   32.52000      4.6617302E-08
   32.58000      4.8638892E-08
   32.64000      5.0283106E-08
   32.70000      5.1563067E-08
   32.76000      5.2490918E-08
   32.82000      5.3074388E-08
   32.88000      5.3316572E-08
   32.94000      5.3218447E-08
   33.00000      5.2782596E-08
   33.06000      5.2016162E-08
   33.12000      5.0931643E-08
   33.18000      4.9545360E-08
   33.24000      4.7874540E-08
   33.30000      4.5934627E-08
   33.36000      4.3738222E-08
   33.42000      4.1295941E-08
   33.48000      3.8618705E-08
   33.54000      3.5720038E-08
   33.60000      3.2617407E-08
   33.66000      2.9331963E-08
   33.72000      2.5887058E-08
   33.78000      2.2306262E-08
   33.84000      1.8611539E-08
   33.90000      1.4822012E-08
   33.96000      1.0953446E-08
   34.02000      7.0186497E-09
   34.08000      3.0289746E-09
   34.14000     -1.0029791E-09
   34.20000     -5.0599187E-09
   34.26000     -9.1168086E-09
   34.32000     -1.3139739E-08
   34.38000     -1.7087798E-08
   34.44000     -2.0917890E-08
   34.50000     -2.4590936E-08
   34.56000     -2.8077100E-08
   34.62000     -3.1357906E-08
   34.68000     -3.4424605E-08
   34.74000     -3.7273839E-08
   34.80000     -3.9902815E-08
   34.86000     -4.2306205E-08
   34.92000     -4.4475790E-08
   34.98000     -4.6402480E-08
   35.04000     -4.8079414E-08
   35.10000     -4.9504671E-08
   35.16000     -5.0682864E-08
   35.22000     -5.1625417E-08
   35.28000     -5.2349659E-08
   35.34000     -5.2876903E-08
   35.40000     -5.3229456E-08
   35.46000     -5.3426966E-08
   35.52000     -5.3483042E-08
   35.58000     -5.3403465E-08
   35.64000     -5.3187041E-08
   35.70000     -5.2829094E-08
   35.76000     -5.2326214E-08
   35.82000     -5.1680114E-08
   35.88000     -5.0898784E-08
   35.94000     -4.9994476E-08
   36.00000     -4.8979679E-08
   36.06000     -4.7863132E-08
   36.12000     -4.6647717E-08
   36.18000     -4.5330914E-08
   36.24000     -4.3907434E-08
   36.30000     -4.2372832E-08
   36.36000     -4.0727013E-08
   36.42000     -3.8976989E-08
   36.48000     -3.7138392E-08
   36.54000     -3.5235217E-08
   36.60000     -3.3297276E-08
   36.66000     -3.1355395E-08
   36.72000     -2.9435512E-08
   36.78000     -2.7553799E-08
   36.84000     -2.5715247E-08
   36.90000     -2.3916787E-08
   36.96000     -2.2153779E-08
   37.02000     -2.0426803E-08
   37.08000     -1.8745142E-08
   37.14000     -1.7125016E-08
   37.20000     -1.5583412E-08
   37.26000     -1.4130754E-08
   37.32000     -1.2766277E-08
   37.38000     -1.1478395E-08
   37.44000     -1.0249696E-08
   37.50000     -9.0639816E-09
   37.56000     -7.9122167E-09
   37.62000     -6.7954606E-09
   37.68000     -5.7245910E-09
   37.74000     -4.7179292E-09
   37.80000     -3.7979504E-09
   37.86000     -2.9876033E-09
   37.92000     -2.3062765E-09
   37.98000     -1.7657233E-09
   38.04000     -1.3670662E-09
   38.10000     -1.1004915E-09
   38.16000     -9.4864749E-10
   38.22000     -8.9310698E-10
   38.28000     -9.2147939E-10
   38.34000     -1.0320814E-09
   38.40000     -1.2340655E-09
   38.46000     -1.5431042E-09
   38.52000     -1.9748261E-09
   38.58000     -2.5389992E-09
   38.64000     -3.2366096E-09
   38.70000     -4.0602015E-09
   38.76000     -4.9963180E-09
   38.82000     -6.0284511E-09
   38.88000     -7.1395094E-09
   38.94000     -8.3136955E-09
   39.00000     -9.5380646E-09
   39.06000     -1.0803707E-08
   39.12000     -1.2105939E-08
   39.18000     -1.3442859E-08
   39.24000     -1.4812330E-08
   39.30000     -1.6208521E-08
   39.36000     -1.7619701E-08
   39.42000     -1.9028549E-08
   39.48000     -2.0414875E-08
   39.54000     -2.1759435E-08
   39.60000     -2.3046962E-08
   39.66000     -2.4267234E-08
   39.72000     -2.5414293E-08
   39.78000     -2.6484813E-08
   39.84000     -2.7476700E-08
   39.90000     -2.8388277E-08
   39.96000     -2.9217553E-08
   40.02000     -2.9961004E-08
   40.08000     -3.0611947E-08
   40.14000     -3.1159392E-08
   40.20000     -3.1588662E-08
   40.26000     -3.1884287E-08
   40.32000     -3.2034375E-08
   40.38000     -3.2034581E-08
   40.44000     -3.1889755E-08
   40.50000     -3.1612263E-08
   40.56000     -3.1217663E-08
   40.62000     -3.0719413E-08
   40.68000     -3.0124536E-08
   40.74000     -2.9431494E-08
   40.80000     -2.8630486E-08
   40.86000     -2.7705866E-08
   40.92000     -2.6639951E-08
   40.98000     -2.5417606E-08
   41.04000     -2.4030719E-08
   41.10000     -2.2481387E-08
   41.16000     -2.0782519E-08
   41.22000     -1.8955140E-08
   41.28000     -1.7022872E-08
   41.34000     -1.5005430E-08
   41.40000     -1.2913715E-08
   41.46000     -1.0748605E-08
   41.52000     -8.5040375E-09
   41.58000     -6.1731518E-09
   41.64000     -3.7550274E-09
   41.70000     -1.2594727E-09
   41.76000      1.2917709E-09
   41.82000      3.8676937E-09
   41.88000      6.4336501E-09
   41.94000      8.9583425E-09
   42.00000      1.1420236E-08
   42.06000      1.3811529E-08
   42.12000      1.6138189E-08
   42.18000      1.8415571E-08
   42.24000      2.0660558E-08
   42.30000      2.2882791E-08
   42.36000      2.5078345E-08
   42.42000      2.7228667E-08
   42.48000      2.9305571E-08
   42.54000      3.1280507E-08
   42.60000      3.3134373E-08
   42.66000      3.4863891E-08
   42.72000      3.6482188E-08
   42.78000      3.8013816E-08
   42.84000      3.9486398E-08
   42.90000      4.0922160E-08
   42.96000      4.2331830E-08
   43.02000      4.3712244E-08
   43.08000      4.5047670E-08
   43.14000      4.6314270E-08
   43.20000      4.7486893E-08
   43.26000      4.8546880E-08
   43.32000      4.9488989E-08
   43.38000      5.0325106E-08
   43.44000      5.1082768E-08
   43.50000      5.1798040E-08
   43.56000      5.2504600E-08
   43.62000      5.3222919E-08
   43.68000      5.3953684E-08
   43.74000      5.4678356E-08
   43.80000      5.5366709E-08
   43.86000      5.5988497E-08
   43.92000      5.6524680E-08
   43.98000      5.6974070E-08
   44.04000      5.7353201E-08
   44.10000      5.7689604E-08
   44.16000      5.8011061E-08
   44.22000      5.8334326E-08
   44.28000      5.8657246E-08
   44.34000      5.8956989E-08
   44.40000      5.9195663E-08
   44.46000      5.9332077E-08
   44.52000      5.9336276E-08
   44.58000      5.9201799E-08
   44.64000      5.8950796E-08
   44.70000      5.8629364E-08
   44.76000      5.8293796E-08
   44.82000      5.7992210E-08
   44.88000      5.7747826E-08
   44.94000      5.7549901E-08
   45.00000      5.7355244E-08
   45.06000      5.7099733E-08
   45.12000      5.6715859E-08
   45.18000      5.6150974E-08
   45.24000      5.5381179E-08
   45.30000      5.4417473E-08
   45.36000      5.3302802E-08
   45.42000      5.2100830E-08
   45.48000      5.0879002E-08
   45.54000      4.9690168E-08
   45.60000      4.8557961E-08
   45.66000      4.7470682E-08
   45.72000      4.6386269E-08
   45.78000      4.5247354E-08
   45.84000      4.4001428E-08
   45.90000      4.2618829E-08
   45.96000      4.1101821E-08
   46.02000      3.9481264E-08
   46.08000      3.7802547E-08
   46.14000      3.6106492E-08
   46.20000      3.4413070E-08
   46.26000      3.2714144E-08
   46.32000      3.0977809E-08
   46.38000      2.9162356E-08
   46.44000      2.7234563E-08
   46.50000      2.5185706E-08
   46.56000      2.3039870E-08
   46.62000      2.0851717E-08
   46.68000      1.8694221E-08
   46.74000      1.6639932E-08
   46.80000      1.4741331E-08
   46.86000      1.3016352E-08
   46.92000      1.1443920E-08
   46.98000      9.9714050E-09
   47.04000      8.5322016E-09
   47.10000      7.0681341E-09
   47.16000      5.5495173E-09
   47.22000      3.9862877E-09
   47.28000      2.4264990E-09
   47.34000      9.4277075E-10
   47.40000     -3.8868816E-10
   47.46000     -1.5094975E-09
   47.52000     -2.3941060E-09
   47.58000     -3.0539327E-09
   47.64000     -3.5299650E-09
   47.70000     -3.8768926E-09
   47.76000     -4.1444164E-09
   47.82000     -4.3620250E-09
   47.88000     -4.5321635E-09
   47.94000     -4.6338200E-09
   48.00000     -4.6350355E-09
   48.06000     -4.5097739E-09
   48.12000     -4.2530108E-09
   48.18000     -3.8883572E-09
   48.24000     -3.4650105E-09
   48.30000     -3.0445537E-09
   48.36000     -2.6818072E-09
   48.42000     -2.4062976E-09
   48.48000     -2.2109607E-09
   48.54000     -2.0523721E-09
   48.60000     -1.8628761E-09
   48.66000     -1.5708534E-09
   48.72000     -1.1225301E-09
   48.78000     -4.9821042E-10
   48.84000      2.8223809E-10
   48.90000      1.1661303E-09
   48.96000      2.0843323E-09
   49.02000      2.9715823E-09
   49.08000      3.7840557E-09
   49.14000      4.5086979E-09
   49.20000      5.1618185E-09
   49.26000      5.7780816E-09
   49.32000      6.3940968E-09
   49.38000      7.0324098E-09
   49.44000      7.6913391E-09
   49.50000      8.3439957E-09
   49.56000      8.9466656E-09
   49.62000      9.4535473E-09
   49.68000      9.8326067E-09
   49.74000      1.0076895E-08
   49.80000      1.0207159E-08
   49.86000      1.0264600E-08
   49.92000      1.0296137E-08
   49.98000      1.0337210E-08
   50.04000      1.0398115E-08
   50.10000      1.0458561E-08
   50.16000      1.0472263E-08
   50.22000      1.0379859E-08
   50.28000      1.0125734E-08
   50.34000      9.6732329E-09
   50.40000      9.0135863E-09
   50.46000      8.1662161E-09
   50.52000      7.1708848E-09
   50.58000      6.0746368E-09
   50.64000      4.9178519E-09
   50.70000      3.7237138E-09
   50.76000      2.4941416E-09
   50.82000      1.2131131E-09
   50.88000     -1.4408705E-10
   50.94000     -1.5990392E-09
   51.00000     -3.1599221E-09
   51.06000     -4.8163016E-09
   51.12000     -6.5405636E-09
   51.18000     -8.2951326E-09
   51.24000     -1.0042553E-08
   51.30000     -1.1754709E-08
   51.36000     -1.3418077E-08
   51.42000     -1.5033645E-08
   51.48000     -1.6612145E-08
   51.54000     -1.8166647E-08
   51.60000     -1.9705094E-08
   51.66000     -2.1224968E-08
   51.72000     -2.2711422E-08
   51.78000     -2.4139288E-08
   51.84000     -2.5478387E-08
   51.90000     -2.6700748E-08
   51.96000     -2.7787562E-08
   52.02000     -2.8733510E-08
   52.08000     -2.9546621E-08
   52.14000     -3.0243381E-08
   52.20000     -3.0840717E-08
   52.26000     -3.1348115E-08
   52.32000     -3.1763278E-08
   52.38000     -3.2073274E-08
   52.44000     -3.2260633E-08
   52.50000     -3.2311519E-08
   52.56000     -3.2222214E-08
   52.62000     -3.2001164E-08
   52.68000     -3.1666165E-08
   52.74000     -3.1238457E-08
   52.80000     -3.0736810E-08
   52.86000     -3.0174018E-08
   52.92000     -2.9556949E-08
   52.98000     -2.8889515E-08
   53.04000     -2.8177039E-08
   53.10000     -2.7430419E-08
   53.16000     -2.6668824E-08
   53.22000     -2.5920164E-08
   53.28000     -2.5218934E-08
   53.34000     -2.4601571E-08
   53.40000     -2.4100331E-08
   53.46000     -2.3737693E-08
   53.52000     -2.3523711E-08
   53.58000     -2.3458158E-08
   53.64000     -2.3537533E-08
   53.70000     -2.3764670E-08
   53.76000     -2.4157311E-08
   53.82000     -2.4752010E-08
   53.88000     -2.5601695E-08
   53.94000     -2.6767765E-08
   54.00000     -2.8309792E-08
   54.06000     -3.0276524E-08
   54.12000     -3.2701013E-08
   54.18000     -3.5600969E-08
   54.24000     -3.8983565E-08
   54.30000     -4.2852811E-08
   54.36000     -4.7217018E-08
   54.42000     -5.2093899E-08
   54.48000     -5.7511478E-08
   54.54000     -6.3504096E-08
   54.60000     -7.0104548E-08
   54.66000     -7.7335152E-08
   54.72000     -8.5201236E-08
   54.78000     -9.3690097E-08
   54.84000     -1.0277578E-07
   54.90000     -1.1242737E-07
   54.96000     -1.2261650E-07
   55.02000     -1.3332014E-07
   55.08000     -1.4451716E-07
   55.14000     -1.5617989E-07
   55.20000     -1.6826465E-07
   55.26000     -1.8070449E-07
   55.32000     -1.9340604E-07
   55.38000     -2.0624992E-07
   55.44000     -2.1909311E-07
   55.50000     -2.3177172E-07
   55.56000     -2.4410372E-07