  -2.400000      0.0000000E+00
  -2.340000      0.0000000E+00
  -2.280000      0.0000000E+00
  -2.220000      0.0000000E+00
  -2.160000      0.0000000E+00
  -2.100000      4.5920353E-19
  -2.040000      3.4990584E-18
  -1.980000      1.3369560E-17
  -1.920000      3.2910142E-17
  -1.860000      5.4357052E-17
  -1.800000      4.9379609E-17
  -1.740000     -2.9098586E-17
  -1.680000     -2.2004853E-16
  -1.620000     -5.0259775E-16
  -1.560000     -7.4591945E-16
  -1.500000     -7.1245704E-16
  -1.440000     -1.6483458E-16
  -1.380000      9.2460761E-16
  -1.320000      2.1614866E-15
  -1.260000      2.7084880E-15
  -1.200000      1.6447611E-15
  -1.140000     -1.2930735E-15
  -1.080000     -4.9320124E-15
  -1.020000     -6.4971048E-15
 -0.9600000     -2.6724713E-15
 -0.9000000      8.0937911E-15
 -0.8400000      2.3035730E-14
 -0.7800000      3.4099639E-14
 -0.7200000      3.0266412E-14
 -0.6600000      3.3587247E-15
 -0.6000000     -4.4917080E-14
 -0.5400000     -9.8911412E-14
 -0.4800000     -1.3201004E-13
 -0.4200000     -1.1767013E-13
 -0.3600000     -4.4665352E-14
 -0.3000000      7.1326815E-14
 -0.2400000      1.8790821E-13
 -0.1800000      2.5127673E-13
 -0.1200000      2.2201165E-13
 -5.9999999E-02  9.9516173E-14
  0.0000000E+00 -6.8554056E-14
  5.9999999E-02 -2.0016595E-13
  0.1200000     -2.1371727E-13
  0.1800000     -7.0535395E-14
  0.2400000      1.9379110E-13
  0.3000000      4.6553603E-13
  0.3600000      5.8296141E-13
  0.4200000      3.9416978E-13
  0.4800000     -1.7464582E-13
  0.5400000     -1.0636619E-12
  0.6000000     -2.0587776E-12
  0.6600000     -2.8205485E-12
  0.7200000     -2.9643408E-12
  0.7800000     -2.1768891E-12
  0.8400000     -3.3861396E-13
  0.9000000      2.3881188E-12
  0.9600000      5.5412155E-12
   1.020000      8.4296927E-12
   1.080000      1.0282552E-11
   1.140000      1.0436751E-11
   1.200000      8.5098777E-12
   1.260000      4.5081877E-12
   1.320000     -1.1558442E-12
   1.380000     -7.7315584E-12
   1.440000     -1.4254640E-11
   1.500000     -1.9690430E-11
   1.560000     -2.3064996E-11
   1.620000     -2.3567613E-11
   1.680000     -2.0622620E-11
   1.740000     -1.3939361E-11
   1.800000     -3.5569906E-12
   1.860000      1.0092306E-11
   1.920000      2.6077319E-11
   1.980000      4.2809496E-11
   2.040000      5.7859752E-11
   2.100000      6.7829853E-11
   2.160000      6.8399210E-11
   2.220000      5.4664932E-11
   2.280000      2.1822271E-11
   2.340000     -3.3895119E-11
   2.400000     -1.1423349E-10
   2.460000     -2.1819330E-10
   2.520000     -3.4182304E-10
   2.580000     -4.7864240E-10
   2.640000     -6.2058497E-10
   2.700000     -7.5916040E-10
   2.760000     -8.8646401E-10
   2.820000     -9.9575082E-10
   2.880000     -1.0815038E-09
   2.940000     -1.1391627E-09
   3.000000     -1.1648312E-09
   3.060000     -1.1552668E-09
   3.120000     -1.1082836E-09
   3.180000     -1.0234508E-09
   3.240000     -9.0275654E-10
   3.300000     -7.5084844E-10
   3.360000     -5.7459232E-10
   3.420000     -3.8194925E-10
   3.480000     -1.8046729E-10
   3.540000      2.4131634E-11
   3.600000      2.2879473E-10
   3.660000      4.3313980E-10
   3.720000      6.3866962E-10
   3.780000      8.4756507E-10
   3.840000      1.0615935E-09
   3.900000      1.2816180E-09
   3.960000      1.5079384E-09
   4.020000      1.7413226E-09
   4.080000      1.9842610E-09
   4.140000      2.2418147E-09
   4.200000      2.5215174E-09
   4.260000      2.8321239E-09
   4.320000      3.1814380E-09
   4.380000      3.5738659E-09
   4.440000      4.0085282E-09
   4.500000      4.4786477E-09
   4.560000      4.9725375E-09
   4.620000      5.4759304E-09
   4.680000      5.9749130E-09
   4.740000      6.4584746E-09
   4.800000      6.9198323E-09
   4.860000      7.3561686E-09
   4.920000      7.7670608E-09
   4.980000      8.1523703E-09
   5.040000      8.5105603E-09
   5.100000      8.8381586E-09
   5.160000      9.1305594E-09
   5.220000      9.3837409E-09
   5.280000      9.5961177E-09
   5.340000      9.7697095E-09
   5.400000      9.9101669E-09
   5.460000      1.0025725E-08
   5.520000      1.0125587E-08
   5.580000      1.0218460E-08
   5.640000      1.0311795E-08
   5.700000      1.0411886E-08
   5.760000      1.0524556E-08
   5.820000      1.0655864E-08
   5.880000      1.0812233E-08
   5.940000      1.0999693E-08
   6.000000      1.1222305E-08
   6.060000      1.1480265E-08
   6.120000      1.1768382E-08
   6.180000      1.2075596E-08
   6.240000      1.2385858E-08
   6.300000      1.2680267E-08
   6.360000      1.2939856E-08
   6.420000      1.3148249E-08
   6.480000      1.3293342E-08
   6.540000      1.3367593E-08
   6.600000      1.3366937E-08
   6.660000      1.3288856E-08
   6.720000      1.3130451E-08
   6.780000      1.2887344E-08
   6.840000      1.2553952E-08
   6.900000      1.2125149E-08
   6.960000      1.1598787E-08
   7.020000      1.0978159E-08
   7.080000      1.0273433E-08
   7.140000      9.5013499E-09
   7.200000      8.6831342E-09
   7.260000      7.8412326E-09
   7.320000      6.9960273E-09
   7.380000      6.1636909E-09
   7.440000      5.3559219E-09
   7.500000      4.5813930E-09
   7.560000      3.8479602E-09
   7.620000      3.1642500E-09
   7.680000      2.5395541E-09
   7.740000      1.9818640E-09
   7.800000      1.4949209E-09
   7.860000      1.0758310E-09
   7.920000      7.1464978E-10
   7.980000      3.9642864E-10
   8.040000      1.0499903E-10
   8.100000     -1.7311660E-10
   8.160000     -4.4634507E-10
   8.220000     -7.1813872E-10
   8.280000     -9.8916697E-10
   8.340000     -1.2603252E-09
   8.400000     -1.5350162E-09
   8.460000     -1.8197046E-09
   8.520000     -2.1227040E-09
   8.580000     -2.4519864E-09
   8.640000     -2.8130851E-09
   8.700000     -3.2078717E-09
   8.760000     -3.6344128E-09
   8.820000     -4.0876369E-09
   8.880000     -4.5604081E-09
   8.940000     -5.0447118E-09
   9.000000     -5.5328395E-09
   9.060000     -6.0184537E-09
   9.120000     -6.4972929E-09
   9.180000     -6.9671597E-09
   9.240000     -7.4269990E-09
   9.300000     -7.8753049E-09
   9.360000     -8.3085236E-09
   9.420000     -8.7203658E-09
   9.480000     -9.1025925E-09
   9.540000     -9.4471524E-09
   9.600000     -9.7488186E-09
   9.660000     -1.0007068E-08
   9.720000     -1.0226263E-08
   9.780000     -1.0413949E-08
   9.840000     -1.0577996E-08
   9.900000     -1.0723862E-08
   9.960000     -1.0853151E-08
   10.02000     -1.0964024E-08
   10.08000     -1.1053133E-08
   10.14000     -1.1118082E-08
   10.20000     -1.1159258E-08
   10.26000     -1.1180165E-08
   10.32000     -1.1186188E-08
   10.38000     -1.1182296E-08
   10.44000     -1.1170733E-08
   10.50000     -1.1149675E-08
   10.56000     -1.1113439E-08
   10.62000     -1.1054169E-08
   10.68000     -1.0964309E-08
   10.74000     -1.0838885E-08
   10.80000     -1.0676739E-08
   10.86000     -1.0480416E-08
   10.92000     -1.0254998E-08
   10.98000     -1.0006644E-08
   11.04000     -9.7415862E-09
   11.10000     -9.4658974E-09
   11.16000     -9.1858574E-09
   11.22000     -8.9082866E-09
   11.28000     -8.6403436E-09
   11.34000     -8.3886329E-09
   11.40000     -8.1579659E-09
   11.46000     -7.9503906E-09
   11.52000     -7.7649274E-09
   11.58000     -7.5980875E-09
   11.64000     -7.4448363E-09
   11.70000     -7.2996018E-09
   11.76000     -7.1571140E-09
   11.82000     -7.0131891E-09
   11.88000     -6.8656378E-09
   11.94000     -6.7152519E-09
   12.00000     -6.5664385E-09
   12.06000     -6.4268537E-09
   12.12000     -6.3056484E-09
   12.18000     -6.2106542E-09
   12.24000     -6.1455516E-09
   12.30000     -6.1083787E-09
   12.36000     -6.0922694E-09
   12.42000     -6.0882730E-09
   12.48000     -6.0890475E-09
   12.54000     -6.0916894E-09
   12.60000     -6.0983973E-09
   12.66000     -6.1147252E-09
   12.72000     -6.1463949E-09
   12.78000     -6.1962582E-09
   12.84000     -6.2627832E-09
   12.90000     -6.3405352E-09
   12.96000     -6.4221104E-09
   13.02000     -6.5003585E-09
   13.08000     -6.5698358E-09
   13.14000     -6.6270331E-09
   13.20000     -6.6696666E-09
   13.26000     -6.6957377E-09
   13.32000     -6.7030315E-09
   13.38000     -6.6893282E-09
   13.44000     -6.6531380E-09
   13.50000     -6.5944641E-09
   13.56000     -6.5151098E-09
   13.62000     -6.4182304E-09
   13.68000     -6.3071424E-09
   13.74000     -6.1836714E-09
   13.80000     -6.0465277E-09
   13.86000     -5.8902803E-09
   13.92000     -5.7054468E-09
   13.98000     -5.4799587E-09
   14.04000     -5.2018079E-09
   14.10000     -4.8622066E-09
   14.16000     -4.4582169E-09
   14.22000     -3.9938608E-09
   14.28000     -3.4791654E-09
   14.34000     -2.9273983E-09
   14.40000     -2.3514921E-09
   14.46000     -1.7610315E-09
   14.52000     -1.1609568E-09
   14.58000     -5.5237359E-10
   14.64000      6.5080712E-11
   14.70000      6.9056100E-10
   14.76000      1.3203585E-09
   14.82000      1.9480415E-09
   14.88000      2.5662346E-09
   14.94000      3.1690244E-09
   15.00000      3.7536729E-09
   15.06000      4.3206723E-09
   15.12000      4.8720779E-09
   15.18000      5.4089728E-09
   15.24000      5.9294250E-09
   15.30000      6.4280652E-09
   15.36000      6.8975758E-09
   15.42000      7.3313635E-09
   15.48000      7.7260252E-09
   15.54000      8.0822735E-09
   15.60000      8.4037621E-09
   15.66000      8.6943057E-09
   15.72000      8.9548342E-09
   15.78000      9.1815764E-09
   15.84000      9.3663886E-09
   15.90000      9.4991632E-09
   15.96000      9.5713313E-09
   16.02000      9.5790611E-09
   16.08000      9.5249968E-09
   16.14000      9.4180592E-09
   16.20000      9.2716119E-09
   16.26000      9.1008232E-09
   16.32000      8.9201455E-09
   16.38000      8.7416181E-09
   16.44000      8.5742355E-09
   16.50000      8.4242817E-09
   16.56000      8.2962019E-09
   16.62000      8.1935418E-09
   16.68000      8.1195273E-09
   16.74000      8.0770342E-09
   16.80000      8.0680103E-09
   16.86000      8.0926403E-09
   16.92000      8.1487759E-09
   16.98000      8.2320453E-09
   17.04000      8.3368539E-09
   17.10000      8.4579908E-09
   17.16000      8.5922567E-09
   17.22000      8.7393488E-09
   17.28000      8.9014582E-09
   17.34000      9.0815417E-09
   17.40000      9.2807815E-09
   17.46000      9.4961434E-09
   17.52000      9.7190043E-09
   17.58000      9.9354525E-09
   17.64000      1.0128270E-08
   17.70000      1.0279991E-08
   17.76000      1.0376000E-08
   17.82000      1.0406602E-08
   17.88000      1.0367458E-08
   17.94000      1.0258398E-08
   18.00000      1.0081327E-08
   18.06000      9.8383337E-09
   18.12000      9.5309112E-09
   18.18000      9.1606687E-09
   18.24000      8.7310568E-09
   18.30000      8.2490796E-09
   18.36000      7.7258964E-09
   18.42000      7.1757822E-09
   18.48000      6.6137460E-09
   18.54000      6.0528098E-09
   18.60000      5.5021272E-09
   18.66000      4.9666169E-09
   18.72000      4.4480046E-09
   18.78000      3.9464574E-09
   18.84000      3.4618417E-09
   18.90000      2.9940463E-09
   18.96000      2.5424871E-09
   19.02000      2.1054412E-09
   19.08000      1.6798900E-09
   19.14000      1.2621467E-09
   19.20000      8.4898960E-10
   19.26000      4.3871468E-10
   19.32000      3.1626705E-11
   19.38000     -3.7011810E-10
   19.44000     -7.6303969E-10
   19.50000     -1.1428810E-09
   19.56000     -1.5050510E-09
   19.62000     -1.8451310E-09
   19.68000     -2.1596747E-09
   19.74000     -2.4472573E-09
   19.80000     -2.7093312E-09
   19.86000     -2.9502409E-09
   19.92000     -3.1760403E-09
   19.98000     -3.3924135E-09
   20.04000     -3.6026719E-09
   20.10000     -3.8069921E-09
   20.16000     -4.0035184E-09
   20.22000     -4.1909707E-09
   20.28000     -4.3714397E-09
   20.34000     -4.5518029E-09
   20.40000     -4.7428026E-09
   20.46000     -4.9560422E-09
   20.52000     -5.2003082E-09
   20.58000     -5.4790261E-09
   20.64000     -5.7901444E-09
   20.70000     -6.1284782E-09
   20.76000     -6.4893113E-09
   20.82000     -6.8714434E-09
   20.88000     -7.2781892E-09
   20.94000     -7.7158804E-09
   21.00000     -8.1906428E-09
   21.06000     -8.7049896E-09
   21.12000     -9.2557650E-09
   21.18000     -9.8343103E-09
   21.24000     -1.0428698E-08
   21.30000     -1.1027077E-08
   21.36000     -1.1620812E-08
   21.42000     -1.2206342E-08
   21.48000     -1.2785264E-08
   21.54000     -1.3362826E-08
   21.60000     -1.3945479E-08
   21.66000     -1.4538371E-08
   21.72000     -1.5143453E-08
   21.78000     -1.5758649E-08
   21.84000     -1.6378127E-08
   21.90000     -1.6993502E-08
   21.96000     -1.7595603E-08
   22.02000     -1.8176355E-08
   22.08000     -1.8730301E-08
   22.14000     -1.9255308E-08
   22.20000     -1.9752157E-08
   22.26000     -2.0222995E-08
   22.32000     -2.0669138E-08
   22.38000     -2.1089011E-08
   22.44000     -2.1477200E-08
   22.50000     -2.1825221E-08
   22.56000     -2.2123906E-08
   22.62000     -2.2366478E-08
   22.68000     -2.2550827E-08
   22.74000     -2.2679773E-08
   22.80000     -2.2758993E-08
   22.86000     -2.2793408E-08
   22.92000     -2.2783809E-08
   22.98000     -2.2725432E-08
   23.04000     -2.2609333E-08
   23.10000     -2.2425970E-08
   23.16000     -2.2169354E-08
   23.22000     -2.1839812E-08
   23.28000     -2.1444237E-08
   23.34000     -2.0993959E-08
   23.40000     -2.0501506E-08
   23.46000     -1.9977808E-08
   23.52000     -1.9430882E-08
   23.58000     -1.8865972E-08
   23.64000     -1.8286418E-08
   23.70000     -1.7694344E-08
   23.76000     -1.7090795E-08
   23.82000     -1.6475534E-08
   23.88000     -1.5847085E-08
   23.94000     -1.5203337E-08
   24.00000     -1.4542517E-08
   24.06000     -1.3864042E-08
   24.12000     -1.3168753E-08
   24.18000     -1.2458559E-08
   24.24000     -1.1735948E-08
   24.30000     -1.1003884E-08
   24.36000     -1.0266186E-08
   24.42000     -9.5279855E-09
   24.48000     -8.7955687E-09
   24.54000     -8.0752995E-09
   24.60000     -7.3719719E-09
   24.66000     -6.6875323E-09
   24.72000     -6.0210170E-09
   24.78000     -5.3698685E-09
   24.84000     -4.7319011E-09
   24.90000     -4.1067616E-09
   24.96000     -3.4960899E-09
   25.02000     -2.9025267E-09
   25.08000     -2.3285165E-09
   25.14000     -1.7759534E-09
   25.20000     -1.2469786E-09
   25.26000     -7.4519124E-10
   25.32000     -2.7599600E-10
   25.38000      1.5473200E-10
   25.44000      5.4329774E-10
   25.50000      8.9065777E-10
   25.56000      1.2030331E-09
   25.62000      1.4899774E-09
   25.68000      1.7607868E-09
   25.74000      2.0212567E-09
   25.80000      2.2726361E-09
   25.86000      2.5132663E-09
   25.92000      2.7416773E-09
   25.98000      2.9590126E-09
   26.04000      3.1691567E-09
   26.10000      3.3765051E-09
   26.16000      3.5828918E-09
   26.22000      3.7856953E-09
   26.28000      3.9783048E-09
   26.34000      4.1525148E-09
   26.40000      4.3011963E-09
   26.46000      4.4195234E-09
   26.52000      4.5041477E-09
   26.58000      4.5511408E-09
   26.64000      4.5543116E-09
   26.70000      4.5051616E-09
   26.76000      4.3945776E-09
   26.82000      4.2153001E-09
   26.88000      3.9638728E-09
   26.94000      3.6413548E-09
   27.00000      3.2529550E-09
   27.06000      2.8072182E-09
   27.12000      2.3151898E-09
   27.18000      1.7893873E-09
   27.24000      1.2420838E-09
   27.30000      6.8276174E-10
   27.36000      1.1543303E-10
   27.42000     -4.6286186E-10
   27.48000     -1.0612820E-09
   27.54000     -1.6921538E-09
   27.60000     -2.3670010E-09
   27.66000     -3.0935523E-09
   27.72000     -3.8749897E-09
   27.78000     -4.7111870E-09
   27.84000     -5.6002927E-09
   27.90000     -6.5387731E-09
   27.96000     -7.5191959E-09
   28.02000     -8.5268477E-09
   28.08000     -9.5375725E-09
   28.14000     -1.0518951E-08
   28.20000     -1.1435276E-08
   28.26000     -1.2254603E-08
   28.32000     -1.2954877E-08
   28.38000     -1.3526570E-08
   28.44000     -1.3971022E-08
   28.50000     -1.4295893E-08
   28.56000     -1.4510293E-08
   28.62000     -1.4621864E-08
   28.68000     -1.4636642E-08
   28.74000     -1.4560819E-08
   28.80000     -1.4402692E-08
   28.86000     -1.4173327E-08
   28.92000     -1.3885517E-08
   28.98000     -1.3551609E-08
   29.04000     -1.3181284E-08
   29.10000     -1.2780107E-08
   29.16000     -1.2349155E-08
   29.22000     -1.1885526E-08
   29.28000     -1.1383367E-08
   29.34000     -1.0835181E-08
   29.40000     -1.0233169E-08
   29.46000     -9.5703969E-09
   29.52000     -8.8414316E-09
   29.58000     -8.0422584E-09
   29.64000     -7.1695681E-09
   29.70000     -6.2199508E-09
   29.76000     -5.1897087E-09
   29.82000     -4.0757659E-09
   29.88000     -2.8775395E-09
   29.94000     -1.5990043E-09
   30.00000     -2.4996097E-10
   30.06000      1.1541537E-09
   30.12000      2.5938349E-09
   30.18000      4.0477062E-09
   30.24000      5.4943872E-09
   30.30000      6.9134560E-09
   30.36000      8.2856202E-09
   30.42000      9.5927302E-09
   30.48000      1.0818310E-08
   30.54000      1.1948783E-08
   30.60000      1.2974891E-08
   30.66000      1.3892445E-08
   30.72000      1.4701740E-08
   30.78000      1.5405639E-08
   30.84000      1.6007100E-08
   30.90000      1.6507279E-08
   30.96000      1.6905076E-08
   31.02000      1.7198145E-08
   31.08000      1.7384616E-08
   31.14000      1.7464371E-08
   31.20000      1.7439023E-08
   31.26000      1.7310636E-08
   31.32000      1.7080094E-08
   31.38000      1.6746359E-08
   31.44000      1.6307446E-08
   31.50000      1.5762915E-08
   31.56000      1.5116699E-08
   31.62000      1.4378680E-08
   31.68000      1.3563971E-08
   31.74000      1.2689982E-08
   31.80000      1.1772537E-08
   31.86000      1.0822799E-08
   31.92000      9.8462909E-09
   31.98000      8.8441530E-09
   32.04000      7.8156628E-09
   32.10000      6.7605264E-09
   32.16000      5.6798712E-09
   32.22000      4.5758290E-09
   32.28000      3.4505241E-09
   32.34000      2.3055087E-09
   32.40000      1.1422213E-09
   32.46000     -3.6846338E-11
   32.52000     -1.2271609E-09
   32.58000     -2.4221576E-09
   32.64000     -3.6143550E-09
   32.70000     -4.7968571E-09
   32.76000     -5.9641572E-09
   32.82000     -7.1115482E-09
   32.88000     -8.2333411E-09
   32.94000     -9.3209298E-09
   33.00000     -1.0361975E-08
   33.06000     -1.1341399E-08
   33.12000     -1.2243886E-08
   33.18000     -1.3056706E-08
   33.24000     -1.3771498E-08
   33.30000     -1.4384243E-08
   33.36000     -1.4893672E-08
   33.42000     -1.5299165E-08
   33.48000     -1.5599417E-08
   33.54000     -1.5792571E-08
   33.60000     -1.5877660E-08
   33.66000     -1.5856386E-08
   33.72000     -1.5734104E-08
   33.78000     -1.5519346E-08
   33.84000     -1.5222062E-08
   33.90000     -1.4851395E-08
   33.96000     -1.4414073E-08
   34.02000     -1.3914036E-08
   34.08000     -1.3353170E-08
   34.14000     -1.2732493E-08
   34.20000     -1.2052967E-08
   34.26000     -1.1315637E-08
   34.32000     -1.0521440E-08
   34.38000     -9.6714103E-09
   34.44000     -8.7678300E-09
   34.50000     -7.8160527E-09
   34.56000     -6.8259554E-09
   34.62000     -5.8117426E-09
   34.68000     -4.7894955E-09
   34.74000     -3.7731924E-09
   34.80000     -2.7711200E-09
   34.86000     -1.7847945E-09
   34.92000     -8.1143714E-10
   34.98000      1.5090744E-10
   35.04000      1.0981944E-09
   35.10000      2.0181026E-09
   35.16000      2.8922671E-09
   35.22000      3.7022232E-09
   35.28000      4.4361306E-09
   35.34000      5.0927493E-09
   35.40000      5.6804978E-09
   35.46000      6.2120051E-09
   35.52000      6.6969550E-09
   35.58000      7.1368533E-09
   35.64000      7.5242186E-09
   35.70000      7.8463493E-09
   35.76000      8.0914919E-09
   35.82000      8.2542675E-09
   35.88000      8.3379170E-09
   35.94000      8.3527203E-09
   36.00000      8.3118250E-09
   36.06000      8.2266896E-09
   36.12000      8.1040916E-09
   36.18000      7.9456184E-09
   36.24000      7.7493025E-09
   36.30000      7.5122895E-09
   36.36000      7.2332424E-09
   36.42000      6.9135400E-09
   36.48000      6.5569163E-09
   36.54000      6.1678294E-09
   36.60000      5.7493570E-09
   36.66000      5.3016658E-09
   36.72000      4.8219695E-09
   36.78000      4.3062847E-09
   36.84000      3.7524535E-09
   36.90000      3.1631537E-09
   36.96000      2.5474283E-09
   37.02000      1.9198665E-09
   37.08000      1.2976776E-09
   37.14000      6.9697331E-10
   37.20000      1.2995358E-10
   37.26000     -3.9584860E-10
   37.32000     -8.7627439E-10
   37.38000     -1.3082860E-09
   37.44000     -1.6882007E-09
   37.50000     -2.0113109E-09
   37.56000     -2.2727569E-09
   37.62000     -2.4686837E-09
   37.68000     -2.5966549E-09
   37.74000     -2.6549847E-09
   37.80000     -2.6415983E-09
   37.86000     -2.5535436E-09
   37.92000     -2.3879680E-09
   37.98000     -2.1444051E-09
   38.04000     -1.8272081E-09
   38.10000     -1.4466039E-09
   38.16000     -1.0173842E-09
   38.22000     -5.5545385E-10
   38.28000     -7.3651418E-11
   38.34000      4.2127862E-10
   38.40000      9.2916391E-10
   38.46000      1.4541650E-09
   38.52000      2.0009490E-09
   38.58000      2.5711093E-09
   38.64000      3.1614402E-09
   38.70000      3.7646668E-09
   38.76000      4.3720143E-09
   38.82000      4.9761733E-09
   38.88000      5.5732134E-09
   38.94000      6.1627041E-09
   39.00000      6.7462933E-09
   39.06000      7.3257342E-09
   39.12000      7.9013933E-09
   39.18000      8.4717788E-09
   39.24000      9.0339043E-09
   39.30000      9.5838679E-09
   39.36000      1.0117158E-08
   39.42000      1.0628649E-08
   39.48000      1.1112724E-08
   39.54000      1.1563936E-08
   39.60000      1.1978157E-08
   39.66000      1.2353563E-08
   39.72000      1.2690606E-08
   39.78000      1.2990590E-08
   39.84000      1.3253389E-08
   39.90000      1.3475601E-08
   39.96000      1.3650445E-08
   40.02000      1.3769785E-08
   40.08000      1.3827410E-08
   40.14000      1.3821808E-08
   40.20000      1.3756861E-08
   40.26000      1.3640095E-08
   40.32000      1.3479512E-08
   40.38000      1.3280882E-08
   40.44000      1.3046947E-08
   40.50000      1.2778671E-08
   40.56000      1.2477413E-08
   40.62000      1.2146345E-08
   40.68000      1.1790164E-08
   40.74000      1.1413406E-08
   40.80000      1.1018730E-08
   40.86000      1.0606459E-08
   40.92000      1.0175796E-08
   40.98000      9.7268682E-09
   41.04000      9.2621750E-09
   41.10000      8.7864747E-09
   41.16000      8.3052250E-09
   41.22000      7.8227353E-09
   41.28000      7.3412845E-09
   41.34000      6.8617187E-09
   41.40000      6.3849068E-09
   41.46000      5.9128435E-09
   41.52000      5.4484408E-09
   41.58000      4.9940776E-09
   41.64000      4.5498845E-09
   41.70000      4.1129899E-09
   41.76000      3.6782899E-09
   41.82000      3.2402478E-09
   41.88000      2.7945222E-09
   41.94000      2.3383331E-09
   42.00000      1.8693622E-09
   42.06000      1.3840021E-09
   42.12000      8.7628266E-10
   42.18000      3.3847686E-10
   42.24000     -2.3656488E-10
   42.30000     -8.5230251E-10
   42.36000     -1.5060528E-09
   42.42000     -2.1883948E-09
   42.48000     -2.8848315E-09
   42.54000     -3.5791767E-09
   42.60000     -4.2574748E-09
   42.66000     -4.9110875E-09
   42.72000     -5.5379252E-09
   42.78000     -6.1414758E-09
   42.84000     -6.7280728E-09
   42.90000     -7.3034578E-09
   42.96000     -7.8699252E-09
   43.02000     -8.4250926E-09
   43.08000     -8.9626502E-09
   43.14000     -9.4746868E-09
   43.20000     -9.9546060E-09
   43.26000     -1.0399543E-08
   43.32000     -1.0811516E-08
   43.38000     -1.1197058E-08
   43.44000     -1.1565539E-08
   43.50000     -1.1926604E-08
   43.56000     -1.2287275E-08
   43.62000     -1.2649331E-08
   43.68000     -1.3007740E-08
   43.74000     -1.3350914E-08
   43.80000     -1.3663186E-08
   43.86000     -1.3929070E-08
   43.92000     -1.4137964E-08
   43.98000     -1.4287401E-08
   44.04000     -1.4383382E-08
   44.10000     -1.4437556E-08
   44.16000     -1.4462539E-08
   44.22000     -1.4467610E-08
   44.28000     -1.4456736E-08
   44.34000     -1.4429542E-08
   44.40000     -1.4384271E-08
   44.46000     -1.4320857E-08
   44.52000     -1.4242495E-08
   44.58000     -1.4155241E-08
   44.64000     -1.4066410E-08
   44.70000     -1.3982963E-08
   44.76000     -1.3910629E-08
   44.82000     -1.3853603E-08
   44.88000     -1.3814094E-08
   44.94000     -1.3791310E-08
   45.00000     -1.3780232E-08
   45.06000     -1.3771270E-08
   45.12000     -1.3751714E-08
   45.18000     -1.3708934E-08
   45.24000     -1.3634115E-08
   45.30000     -1.3524751E-08
   45.36000     -1.3384668E-08
   45.42000     -1.3221681E-08
   45.48000     -1.3044211E-08
   45.54000     -1.2858549E-08
   45.60000     -1.2667849E-08
   45.66000     -1.2472713E-08
   45.72000     -1.2272435E-08
   45.78000     -1.2065920E-08
   45.84000     -1.1851943E-08
   45.90000     -1.1629061E-08
   45.96000     -1.1395706E-08
   46.02000     -1.1150534E-08
   46.08000     -1.0892649E-08
   46.14000     -1.0621208E-08
   46.20000     -1.0334491E-08
   46.26000     -1.0029215E-08
   46.32000     -9.7010933E-09
   46.38000     -9.3470387E-09
   46.44000     -8.9682262E-09
   46.50000     -8.5723038E-09
   46.56000     -8.1731484E-09
   46.62000     -7.7877669E-09
   46.68000     -7.4315545E-09
   46.74000     -7.1141191E-09
   46.80000     -6.8375678E-09
   46.86000     -6.5977508E-09
   46.92000     -6.3873200E-09
   46.98000     -6.1986953E-09
   47.04000     -6.0255188E-09
   47.10000     -5.8624896E-09
   47.16000     -5.7046385E-09
   47.22000     -5.5473013E-09
   47.28000     -5.3872125E-09
   47.34000     -5.2239812E-09
   47.40000     -5.0605840E-09
   47.46000     -4.9020201E-09
   47.52000     -4.7524797E-09
   47.58000     -4.6125690E-09
   47.64000     -4.4783608E-09
   47.70000     -4.3431481E-09
   47.76000     -4.2012620E-09
   47.82000     -4.0521124E-09
   47.88000     -3.9024020E-09
   47.94000     -3.7653636E-09
   48.00000     -3.6573222E-09
   48.06000     -3.5930641E-09
   48.12000     -3.5818812E-09
   48.18000     -3.6256753E-09
   48.24000     -3.7194994E-09
   48.30000     -3.8539896E-09
   48.36000     -4.0185881E-09
   48.42000     -4.2044266E-09
   48.48000     -4.4060524E-09
   48.54000     -4.6216755E-09
   48.60000     -4.8520801E-09
   48.66000     -5.0987463E-09
   48.72000     -5.3619544E-09
   48.78000     -5.6396403E-09
   48.84000     -5.9275234E-09
   48.90000     -6.2205139E-09
   48.96000     -6.5148695E-09
   49.02000     -6.8101289E-09
   49.08000     -7.1098305E-09
   49.14000     -7.4203621E-09
   49.20000     -7.7480395E-09
   49.26000     -8.0952756E-09
   49.32000     -8.4572749E-09
   49.38000     -8.8206900E-09
   49.44000     -9.1650829E-09
   49.50000     -9.4670014E-09
   49.56000     -9.7053512E-09
   49.62000     -9.8661799E-09
   49.68000     -9.9451221E-09
   49.74000     -9.9467332E-09
   49.80000     -9.8813056E-09
   49.86000     -9.7607540E-09
   49.92000     -9.5954213E-09
   49.98000     -9.3929335E-09
   50.04000     -9.1590318E-09
   50.10000     -8.8992795E-09
   50.16000     -8.6202414E-09
   50.22000     -8.3293159E-09
   50.28000     -8.0333722E-09
   50.34000     -7.7371176E-09
   50.40000     -7.4422526E-09
   50.46000     -7.1478392E-09
   50.52000     -6.8515571E-09
   50.58000     -6.5509886E-09
   50.64000     -6.2442083E-09
   50.70000     -5.9295417E-09
   50.76000     -5.6049876E-09
   50.82000     -5.2679940E-09
   50.88000     -4.9159867E-09
   50.94000     -4.5474309E-09
   51.00000     -4.1627626E-09
   51.06000     -3.7645105E-09
   51.12000     -3.3563683E-09
   51.18000     -2.9416189E-09
   51.24000     -2.5217464E-09
   51.30000     -2.0960476E-09
   51.36000     -1.6626195E-09
   51.42000     -1.2204252E-09
   51.48000     -7.7158724E-10
   51.54000     -3.2286904E-10
   51.60000      1.1442296E-10
   51.66000      5.2627291E-10
   51.72000      8.9898294E-10
   51.78000      1.2223832E-09
   51.84000      1.4921788E-09
   51.90000      1.7107875E-09
   51.96000      1.8866322E-09
   52.02000      2.0323601E-09
   52.08000      2.1626299E-09
   52.14000      2.2919420E-09
   52.20000      2.4327256E-09
   52.26000      2.5938134E-09
   52.32000      2.7795999E-09
   52.38000      2.9904108E-09
   52.44000      3.2245191E-09
   52.50000      3.4816907E-09
   52.56000      3.7672789E-09
   52.62000      4.0952788E-09
   52.68000      4.4889310E-09
   52.74000      4.9784967E-09
   52.80000      5.5972582E-09
   52.86000      6.3777823E-09
   52.92000      7.3503670E-09
   52.98000      8.5444238E-09
   53.04000      9.9919841E-09
   53.10000      1.1731500E-08
   53.16000      1.3810171E-08
   53.22000      1.6284041E-08
   53.28000      1.9216269E-08
   53.34000      2.2674623E-08
   53.40000      2.6729102E-08
   53.46000      3.1450121E-08
   53.52000      3.6907320E-08
   53.58000      4.3169212E-08
   53.64000      5.0304237E-08
   53.70000      5.8383620E-08
   53.76000      6.7485850E-08
   53.82000      7.7701323E-08
   53.88000      8.9135057E-08
   53.94000      1.0190612E-07
   54.00000      1.1614354E-07
   54.06000      1.3198046E-07
   54.12000      1.4954915E-07
   54.18000      1.6897869E-07
   54.24000      1.9039526E-07
   54.30000      2.1392357E-07
   54.36000      2.3968704E-07
   54.42000      2.6780532E-07
   54.48000      2.9838969E-07
   54.54000      3.3153751E-07
   54.60000      3.6732706E-07
   54.66000      4.0581332E-07
   54.72000      4.4702389E-07
   54.78000      4.9095405E-07
   54.84000      5.3756031E-07
   54.90000      5.8675391E-07
   54.96000      6.3839389E-07
   55.02000      6.9228230E-07
   55.08000      7.4815938E-07
   55.14000      8.0569873E-07
   55.20000      8.6450177E-07
   55.26000      9.2409135E-07
   55.32000      9.8390501E-07
   55.38000      1.0432902E-06
   55.44000      1.1015001E-06
   55.50000      1.1576908E-06
   55.56000      1.2109190E-06