 -0.750000000       0.00000000    
 -0.689999998       0.00000000    
 -0.629999995       0.00000000    
 -0.569999993       0.00000000    
 -0.509999990       0.00000000    
 -0.449999988       1.58076567E-19
 -0.389999986       1.24792262E-18
 -0.330000013       4.96972759E-18
 -0.270000011       1.28418483E-17
 -0.209999993       2.24282893E-17
 -0.150000006       2.14633186E-17
  -9.00000036E-02  -1.62344370E-17
  -2.99999993E-02  -1.25948677E-16
   2.99999993E-02  -3.30754931E-16
   9.00000036E-02  -6.01468461E-16
  0.150000006      -8.09225632E-16
  0.209999993      -7.02310168E-16
  0.270000011       4.49531502E-17
  0.330000013       1.67162884E-15
  0.389999986       4.07051170E-15
  0.449999988       6.53453223E-15
  0.509999990       7.70162336E-15
  0.569999993       5.89273071E-15
  0.629999995      -1.10451025E-16
  0.689999998      -1.00824043E-14
  0.750000000      -2.16761423E-14
  0.810000002      -3.06232294E-14
  0.870000005      -3.20788419E-14
  0.930000007      -2.27636530E-14
  0.990000010      -2.93553011E-15
   1.04999995       2.29695854E-14
   1.11000001       4.76835707E-14
   1.16999996       6.40235071E-14
   1.23000002       6.79013256E-14
   1.28999996       5.96239705E-14
   1.35000002       4.25208947E-14
   1.40999997       1.96520385E-14
   1.47000003      -9.03853781E-15
   1.52999997      -4.64402517E-14
   1.59000003      -9.37842740E-14
   1.64999998      -1.43863301E-13
   1.71000004      -1.76635413E-13
   1.76999998      -1.62395528E-13
   1.83000004      -7.48272023E-14
   1.88999999       8.93240018E-14
   1.95000005       2.92919036E-13
   2.00999999       4.54851434E-13
   2.06999993       4.68440824E-13
   2.13000011       2.41334920E-13
   2.19000006      -2.54438668E-13
   2.25000000      -9.41703638E-13
   2.30999994      -1.62684503E-12
   2.36999989      -2.03017702E-12
   2.43000007      -1.85597306E-12
   2.49000001      -8.85465963E-13
   2.54999995       9.33075882E-13
   2.60999990       3.42339200E-12
   2.67000008       6.16765493E-12
   2.73000002       8.54639536E-12
   2.78999996       9.82659006E-12
   2.84999990       9.28501720E-12
   2.91000009       6.35069644E-12
   2.97000003       7.49549132E-13
   3.02999997      -7.36550751E-12
   3.08999991      -1.73158866E-11
   3.15000010      -2.78471031E-11
   3.21000004      -3.71445305E-11
   3.26999998      -4.29344685E-11
   3.32999992      -4.26929152E-11
   3.39000010      -3.39858905E-11
   3.45000005      -1.49574242E-11
   3.50999999       1.50442037E-11
   3.56999993       5.47587461E-11
   3.63000011       1.00342103E-10
   3.69000006       1.44898885E-10
   3.75000000       1.78402057E-10
   3.80999994       1.88136756E-10
   3.86999989       1.59702557E-10
   3.93000007       7.84762394E-11
   3.99000001      -6.86788265E-11
   4.05000019      -2.91726865E-10
   4.11000013      -5.96047711E-10
   4.17000008      -9.81468351E-10
   4.23000002      -1.44180878E-09
   4.28999996      -1.96493755E-09
   4.34999990      -2.53330290E-09
   4.40999985      -3.12491100E-09
   4.46999979      -3.71473208E-09
   4.53000021      -4.27650404E-09
   4.59000015      -4.78484141E-09
   4.65000010      -5.21749399E-09
   4.71000004      -5.55752377E-09
   4.76999998      -5.79514792E-09
   4.82999992      -5.92899640E-09
   4.88999987      -5.96658056E-09
   4.94999981      -5.92382410E-09
   5.01000023      -5.82359228E-09
   5.07000017      -5.69325520E-09
   5.13000011      -5.56147528E-09
   5.19000006      -5.45459411E-09
   5.25000000      -5.39314104E-09
   5.30999994      -5.38908296E-09
   5.36999989      -5.44434853E-09
   5.42999983      -5.55095880E-09
   5.48999977      -5.69272274E-09
   5.55000019      -5.84812820E-09
   5.61000013      -5.99378547E-09
   5.67000008      -6.10772499E-09
   5.73000002      -6.17198381E-09
   5.78999996      -6.17418250E-09
   5.84999990      -6.10812423E-09
   5.90999985      -5.97364336E-09
   5.96999979      -5.77604009E-09
   6.03000021      -5.52533042E-09
   6.09000015      -5.23541166E-09
   6.15000010      -4.92307795E-09
   6.21000004      -4.60677274E-09
   6.26999998      -4.30501812E-09
   6.32999992      -4.03461486E-09
   6.38999987      -3.80883636E-09
   6.44999981      -3.63592156E-09
   6.51000023      -3.51812868E-09
   6.57000017      -3.45148798E-09
   6.63000011      -3.42626816E-09
   6.69000006      -3.42807271E-09
   6.75000000      -3.43949069E-09
   6.80999994      -3.44222317E-09
   6.86999989      -3.41960282E-09
   6.92999983      -3.35929240E-09
   6.98999977      -3.25576677E-09
   7.05000019      -3.11201065E-09
   7.11000013      -2.93984037E-09
   7.17000008      -2.75847034E-09
   7.23000002      -2.59136468E-09
   7.28999996      -2.46191489E-09
   7.34999990      -2.38888997E-09
   7.40999985      -2.38272024E-09
   7.46999979      -2.44349141E-09
   7.53000021      -2.56106980E-09
   7.59000015      -2.71724154E-09
   7.65000010      -2.88929281E-09
   7.71000004      -3.05418579E-09
   7.76999998      -3.19246451E-09
   7.82999992      -3.29115912E-09
   7.88999987      -3.34524008E-09
   7.94999981      -3.35747807E-09
   8.01000023      -3.33689432E-09
   8.06999969      -3.29624816E-09
   8.13000011      -3.24919469E-09
   8.18999958      -3.20777338E-09
   8.25000000      -3.18074567E-09
   8.31000042      -3.17302717E-09
   8.36999989      -3.18610405E-09
   8.43000031      -3.21903948E-09
   8.48999977      -3.26952954E-09
   8.55000019      -3.33455108E-09
   8.60999966      -3.41037310E-09
   8.67000008      -3.49203977E-09
   8.72999954      -3.57270324E-09
   8.78999996      -3.64330854E-09
   8.85000038      -3.69303943E-09
   8.90999985      -3.71066444E-09
   8.97000027      -3.68654551E-09
   9.02999973      -3.61475494E-09
   9.09000015      -3.49460261E-09
   9.14999962      -3.33098193E-09
   9.21000004      -3.13328918E-09
   9.27000046      -2.91315772E-09
   9.32999992      -2.68166023E-09
   9.39000034      -2.44685427E-09
   9.44999981      -2.21242913E-09
   9.51000023      -1.97781946E-09
   9.56999969      -1.73961923E-09
   9.63000011      -1.49366752E-09
   9.68999958      -1.23697341E-09
   9.75000000      -9.68779168E-10
   9.81000042      -6.90469570E-10
   9.86999989      -4.04540706E-10
   9.93000031      -1.13227080E-10
   9.98999977       1.82507190E-10
   10.0500002       4.83121210E-10
   10.1099997       7.89729726E-10
   10.1700001       1.10278853E-09
   10.2299995       1.42085799E-09
   10.2900000       1.74002124E-09
   10.3500004       2.05422057E-09
   10.4099998       2.35635178E-09
   10.4700003       2.63963784E-09
   10.5299997       2.89872193E-09
   10.5900002       3.13009862E-09
   10.6499996       3.33182770E-09
   10.7100000       3.50275631E-09
   10.7700005       3.64159725E-09
   10.8299999       3.74615761E-09
   10.8900003       3.81284959E-09
   10.9499998       3.83651733E-09
   11.0100002       3.81058163E-09
   11.0699997       3.72759246E-09
   11.1300001       3.58026941E-09
   11.1899996       3.36302275E-09
   11.2500000       3.07370018E-09
   11.3100004       2.71506817E-09
   11.3699999       2.29545893E-09
   11.4300003       1.82819926E-09
   11.4899998       1.32981703E-09
   11.5500002       8.17466983E-10
   11.6099997       3.06278336E-10
   11.6700001      -1.92674807E-10
   11.7299995      -6.73339828E-10
   11.7900000      -1.13451437E-09
   11.8500004      -1.57877933E-09
   11.9099998      -2.01094630E-09
   11.9700003      -2.43645970E-09
   12.0299997      -2.86012791E-09
   12.0900002      -3.28545702E-09
   12.1499996      -3.71468944E-09
   12.2100000      -4.14946344E-09
   12.2700005      -4.59176208E-09
   12.3299999      -5.04470243E-09
   12.3900003      -5.51273027E-09
   12.4499998      -6.00104855E-09
   12.5100002      -6.51445387E-09
   12.5699997      -7.05603220E-09
   12.6300001      -7.62619567E-09
   12.6899996      -8.22230461E-09
   12.7500000      -8.83882212E-09
   12.8100004      -9.46775280E-09
   12.8699999      -1.00992041E-08
   12.9300003      -1.07221796E-08
   12.9899998      -1.13258798E-08
   13.0500002      -1.19016610E-08
   13.1099997      -1.24453345E-08
   13.1700001      -1.29589006E-08
   13.2299995      -1.34506619E-08
   13.2900000      -1.39330316E-08
   13.3500004      -1.44183501E-08
   13.4099998      -1.49140877E-08
   13.4700003      -1.54193511E-08
   13.5299997      -1.59242752E-08
   13.5900002      -1.64127290E-08
   13.6499996      -1.68673715E-08
   13.7100000      -1.72750489E-08
   13.7700005      -1.76305726E-08
   13.8299999      -1.79376691E-08
   13.8900003      -1.82071940E-08
   13.9499998      -1.84537932E-08
   14.0100002      -1.86924964E-08
   14.0699997      -1.89364222E-08
   14.1300001      -1.91959444E-08
   14.1899996      -1.94788967E-08
   14.2500000      -1.97910293E-08
   14.3100004      -2.01359907E-08
   14.3699999      -2.05146229E-08
   14.4300003      -2.09238014E-08
   14.4899998      -2.13555449E-08
   14.5500002      -2.17971579E-08
   14.6099997      -2.22329284E-08
   14.6700001      -2.26473773E-08
   14.7299995      -2.30293242E-08
   14.7900000      -2.33755237E-08
   14.8500004      -2.36924382E-08
   14.9099998      -2.39952236E-08
   14.9700003      -2.43039473E-08
   15.0299997      -2.46381600E-08
   15.0900002      -2.50117829E-08
   15.1499996      -2.54300883E-08
   15.2100000      -2.58897828E-08
   15.2700005      -2.63818833E-08
   15.3299999      -2.68958740E-08
   15.3900003      -2.74233827E-08
   15.4499998      -2.79599490E-08
   15.5100002      -2.85046173E-08
   15.5699997      -2.90579916E-08
   15.6300001      -2.96199385E-08
   15.6899996      -3.01879481E-08
   15.7500000      -3.07565848E-08
   15.8100004      -3.13179420E-08
   15.8699999      -3.18626903E-08
   15.9300003      -3.23813580E-08
   15.9899998      -3.28656675E-08
   16.0499992      -3.33096786E-08
   16.1100006      -3.37104673E-08
   16.1700001      -3.40680053E-08
   16.2299995      -3.43839694E-08
   16.2900009      -3.46597631E-08
   16.3500004      -3.48945122E-08
   16.4099998      -3.50839926E-08
   16.4699993      -3.52212126E-08
   16.5300007      -3.52985694E-08
   16.5900002      -3.53106593E-08
   16.6499996      -3.52562992E-08
   16.7099991      -3.51386653E-08
   16.7700005      -3.49631826E-08
   16.8299999      -3.47341498E-08
   16.8899994      -3.44515101E-08
   16.9500008      -3.41095543E-08
   17.0100002      -3.36982708E-08
   17.0699997      -3.32071224E-08
   17.1299992      -3.26297531E-08
   17.1900005      -3.19677831E-08
   17.2500000      -3.12319486E-08
   17.3099995      -3.04400345E-08
   17.3700008      -2.96121190E-08
   17.4300003      -2.87649016E-08
   17.4899998      -2.79073422E-08
   17.5499992      -2.70394001E-08
   17.6100006      -2.61544812E-08
   17.6700001      -2.52446668E-08
   17.7299995      -2.43065230E-08
   17.7900009      -2.33449420E-08
   17.8500004      -2.23732108E-08
   17.9099998      -2.14091411E-08
   17.9699993      -2.04688586E-08
   18.0300007      -1.95609218E-08
   18.0900002      -1.86833233E-08
   18.1499996      -1.78246253E-08
   18.2099991      -1.69686274E-08
   18.2700005      -1.61005502E-08
   18.3299999      -1.52121942E-08
   18.3899994      -1.43042360E-08
   18.4500008      -1.33852289E-08
   18.5100002      -1.24681661E-08
   18.5699997      -1.15662395E-08
   18.6299992      -1.06892806E-08
   18.6900005      -9.84178250E-09
   18.7500000      -9.02263153E-09
   18.8099995      -8.22621082E-09
   18.8700008      -7.44437756E-09
   18.9300003      -6.66888544E-09
   18.9899998      -5.89379567E-09
   19.0499992      -5.11737852E-09
   19.1100006      -4.34295400E-09
   19.1700001      -3.57824215E-09
   19.2299995      -2.83321833E-09
   19.2900009      -2.11698192E-09
   19.3500004      -1.43458811E-09
   19.4099998      -7.84860676E-10
   19.4699993      -1.59906616E-10
   19.5300007       4.53519611E-10
   19.5900002       1.07122577E-09
   19.6499996       1.70816628E-09
   19.7099991       2.37529174E-09
   19.7700005       3.07739545E-09
   19.8299999       3.81238330E-09
   19.8899994       4.57201876E-09
   19.9500008       5.34382982E-09
   20.0100002       6.11359319E-09
   20.0699997       6.86767887E-09
   20.1299992       7.59468488E-09
   20.1900005       8.28611579E-09
   20.2500000       8.93628993E-09
   20.3099995       9.54197255E-09
   20.3700008       1.01022133E-08
   20.4300003       1.06186011E-08
   20.4899998       1.10957341E-08
   20.5499992       1.15414522E-08
   20.6100006       1.19664172E-08
   20.6700001       1.23829436E-08
   20.7299995       1.28033371E-08
   20.7900009       1.32381937E-08
   20.8500004       1.36950495E-08
   20.9099998       1.41775462E-08
   20.9699993       1.46851162E-08
   21.0300007       1.52132511E-08
   21.0900002       1.57544786E-08
   21.1499996       1.63001630E-08
   21.2099991       1.68429448E-08
   21.2700005       1.73790653E-08
   21.3299999       1.79095423E-08
   21.3899994       1.84393159E-08
   21.4500008       1.89743439E-08
   21.5100002       1.95178309E-08
   21.5699997       2.00675050E-08
   21.6299992       2.06156834E-08
   21.6900005       2.11526103E-08
   21.7500000       2.16717275E-08
   21.8099995       2.21742074E-08
   21.8700008       2.26701200E-08
   21.9300003       2.31749731E-08
   21.9899998       2.37026878E-08
   22.0499992       2.42579699E-08
   22.1100006       2.48315946E-08
   22.1700001       2.54009578E-08
   22.2299995       2.59359840E-08
   22.2900009       2.64081645E-08
   22.3500004       2.67992508E-08
   22.4099998       2.71063811E-08
   22.4699993       2.73420309E-08
   22.5300007       2.75291239E-08
   22.5900002       2.76932877E-08
   22.6499996       2.78549201E-08
   22.7099991       2.80234467E-08
   22.7700005       2.81951937E-08
   22.8299999       2.83551280E-08
   22.8899994       2.84815975E-08
   22.9500008       2.85525150E-08
   23.0100002       2.85511472E-08
   23.0699997       2.84698380E-08
   23.1299992       2.83108470E-08
   23.1900005       2.80843189E-08
   23.2500000       2.78043792E-08
   23.3099995       2.74848464E-08
   23.3700008       2.71359486E-08
   23.4300003       2.67628710E-08
   23.4899998       2.63661253E-08
   23.5499992       2.59431818E-08
   23.6100006       2.54905128E-08
   23.6700001       2.50053169E-08
   23.7299995       2.44864697E-08
   23.7900009       2.39345290E-08
   23.8500004       2.33507986E-08
   23.9099998       2.27357528E-08
   23.9699993       2.20872760E-08
   24.0300007       2.13995524E-08
   24.0900002       2.06633235E-08
   24.1499996       1.98679118E-08
   24.2099991       1.90045473E-08
   24.2700005       1.80697892E-08
   24.3299999       1.70674586E-08
   24.3899994       1.60078795E-08
   24.4500008       1.49043693E-08
   24.5100002       1.37681404E-08
   24.5699997       1.26035644E-08
   24.6299992       1.14056755E-08
   24.6900005       1.01607895E-08
   24.7500000       8.84984619E-09
   24.8099995       7.45311546E-09
   24.8700008       5.95464877E-09
   24.9300003       4.34533076E-09
   24.9899998       2.62415778E-09
   25.0499992       7.97958644E-10
   25.1100006      -1.11998610E-09
   25.1700001      -3.11207771E-09
   25.2299995      -5.15902743E-09
   25.2900009      -7.24263982E-09
   25.3500004      -9.34819244E-09
   25.4099998      -1.14657004E-08
   25.4699993      -1.35895935E-08
   25.5300007      -1.57168518E-08
   25.5900002      -1.78443091E-08
   25.6499996      -1.99662136E-08
   25.7099991      -2.20729426E-08
   25.7700005      -2.41512694E-08
   25.8299999      -2.61858748E-08
   25.8899994      -2.81613808E-08
   25.9500008      -3.00642959E-08
   26.0100002      -3.18844080E-08
   26.0699997      -3.36156170E-08
   26.1299992      -3.52560967E-08
   26.1900005      -3.68077373E-08
   26.2500000      -3.82746315E-08
   26.3099995      -3.96607014E-08
   26.3700008      -4.09669525E-08
   26.4300003      -4.21894626E-08
   26.4899998      -4.33190230E-08
   26.5499992      -4.43430039E-08
   26.6100006      -4.52488038E-08
   26.6700001      -4.60274592E-08
   26.7299995      -4.66756660E-08
   26.7900009      -4.71952752E-08
   26.8500004      -4.75904436E-08
   26.9099998      -4.78640239E-08
   26.9699993      -4.80150710E-08
   27.0300007      -4.80387037E-08
   27.0900002      -4.79284772E-08
   27.1499996      -4.76798618E-08
   27.2099991      -4.72930566E-08
   27.2700005      -4.67738737E-08
   27.3299999      -4.61324063E-08
   27.3899994      -4.53804958E-08
   27.4500008      -4.45293402E-08
   27.5100002      -4.35883720E-08
   27.5699997      -4.25654676E-08
   27.6299992      -4.14679242E-08
   27.6900005      -4.03031208E-08
   27.7500000      -3.90782873E-08
   27.8099995      -3.77993281E-08
   27.8700008      -3.64691957E-08
   27.9300003      -3.50865008E-08
   27.9899998      -3.36448025E-08
   28.0499992      -3.21327853E-08
   28.1100006      -3.05354355E-08
   28.1700001      -2.88362667E-08
   28.2299995      -2.70205920E-08
   28.2900009      -2.50794905E-08
   28.3500004      -2.30135591E-08
   28.4099998      -2.08351025E-08
   28.4699993      -1.85676026E-08
   28.5300007      -1.62421134E-08
   28.5900002      -1.38915759E-08
   28.6499996      -1.15449916E-08
   28.7099991      -9.22354904E-09
   28.7700005      -6.93985402E-09
   28.8299999      -4.69989914E-09
   28.8899994      -2.50611443E-09
   28.9500008      -3.59571650E-10
   29.0100002       1.73973624E-09
   29.0699997       3.79420717E-09
   29.1299992       5.81007464E-09
   29.1900005       7.79739207E-09
   29.2500000       9.76780701E-09
   29.3099995       1.17306662E-08
   29.3700008       1.36888492E-08
   29.4300003       1.56357540E-08
   29.4899998       1.75541306E-08
   29.5499992       1.94166212E-08
   29.6100006       2.11873878E-08
   29.6700001       2.28245014E-08
   29.7299995       2.42831799E-08
   29.7900009       2.55201833E-08
   29.8500004       2.64991993E-08
   29.9099998       2.71962719E-08
   29.9699993       2.76035674E-08
   30.0300007       2.77300085E-08
   30.0900002       2.75980891E-08
   30.1499996       2.72378475E-08
   30.2099991       2.66798565E-08
   30.2700005       2.59494044E-08
   30.3299999       2.50632581E-08
   30.3899994       2.40291520E-08
   30.4500008       2.28471766E-08
   30.5100002       2.15118892E-08
   30.5699997       2.00142605E-08
   30.6299992       1.83431599E-08
   30.6900005       1.64864886E-08
   30.7500000       1.44322501E-08
   30.8099995       1.21698021E-08
   30.8700008       9.69147962E-09
   30.9300003       6.99476299E-09
   30.9899998       4.08509582E-09
   31.0499992       9.79032522E-10
   31.1100006      -2.29311881E-09
   31.1700001      -5.68644865E-09
   31.2299995      -9.14354992E-09
   31.2900009      -1.25998527E-08
   31.3500004      -1.59911497E-08
   31.4099998      -1.92611846E-08
   31.4699993      -2.23669598E-08
   31.5300007      -2.52803467E-08
   31.5900002      -2.79861556E-08
   31.6499996      -3.04782404E-08
   31.7099991      -3.27557608E-08
   31.7700005      -3.48209959E-08
   31.8299999      -3.66788377E-08
   31.8899994      -3.83368679E-08
   31.9500008      -3.98046609E-08
   32.0099983      -4.10914822E-08
   32.0699997      -4.22027355E-08
   32.1300011      -4.31365272E-08
   32.1899986      -4.38816556E-08
   32.2500000      -4.44179982E-08
   32.3100014      -4.47191084E-08
   32.3699989      -4.47561384E-08
   32.4300003      -4.45019630E-08
   32.4900017      -4.39345982E-08
   32.5499992      -4.30395204E-08
   32.6100006      -4.18108321E-08
   32.6699982      -4.02514893E-08
   32.7299995      -3.83726970E-08
   32.7900009      -3.61925352E-08
   32.8499985      -3.37340857E-08
   32.9099998      -3.10232267E-08
   32.9700012      -2.80864949E-08
   33.0299988      -2.49493102E-08
   33.0900002      -2.16347615E-08
   33.1500015      -1.81629325E-08
   33.2099991      -1.45507402E-08
   33.2700005      -1.08121974E-08
   33.3300018      -6.95907376E-09
   33.3899994      -3.00197134E-09
   33.4500008       1.04820186E-09
   33.5099983       5.17836973E-09
   33.5699997       9.37113143E-09
   33.6300011       1.36024729E-08
   33.6899986       1.78396871E-08
   33.7500000       2.20400480E-08
   33.8100014       2.61509232E-08
   33.8699989       3.01119556E-08
   33.9300003       3.38595321E-08
   33.9900017       3.73330025E-08
   34.0499992       4.04813960E-08
   34.1100006       4.32687699E-08
   34.1699982       4.56766109E-08
   34.2299995       4.77023825E-08
   34.2900009       4.93547034E-08
   34.3499985       5.06468218E-08
   34.4099998       5.15905896E-08
   34.4700012       5.21929984E-08
   34.5299988       5.24561301E-08
   34.5900002       5.23799493E-08
   34.6500015       5.19662855E-08
   34.7099991       5.12219671E-08
   34.7700005       5.01596915E-08
   34.8300018       4.87964193E-08
   34.8899994       4.71503334E-08
   34.9500008       4.52379290E-08
   35.0099983       4.30727169E-08
   35.0699997       4.06659417E-08
   35.1300011       3.80287446E-08
   35.1899986       3.51745619E-08
   35.2500000       3.21205675E-08
   35.3100014       2.88875590E-08
   35.3699989       2.54985704E-08
   35.4300003       2.19768292E-08
   35.4900017       1.83438811E-08
   35.5499992       1.46183101E-08
   35.6100006       1.08153300E-08
   35.6699982       6.94729874E-09
   35.7299995       3.02528669E-09
   35.7900009      -9.38305988E-10
   35.8499985      -4.92653474E-09
   35.9099998      -8.91507757E-09
   35.9700012      -1.28711237E-08
   36.0299988      -1.67549974E-08
   36.0900002      -2.05245438E-08
   36.1500015      -2.41409666E-08
   36.2099991      -2.75739893E-08
   36.2700005      -3.08042907E-08
   36.3300018      -3.38223920E-08
   36.3899994      -3.66247050E-08
   36.4500008      -3.92087891E-08
   36.5099983      -4.15699226E-08
   36.5699997      -4.37002967E-08
   36.6300011      -4.55908093E-08
   36.6899986      -4.72342734E-08
   36.7500000      -4.86285998E-08
   36.8100014      -4.97788299E-08
   36.8699989      -5.06975439E-08
   36.9300003      -5.14036422E-08
   36.9900017      -5.19197769E-08
   37.0499992      -5.22687493E-08
   37.1100006      -5.24696731E-08
   37.1699982      -5.25348263E-08
   37.2299995      -5.24684545E-08
   37.2900009      -5.22682093E-08
   37.3499985      -5.19289109E-08
   37.4099998      -5.14472234E-08
   37.4700012      -5.08251503E-08
   37.5299988      -5.00708239E-08
   37.5900002      -4.91962737E-08
   37.6500015      -4.82134404E-08
   37.7099991      -4.71303743E-08
   37.7700005      -4.59493705E-08
   37.8300018      -4.46676758E-08
   37.8899994      -4.32802594E-08
   37.9500008      -4.17834727E-08
   38.0099983      -4.01784703E-08
   38.0699997      -3.84737007E-08
   38.1300011      -3.66860036E-08
   38.1899986      -3.48398892E-08
   38.2500000      -3.29646745E-08
   38.3100014      -3.10896731E-08
   38.3699989      -2.92385547E-08
   38.4300003      -2.74250276E-08
   38.4900017      -2.56520050E-08
   38.5499992      -2.39151134E-08
   38.6100006      -2.22093295E-08
   38.6699982      -2.05356230E-08
   38.7299995      -1.89040996E-08
   38.7900009      -1.73318604E-08
   38.8499985      -1.58364557E-08
   38.9099998      -1.44283137E-08
   38.9700012      -1.31060434E-08
   39.0299988      -1.18569385E-08
   39.0900002      -1.06623217E-08
   39.1500015      -9.50505719E-09
   39.2099991      -8.37593195E-09
   39.2700005      -7.27675120E-09
   39.3300018      -6.21987617E-09
   39.3899994      -5.22534593E-09
   39.4500008      -4.31695968E-09
   39.5099983      -3.51814022E-09
   39.5699997      -2.84781043E-09
   39.6300011      -2.31662689E-09
   39.6899986      -1.92453298E-09
   39.7500000      -1.66099801E-09
   39.8100014      -1.50873070E-09
   39.8699989      -1.45014079E-09
   39.9300003      -1.47419554E-09
   39.9900017      -1.58071189E-09
   40.0499992      -1.78012960E-09
   40.1100006      -2.08894413E-09
   40.1699982      -2.52302002E-09
   40.2299995      -3.09177550E-09
   40.2900009      -3.79537335E-09
   40.3499985      -4.62526906E-09
   40.4099998      -5.56692825E-09
   40.4700012      -6.60305322E-09
   40.5299988      -7.71625519E-09
   40.5900002      -8.89099461E-09
   40.6500015      -1.01150306E-08
   40.7099991      -1.13803544E-08
   40.7700005      -1.26830795E-08
   40.8300018      -1.40217358E-08
   40.8899994      -1.53941322E-08
   40.9500008      -1.67939831E-08
   41.0099983      -1.82089597E-08
   41.0699997      -1.96213534E-08
   41.1300011      -2.10111377E-08
   41.1899986      -2.23598686E-08
   41.2500000      -2.36535413E-08
   41.3100014      -2.48832119E-08
   41.3699989      -2.60437023E-08
   41.4300003      -2.71316054E-08
   41.4900017      -2.81438943E-08
   41.5499992      -2.90774675E-08
   41.6100006      -2.99289624E-08
   41.6699982      -3.06939896E-08
   41.7299995      -3.13656265E-08
   41.7900009      -3.19330731E-08
   41.8499985      -3.23818732E-08
   41.9099998      -3.26965051E-08
   41.9700012      -3.28647261E-08
   42.0299988      -3.28817684E-08
   42.0900002      -3.27522471E-08
   42.1500015      -3.24885931E-08
   42.2099991      -3.21065698E-08
   42.2700005      -3.16196846E-08
   42.3300018      -3.10346451E-08
   42.3899994      -3.03492946E-08
   42.4500008      -2.95532914E-08
   42.5099983      -2.86309572E-08
   42.5699997      -2.75653047E-08
   42.6300011      -2.63424287E-08
   42.6899986      -2.49554208E-08
   42.7500000      -2.34068942E-08
   42.8100014      -2.17091696E-08
   42.8699989      -1.98816608E-08
   42.9300003      -1.79458794E-08
   42.9900017      -1.59197224E-08
   43.0499992      -1.38132554E-08
   43.1100006      -1.16278311E-08
   43.1699982      -9.35901934E-09
   43.2299995      -7.00218550E-09
   43.2900009      -4.55847315E-09
   43.3499985      -2.03888706E-09
   43.4099998       5.34893185E-10
   43.4700012       3.13312976E-09
   43.5299988       5.72316461E-09
   43.5900002       8.27564151E-09
   43.6500015       1.07701847E-08
   43.7099991       1.31989735E-08
   43.7700005       1.55669113E-08
   43.8300018       1.78878459E-08
   43.8899994       2.01775059E-08
   43.9500008       2.24452918E-08
   44.0099983       2.46880170E-08
   44.0699997       2.68883404E-08
   44.1300011       2.90189757E-08
   44.1899986       3.10512895E-08
   44.2500000       3.29649019E-08
   44.3100014       3.47544322E-08
   44.3699989       3.64308761E-08
   44.4300003       3.80173439E-08
   44.4900017       3.95411881E-08
   44.5499992       4.10254763E-08
   44.6100006       4.24824904E-08
   44.6699982       4.39106778E-08
   44.7299995       4.52954581E-08
   44.7900009       4.66134082E-08
   44.8499985       4.78389843E-08
   44.9099998       4.89524545E-08
   44.9700012       4.99471078E-08
   45.0299988       5.08332967E-08
   45.0900002       5.16373078E-08
   45.1500015       5.23945332E-08
   45.2099991       5.31387414E-08
   45.2700005       5.38911387E-08
   45.3300018       5.46535475E-08
   45.3899994       5.54084352E-08
   45.4500008       5.61260300E-08
   45.5099983       5.67756260E-08
   45.5699997       5.73368517E-08
   45.6300011       5.78067123E-08
   45.6899986       5.82000474E-08
   45.7500000       5.85434954E-08
   45.8100014       5.88651616E-08
   45.8699989       5.91834350E-08
   45.9300003       5.94986176E-08
   45.9900017       5.97904020E-08
   46.0499992       6.00225931E-08
   46.1100006       6.01543277E-08
   46.1699982       6.01544627E-08
   46.2299995       6.00143792E-08
   46.2900009       5.97540577E-08
   46.3499985       5.94183049E-08
   46.4099998       5.90636375E-08
   46.4700012       5.87398539E-08
   46.5299988       5.84727502E-08
   46.5900002       5.82540309E-08
   46.6500015       5.80419659E-08
   46.7099991       5.77723327E-08
   46.7700005       5.73759955E-08
   46.8300018       5.67976564E-08
   46.8899994       5.60105455E-08
   46.9500008       5.50233992E-08
   47.0099983       5.38781748E-08
   47.0699997       5.26390664E-08
   47.1300011       5.13754124E-08
   47.1899986       5.01428019E-08
   47.2500000       4.89676673E-08
   47.3100014       4.78403663E-08
   47.3699989       4.67195704E-08
   47.4300003       4.55471678E-08
   47.4900017       4.42687629E-08
   47.5499992       4.28524558E-08
   47.6100006       4.12988292E-08
   47.6699982       3.96383584E-08
   47.7299995       3.79175873E-08
   47.7900009       3.61796850E-08
   47.8499985       3.44472966E-08
   47.9099998       3.27141940E-08
   47.9700012       3.09488151E-08
   48.0299988       2.91079374E-08
   48.0900002       2.71554370E-08
   48.1500015       2.50793466E-08
   48.2099991       2.29013786E-08
   48.2700005       2.06755981E-08
   48.3300018       1.84763813E-08
   48.3899994       1.63790901E-08
   48.4500008       1.44392862E-08
   48.5099983       1.26770558E-08
   48.5699997       1.10717799E-08
   48.6300011       9.56955493E-09
   48.6899986       8.10141376E-09
   48.7500000       6.60673161E-09
   48.8100014       5.05421260E-09
   48.8699989       3.45351348E-09
   48.9300003       1.85373539E-09
   48.9900017       3.29455269E-10
   49.0499992      -1.04084541E-09
   49.1100006      -2.19680052E-09
   49.1699982      -3.11165538E-09
   49.2299995      -3.79674292E-09
   49.2900009      -4.29417835E-09
   49.3499985      -4.66074779E-09
   49.4099998      -4.94857755E-09
   49.4700012      -5.18897503E-09
   49.5299988      -5.38467182E-09
   49.5900002      -5.51290258E-09
   49.6500015      -5.53815127E-09
   49.7099991      -5.43003376E-09
   49.7700005      -5.17983212E-09
   49.8300018      -4.80943729E-09
   49.8899994      -4.36892122E-09
   49.9500008      -3.92301081E-09
   50.0099983      -3.53081453E-09
   50.0699997      -3.22584648E-09
   50.1300011      -3.00351721E-09
   50.1899986      -2.82079360E-09
   50.2500000      -2.60848587E-09
   50.3100014      -2.29222574E-09
   50.3699989      -1.81521553E-09
   50.4300003      -1.15531684E-09
   50.4900017      -3.31110028E-10
   50.5499992       6.04639894E-10
   50.6100006       1.58148805E-09