 -0.750000000       0.00000000    
 -0.689999998       0.00000000    
 -0.629999995       0.00000000    
 -0.569999993       0.00000000    
 -0.509999990       0.00000000    
 -0.449999988      -1.17943021E-21
 -0.389999986      -7.64667488E-21
 -0.330000013      -2.18931767E-20
 -0.270000011      -2.67878677E-20
 -0.209999993       3.64643800E-20
 -0.150000006       2.63043280E-19
  -9.00000036E-02   7.25086052E-19
  -2.99999993E-02   1.37365893E-18
   2.99999993E-02   1.95535922E-18
   9.00000036E-02   1.97086038E-18
  0.150000006       6.35709394E-19
  0.209999993      -3.16152297E-18
  0.270000011      -1.06478287E-17
  0.330000013      -2.21158814E-17
  0.389999986      -3.45932160E-17
  0.449999988      -3.89651567E-17
  0.509999990      -1.93167253E-17
  0.569999993       4.13591332E-17
  0.629999995       1.46578006E-16
  0.689999998       2.66513411E-16
  0.750000000       3.25358405E-16
  0.810000002       2.14209100E-16
  0.870000005      -1.57104058E-16
  0.930000007      -7.75668939E-16
  0.990000010      -1.44508151E-15
   1.04999995      -1.76983670E-15
   1.11000001      -1.26282649E-15
   1.16999996       4.10088857E-16
   1.23000002       3.11522688E-15
   1.28999996       6.01775616E-15
   1.35000002       7.61964327E-15
   1.40999997       6.20198413E-15
   1.47000003       6.40668034E-16
   1.52999997      -8.66266016E-15
   1.59000003      -1.91810408E-14
   1.64999998      -2.64681906E-14
   1.71000004      -2.54271701E-14
   1.76999998      -1.24568426E-14
   1.83000004       1.22251046E-14
   1.88999999       4.31297081E-14
   1.95000005       6.99012449E-14
   2.00999999       8.00040034E-14
   2.06999993       6.31954545E-14
   2.13000011       1.63685610E-14
   2.19000006      -5.31378767E-14
   2.25000000      -1.27410709E-13
   2.30999994      -1.81693839E-13
   2.36999989      -1.91320484E-13
   2.43000007      -1.40012432E-13
   2.49000001      -2.71349512E-14
   2.54999995       1.28354738E-13
   2.60999990       2.88835877E-13
   2.67000008       4.04469183E-13
   2.73000002       4.24788460E-13
   2.78999996       3.13899135E-13
   2.84999990       6.62804027E-14
   2.91000009      -2.81391582E-13
   2.97000003      -6.47925886E-13
   3.02999997      -9.19511754E-13
   3.08999991      -9.77110211E-13
   3.15000010      -7.34889146E-13
   3.21000004      -1.79054430E-13
   3.26999998       6.07288525E-13
   3.32999992       1.44617369E-12
   3.39000010       2.09926694E-12
   3.45000005       2.32906186E-12
   3.50999999       1.97014215E-12
   3.56999993       9.88209839E-13
   3.63000011      -4.92982770E-13
   3.69000006      -2.20668557E-12
   3.75000000      -3.79656419E-12
   3.80999994      -4.89321604E-12
   3.86999989      -5.19312501E-12
   3.93000007      -4.52141840E-12
   3.99000001      -2.86717330E-12
   4.05000019      -3.88734075E-13
   4.11000013       2.60712892E-12
   4.17000008       5.70591491E-12
   4.23000002       8.44009584E-12
   4.28999996       1.03529468E-11
   4.34999990       1.10657239E-11
   4.40999985       1.03390681E-11
   4.46999979       8.11498178E-12
   4.53000021       4.52341116E-12
   4.59000015      -1.59230458E-13
   4.65000010      -5.60079847E-12
   4.71000004      -1.15356474E-11
   4.76999998      -1.78789900E-11
   4.82999992      -2.47785022E-11
   4.88999987      -3.25493694E-11
   4.94999981      -4.14642314E-11
   5.01000023      -5.14181926E-11
   5.07000017      -6.15493143E-11
   5.13000011      -6.99447791E-11
   5.19000006      -7.35762631E-11
   5.25000000      -6.85690255E-11
   5.30999994      -5.08179540E-11
   5.36999989      -1.68447253E-11
   5.42999983       3.53158440E-11
   5.48999977       1.05461959E-10
   5.55000019       1.91030677E-10
   5.61000013       2.87473156E-10
   5.67000008       3.89141996E-10
   5.73000002       4.90472052E-10
   5.78999996       5.87138338E-10
   5.84999990       6.76876055E-10
   5.90999985       7.59752317E-10
   5.96999979       8.37849345E-10
   6.03000021       9.14497922E-10
   6.09000015       9.93322424E-10
   6.15000010       1.07738862E-09
   6.21000004       1.16866805E-09
   6.26999998       1.26789956E-09
   6.32999992       1.37477063E-09
   6.38999987       1.48824886E-09
   6.44999981       1.60687219E-09
   6.51000023       1.72887960E-09
   6.57000017       1.85217308E-09
   6.63000011       1.97421035E-09
   6.69000006       2.09197060E-09
   6.75000000       2.20210938E-09
   6.80999994       2.30133002E-09
   6.86999989       2.38689113E-09
   6.92999983       2.45710585E-09
   6.98999977       2.51167132E-09
   7.05000019       2.55172772E-09
   7.11000013       2.57963029E-09
   7.17000008       2.59850341E-09
   7.23000002       2.61169641E-09
   7.28999996       2.62226529E-09
   7.34999990       2.63257527E-09
   7.40999985       2.64406674E-09
   7.46999979       2.65719002E-09
   7.53000021       2.67147016E-09
   7.59000015       2.68566192E-09
   7.65000010       2.69795164E-09
   7.71000004       2.70617262E-09
   7.76999998       2.70803291E-09
   7.82999992       2.70136757E-09
   7.88999987       2.68442402E-09
   7.94999981       2.65618039E-09
   8.01000023       2.61664024E-09
   8.06999969       2.56699950E-09
   8.13000011       2.50956922E-09
   8.18999958       2.44737119E-09
   8.25000000       2.38343056E-09
   8.31000042       2.31992825E-09
   8.36999989       2.25748176E-09
   8.43000031       2.19483609E-09
   8.48999977       2.12914930E-09
   8.55000019       2.05683914E-09
   8.60999966       1.97473993E-09
   8.67000008       1.88116056E-09
   8.72999954       1.77645421E-09
   8.78999996       1.66286684E-09
   8.85000038       1.54371715E-09
   8.90999985       1.42220125E-09
   8.97000027       1.30025146E-09
   9.02999973       1.17783117E-09
   9.09000015       1.05285358E-09
   9.14999962       9.21678345E-10
   9.21000004       7.79959763E-10
   9.27000046       6.23578134E-10
   9.32999992       4.49454779E-10
   9.39000034       2.56183241E-10
   9.44999981       4.44891207E-11
   9.51000023      -1.82471385E-10
   9.56999969      -4.19046325E-10
   9.63000011      -6.57405741E-10
   9.68999958      -8.88382479E-10
   9.75000000      -1.10284115E-09
   9.81000042      -1.29335809E-09
   9.86999989      -1.45579526E-09
   9.93000031      -1.59028024E-09
   9.98999977      -1.70122816E-09
   10.0500002      -1.79631554E-09
   10.1099997      -1.88464533E-09
   10.1700001      -1.97457339E-09
   10.2299995      -2.07173900E-09
   10.2900000      -2.17773999E-09
   10.3500004      -2.28969443E-09
   10.4099998      -2.40072917E-09
   10.4700003      -2.50128140E-09
   10.5299997      -2.58100097E-09
   10.5900002      -2.63094857E-09
   10.6499996      -2.64567679E-09
   10.7100000      -2.62470023E-09
   10.7700005      -2.57287658E-09
   10.8299999      -2.49941823E-09
   10.8900003      -2.41563947E-09
   10.9499998      -2.33200814E-09
   11.0100002      -2.25539942E-09
   11.0699997      -2.18749063E-09
   11.1300001      -2.12488493E-09
   11.1899996      -2.06093409E-09
   11.2500000      -1.98858685E-09
   11.3100004      -1.90320071E-09
   11.3699999      -1.80428772E-09
   11.4300003      -1.69561221E-09
   11.4899998      -1.58370661E-09
   11.5500002      -1.47545576E-09
   11.6099997      -1.37568179E-09
   11.6700001      -1.28558886E-09
   11.7299995      -1.20255372E-09
   11.7900000      -1.12127818E-09
   11.8500004      -1.03589826E-09
   11.9099998      -9.42380174E-10
   11.9700003      -8.40451986E-10
   12.0299997      -7.34408756E-10
   12.0900002      -6.32385422E-10
   12.1499996      -5.44106926E-10
   12.2100000      -4.77626994E-10
   12.2700005      -4.36037290E-10
   12.3299999      -4.15339457E-10
   12.3900003      -4.04464601E-10
   12.4499998      -3.87761739E-10
   12.5100002      -3.49350215E-10
   12.5699997      -2.77919160E-10
   12.6300001      -1.70248413E-10
   12.6899996      -3.21264751E-11
   12.7500000       1.23662830E-10
   12.8100004       2.81446533E-10
   12.8699999       4.27216207E-10
   12.9300003       5.51915291E-10
   12.9899998       6.52437271E-10
   13.0500002       7.30409289E-10
   13.1099997       7.89786514E-10
   13.1700001       8.34632086E-10
   13.2299995       8.68073780E-10
   13.2900000       8.92576957E-10
   13.3500004       9.10853670E-10
   13.4099998       9.26394961E-10
   13.4700003       9.42937950E-10
   13.5299997       9.62945612E-10
   13.5900002       9.85934667E-10
   13.6499996       1.00776931E-09
   13.7100000       1.02166742E-09
   13.7700005       1.02080511E-09
   13.8299999       1.00150954E-09
   13.8900003       9.65575508E-10
   13.9499998       9.20499843E-10
   14.0100002       8.77293849E-10
   14.0699997       8.46621606E-10
   14.1300001       8.34796898E-10
   14.1899996       8.41293035E-10
   14.2500000       8.58818683E-10
   14.3100004       8.75960304E-10
   14.3699999       8.81353102E-10
   14.4300003       8.67757255E-10
   14.4899998       8.34501135E-10
   14.5500002       7.87443444E-10
   14.6099997       7.36577355E-10
   14.6700001       6.92261970E-10
   14.7299995       6.61499966E-10
   14.7900000       6.45568099E-10
   14.8500004       6.39743702E-10
   14.9099998       6.35108355E-10
   14.9700003       6.21715512E-10
   15.0299997       5.92008442E-10
   15.0900002       5.43357193E-10
   15.1499996       4.78920015E-10
   15.2100000       4.06600392E-10
   15.2700005       3.36483091E-10
   15.3299999       2.77612822E-10
   15.3900003       2.35180708E-10
   15.4499998       2.09037523E-10
   15.5100002       1.94002869E-10
   15.5699997       1.81826845E-10
   15.6300001       1.64097097E-10
   15.6899996       1.35071787E-10
   15.7500000       9.34753802E-11
   15.8100004       4.26957358E-11
   15.8699999      -1.05919249E-11
   15.9300003      -5.88010196E-11
   15.9899998      -9.59336291E-11
   16.0499992      -1.19362020E-10
   16.1100006      -1.30375391E-10
   16.1700001      -1.33441966E-10
   16.2299995      -1.34557088E-10
   16.2900009      -1.39285805E-10
   16.3500004      -1.51117258E-10
   16.4099998      -1.70570419E-10
   16.4699993      -1.95225142E-10
   16.5300007      -2.20594626E-10
   16.5900002      -2.41567460E-10
   16.6499996      -2.54045729E-10
   16.7099991      -2.56380306E-10
   16.7700005      -2.50240190E-10
   16.8299999      -2.40647335E-10
   16.8899994      -2.35073322E-10
   16.9500008      -2.41724446E-10
   17.0100002      -2.67404682E-10
   17.0699997      -3.15557774E-10
   17.1299992      -3.85146776E-10
   17.1900005      -4.70848749E-10
   17.2500000      -5.64637725E-10
   17.3099995      -6.58308352E-10
   17.3700008      -7.46076201E-10
   17.4300003      -8.26278879E-10
   17.4899998      -9.01500097E-10
   17.5499992      -9.77055326E-10
   17.6100006      -1.05845899E-09
   17.6700001      -1.14891585E-09
   17.7299995      -1.24784350E-09
   17.7900009      -1.35093037E-09
   17.8500004      -1.45153178E-09
   17.9099998      -1.54263635E-09
   17.9699993      -1.61848812E-09
   18.0300007      -1.67526293E-09
   18.0900002      -1.71077530E-09
   18.1499996      -1.72370518E-09
   18.2099991      -1.71300141E-09
   18.2700005      -1.67789693E-09
   18.3299999      -1.61851843E-09
   18.3899994      -1.53666313E-09
   18.4500008      -1.43619561E-09
   18.5100002      -1.32270683E-09
   18.5699997      -1.20247046E-09
   18.6299992      -1.08107223E-09
   18.6900005      -9.62240065E-10
   18.7500000      -8.47295012E-10
   18.8099995      -7.35384476E-10
   18.8700008      -6.24369056E-10
   18.9300003      -5.12036191E-10
   18.9899998      -3.97240019E-10
   19.0499992      -2.80618945E-10
   19.1100006      -1.64689901E-10
   19.1700001      -5.33266452E-11
   19.2299995       4.91533793E-11
   19.2900009       1.38920792E-10
   19.3500004       2.13211365E-10
   19.4099998       2.70354017E-10
   19.4699993       3.09348269E-10
   19.5300007       3.29346161E-10
   19.5900002       3.29455629E-10
   19.6499996       3.09088061E-10
   19.7099991       2.68717243E-10
   19.7700005       2.10612291E-10
   19.8299999       1.39055809E-10
   19.8899994       5.98098446E-11
   19.9500008      -2.09894446E-11
   20.0100002      -9.80047571E-11
   20.0699997      -1.67413333E-10
   20.1299992      -2.26937580E-10
   20.1900005      -2.75390016E-10
   20.2500000      -3.12208648E-10
   20.3099995      -3.37405881E-10
   20.3700008      -3.52007729E-10
   20.4300003      -3.58652691E-10
   20.4899998      -3.61826652E-10
   20.5499992      -3.67364583E-10
   20.6100006      -3.81261300E-10
   20.6700001      -4.08252016E-10
   20.7299995      -4.50786630E-10
   20.7900009      -5.08845299E-10
   20.8500004      -5.80628490E-10
   20.9099998      -6.63745447E-10
   20.9699993      -7.56324392E-10
   21.0300007      -8.57556359E-10
   21.0900002      -9.67468994E-10
   21.1499996      -1.08606257E-09
   21.2099991      -1.21217947E-09
   21.2700005      -1.34256228E-09
   21.3299999      -1.47150359E-09
   21.3899994      -1.59132252E-09
   21.4500008      -1.69366388E-09
   21.5100002      -1.77133830E-09
   21.5699997      -1.82018012E-09
   21.6299992      -1.84029880E-09
   21.6900005      -1.83622773E-09
   21.7500000      -1.81582560E-09
   21.8099995      -1.78825266E-09
   21.8700008      -1.76170833E-09
   21.9300003      -1.74171433E-09
   21.9899998      -1.73048553E-09
   22.0499992      -1.72747772E-09
   22.1100006      -1.73073755E-09
   22.1700001      -1.73842485E-09
   22.2299995      -1.74990544E-09
   22.2900009      -1.76607617E-09
   22.3500004      -1.78892257E-09
   22.4099998      -1.82058624E-09
   22.4699993      -1.86234472E-09
   22.5300007      -1.91388683E-09
   22.5900002      -1.97313832E-09
   22.6499996      -2.03669348E-09
   22.7099991      -2.10068918E-09
   22.7700005      -2.16177543E-09
   22.8299999      -2.21777019E-09
   22.8899994      -2.26769159E-09
   22.9500008      -2.31114261E-09
   23.0100002      -2.34735942E-09
   23.0699997      -2.37445130E-09
   23.1299992      -2.38930498E-09
   23.1900005      -2.38830200E-09
   23.2500000      -2.36855002E-09
   23.3099995      -2.32901520E-09
   23.3700008      -2.27096830E-09
   23.4300003      -2.19749952E-09
   23.4899998      -2.11236562E-09
   23.5499992      -2.01876360E-09
   23.6100006      -1.91864724E-09
   23.6700001      -1.81284521E-09
   23.7299995      -1.70178382E-09
   23.7900009      -1.58628710E-09
   23.8500004      -1.46793799E-09
   23.9099998      -1.34878686E-09
   23.9699993      -1.23060562E-09
   24.0300007      -1.11415388E-09
   24.0900002      -9.98905958E-10
   24.1499996      -8.83430773E-10
   24.2099991      -7.66264274E-10
   24.2700005      -6.46880827E-10
   24.3299999      -5.26338195E-10
   24.3899994      -4.07338940E-10
   24.4500008      -2.93701369E-10
   24.5100002      -1.89450941E-10
   24.5699997      -9.78436498E-11
   24.6299992      -2.06090110E-11
   24.6900005       4.24133957E-11
   24.7500000       9.32153521E-11
   24.8099995       1.35237252E-10
   24.8700008       1.72826267E-10
   24.9300003       2.10693823E-10
   24.9899998       2.53465499E-10
   25.0499992       3.05329512E-10
   25.1100006       3.69732606E-10
   25.1700001       4.49074805E-10
   25.2299995       5.44411405E-10
   25.2900009       6.55235366E-10
   25.3500004       7.79437903E-10
   25.4099998       9.13504716E-10
   25.4699993       1.05293108E-09
   25.5300007       1.19277477E-09
   25.5900002       1.32825806E-09
   25.6499996       1.45535617E-09
   25.7099991       1.57134372E-09
   25.7700005       1.67524528E-09
   25.8299999       1.76808390E-09
   25.8899994       1.85278004E-09
   25.9500008       1.93359928E-09
   26.0100002       2.01520600E-09
   26.0699997       2.10157247E-09
   26.1299992       2.19510676E-09
   26.1900005       2.29631825E-09
   26.2500000       2.40411269E-09
   26.3099995       2.51653276E-09
   26.3700008       2.63158229E-09
   26.4300003       2.74776557E-09
   26.4899998       2.86416602E-09
   26.5499992       2.98011082E-09
   26.6100006       3.09464987E-09
   26.6700001       3.20609361E-09
   26.7299995       3.31179106E-09
   26.7900009       3.40820949E-09
   26.8500004       3.49131235E-09
   26.9099998       3.55718588E-09
   26.9699993       3.60280161E-09
   27.0300007       3.62673314E-09
   27.0900002       3.62957220E-09
   27.1499996       3.61383212E-09
   27.2099991       3.58329477E-09
   27.2700005       3.54202956E-09
   27.3299999       3.49348772E-09
   27.3899994       3.44006401E-09
   27.4500008       3.38325923E-09
   27.5100002       3.32421934E-09
   27.5699997       3.26419736E-09
   27.6299992       3.20454507E-09
   27.6900005       3.14616866E-09
   27.7500000       3.08876591E-09
   27.8099995       3.03035486E-09
   27.8700008       2.96745650E-09
   27.9300003       2.89590019E-09
   27.9899998       2.81185697E-09
   28.0499992       2.71261014E-09
   28.1100006       2.59678945E-09
   28.1700001       2.46420107E-09
   28.2299995       2.31565078E-09
   28.2900009       2.15309814E-09
   28.3500004       1.98014916E-09
   28.4099998       1.80249760E-09
   28.4699993       1.62777780E-09
   28.5300007       1.46450641E-09
   28.5900002       1.32025668E-09
   28.6499996       1.19966403E-09
   28.7099991       1.10302401E-09
   28.7700005       1.02605358E-09
   28.8299999       9.60947655E-10
   28.8899994       8.98419061E-10
   28.9500008       8.30134017E-10
   29.0100002       7.50893903E-10
   29.0699997       6.60024480E-10
   29.1299992       5.61614200E-10
   29.1900005       4.63492245E-10
   29.2500000       3.75145220E-10
   29.3099995       3.05124481E-10
   29.3700008       2.58769006E-10
   29.4300003       2.37083436E-10
   29.4899998       2.37262543E-10
   29.5499992       2.54709698E-10
   29.6100006       2.85736601E-10
   29.6700001       3.29783645E-10
   29.7299995       3.90181054E-10
   29.7900009       4.73106054E-10
   29.8500004       5.85175186E-10
   29.9099998       7.30654370E-10
   29.9699993       9.09348541E-10
   30.0300007       1.11586695E-09
   30.0900002       1.34040068E-09
   30.1499996       1.57066360E-09
   30.2099991       1.79439752E-09
   30.2700005       2.00179584E-09
   30.3299999       2.18726326E-09
   30.3899994       2.35004505E-09
   30.4500008       2.49345322E-09
   30.5100002       2.62277799E-09
   30.5699997       2.74244649E-09
   30.6299992       2.85341906E-09
   30.6900005       2.95190272E-09
   30.7500000       3.03005443E-09
   30.8099995       3.07853543E-09
   30.8700008       3.08992498E-09
   30.9300003       3.06155190E-09
   30.9899998       2.99653236E-09
   31.0499992       2.90262747E-09
   31.1100006       2.78952017E-09
   31.1700001       2.66577027E-09
   31.2299995       2.53673571E-09
   31.2900009       2.40416842E-09
   31.3500004       2.26738961E-09
   31.4099998       2.12531592E-09
   31.4699993       1.97840166E-09
   31.5300007       1.82976700E-09
   31.5900002       1.68518699E-09
   31.6499996       1.55200852E-09
   31.7099991       1.43732704E-09
   31.7700005       1.34591505E-09
   31.8299999       1.27849498E-09
   31.8899994       1.23094879E-09
   31.9500008       1.19489252E-09
   32.0099983       1.15963450E-09
   32.0699997       1.11499388E-09
   32.1300011       1.05401299E-09
   32.1899986       9.74537340E-10
   32.2500000       8.79055717E-10
   32.3100014       7.72940600E-10
   32.3699989       6.61933341E-10
   32.4300003       5.49996770E-10
   32.4900017       4.38373671E-10
   32.5499992       3.26013577E-10
   32.6100006       2.10850643E-10
   32.6699982       9.11071704E-11
   32.7299995      -3.40305770E-11
   32.7900009      -1.64524949E-10
   32.8499985      -3.00071162E-10
   32.9099998      -4.40645020E-10
   32.9700012      -5.86644067E-10
   33.0299988      -7.38567540E-10
   33.0900002      -8.96438923E-10
   33.1500015      -1.05924836E-09
   33.2099991      -1.22460986E-09
   33.2700005      -1.38871536E-09
   33.3300018      -1.54662350E-09
   33.3899994      -1.69291647E-09
   33.4500008      -1.82270365E-09
   33.5099983      -1.93278527E-09
   33.5699997      -2.02257500E-09
   33.6300011      -2.09430029E-09
   33.6899986      -2.15219664E-09
   33.7500000      -2.20088170E-09
   33.8100014      -2.24358554E-09
   33.8699989      -2.28113195E-09
   33.9300003      -2.31228015E-09
   33.9900017      -2.33535991E-09
   34.0499992      -2.35040143E-09
   34.1100006      -2.36060105E-09
   34.1699982      -2.37222797E-09
   34.2299995      -2.39283549E-09
   34.2900009      -2.42851494E-09
   34.3499985      -2.48143173E-09
   34.4099998      -2.54876453E-09
   34.4700012      -2.62352007E-09
   34.5299988      -2.69684586E-09
   34.5900002      -2.76087975E-09
   34.6500015      -2.81103563E-09
   34.7099991      -2.84698620E-09
   34.7700005      -2.87215363E-09
   34.8300018      -2.89207924E-09
   34.8899994      -2.91234303E-09
   34.9500008      -2.93677371E-09
   35.0099983      -2.96652769E-09
   35.0699997      -3.00030001E-09
   35.1300011      -3.03554049E-09
   35.1899986      -3.07014569E-09
   35.2500000      -3.10386650E-09
   35.3100014      -3.13869752E-09
   35.3699989      -3.17792082E-09
   35.4300003      -3.22411342E-09
   35.4900017      -3.27700955E-09
   35.5499992      -3.33232775E-09
   35.6100006      -3.38232509E-09
   35.6699982      -3.41805473E-09
   35.7299995      -3.43244477E-09
   35.7900009      -3.42284778E-09
   35.8499985      -3.39189166E-09
   35.9099998      -3.34624173E-09
   35.9700012      -3.29384475E-09
   36.0299988      -3.24091043E-09
   36.0900002      -3.18993587E-09
   36.1500015      -3.13953397E-09
   36.2099991      -3.08595327E-09
   36.2700005      -3.02545966E-09
   36.3300018      -2.95645286E-09
   36.3899994      -2.88041835E-09
   36.4500008      -2.80139267E-09
   36.5099983      -2.72425615E-09
   36.5699997      -2.65260636E-09
   36.6300011      -2.58709498E-09
   36.6899986      -2.52489873E-09
   36.7500000      -2.46056597E-09
   36.8100014      -2.38796249E-09
   36.8699989      -2.30260655E-09
   36.9300003      -2.20348362E-09
   36.9900017      -2.09358508E-09
   37.0499992      -1.97887662E-09
   37.1100006      -1.86602933E-09
   37.1699982      -1.75977821E-09
   37.2299995      -1.66095437E-09
   37.2900009      -1.56597213E-09
   37.3499985      -1.46795054E-09
   37.4099998      -1.35898492E-09
   37.4700012      -1.23265709E-09
   37.5299988      -1.08586129E-09
   37.5900002      -9.19384013E-10
   37.6500015      -7.37201911E-10
   37.7099991      -5.44907119E-10
   37.7700005      -3.47871426E-10
   37.8300018      -1.49712395E-10
   37.8899994       4.85673689E-11
   37.9500008       2.48618098E-10
   38.0099983       4.53990040E-10
   38.0699997       6.68771982E-10
   38.1300011       8.95944097E-10
   38.1899986       1.13589127E-09
   38.2500000       1.38556877E-09
   38.3100014       1.63870151E-09
   38.3699989       1.88711335E-09
   38.4300003       2.12289342E-09
   38.4900017       2.34073583E-09
   38.5499992       2.53962784E-09
   38.6100006       2.72318013E-09
   38.6699982       2.89830893E-09
   38.7299995       3.07255910E-09
   38.7900009       3.25090288E-09
   38.8499985       3.43314599E-09
   38.9099998       3.61296526E-09
   38.9700012       3.77908238E-09
   39.0299988       3.91827992E-09
   39.0900002       4.01923561E-09
   39.1500015       4.07574552E-09
   39.2099991       4.08811385E-09
   39.2700005       4.06220746E-09
   39.3300018       4.00664613E-09
   39.3899994       3.92936528E-09
   39.4500008       3.83498033E-09
   39.5099983       3.72393938E-09
   39.5699997       3.59358499E-09
   39.6300011       3.44040330E-09
   39.6899986       3.26234018E-09
   39.7500000       3.06022208E-09
   39.8100014       2.83787416E-09
   39.8699989       2.60115085E-09
   39.9300003       2.35645325E-09
   39.9900017       2.10929874E-09
   40.0499992       1.86330729E-09
   40.1100006       1.61970859E-09
   40.1699982       1.37737766E-09
   40.2299995       1.13337995E-09
   40.2900009       8.83981055E-10
   40.3499985       6.25933694E-10
   40.4099998       3.57661678E-10
   40.4700012       7.98735592E-11
   40.5299988      -2.04721212E-10
   40.5900002      -4.92549557E-10
   40.6500015      -7.80712994E-10
   40.7099991      -1.06826703E-09
   40.7700005      -1.35670641E-09
   40.8300018      -1.64950598E-09
   40.8899994      -1.95098782E-09
   40.9500008      -2.26501129E-09
   41.0099983      -2.59394284E-09
   41.0699997      -2.93812485E-09
   41.1300011      -3.29586114E-09
   41.1899986      -3.66379860E-09
   41.2500000      -4.03759381E-09
   41.3100014      -4.41271908E-09
   41.3699989      -4.78520912E-09
   41.4300003      -5.15205167E-09
   41.4900017      -5.51100676E-09
   41.5499992      -5.85986282E-09
   41.6100006      -6.19549212E-09
   41.6699982      -6.51325482E-09
   41.7299995      -6.80717394E-09
   41.7900009      -7.07083680E-09
   41.8499985      -7.29850846E-09
   41.9099998      -7.48576490E-09
   41.9700012      -7.62929098E-09
   42.0299988      -7.72615483E-09
   42.0900002      -7.77335085E-09
   42.1500015      -7.76837350E-09
   42.2099991      -7.71084530E-09
   42.2700005      -7.60435714E-09
   42.3300018      -7.45712825E-09
   42.3899994      -7.28050464E-09
   42.4500008      -7.08545356E-09
   42.5099983      -6.87848623E-09
   42.5699997      -6.65904176E-09
   42.6300011      -6.41985887E-09
   42.6899986      -6.15044060E-09
   42.7500000      -5.84219029E-09
   42.8100014      -5.49296786E-09
   42.8699989      -5.10916864E-09
   42.9300003      -4.70459982E-09
   42.9900017      -4.29683844E-09
   43.0499992      -3.90259203E-09
   43.1100006      -3.53366203E-09
   43.1699982      -3.19456528E-09
   43.2299995      -2.88221713E-09
   43.2900009      -2.58758082E-09
   43.3499985      -2.29889685E-09
   43.4099998      -2.00581107E-09
   43.4700012      -1.70333336E-09
   43.5299988      -1.39428324E-09
   43.5900002      -1.08904252E-09
   43.6500015      -8.02283018E-10
   43.7099991      -5.47636769E-10
   43.7700005      -3.32381817E-10
   43.8300018      -1.54455809E-10
   43.8899994      -3.17699252E-12
   43.9500008       1.36631331E-10
   44.0099983       2.78989554E-10
   44.0699997       4.32060554E-10
   44.1300011       5.96221794E-10
   44.1899986       7.65269348E-10
   44.2500000       9.29699762E-10
   44.3100014       1.08037712E-09
   44.3699989       1.21120503E-09
   44.4300003       1.32026323E-09
   44.4900017       1.40960521E-09
   44.5499992       1.48417223E-09
   44.6100006       1.55015700E-09
   44.6699982       1.61299962E-09
   44.7299995       1.67533598E-09
   44.7900009       1.73555015E-09
   44.8499985       1.78772175E-09
   44.9099998       1.82338111E-09
   44.9700012       1.83462912E-09
   45.0299988       1.81734716E-09
   45.0900002       1.77298676E-09
   45.1500015       1.70807524E-09
   45.2099991       1.63175029E-09
   45.2700005       1.55261948E-09
   45.3300018       1.47642587E-09
   45.3899994       1.40528611E-09
   45.4500008       1.33820777E-09
   45.5099983       1.27194988E-09
   45.5699997       1.20147681E-09
   45.6300011       1.12006227E-09
   45.6899986       1.01981512E-09
   45.7500000       8.93366436E-10
   45.8100014       7.36613048E-10
   45.8699989       5.51334645E-10
   45.9300003       3.46036783E-10
   45.9900017       1.34002462E-10
   46.0499992      -7.10147219E-11
   46.1100006      -2.59629485E-10
   46.1699982      -4.29938751E-10
   46.2299995      -5.87490501E-10
   46.2900009      -7.42294504E-10
   46.3499985      -9.04476993E-10
   46.4099998      -1.08060594E-09
   46.4700012      -1.27203359E-09
   46.5299988      -1.47537549E-09
   46.5900002      -1.68427683E-09
   46.6500015      -1.89139659E-09
   46.7099991      -2.08995621E-09
   46.7700005      -2.27475816E-09
   46.8300018      -2.44280574E-09
   46.8899994      -2.59348543E-09
   46.9500008      -2.72805845E-09
   47.0099983      -2.84830226E-09
   47.0699997      -2.95463631E-09
   47.1300011      -3.04459169E-09
   47.1899986      -3.11255799E-09
   47.2500000      -3.15117177E-09
   47.3100014      -3.15377302E-09
   47.3699989      -3.11669512E-09
   47.4300003      -3.04025405E-09
   47.4900017      -2.92812286E-09
   47.5499992      -2.78577228E-09
   47.6100006      -2.61910871E-09
   47.6699982      -2.43403919E-09
   47.7299995      -2.23676211E-09
   47.7900009      -2.03384709E-09
   47.8499985      -1.83124960E-09
   47.9099998      -1.63228153E-09
   47.9700012      -1.43564038E-09
   48.0299988      -1.23501553E-09
   48.0900002      -1.02116160E-09
   48.1500015      -7.85936871E-10
   48.2099991      -5.26529376E-10
   48.2700005      -2.47762394E-10
   48.3300018       3.87643875E-11
   48.3899994       3.18392951E-10
   48.4500008       5.78333048E-10
   48.5099983       8.11728462E-10
   48.5699997       1.01939990E-09
   48.6300011       1.20894017E-09
   48.6899986       1.39182699E-09
   48.7500000       1.57966096E-09
   48.8100014       1.78056292E-09
   48.8699989       1.99652628E-09
   48.9300003       2.22234853E-09
   48.9900017       2.44662890E-09
   49.0499992       2.65494160E-09
   49.1100006       2.83457413E-09
   49.1699982       2.97932545E-09
   49.2299995       3.09239945E-09
   49.2900009       3.18583115E-09
   49.3499985       3.27621552E-09
   49.4099998       3.37820971E-09
   49.4700012       3.49843177E-09
   49.5299988       3.63237151E-09
   49.5900002       3.76563181E-09
   49.6500015       3.87895627E-09
   49.7099991       3.95494038E-09
   49.7700005       3.98380040E-09
   49.8300018       3.96620337E-09
   49.8899994       3.91247967E-09
   49.9500008       3.83886611E-09
   50.0099983       3.76228826E-09
   50.0699997       3.69538333E-09
   50.1300011       3.64318931E-09
   50.1899986       3.60235219E-09
   50.2500000       3.56300411E-09
   50.3100014       3.51269747E-09
   50.3699989       3.44112405E-09
   50.4300003       3.34399730E-09
   50.4900017       3.22470295E-09
   50.5499992       3.09313375E-09
   50.6100006       2.96225267E-09