  -2.400000      0.0000000E+00
  -2.340000      0.0000000E+00
  -2.280000      0.0000000E+00
  -2.220000      0.0000000E+00
  -2.160000      0.0000000E+00
  -2.100000     -1.1794329E-21
  -2.040000     -7.6466870E-21
  -1.980000     -2.1893169E-20
  -1.920000     -2.6787735E-20
  -1.860000      3.6464755E-20
  -1.800000      2.6304400E-19
  -1.740000      7.2508729E-19
  -1.680000      1.3736607E-18
  -1.620000      1.9553574E-18
  -1.560000      1.9708529E-18
  -1.500000      6.3569818E-19
  -1.440000     -3.1615236E-18
  -1.380000     -1.0647799E-17
  -1.320000     -2.2115818E-17
  -1.260000     -3.4593180E-17
  -1.200000     -3.8965302E-17
  -1.140000     -1.9317197E-17
  -1.080000      4.1358452E-17
  -1.020000      1.4657790E-16
 -0.9600000      2.6651513E-16
 -0.9000000      3.2536301E-16
 -0.8400000      2.1421528E-16
 -0.7800000     -1.5710166E-16
 -0.7200000     -7.7567942E-16
 -0.6600000     -1.4451121E-15
 -0.6000000     -1.7698822E-15
 -0.5400000     -1.2628583E-15
 -0.4800000      4.1012070E-16
 -0.4200000      3.1153675E-15
 -0.3600000      6.0179976E-15
 -0.3000000      7.6198754E-15
 -0.2400000      6.2019909E-15
 -0.1800000      6.4021535E-16
 -0.1200000     -8.6636368E-15
 -5.9999999E-02 -1.9182237E-14
  0.0000000E+00 -2.6468856E-14
  5.9999999E-02 -2.5426342E-14
  0.1200000     -1.2453919E-14
  0.1800000      1.2229648E-14
  0.2400000      4.3133869E-14
  0.3000000      6.9901841E-14
  0.3600000      7.9998128E-14
  0.4200000      6.3182593E-14
  0.4800000      1.6352464E-14
  0.5400000     -5.3149091E-14
  0.6000000     -1.2740715E-13
  0.6600000     -1.8166901E-13
  0.7200000     -1.9127702E-13
  0.7800000     -1.3996532E-13
  0.8400000     -2.7108900E-14
  0.9000000      1.2833468E-13
  0.9600000      2.8875811E-13
   1.020000      4.0434778E-13
   1.080000      4.2466660E-13
   1.140000      3.1383858E-13
   1.200000      6.6337242E-14
   1.260000     -2.8119721E-13
   1.320000     -6.4763283E-13
   1.380000     -9.1922010E-13
   1.440000     -9.7695452E-13
   1.500000     -7.3498727E-13
   1.560000     -1.7944871E-13
   1.620000      6.0667329E-13
   1.680000      1.4455309E-12
   1.740000      2.0988567E-12
   1.800000      2.3291178E-12
   1.860000      1.9707675E-12
   1.920000      9.8930521E-13
   1.980000     -4.9172309E-13
   2.040000     -2.2056933E-12
   2.100000     -3.7962532E-12
   2.160000     -4.8938262E-12
   2.220000     -5.1946130E-12
   2.280000     -4.5234420E-12
   2.340000     -2.8691823E-12
   2.400000     -3.9013291E-13
   2.460000      2.6068084E-12
   2.520000      5.7068903E-12
   2.580000      8.4422920E-12
   2.640000      1.0356022E-11
   2.700000      1.1069140E-11
   2.760000      1.0342139E-11
   2.820000      8.1169385E-12
   2.880000      4.5234710E-12
   2.940000     -1.6170665E-13
   3.000000     -5.6060529E-12
   3.060000     -1.1543227E-11
   3.120000     -1.7887540E-11
   3.180000     -2.4785809E-11
   3.240000     -3.2552776E-11
   3.300000     -4.1461404E-11
   3.360000     -5.1408027E-11
   3.420000     -6.1532716E-11
   3.480000     -6.9924920E-11
   3.540000     -7.3558160E-11
   3.600000     -6.8558402E-11
   3.660000     -5.0819651E-11
   3.720000     -1.6861111E-11
   3.780000      3.5286007E-11
   3.840000      1.0542383E-10
   3.900000      1.9099261E-10
   3.960000      2.8744515E-10
   4.020000      3.8913342E-10
   4.080000      4.9048920E-10
   4.140000      5.8718214E-10
   4.200000      6.7694106E-10
   4.260000      7.5982654E-10
   4.320000      8.3791624E-10
   4.380000      9.1453928E-10
   4.440000      9.9332309E-10
   4.500000      1.0773404E-09
   4.560000      1.1685737E-09
   4.620000      1.2677733E-09
   4.680000      1.3746371E-09
   4.740000      1.4881382E-09
   4.800000      1.6068140E-09
   4.860000      1.7288958E-09
   4.920000      1.8522719E-09
   4.980000      1.9743824E-09
   5.040000      2.0921893E-09
   5.100000      2.2023352E-09
   5.160000      2.3015161E-09
   5.220000      2.3869922E-09
   5.280000      2.4570879E-09
   5.340000      2.5115188E-09
   5.400000      2.5514504E-09
   5.460000      2.5792648E-09
   5.520000      2.5981097E-09
   5.580000      2.6113489E-09
   5.640000      2.6220410E-09
   5.700000      2.6325384E-09
   5.760000      2.6442555E-09
   5.820000      2.6576048E-09
   5.880000      2.6720697E-09
   5.940000      2.6863649E-09
   6.000000      2.6986449E-09
   6.060000      2.7067273E-09
   6.120000      2.7083231E-09
   6.180000      2.7012912E-09
   6.240000      2.6839240E-09
   6.300000      2.6552627E-09
   6.360000      2.6153844E-09
   6.420000      2.5655578E-09
   6.480000      2.5081535E-09
   6.540000      2.4462232E-09
   6.600000      2.3827844E-09
   6.660000      2.3199687E-09
   6.720000      2.2583075E-09
   6.780000      2.1964417E-09
   6.840000      2.1314228E-09
   6.900000      2.0595827E-09
   6.960000      1.9776982E-09
   7.020000      1.8840582E-09
   7.080000      1.7790247E-09
   7.140000      1.6648770E-09
   7.200000      1.5449839E-09
   7.260000      1.4226051E-09
   7.320000      1.2997513E-09
   7.380000      1.1764774E-09
   7.440000      1.0507949E-09
   7.500000      9.1915325E-10
   7.560000      7.7726653E-10
   7.620000      6.2102229E-10
   7.680000      4.4728415E-10
   7.740000      2.5452684E-10
   7.800000      4.3318849E-11
   7.860000     -1.8334242E-10
   7.920000     -4.1992537E-10
   7.980000     -6.5865075E-10
   8.040000     -8.9031982E-10
   8.100000     -1.1056899E-09
   8.160000     -1.2971785E-09
   8.220000     -1.4604671E-09
   8.280000     -1.5955106E-09
   8.340000     -1.7065797E-09
   8.400000     -1.8012497E-09
   8.460000     -1.8885724E-09
   8.520000     -1.9769089E-09
   8.580000     -2.0719635E-09
   8.640000     -2.1754607E-09
   8.700000     -2.2846991E-09
   8.760000     -2.3930207E-09
   8.820000     -2.4910864E-09
   8.880000     -2.5687463E-09
   8.940000     -2.6172073E-09
   9.000000     -2.6310918E-09
   9.060000     -2.6099030E-09
   9.120000     -2.5584097E-09
   9.180000     -2.4856779E-09
   9.240000     -2.4028457E-09
   9.300000     -2.3202027E-09
   9.360000     -2.2444731E-09
   9.420000     -2.1772291E-09
   9.480000     -2.1150233E-09
   9.540000     -2.0512037E-09
   9.600000     -1.9787452E-09
   9.660000     -1.8930393E-09
   9.720000     -1.7936277E-09
   9.780000     -1.6843025E-09
   9.840000     -1.5716446E-09
   9.900000     -1.4626378E-09
   9.960000     -1.3622750E-09
   10.02000     -1.2719933E-09
   10.08000     -1.1894165E-09
   10.14000     -1.1094290E-09
   10.20000     -1.0262037E-09
   10.26000     -9.3554897E-10
   10.32000     -8.3685225E-10
   10.38000     -7.3396383E-10
   10.44000     -6.3459166E-10
   10.50000     -5.4816890E-10
   10.56000     -4.8266380E-10
   10.62000     -4.4128140E-10
   10.68000     -4.2025841E-10
   10.74000     -4.0877271E-10
   10.80000     -3.9133849E-10
   10.86000     -3.5212355E-10
   10.92000     -2.7978089E-10
   10.98000     -1.7104432E-10
   11.04000     -3.1719939E-11
   11.10000      1.2529539E-10
   11.16000      2.8414623E-10
   11.22000      4.3063897E-10
   11.28000      5.5559768E-10
   11.34000      6.5589578E-10
   11.40000      7.3322121E-10
   11.46000      7.9161594E-10
   11.52000      8.3520058E-10
   11.58000      8.6711055E-10
   11.64000      8.8979996E-10
   11.70000      9.0601382E-10
   11.76000      9.1937846E-10
   11.82000      9.3387875E-10
   11.88000      9.5228492E-10
   11.94000      9.7437813E-10
   12.00000      9.9613839E-10
   12.06000      1.0106896E-09
   12.12000      1.0109232E-09
   12.18000      9.9278497E-10
   12.24000      9.5772723E-10
   12.30000      9.1306446E-10
   12.36000      8.6984459E-10
   12.42000      8.3896279E-10
   12.48000      8.2706197E-10
   12.54000      8.3391272E-10
   12.60000      8.5237734E-10
   12.66000      8.7099727E-10
   12.72000      8.7818575E-10
   12.78000      8.6639002E-10
   12.84000      8.3465707E-10
   12.90000      7.8870849E-10
   12.96000      7.3860956E-10
   13.02000      6.9499356E-10
   13.08000      6.6525713E-10
   13.14000      6.5105504E-10
   13.20000      6.4788036E-10
   13.26000      6.4675737E-10
   13.32000      6.3737693E-10
   13.38000      6.1157707E-10
   13.44000      5.6602623E-10
   13.50000      5.0327392E-10
   13.56000      4.3087739E-10
   13.62000      3.5893494E-10
   13.68000      2.9685418E-10
   13.74000      2.5042438E-10
   13.80000      2.2014947E-10
   13.86000      2.0137213E-10
   13.92000      1.8610415E-10
   13.98000      1.6589309E-10
   14.04000      1.3470840E-10
   14.10000      9.0853824E-11
   14.16000      3.7297200E-11
   14.22000     -1.9601111E-11
   14.28000     -7.2412486E-11
   14.34000     -1.1513970E-10
   14.40000     -1.4502848E-10
   14.46000     -1.6314926E-10
   14.52000     -1.7368230E-10
   14.58000     -1.8227808E-10
   14.64000     -1.9411459E-10
   14.70000     -2.1228348E-10
   14.76000     -2.3694960E-10
   14.82000     -2.6544600E-10
   14.88000     -2.9319736E-10
   14.94000     -3.1517650E-10
   15.00000     -3.2751094E-10
   15.06000     -3.2885122E-10
   15.12000     -3.2116432E-10
   15.18000     -3.0971428E-10
   15.24000     -3.0214503E-10
   15.30000     -3.0678926E-10
   15.36000     -3.3057090E-10
   15.42000     -3.7707135E-10
   15.48000     -4.4539505E-10
   15.54000     -5.3031185E-10
   15.60000     -6.2376659E-10
   15.66000     -7.1734363E-10
   15.72000     -8.0485346E-10
   15.78000     -8.8408131E-10
   15.84000     -9.5701336E-10
   15.90000     -1.0284537E-09
   15.96000     -1.1036150E-09
   16.02000     -1.1856984E-09
   16.08000     -1.2744416E-09
   16.14000     -1.3661412E-09
   16.20000     -1.4549560E-09
   16.26000     -1.5347406E-09
   16.32000     -1.6005258E-09
   16.38000     -1.6490709E-09
   16.44000     -1.6784937E-09
   16.50000     -1.6874840E-09
   16.56000     -1.6747621E-09
   16.62000     -1.6391929E-09
   16.68000     -1.5805043E-09
   16.74000     -1.5001432E-09
   16.80000     -1.4016941E-09
   16.86000     -1.2905057E-09
   16.92000     -1.1725859E-09
   16.98000     -1.0531885E-09
   17.04000     -9.3565355E-10
   17.10000     -8.2093582E-10
   17.16000     -7.0795675E-10
   17.22000     -5.9460087E-10
   17.28000     -4.7897419E-10
   17.34000     -3.6048872E-10
   17.40000     -2.4043137E-10
   17.46000     -1.2186203E-10
   17.52000     -8.9186740E-12
   17.58000      9.4180816E-11
   17.64000      1.8403222E-10
   17.70000      2.5847263E-10
   17.76000      3.1640099E-10
   17.82000      3.5716527E-10
   17.88000      3.7993861E-10
   17.94000      3.8353687E-10
   18.00000      3.6688885E-10
   18.06000      3.2997535E-10
   18.12000      2.7472777E-10
   18.18000      2.0533397E-10
   18.24000      1.2768454E-10
   18.30000      4.8154994E-11
   18.36000     -2.7718824E-11
   18.42000     -9.6078250E-11
   18.48000     -1.5480958E-10
   18.54000     -2.0302424E-10
   18.60000     -2.4045604E-10
   18.66000     -2.6726127E-10
   18.72000     -2.8436645E-10
   18.78000     -2.9407993E-10
   18.84000     -3.0044389E-10
   18.90000     -3.0891351E-10
   18.96000     -3.2533412E-10
   19.02000     -3.5460593E-10
   19.08000     -3.9962184E-10
   19.14000     -4.6093393E-10
   19.20000     -5.3723465E-10
   19.26000     -6.2635314E-10
   19.32000     -7.2626072E-10
   19.38000     -8.3563473E-10
   19.44000     -9.5376884E-10
   19.50000     -1.0799134E-09
   19.56000     -1.2123439E-09
   19.62000     -1.3475490E-09
   19.68000     -1.4799044E-09
   19.74000     -1.6020691E-09
   19.80000     -1.7061402E-09
   19.86000     -1.7853412E-09
   19.92000     -1.8357712E-09
   19.98000     -1.8576228E-09
   20.04000     -1.8553661E-09
   20.10000     -1.8367323E-09
   20.16000     -1.8107801E-09
   20.22000     -1.7856994E-09
   20.28000     -1.7671228E-09
   20.34000     -1.7574848E-09
   20.40000     -1.7565296E-09
   20.46000     -1.7626042E-09
   20.52000     -1.7741162E-09
   20.58000     -1.7905616E-09
   20.64000     -1.8127924E-09
   20.70000     -1.8425422E-09
   20.76000     -1.8815036E-09
   20.82000     -1.9303785E-09
   20.88000     -1.9882804E-09
   20.94000     -2.0527167E-09
   21.00000     -2.1201556E-09
   21.06000     -2.1869651E-09
   21.12000     -2.2503344E-09
   21.18000     -2.3087676E-09
   21.24000     -2.3618876E-09
   21.30000     -2.4096007E-09
   21.36000     -2.4510185E-09
   21.42000     -2.4837157E-09
   21.48000     -2.5038083E-09
   21.54000     -2.5069413E-09
   21.60000     -2.4897984E-09
   21.66000     -2.4514180E-09
   21.72000     -2.3936564E-09
   21.78000     -2.3205351E-09
   21.84000     -2.2367819E-09
   21.90000     -2.1462634E-09
   21.96000     -2.0510376E-09
   22.02000     -1.9513844E-09
   22.08000     -1.8466573E-09
   22.14000     -1.7363957E-09
   22.20000     -1.6210784E-09
   22.26000     -1.5021726E-09
   22.32000     -1.3815561E-09
   22.38000     -1.2607161E-09
   22.44000     -1.1402040E-09
   22.50000     -1.0196384E-09
   22.56000     -8.9824148E-10
   22.62000     -7.7563855E-10
   22.68000     -6.5254896E-10
   22.74000     -5.3107491E-10
   22.80000     -4.1447304E-10
   22.86000     -3.0648498E-10
   22.92000     -2.1044011E-10
   22.98000     -1.2839552E-10
   23.04000     -6.0544673E-11
   23.10000     -5.0347109E-12
   23.16000      4.1792861E-11
   23.22000      8.4835555E-11
   23.28000      1.2950274E-10
   23.34000      1.8099160E-10
   23.40000      2.4367994E-10
   23.46000      3.2068254E-10
   23.52000      4.1357484E-10
   23.58000      5.2228127E-10
   23.64000      6.4513506E-10
   23.70000      7.7911344E-10
   23.76000      9.2022262E-10
   23.82000      1.0639680E-09
   23.88000      1.2058381E-09
   23.94000      1.3417603E-09
   24.00000      1.4685334E-09
   24.06000      1.5842520E-09
   24.12000      1.6886825E-09
   24.18000      1.7834617E-09
   24.24000      1.8719282E-09
   24.30000      1.9584769E-09
   24.36000      2.0475079E-09
   24.42000      2.1422830E-09
   24.48000      2.2441151E-09
   24.54000      2.3522360E-09
   24.60000      2.4644033E-09
   24.66000      2.5779674E-09
   24.72000      2.6909104E-09
   24.78000      2.8023972E-09
   24.84000      2.9126312E-09
   24.90000      3.0221374E-09
   24.96000      3.1308309E-09
   25.02000      3.2372784E-09
   25.08000      3.3384373E-09
   25.14000      3.4299650E-09
   25.20000      3.5070096E-09
   25.26000      3.5652747E-09
   25.32000      3.6020773E-09
   25.38000      3.6170842E-09
   25.44000      3.6124430E-09
   25.50000      3.5921859E-09
   25.56000      3.5610399E-09
   25.62000      3.5230749E-09
   25.68000      3.4807508E-09
   25.74000      3.4347922E-09
   25.80000      3.3849186E-09
   25.86000      3.3309930E-09
   25.92000      3.2738972E-09
   25.98000      3.2155616E-09
   26.04000      3.1580651E-09
   26.10000      3.1022596E-09
   26.16000      3.0466796E-09
   26.22000      2.9873635E-09
   26.28000      2.9187228E-09
   26.34000      2.8350626E-09
   26.40000      2.7320808E-09
   26.46000      2.6077991E-09
   26.52000      2.4627791E-09
   26.58000      2.2998512E-09
   26.64000      2.1237205E-09
   26.70000      1.9406381E-09
   26.76000      1.7580363E-09
   26.82000      1.5838799E-09
   26.88000      1.4255757E-09
   26.94000      1.2885896E-09
   27.00000      1.1751952E-09
   27.06000      1.0838477E-09
   27.12000      1.0094832E-09
   27.18000      9.4470531E-10
   27.24000      8.8153895E-10
   27.30000      8.1329704E-10
   27.36000      7.3614842E-10
   27.42000      6.5006595E-10
   27.48000      5.5893562E-10
   27.54000      4.6971893E-10
   27.60000      3.9075351E-10
   27.66000      3.2957240E-10
   27.72000      2.9090777E-10
   27.78000      2.7563632E-10
   27.84000      2.8116395E-10
   27.90000      3.0318126E-10
   27.96000      3.3808586E-10
   28.02000      3.8501302E-10
   28.08000      4.4655063E-10
   28.14000      5.2780547E-10
   28.20000      6.3422650E-10
   28.26000      7.6910972E-10
   28.32000      9.3176988E-10
   28.38000      1.1169984E-09
   28.44000      1.3158818E-09
   28.50000      1.5176095E-09
   28.56000      1.7116955E-09
   28.62000      1.8900514E-09
   28.68000      2.0484368E-09
   28.74000      2.1869151E-09
   28.80000      2.3090929E-09
   28.86000      2.4201992E-09
   28.92000      2.5244808E-09
   28.98000      2.6228002E-09
   29.04000      2.7114326E-09
   29.10000      2.7827245E-09
   29.16000      2.8275187E-09
   29.22000      2.8384282E-09
   29.28000      2.8125819E-09
   29.34000      2.7526679E-09
   29.40000      2.6658680E-09
   29.46000      2.5612541E-09
   29.52000      2.4468716E-09
   29.58000      2.3277669E-09
   29.64000      2.2056512E-09
   29.70000      2.0800919E-09
   29.76000      1.9504824E-09
   29.82000      1.8178495E-09
   29.88000      1.6857865E-09
   29.94000      1.5602371E-09
   30.00000      1.4482607E-09
   30.06000      1.3561731E-09
   30.12000      1.2875737E-09
   30.18000      1.2418305E-09
   30.24000      1.2135540E-09
   30.30000      1.1934196E-09
   30.36000      1.1702984E-09
   30.42000      1.1341447E-09
   30.48000      1.0786575E-09
   30.54000      1.0026966E-09
   30.60000      9.0986724E-10
   30.66000      8.0646506E-10
   30.72000      6.9871314E-10
   30.78000      5.9050614E-10
   30.84000      4.8257004E-10
   30.90000      3.7318579E-10
   30.96000      2.5985614E-10
   31.02000      1.4092180E-10
   31.08000      1.6317888E-11
   31.14000     -1.1275084E-10
   31.20000     -2.4482588E-10
   31.26000     -3.7921091E-10
   31.32000     -5.1641341E-10
   31.38000     -6.5782385E-10
   31.44000     -8.0484081E-10
   31.50000     -9.5784658E-10
   31.56000     -1.1154174E-09
   31.62000     -1.2740135E-09
   31.68000     -1.4282631E-09
   31.74000     -1.5718542E-09
   31.80000     -1.6989141E-09
   31.86000     -1.8055627E-09
   31.92000     -1.8911117E-09
   31.98000     -1.9583402E-09
   32.04000     -2.0125284E-09
   32.10000     -2.0594797E-09
   32.16000     -2.1033260E-09
   32.22000     -2.1451778E-09
   32.28000     -2.1833819E-09
   32.34000     -2.2153672E-09
   32.40000     -2.2401963E-09
   32.46000     -2.2604600E-09
   32.52000     -2.2823954E-09
   32.58000     -2.3139695E-09
   32.64000     -2.3617315E-09
   32.70000     -2.4278837E-09
   32.76000     -2.5089635E-09
   32.82000     -2.5967621E-09
   32.88000     -2.6810785E-09
   32.94000     -2.7531211E-09
   33.00000     -2.8081899E-09
   33.06000     -2.8466989E-09
   33.12000     -2.8733518E-09
   33.18000     -2.8949971E-09
   33.24000     -2.9180758E-09
   33.30000     -2.9465850E-09
   33.36000     -2.9811849E-09
   33.42000     -3.0196501E-09
   33.48000     -3.0584062E-09
   33.54000     -3.0945242E-09
   33.60000     -3.1273477E-09
   33.66000     -3.1590084E-09
   33.72000     -3.1934839E-09
   33.78000     -3.2344813E-09
   33.84000     -3.2830174E-09
   33.90000     -3.3358571E-09
   33.96000     -3.3856797E-09
   34.02000     -3.4231193E-09
   34.08000     -3.4399223E-09
   34.14000     -3.4318917E-09
   34.20000     -3.4003178E-09
   34.26000     -3.3512841E-09
   34.32000     -3.2931831E-09
   34.38000     -3.2335696E-09
   34.44000     -3.1767031E-09
   34.50000     -3.1227154E-09
   34.56000     -3.0685656E-09
   34.62000     -3.0101708E-09
   34.68000     -2.9446916E-09
   34.74000     -2.8720231E-09
   34.80000     -2.7949689E-09
   34.86000     -2.7181581E-09
   34.92000     -2.6462175E-09
   34.98000     -2.5819522E-09
   35.04000     -2.5252358E-09
   35.10000     -2.4730318E-09
   35.16000     -2.4205453E-09
   35.22000     -2.3630717E-09
   35.28000     -2.2978113E-09
   35.34000     -2.2248956E-09
   35.40000     -2.1471729E-09
   35.46000     -2.0688067E-09
   35.52000     -1.9932533E-09
   35.58000     -1.9214685E-09
   35.64000     -1.8510642E-09
   35.70000     -1.7767312E-09
   35.76000     -1.6916939E-09
   35.82000     -1.5895910E-09
   35.88000     -1.4661030E-09
   35.94000     -1.3198559E-09
   36.00000     -1.1524645E-09
   36.06000     -9.6784825E-10
   36.12000     -7.7108414E-10
   36.18000     -5.6707256E-10
   36.24000     -3.5928288E-10
   36.30000     -1.4886596E-10
   36.36000      6.5576176E-11
   36.42000      2.8736294E-10
   36.48000      5.2029475E-10
   36.54000      7.6678347E-10
   36.60000      1.0262102E-09
   36.66000      1.2942076E-09
   36.72000      1.5632884E-09
   36.78000      1.8247409E-09
   36.84000      2.0711843E-09
   36.90000      2.2988520E-09
   36.96000      2.5087008E-09
   37.02000      2.7058293E-09
   37.08000      2.8972935E-09
   37.14000      3.0890215E-09
   37.20000      3.2829190E-09
   37.26000      3.4752743E-09
   37.32000      3.6571461E-09
   37.38000      3.8167114E-09
   37.44000      3.9427461E-09
   37.50000      4.0279393E-09
   37.56000      4.0707482E-09
   37.62000      4.0750936E-09
   37.68000      4.0481281E-09
   37.74000      3.9971133E-09
   37.80000      3.9268033E-09
   37.86000      3.8383736E-09
   37.92000      3.7301557E-09
   37.98000      3.5995718E-09
   38.04000      3.4451995E-09
   38.10000      3.2680236E-09
   38.16000      3.0714775E-09
   38.22000      2.8605214E-09
   38.28000      2.6403491E-09
   38.34000      2.4152793E-09
   38.40000      2.1880850E-09
   38.46000      1.9597306E-09
   38.52000      1.7293992E-09
   38.58000      1.4947833E-09
   38.64000      1.2527075E-09
   38.70000      1.0000932E-09
   38.76000      7.3504181E-10
   38.82000      4.5760773E-10
   38.88000      1.6983662E-10
   38.94000     -1.2505605E-10
   39.00000     -4.2404838E-10
   39.06000     -7.2558920E-10
   39.12000     -1.0301914E-09
   39.18000     -1.3401072E-09
   39.24000     -1.6583264E-09
   39.30000     -1.9874331E-09
   39.36000     -2.3288274E-09
   39.42000     -2.6825222E-09
   39.48000     -3.0473915E-09
   39.54000     -3.4215719E-09
   39.60000     -3.8027701E-09
   39.66000     -4.1883812E-09
   39.72000     -4.5754529E-09
   39.78000     -4.9605631E-09
   39.84000     -5.3396554E-09
   39.90000     -5.7078862E-09
   39.96000     -6.0596346E-09
   40.02000     -6.3888081E-09
   40.08000     -6.6894899E-09
   40.14000     -6.9567028E-09
   40.20000     -7.1868627E-09
   40.26000     -7.3775372E-09
   40.32000     -7.5265367E-09
   40.38000     -7.6309030E-09
   40.44000     -7.6866629E-09
   40.50000     -7.6899482E-09
   40.56000     -7.6392519E-09
   40.62000     -7.5376905E-09
   40.68000     -7.3937674E-09
   40.74000     -7.2196320E-09
   40.80000     -7.0271464E-09
   40.86000     -6.8234032E-09
   40.92000     -6.6079062E-09
   40.98000     -6.3730128E-09
   41.04000     -6.1077032E-09
   41.10000     -5.8030794E-09
   41.16000     -5.4571765E-09
   41.22000     -5.0770455E-09
   41.28000     -4.6773891E-09
   41.34000     -4.2765502E-09
   41.40000     -3.8915462E-09
   41.46000     -3.5339065E-09
   41.52000     -3.2074203E-09
   41.58000     -2.9081184E-09
   41.64000     -2.6262550E-09
   41.70000     -2.3497495E-09
   41.76000     -2.0683282E-09
   41.82000     -1.7773170E-09
   41.88000     -1.4798363E-09
   41.94000     -1.1863444E-09
   42.00000     -9.1128544E-10
   42.06000     -6.6783817E-10
   42.12000     -4.6280665E-10
   42.18000     -2.9388175E-10
   42.24000     -1.5055901E-10
   42.30000     -1.8326698E-11
   42.36000      1.1579446E-10
   42.42000      2.5881777E-10
   42.48000      4.1021500E-10
   42.54000      5.6344396E-10
   42.60000      7.0941586E-10
   42.66000      8.4014884E-10
   42.72000      9.5123420E-10
   42.78000      1.0426453E-09
   42.84000      1.1181844E-09
   42.90000      1.1841083E-09
   42.96000      1.2473004E-09
   43.02000      1.3131809E-09
   43.08000      1.3836671E-09
   43.14000      1.4558360E-09
   43.20000      1.5220943E-09
   43.26000      1.5722528E-09
   43.32000      1.5970090E-09
   43.38000      1.5914517E-09
   43.44000      1.5569736E-09
   43.50000      1.5006713E-09
   43.56000      1.4325912E-09
   43.62000      1.3622448E-09
   43.68000      1.2960217E-09
   43.74000      1.2363531E-09
   43.80000      1.1823132E-09
   43.86000      1.1306216E-09
   43.92000      1.0761771E-09
   43.98000      1.0121290E-09
   44.04000      9.3029767E-10
   44.10000      8.2278334E-10
   44.16000      6.8474121E-10
   44.22000      5.1714505E-10
   44.28000      3.2781775E-10
   44.34000      1.2961034E-10
   44.40000     -6.3892718E-11
   44.46000     -2.4329061E-10
   44.52000     -4.0656600E-10
   44.58000     -5.5907351E-10
   44.64000     -7.1049977E-10
   44.70000     -8.7046181E-10
   44.76000     -1.0448586E-09
   44.82000     -1.2343585E-09
   44.88000     -1.4350913E-09
   44.94000     -1.6405877E-09
   45.00000     -1.8437977E-09
   45.06000     -2.0385178E-09
   45.12000     -2.2202027E-09
   45.18000     -2.3864004E-09
   45.24000     -2.5368418E-09
   45.30000     -2.6729183E-09
   45.36000     -2.7963181E-09
   45.42000     -2.9070932E-09
   45.48000     -3.0020422E-09
   45.54000     -3.0744356E-09
   45.60000     -3.1155627E-09
   45.66000     -3.1175469E-09
   45.72000     -3.0760943E-09
   45.78000     -2.9918150E-09
   45.84000     -2.8696185E-09
   45.90000     -2.7167939E-09
   45.96000     -2.5410292E-09
   46.02000     -2.3493698E-09
   46.08000     -2.1481676E-09
   46.14000     -1.9432245E-09
   46.20000     -1.7392102E-09
   46.26000     -1.5381793E-09
   46.32000     -1.3380449E-09
   46.38000     -1.1323835E-09
   46.44000     -9.1244140E-10
   46.50000     -6.7093259E-10
   46.56000     -4.0598144E-10
   46.62000     -1.2319674E-10
   46.68000      1.6533455E-10
   46.74000      4.4483492E-10
   46.80000      7.0277467E-10
   46.86000      9.3289665E-10
   46.92000      1.1368589E-09
   46.98000      1.3231749E-09
   47.04000      1.5041480E-09
   47.10000      1.6919524E-09
   47.16000      1.8949404E-09
   47.22000      2.1149935E-09
   47.28000      2.3465290E-09
   47.34000      2.5776126E-09
   47.40000      2.7932567E-09
   47.46000      2.9802532E-09
   47.52000      3.1320233E-09
   47.58000      3.2515119E-09
   47.64000      3.3505587E-09
   47.70000      3.4455450E-09
   47.76000      3.5508150E-09
   47.82000      3.6725518E-09
   47.88000      3.8057375E-09
   47.94000      3.9355199E-09
   48.00000      4.0423846E-09
   48.06000      4.1089430E-09
   48.12000      4.1256665E-09
   48.18000      4.0935708E-09
   48.24000      4.0232329E-09
   48.30000      3.9309236E-09
   48.36000      3.8334234E-09
   48.42000      3.7432426E-09
   48.48000      3.6655756E-09
   48.54000      3.5977010E-09
   48.60000      3.5308640E-09
   48.66000      3.4539998E-09
   48.72000      3.3581027E-09
   48.78000      3.2397753E-09
   48.84000      3.1026917E-09
   48.90000      2.9564613E-09
   48.96000      2.8133866E-09
   49.02000      2.6844591E-09
   49.08000      2.5761744E-09
   49.14000      2.4892670E-09
   49.20000      2.4195346E-09
   49.26000      2.3600624E-09
   49.32000      2.3037692E-09
   49.38000      2.2453899E-09
   49.44000      2.1825159E-09
   49.50000      2.1157609E-09
   49.56000      2.0482784E-09
   49.62000      1.9847819E-09
   49.68000      1.9301465E-09
   49.74000      1.8877608E-09
   49.80000      1.8580537E-09
   49.86000      1.8377689E-09
   49.92000      1.8204355E-09
   49.98000      1.7980191E-09
   50.04000      1.7632134E-09
   50.10000      1.7115293E-09
   50.16000      1.6424522E-09
   50.22000      1.5593860E-09
   50.28000      1.4685858E-09
   50.34000      1.3775570E-09
   50.40000      1.2933761E-09
   50.46000      1.2212341E-09
   50.52000      1.1633833E-09
   50.58000      1.1187004E-09
   50.64000      1.0831214E-09
   50.70000      1.0510894E-09
   50.76000      1.0178063E-09
   50.82000      9.8162078E-10
   50.88000      9.4562591E-10
   50.94000      9.1769797E-10
   51.00000      9.0877500E-10
   51.06000      9.2990737E-10
   51.12000      9.8911790E-10
   51.18000      1.0891700E-09
   51.24000      1.2269677E-09
   51.30000      1.3947200E-09
   51.36000      1.5824614E-09
   51.42000      1.7811923E-09
   51.48000      1.9857762E-09
   51.54000      2.1967907E-09
   51.60000      2.4207498E-09
   51.66000      2.6685290E-09
   51.72000      2.9524172E-09
   51.78000      3.2827963E-09
   51.84000      3.6657382E-09
   51.90000      4.1025463E-09
   51.96000      4.5914876E-09
   52.02000      5.1309863E-09
   52.08000      5.7228817E-09
   52.14000      6.3743721E-09
   52.20000      7.0979596E-09
   52.26000      7.9096552E-09
   52.32000      8.8264347E-09
   52.38000      9.8640029E-09
   52.44000      1.1035479E-08
   52.50000      1.2351009E-08
   52.56000      1.3817958E-08
   52.62000      1.5441396E-08
   52.68000      1.7224872E-08
   52.74000      1.9171647E-08
   52.80000      2.1286313E-08
   52.86000      2.3576392E-08
   52.92000      2.6053042E-08
   52.98000      2.8730224E-08
   53.04000      3.1622157E-08
   53.10000      3.4739809E-08
   53.16000      3.8087610E-08
   53.22000      4.1661611E-08
   53.28000      4.5449728E-08
   53.34000      4.9433769E-08
   53.40000      5.3592377E-08
   53.46000      5.7903605E-08
   53.52000      6.2346231E-08
   53.58000      6.6899290E-08
   53.64000      7.1539908E-08
   53.70000      7.6240028E-08
   53.76000      8.0962842E-08
   53.82000      8.5660041E-08
   53.88000      9.0270660E-08
   53.94000      9.4721898E-08
   54.00000      9.8931594E-08
   54.06000      1.0281148E-07
   54.12000      1.0626984E-07
   54.18000      1.0921270E-07
   54.24000      1.1154332E-07
   54.30000      1.1316059E-07
   54.36000      1.1395746E-07
   54.42000      1.1382019E-07
   54.48000      1.1262887E-07
   54.54000      1.1025833E-07
   54.60000      1.0657935E-07
   54.66000      1.0145916E-07
   54.72000      9.4762036E-08
   54.78000      8.6350532E-08
   54.84000      7.6088021E-08
   54.90000      6.3842620E-08
   54.96000      4.9491337E-08
   55.02000      3.2923285E-08
   55.08000      1.4040761E-08
   55.14000     -7.2414603E-09
   55.20000     -3.0997590E-08
   55.26000     -5.7291270E-08
   55.32000     -8.6173806E-08
   55.38000     -1.1768005E-07
   55.44000     -1.5182310E-07
   55.50000     -1.8858978E-07
   55.56000     -2.2793789E-07