  -2.400000      0.0000000E+00
  -2.340000      0.0000000E+00
  -2.280000      0.0000000E+00
  -2.220000      0.0000000E+00
  -2.160000     -6.3693243E-19
  -2.100000     -4.3658857E-18
  -2.040000     -1.5264770E-17
  -1.980000     -3.4719156E-17
  -1.920000     -5.2542297E-17
  -1.860000     -3.8526241E-17
  -1.800000      5.5217972E-17
  -1.740000      2.7084281E-16
  -1.680000      5.9957418E-16
  -1.620000      9.3196134E-16
  -1.560000      1.0385868E-15
  -1.500000      6.2063062E-16
  -1.440000     -5.5101219E-16
  -1.380000     -2.4366044E-15
  -1.320000     -4.5556286E-15
  -1.260000     -5.9680311E-15
  -1.200000     -5.5164435E-15
  -1.140000     -2.3391281E-15
  -1.080000      3.4992180E-15
  -1.020000      1.0571480E-14
 -0.9600000      1.6210576E-14
 -0.9000000      1.7400259E-14
 -0.8400000      1.2273854E-14
 -0.7800000      1.6032270E-15
 -0.7200000     -1.0626843E-14
 -0.6600000     -1.8306855E-14
 -0.6000000     -1.5996512E-14
 -0.5400000     -2.4318879E-15
 -0.4800000      1.7081277E-14
 -0.4200000      3.1231104E-14
 -0.3600000      2.6946837E-14
 -0.3000000     -3.8801089E-15
 -0.2400000     -5.8223364E-14
 -0.1800000     -1.1984828E-13
 -0.1200000     -1.6346374E-13
 -5.9999999E-02 -1.6423072E-13
  0.0000000E+00 -1.0866344E-13
  5.9999999E-02 -1.6103907E-15
  0.1200000      1.3447343E-13
  0.1800000      2.6783586E-13
  0.2400000      3.6895630E-13
  0.3000000      4.1898952E-13
  0.3600000      4.1070077E-13
  0.4200000      3.4243230E-13
  0.4800000      2.1079410E-13
  0.5400000      9.5962539E-15
  0.6000000     -2.6085717E-13
  0.6600000     -5.7738249E-13
  0.7200000     -8.8093497E-13
  0.7800000     -1.0796866E-12
  0.8400000     -1.0751813E-12
  0.9000000     -8.0666214E-13
  0.9600000     -2.9605474E-13
   1.020000      3.3015631E-13
   1.080000      8.6098435E-13
   1.140000      1.0659892E-12
   1.200000      7.8778553E-13
   1.260000      2.8230998E-14
   1.320000     -1.0091661E-12
   1.380000     -1.9460230E-12
   1.440000     -2.3263006E-12
   1.500000     -1.7583219E-12
   1.560000     -5.7432954E-14
   1.620000      2.6568567E-12
   1.680000      5.9395865E-12
   1.740000      9.0778279E-12
   1.800000      1.1202454E-11
   1.860000      1.1413885E-11
   1.920000      8.8839023E-12
   1.980000      2.9140078E-12
   2.040000     -7.0441634E-12
   2.100000     -2.1382302E-11
   2.160000     -4.0315470E-11
   2.220000     -6.3834847E-11
   2.280000     -9.1641111E-11
   2.340000     -1.2308429E-10
   2.400000     -1.5713980E-10
   2.460000     -1.9243844E-10
   2.520000     -2.2734793E-10
   2.580000     -2.6008531E-10
   2.640000     -2.8883476E-10
   2.700000     -3.1185182E-10
   2.760000     -3.2754874E-10
   2.820000     -3.3456479E-10
   2.880000     -3.3182557E-10
   2.940000     -3.1858688E-10
   3.000000     -2.9445182E-10
   3.060000     -2.5934849E-10
   3.120000     -2.1346644E-10
   3.180000     -1.5716244E-10
   3.240000     -9.0853922E-11
   3.300000     -1.4917638E-11
   3.360000      7.0398569E-11
   3.420000      1.6504953E-10
   3.480000      2.6924749E-10
   3.540000      3.8347964E-10
   3.600000      5.0845728E-10
   3.660000      6.4496619E-10
   3.720000      7.9361340E-10
   3.780000      9.5450603E-10
   3.840000      1.1269448E-09
   3.900000      1.3092315E-09
   3.960000      1.4986745E-09
   4.020000      1.6918247E-09
   4.080000      1.8849051E-09
   4.140000      2.0743398E-09
   4.200000      2.2572544E-09
   4.260000      2.4318347E-09
   4.320000      2.5974605E-09
   4.380000      2.7545843E-09
   4.440000      2.9043836E-09
   4.500000      3.0482579E-09
   4.560000      3.1872744E-09
   4.620000      3.3216838E-09
   4.680000      3.4506120E-09
   4.740000      3.5720016E-09
   4.800000      3.6828172E-09
   4.860000      3.7794630E-09
   4.920000      3.8583226E-09
   4.980000      3.9163108E-09
   5.040000      3.9513544E-09
   5.100000      3.9627421E-09
   5.160000      3.9513330E-09
   5.220000      3.9196077E-09
   5.280000      3.8715444E-09
   5.340000      3.8123003E-09
   5.400000      3.7476893E-09
   5.460000      3.6835246E-09
   5.520000      3.6249270E-09
   5.580000      3.5757954E-09
   5.640000      3.5385781E-09
   5.700000      3.5144110E-09
   5.760000      3.5035361E-09
   5.820000      3.5057923E-09
   5.880000      3.5209313E-09
   5.940000      3.5486050E-09
   6.000000      3.5880314E-09
   6.060000      3.6375547E-09
   6.120000      3.6943906E-09
   6.180000      3.7548116E-09
   6.240000      3.8148142E-09
   6.300000      3.8710706E-09
   6.360000      3.9217931E-09
   6.420000      3.9671186E-09
   6.480000      4.0088115E-09
   6.540000      4.0493497E-09
   6.600000      4.0907215E-09
   6.660000      4.1333825E-09
   6.720000      4.1757322E-09
   6.780000      4.2142627E-09
   6.840000      4.2442672E-09
   6.900000      4.2608335E-09
   6.960000      4.2597961E-09
   7.020000      4.2384256E-09
   7.080000      4.1957491E-09
   7.140000      4.1325166E-09
   7.200000      4.0508743E-09
   7.260000      3.9538008E-09
   7.320000      3.8443719E-09
   7.380000      3.7249657E-09
   7.440000      3.5965735E-09
   7.500000      3.4584362E-09
   7.560000      3.3081831E-09
   7.620000      3.1425225E-09
   7.680000      2.9583334E-09
   7.740000      2.7538531E-09
   7.800000      2.5295712E-09
   7.860000      2.2885287E-09
   7.920000      2.0359061E-09
   7.980000      1.7780154E-09
   8.040000      1.5210032E-09
   8.100000      1.2696404E-09
   8.160000      1.0265324E-09
   8.220000      7.9193696E-10
   8.280000      5.6419286E-10
   8.340000      3.4059372E-10
   8.400000      1.1843250E-10
   8.460000     -1.0408601E-10
   8.520000     -3.2731218E-10
   8.580000     -5.5012495E-10
   8.640000     -7.7039142E-10
   8.700000     -9.8575503E-10
   8.760000     -1.1945097E-09
   8.820000     -1.3962971E-09
   8.880000     -1.5924178E-09
   8.940000     -1.7856450E-09
   9.000000     -1.9795598E-09
   9.060000     -2.1775586E-09
   9.120000     -2.3817932E-09
   9.180000     -2.5923652E-09
   9.240000     -2.8070561E-09
   9.300000     -3.0217515E-09
   9.360000     -3.2314771E-09
   9.420000     -3.4317393E-09
   9.480000     -3.6197059E-09
   9.540000     -3.7947894E-09
   9.600000     -3.9584278E-09
   9.660000     -4.1131827E-09
   9.720000     -4.2615591E-09
   9.780000     -4.4050452E-09
   9.840000     -4.5437170E-09
   9.900000     -4.6764290E-09
   9.960000     -4.8013273E-09
   10.02000     -4.9163056E-09
   10.08000     -5.0191473E-09
   10.14000     -5.1073741E-09
   10.20000     -5.1780584E-09
   10.26000     -5.2278852E-09
   10.32000     -5.2535811E-09
   10.38000     -5.2525544E-09
   10.44000     -5.2234177E-09
   10.50000     -5.1661222E-09
   10.56000     -5.0816702E-09
   10.62000     -4.9716524E-09
   10.68000     -4.8379492E-09
   10.74000     -4.6828008E-09
   10.80000     -4.5091495E-09
   10.86000     -4.3209001E-09
   10.92000     -4.1227408E-09
   10.98000     -3.9194270E-09
   11.04000     -3.7147765E-09
   11.10000     -3.5109018E-09
   11.16000     -3.3081173E-09
   11.22000     -3.1056320E-09
   11.28000     -2.9026939E-09
   11.34000     -2.6995985E-09
   11.40000     -2.4980416E-09
   11.46000     -2.3006588E-09
   11.52000     -2.1100375E-09
   11.58000     -1.9277553E-09
   11.64000     -1.7539619E-09
   11.70000     -1.5877119E-09
   11.76000     -1.4278702E-09
   11.82000     -1.2741489E-09
   11.88000     -1.1278076E-09
   11.94000     -9.9172492E-10
   12.00000     -8.6982671E-10
   12.06000     -7.6608669E-10
   12.12000     -6.8344258E-10
   12.18000     -6.2297822E-10
   12.24000     -5.8363497E-10
   12.30000     -5.6255500E-10
   12.36000     -5.5596111E-10
   12.42000     -5.6027211E-10
   12.48000     -5.7303340E-10
   12.54000     -5.9327870E-10
   12.60000     -6.2115757E-10
   12.66000     -6.5699318E-10
   12.72000     -7.0022005E-10
   12.78000     -7.4872519E-10
   12.84000     -7.9893175E-10
   12.90000     -8.4659157E-10
   12.96000     -8.8790242E-10
   13.02000     -9.2041963E-10
   13.08000     -9.4336849E-10
   13.14000     -9.5728792E-10
   13.20000     -9.6326069E-10
   13.26000     -9.6213082E-10
   13.32000     -9.5403174E-10
   13.38000     -9.3833208E-10
   13.44000     -9.1389618E-10
   13.50000     -8.7947716E-10
   13.56000     -8.3408941E-10
   13.62000     -7.7729229E-10
   13.68000     -7.0935668E-10
   13.74000     -6.3127381E-10
   13.80000     -5.4455734E-10
   13.86000     -4.5084633E-10
   13.92000     -3.5144435E-10
   13.98000     -2.4704241E-10
   14.04000     -1.3785897E-10
   14.10000     -2.4247167E-11
   14.16000      9.2458825E-11
   14.22000      2.0929172E-10
   14.28000      3.2160904E-10
   14.34000      4.2381304E-10
   14.40000      5.1060789E-10
   14.46000      5.7829519E-10
   14.52000      6.2559208E-10
   14.58000      6.5370470E-10
   14.64000      6.6574413E-10
   14.70000      6.6582501E-10
   14.76000      6.5822447E-10
   14.82000      6.4681382E-10
   14.88000      6.3476940E-10
   14.94000      6.2445571E-10
   15.00000      6.1740657E-10
   15.06000      6.1442612E-10
   15.12000      6.1586841E-10
   15.18000      6.2206768E-10
   15.24000      6.3373334E-10
   15.30000      6.5203465E-10
   15.36000      6.7819123E-10
   15.42000      7.1264405E-10
   15.48000      7.5416762E-10
   15.54000      7.9940987E-10
   15.60000      8.4320739E-10
   15.66000      8.7967339E-10
   15.72000      9.0368302E-10
   15.78000      9.1219710E-10
   15.84000      9.0495716E-10
   15.90000      8.8439850E-10
   15.96000      8.5496438E-10
   16.02000      8.2219748E-10
   16.08000      7.9194190E-10
   16.14000      7.6979473E-10
   16.20000      7.6073320E-10
   16.26000      7.6875706E-10
   16.32000      7.9644730E-10
   16.38000      8.4449980E-10
   16.44000      9.1141439E-10
   16.50000      9.9353836E-10
   16.56000      1.0855522E-09
   16.62000      1.1813230E-09
   16.68000      1.2749137E-09
   16.74000      1.3614906E-09
   16.80000      1.4379318E-09
   16.86000      1.5030545E-09
   16.92000      1.5575033E-09
   16.98000      1.6034208E-09
   17.04000      1.6440279E-09
   17.10000      1.6831986E-09
   17.16000      1.7250436E-09
   17.22000      1.7734636E-09
   17.28000      1.8316375E-09
   17.34000      1.9014696E-09
   17.40000      1.9831108E-09
   17.46000      2.0747337E-09
   17.52000      2.1727320E-09
   17.58000      2.2724036E-09
   17.64000      2.3689979E-09
   17.70000      2.4588411E-09
   17.76000      2.5401712E-09
   17.82000      2.6133824E-09
   17.88000      2.6805802E-09
   17.94000      2.7445934E-09
   18.00000      2.8078027E-09
   18.06000      2.8712119E-09
   18.12000      2.9340979E-09
   18.18000      2.9943525E-09
   18.24000      3.0493734E-09
   18.30000      3.0971485E-09
   18.36000      3.1371095E-09
   18.42000      3.1704162E-09
   18.48000      3.1995497E-09
   18.54000      3.2273533E-09
   18.60000      3.2558696E-09
   18.66000      3.2854117E-09
   18.72000      3.3141951E-09
   18.78000      3.3386667E-09
   18.84000      3.3543801E-09
   18.90000      3.3570910E-09
   18.96000      3.3436740E-09
   19.02000      3.3125609E-09
   19.08000      3.2636061E-09
   19.14000      3.1974943E-09
   19.20000      3.1149836E-09
   19.26000      3.0163099E-09
   19.32000      2.9010234E-09
   19.38000      2.7683464E-09
   19.44000      2.6179527E-09
   19.50000      2.4508675E-09
   19.56000      2.2701099E-09
   19.62000      2.0807358E-09
   19.68000      1.8891178E-09
   19.74000      1.7015833E-09
   19.80000      1.5227977E-09
   19.86000      1.3544260E-09
   19.92000      1.1945643E-09
   19.98000      1.0381889E-09
   20.04000      8.7852026E-10
   20.10000      7.0888478E-10
   20.16000      5.2447652E-10
   20.22000      3.2346728E-10
   20.28000      1.0712789E-10
   20.34000     -1.2104387E-10
   20.40000     -3.5687658E-10
   20.46000     -5.9722283E-10
   20.52000     -8.4120999E-10
   20.58000     -1.0905880E-09
   20.64000     -1.3490211E-09
   20.70000     -1.6205595E-09
   20.76000     -1.9078488E-09
   20.82000     -2.2107793E-09
   20.88000     -2.5261129E-09
   20.94000     -2.8482361E-09
   21.00000     -3.1707139E-09
   21.06000     -3.4879828E-09
   21.12000     -3.7965022E-09
   21.18000     -4.0949839E-09
   21.24000     -4.3837489E-09
   21.30000     -4.6636495E-09
   21.36000     -4.9350777E-09
   21.42000     -5.1974247E-09
   21.48000     -5.4490359E-09
   21.54000     -5.6874798E-09
   21.60000     -5.9098895E-09
   21.66000     -6.1132432E-09
   21.72000     -6.2946222E-09
   21.78000     -6.4515082E-09
   21.84000     -6.5821424E-09
   21.90000     -6.6858146E-09
   21.96000     -6.7629591E-09
   22.02000     -6.8149784E-09
   22.08000     -6.8439117E-09
   22.14000     -6.8521482E-09
   22.20000     -6.8423387E-09
   22.26000     -6.8175074E-09
   22.32000     -6.7811761E-09
   22.38000     -6.7372952E-09
   22.44000     -6.6898744E-09
   22.50000     -6.6423955E-09
   22.56000     -6.5971926E-09
   22.62000     -6.5549473E-09
   22.68000     -6.5143220E-09
   22.74000     -6.4716814E-09
   22.80000     -6.4209189E-09
   22.86000     -6.3535754E-09
   22.92000     -6.2595391E-09
   22.98000     -6.1285239E-09
   23.04000     -5.9521530E-09
   23.10000     -5.7260974E-09
   23.16000     -5.4514984E-09
   23.22000     -5.1350995E-09
   23.28000     -4.7880064E-09
   23.34000     -4.4235291E-09
   23.40000     -4.0548538E-09
   23.46000     -3.6932108E-09
   23.52000     -3.3468217E-09
   23.58000     -3.0205658E-09
   23.64000     -2.7161509E-09
   23.70000     -2.4326610E-09
   23.76000     -2.1674742E-09
   23.82000     -1.9175119E-09
   23.88000     -1.6805487E-09
   23.94000     -1.4560626E-09
   24.00000     -1.2451289E-09
   24.06000     -1.0492490E-09
   24.12000     -8.6862462E-10
   24.18000     -7.0082734E-10
   24.24000     -5.4074978E-10
   24.30000     -3.8210457E-10
   24.36000     -2.1989166E-10
   24.42000     -5.2684676E-11
   24.48000      1.1635072E-10
   24.54000      2.8014205E-10
   24.60000      4.2969284E-10
   24.66000      5.5642685E-10
   24.72000      6.5400146E-10
   24.78000      7.1919071E-10
   24.84000      7.5198392E-10
   24.90000      7.5528189E-10
   24.96000      7.3442574E-10
   25.02000      6.9649653E-10
   25.08000      6.4921646E-10
   25.14000      5.9950761E-10
   25.20000      5.5215787E-10
   25.26000      5.0925120E-10
   25.32000      4.7077908E-10
   25.38000      4.3623830E-10
   25.44000      4.0640180E-10
   25.50000      3.8427161E-10
   25.56000      3.7464279E-10
   25.62000      3.8250389E-10
   25.68000      4.1117199E-10
   25.74000      4.6118506E-10
   25.80000      5.3048033E-10
   25.86000      6.1560235E-10
   25.92000      7.1311762E-10
   25.98000      8.2039558E-10
   26.04000      9.3542263E-10
   26.10000      1.0559736E-09
   26.16000      1.1788407E-09
   26.22000      1.2997080E-09
   26.28000      1.4137836E-09
   26.34000      1.5167968E-09
   26.40000      1.6057684E-09
   26.46000      1.6791466E-09
   26.52000      1.7363153E-09
   26.58000      1.7768583E-09
   26.64000      1.8000793E-09
   26.70000      1.8051282E-09
   26.76000      1.7917607E-09
   26.82000      1.7614356E-09
   26.88000      1.7182437E-09
   26.94000      1.6691366E-09
   27.00000      1.6230743E-09
   27.06000      1.5890649E-09
   27.12000      1.5735393E-09
   27.18000      1.5779381E-09
   27.24000      1.5975562E-09
   27.30000      1.6224129E-09
   27.36000      1.6401801E-09
   27.42000      1.6402945E-09
   27.48000      1.6177266E-09
   27.54000      1.5748820E-09
   27.60000      1.5208230E-09
   27.66000      1.4681415E-09
   27.72000      1.4288100E-09
   27.78000      1.4107056E-09
   27.84000      1.4160765E-09
   27.90000      1.4422585E-09
   27.96000      1.4839786E-09
   28.02000      1.5360376E-09
   28.08000      1.5952507E-09
   28.14000      1.6610427E-09
   28.20000      1.7347314E-09
   28.26000      1.8179732E-09
   28.32000      1.9110014E-09
   28.38000      2.0112418E-09
   28.44000      2.1127551E-09
   28.50000      2.2067841E-09
   28.56000      2.2834366E-09
   28.62000      2.3341729E-09
   28.68000      2.3543902E-09
   28.74000      2.3451761E-09
   28.80000      2.3134485E-09
   28.86000      2.2702618E-09
   28.92000      2.2277864E-09
   28.98000      2.1960809E-09
   29.04000      2.1808511E-09
   29.10000      2.1829496E-09
   29.16000      2.1995687E-09
   29.22000      2.2263436E-09
   29.28000      2.2592921E-09
   29.34000      2.2957689E-09
   29.40000      2.3342246E-09
   29.46000      2.3732125E-09
   29.52000      2.4104085E-09
   29.58000      2.4423068E-09
   29.64000      2.4648186E-09
   29.70000      2.4744871E-09
   29.76000      2.4697164E-09
   29.82000      2.4514084E-09
   29.88000      2.4226932E-09
   29.94000      2.3878615E-09
   30.00000      2.3509574E-09
   30.06000      2.3146325E-09
   30.12000      2.2797335E-09
   30.18000      2.2457716E-09
   30.24000      2.2120228E-09
   30.30000      2.1787177E-09
   30.36000      2.1477227E-09
   30.42000      2.1223132E-09
   30.48000      2.1060338E-09
   30.54000      2.1010580E-09
   30.60000      2.1067212E-09
   30.66000      2.1188957E-09
   30.72000      2.1305848E-09
   30.78000      2.1336546E-09
   30.84000      2.1211584E-09
   30.90000      2.0894502E-09
   30.96000      2.0392923E-09
   31.02000      1.9754978E-09
   31.08000      1.9051469E-09
   31.14000      1.8349450E-09
   31.20000      1.7686285E-09
   31.26000      1.7053392E-09
   31.32000      1.6395579E-09
   31.38000      1.5626429E-09
   31.44000      1.4654412E-09
   31.50000      1.3410900E-09
   31.56000      1.1871019E-09
   31.62000      1.0061415E-09
   31.68000      8.0537210E-10
   31.74000      5.9469363E-10
   31.80000      3.8444023E-10
   31.86000      1.8314671E-10
   31.92000     -4.1253277E-12
   31.98000     -1.7657041E-10
   32.04000     -3.3737194E-10
   32.10000     -4.9242210E-10
   32.16000     -6.4832284E-10
   32.22000     -8.1023849E-10
   32.28000     -9.8033992E-10
   32.34000     -1.1574879E-09
   32.40000     -1.3383789E-09
   32.46000     -1.5197514E-09
   32.52000     -1.7006989E-09
   32.58000     -1.8839690E-09
   32.64000     -2.0754958E-09
   32.70000     -2.2821856E-09
   32.76000     -2.5087952E-09
   32.82000     -2.7552056E-09
   32.88000     -3.0152778E-09
   32.94000     -3.2778358E-09
   33.00000     -3.5294634E-09
   33.06000     -3.7581143E-09
   33.12000     -3.9562993E-09
   33.18000     -4.1228416E-09
   33.24000     -4.2627351E-09
   33.30000     -4.3852788E-09
   33.36000     -4.5011324E-09
   33.42000     -4.6192068E-09
   33.48000     -4.7442943E-09
   33.54000     -4.8760889E-09
   33.60000     -5.0098250E-09
   33.66000     -5.1382263E-09
   33.72000     -5.2540265E-09
   33.78000     -5.3521152E-09
   33.84000     -5.4305258E-09
   33.90000     -5.4899987E-09
   33.96000     -5.5324629E-09
   34.02000     -5.5592544E-09
   34.08000     -5.5699574E-09
   34.14000     -5.5624221E-09
   34.20000     -5.5339147E-09
   34.26000     -5.4828333E-09
   34.32000     -5.4101750E-09
   34.38000     -5.3200977E-09
   34.44000     -5.2193125E-09
   34.50000     -5.1155054E-09
   34.56000     -5.0153033E-09
   34.62000     -4.9224149E-09
   34.68000     -4.8364770E-09
   34.74000     -4.7529509E-09
   34.80000     -4.6641437E-09
   34.86000     -4.5611412E-09
   34.92000     -4.4361657E-09
   34.98000     -4.2846731E-09
   35.04000     -4.1065289E-09
   35.10000     -3.9058565E-09
   35.16000     -3.6896195E-09
   35.22000     -3.4655006E-09
   35.28000     -3.2398915E-09
   35.34000     -3.0167480E-09
   35.40000     -2.7976095E-09
   35.46000     -2.5825380E-09
   35.52000     -2.3713176E-09
   35.58000     -2.1642121E-09
   35.64000     -1.9618929E-09
   35.70000     -1.7646433E-09
   35.76000     -1.5713492E-09
   35.82000     -1.3788819E-09
   35.88000     -1.1822827E-09
   35.94000     -9.7575903E-10
   36.00000     -7.5416051E-10
   36.06000     -5.1443405E-10
   36.12000     -2.5661515E-10
   36.18000      1.5899221E-11
   36.24000      2.9684025E-10
   36.30000      5.7820404E-10
   36.36000      8.5181223E-10
   36.42000      1.1109883E-09
   36.48000      1.3519649E-09
   36.54000      1.5746214E-09
   36.60000      1.7822521E-09
   36.66000      1.9803150E-09
   36.72000      2.1744573E-09
   36.78000      2.3683961E-09
   36.84000      2.5623423E-09
   36.90000      2.7524747E-09
   36.96000      2.9316130E-09
   37.02000      3.0908220E-09
   37.08000      3.2214085E-09
   37.14000      3.3167178E-09
   37.20000      3.3733143E-09
   37.26000      3.3913545E-09
   37.32000      3.3741951E-09
   37.38000      3.3273979E-09
   37.44000      3.2573706E-09
   37.50000      3.1699439E-09
   37.56000      3.0692264E-09
   37.62000      2.9570959E-09
   37.68000      2.8335212E-09
   37.74000      2.6976508E-09
   37.80000      2.5492364E-09
   37.86000      2.3897722E-09
   37.92000      2.2227835E-09
   37.98000      2.0530673E-09
   38.04000      1.8851869E-09
   38.10000      1.7218942E-09
   38.16000      1.5631983E-09
   38.22000      1.4064686E-09
   38.28000      1.2474690E-09
   38.34000      1.0818133E-09
   38.40000      9.0621810E-10
   38.46000      7.1914863E-10
   38.52000      5.2079990E-10
   38.58000      3.1264041E-10
   38.64000      9.6818935E-11
   38.70000     -1.2436682E-10
   38.76000     -3.4888023E-10
   38.82000     -5.7522820E-10
   38.88000     -8.0256601E-10
   38.94000     -1.0305284E-09
   39.00000     -1.2587515E-09
   39.06000     -1.4862158E-09
   39.12000     -1.7107081E-09
   39.18000     -1.9287103E-09
   39.24000     -2.1358262E-09
   39.30000     -2.3275708E-09
   39.36000     -2.5001443E-09
   39.42000     -2.6508795E-09
   39.48000     -2.7783194E-09
   39.54000     -2.8821636E-09
   39.60000     -2.9633755E-09
   39.66000     -3.0244938E-09
   39.72000     -3.0698279E-09
   39.78000     -3.1050298E-09
   39.84000     -3.1357545E-09
   39.90000     -3.1657028E-09
   39.96000     -3.1949006E-09
   40.02000     -3.2192391E-09
   40.08000     -3.2318297E-09
   40.14000     -3.2258500E-09
   40.20000     -3.1977134E-09
   40.26000     -3.1491167E-09
   40.32000     -3.0869851E-09
   40.38000     -3.0212954E-09
   40.44000     -2.9617260E-09
   40.50000     -2.9145244E-09
   40.56000     -2.8807630E-09
   40.62000     -2.8564424E-09
   40.68000     -2.8341431E-09
   40.74000     -2.8054421E-09
   40.80000     -2.7632532E-09
   40.86000     -2.7034566E-09
   40.92000     -2.6255003E-09
   40.98000     -2.5319271E-09
   41.04000     -2.4270266E-09
   41.10000     -2.3150455E-09
   41.16000     -2.1985842E-09
   41.22000     -2.0778144E-09
   41.28000     -1.9508699E-09
   41.34000     -1.8152426E-09
   41.40000     -1.6694912E-09
   41.46000     -1.5143751E-09
   41.52000     -1.3528074E-09
   41.58000     -1.1886595E-09
   41.64000     -1.0250781E-09
   41.70000     -8.6320828E-10
   41.76000     -7.0192896E-10
   41.82000     -5.3860549E-10
   41.88000     -3.7034620E-10
   41.94000     -1.9512295E-10
   42.00000     -1.2386558E-11
   42.06000      1.7678811E-10
   42.12000      3.6979159E-10
   42.18000      5.6267829E-10
   42.24000      7.5059631E-10
   42.30000      9.2864483E-10
   42.36000      1.0930941E-09
   42.42000      1.2424629E-09
   42.48000      1.3777168E-09
   42.54000      1.5011378E-09
   42.60000      1.6141704E-09
   42.66000      1.7153227E-09
   42.72000      1.7994205E-09
   42.78000      1.8589207E-09
   42.84000      1.8868413E-09
   42.90000      1.8798576E-09
   42.96000      1.8398975E-09
   43.02000      1.7733408E-09
   43.08000      1.6882337E-09
   43.14000      1.5909883E-09
   43.20000      1.4842056E-09
   43.26000      1.3664887E-09
   43.32000      1.2339478E-09
   43.38000      1.0822826E-09
   43.44000      9.0830055E-10
   43.50000      7.1040362E-10
   43.56000      4.8834642E-10
   43.62000      2.4292499E-10
   43.68000     -2.4005643E-11
   43.74000     -3.0932590E-10
   43.80000     -6.0872291E-10
   43.86000     -9.1732794E-10
   43.92000     -1.2306903E-09
   43.98000     -1.5454662E-09
   44.04000     -1.8593040E-09
   44.10000     -2.1700004E-09
   44.16000     -2.4746174E-09
   44.22000     -2.7694063E-09
   44.28000     -3.0508662E-09
   44.34000     -3.3174072E-09
   44.40000     -3.5705274E-09
   44.46000     -3.8145620E-09
   44.52000     -4.0549226E-09
   44.58000     -4.2956936E-09
   44.64000     -4.5378847E-09
   44.70000     -4.7791966E-09
   44.76000     -5.0152127E-09
   44.82000     -5.2410822E-09
   44.88000     -5.4526526E-09
   44.94000     -5.6466063E-09
   45.00000     -5.8200338E-09
   45.06000     -5.9702656E-09
   45.12000     -6.0954863E-09
   45.18000     -6.1958176E-09
   45.24000     -6.2739498E-09
   45.30000     -6.3344796E-09
   45.36000     -6.3819403E-09
   45.42000     -6.4184928E-09
   45.48000     -6.4426482E-09
   45.54000     -6.4498868E-09
   45.60000     -6.4348846E-09
   45.66000     -6.3940622E-09
   45.72000     -6.3269829E-09
   45.78000     -6.2358652E-09
   45.84000     -6.1236656E-09
   45.90000     -5.9919971E-09
   45.96000     -5.8400533E-09
   46.02000     -5.6649534E-09
   46.08000     -5.4629843E-09
   46.14000     -5.2308513E-09
   46.20000     -4.9663877E-09
   46.26000     -4.6688484E-09
   46.32000     -4.3393014E-09
   46.38000     -3.9814090E-09
   46.44000     -3.6022108E-09
   46.50000     -3.2120633E-09
   46.56000     -2.8230416E-09
   46.62000     -2.4460236E-09
   46.68000     -2.0876509E-09
   46.74000     -1.7487435E-09
   46.80000     -1.4251186E-09
   46.86000     -1.1104859E-09
   46.92000     -7.9991680E-10
   46.98000     -4.9211124E-10
   47.04000     -1.8944984E-10
   47.10000      1.0387117E-10
   47.16000      3.8432199E-10
   47.22000      6.5072253E-10
   47.28000      9.0444147E-10
   47.34000      1.1484044E-09
   47.40000      1.3857570E-09
   47.46000      1.6188856E-09
   47.52000      1.8489360E-09
   47.58000      2.0755482E-09
   47.64000      2.2965931E-09
   47.70000      2.5081326E-09
   47.76000      2.7051268E-09
   47.82000      2.8831733E-09
   47.88000      3.0407983E-09
   47.94000      3.1811032E-09
   48.00000      3.3114855E-09
   48.06000      3.4410124E-09
   48.12000      3.5763492E-09
   48.18000      3.7181671E-09
   48.24000      3.8599066E-09
   48.30000      3.9896406E-09
   48.36000      4.0941761E-09
   48.42000      4.1634314E-09
   48.48000      4.1931347E-09
   48.54000      4.1849475E-09
   48.60000      4.1444967E-09
   48.66000      4.0786725E-09
   48.72000      3.9935069E-09
   48.78000      3.8932160E-09
   48.84000      3.7801917E-09
   48.90000      3.6553787E-09
   48.96000      3.5186942E-09
   49.02000      3.3695258E-09
   49.08000      3.2075025E-09
   49.14000      3.0334768E-09
   49.20000      2.8502474E-09
   49.26000      2.6624221E-09
   49.32000      2.4751972E-09
   49.38000      2.2925073E-09
   49.44000      2.1155231E-09
   49.50000      1.9424085E-09
   49.56000      1.7695769E-09
   49.62000      1.5938311E-09
   49.68000      1.4142840E-09
   49.74000      1.2331388E-09
   49.80000      1.0551039E-09
   49.86000      8.8593949E-10
   49.92000      7.3092959E-10
   49.98000      5.9383937E-10
   50.04000      4.7643928E-10
   50.10000      3.7835801E-10
   50.16000      2.9707928E-10
   50.22000      2.2817782E-10
   50.28000      1.6606201E-10
   50.34000      1.0530962E-10
   50.40000      4.2243369E-11
   50.46000     -2.3951622E-11
   50.52000     -9.1183915E-11
   50.58000     -1.5556340E-10
   50.64000     -2.1308214E-10
   50.70000     -2.6097621E-10
   50.76000     -2.9813904E-10
   50.82000     -3.2461581E-10
   50.88000     -3.4078332E-10
   50.94000     -3.4690717E-10
   51.00000     -3.4331740E-10
   51.06000     -3.3082595E-10
   51.12000     -3.1072470E-10
   51.18000     -2.8399066E-10
   51.24000     -2.4998847E-10
   51.30000     -2.0548982E-10
   51.36000     -1.4479890E-10
   51.42000     -6.1150487E-11
   51.48000      5.1255250E-11
   51.54000      1.9565059E-10
   51.60000      3.7236200E-10
   51.66000      5.7982913E-10
   51.72000      8.1633156E-10
   51.78000      1.0814994E-09
   51.84000      1.3769843E-09
   51.90000      1.7062551E-09
   51.96000      2.0739188E-09
   52.02000      2.4849842E-09
   52.08000      2.9442118E-09
   52.14000      3.4554446E-09
   52.20000      4.0208721E-09
   52.26000      4.6404853E-09
   52.32000      5.3122324E-09
   52.38000      6.0332503E-09
   52.44000      6.8020136E-09
   52.50000      7.6206330E-09
   52.56000      8.4962677E-09
   52.62000      9.4409449E-09
   52.68000      1.0469873E-08
   52.74000      1.1599001E-08
   52.80000      1.2842831E-08
   52.86000      1.4213217E-08
   52.92000      1.5719303E-08
   52.98000      1.7368336E-08
   53.04000      1.9167086E-08
   53.10000      2.1123590E-08
   53.16000      2.3249020E-08
   53.22000      2.5559070E-08
   53.28000      2.8074048E-08
   53.34000      3.0816935E-08
   53.40000      3.3809446E-08
   53.46000      3.7067444E-08
   53.52000      4.0597655E-08
   53.58000      4.4397545E-08
   53.64000      4.8458777E-08
   53.70000      5.2772606E-08
   53.76000      5.7334564E-08
   53.82000      6.2145816E-08
   53.88000      6.7210401E-08
   53.94000      7.2529602E-08
   54.00000      7.8096136E-08
   54.06000      8.3890413E-08
   54.12000      8.9879926E-08
   54.18000      9.6020969E-08
   54.24000      1.0226111E-07
   54.30000      1.0854107E-07
   54.36000      1.1479563E-07
   54.42000      1.2095403E-07
   54.48000      1.2693995E-07
   54.54000      1.3267123E-07
   54.60000      1.3805843E-07
   54.66000      1.4300241E-07
   54.72000      1.4739170E-07
   54.78000      1.5110101E-07
   54.84000      1.5399209E-07
   54.90000      1.5591702E-07
   54.96000      1.5672214E-07
   55.02000      1.5625079E-07
   55.08000      1.5434375E-07
   55.14000      1.5083761E-07
   55.20000      1.4556309E-07
   55.26000      1.3834547E-07
   55.32000      1.2900726E-07
   55.38000      1.1737281E-07
   55.44000      1.0327239E-07
   55.50000      8.6544723E-08
   55.56000      6.7038002E-08