 -0.750000000       0.00000000    
 -0.689999998       0.00000000    
 -0.629999995       0.00000000    
 -0.569999993       0.00000000    
 -0.509999990      -6.36819005E-19
 -0.449999988      -4.36534766E-18
 -0.389999986      -1.52646306E-17
 -0.330000013      -3.47261439E-17
 -0.270000011      -5.25739619E-17
 -0.209999993      -3.85995528E-17
 -0.150000006       5.51375303E-17
  -9.00000036E-02   2.70923806E-16
  -2.99999993E-02   6.00143913E-16
   2.99999993E-02   9.33305900E-16
   9.00000036E-02   1.04042740E-15
  0.150000006       6.21497508E-16
  0.209999993      -5.53826352E-16
  0.270000011      -2.44562637E-15
  0.330000013      -4.57007563E-15
  0.389999986      -5.98037660E-15
  0.449999988      -5.51190724E-15
  0.509999990      -2.30170467E-15
  0.569999993       3.57343210E-15
  0.629999995       1.06589296E-14
  0.689999998       1.62543895E-14
  0.750000000       1.73264858E-14
  0.810000002       1.20339792E-14
  0.870000005       1.22940077E-15
  0.930000007      -1.09858234E-14
  0.990000010      -1.84067222E-14
   1.04999995      -1.55959111E-14
   1.11000001      -1.44651988E-15
   1.16999996       1.84375728E-14
   1.23000002       3.24120850E-14
   1.28999996       2.72162477E-14
   1.35000002      -5.13537822E-15
   1.40999997      -6.11153855E-14
   1.47000003      -1.23724802E-13
   1.52999997      -1.66934649E-13
   1.59000003      -1.65560721E-13
   1.64999998      -1.06444177E-13
   1.71000004       4.52849140E-15
   1.76999998       1.43420039E-13
   1.83000004       2.77056291E-13
   1.88999999       3.75116117E-13
   1.95000005       4.18974832E-13
   2.00999999       4.02716136E-13
   2.06999993       3.26821659E-13
   2.13000011       1.90327205E-13
   2.19000006      -1.08671091E-14
   2.25000000      -2.75253995E-13
   2.30999994      -5.79721167E-13
   2.36999989      -8.66777895E-13
   2.43000007      -1.04766239E-12
   2.49000001      -1.02830244E-12
   2.54999995      -7.53110573E-13
   2.60999990      -2.48956509E-13
   2.67000008       3.54479602E-13
   2.73000002       8.46580455E-13
   2.78999996       1.00240964E-12
   2.84999990       6.75746948E-13
   2.91000009      -1.16021355E-13
   2.97000003      -1.15299729E-12
   3.02999997      -2.04486428E-12
   3.08999991      -2.33391388E-12
   3.15000010      -1.64132759E-12
   3.21000004       1.89579784E-13
   3.26999998       3.00072597E-12
   3.32999992       6.30743721E-12
   3.39000010       9.36839321E-12
   3.45000005       1.13093380E-11
   3.50999999       1.12561870E-11
   3.56999993       8.43625864E-12
   3.63000011       2.22683005E-12
   3.69000006      -7.84217396E-12
   3.75000000      -2.21033192E-11
   3.80999994      -4.07516694E-11
   3.86999989      -6.38099504E-11
   3.93000007      -9.10622827E-11
   3.99000001      -1.21980578E-10
   4.05000019      -1.55675306E-10
   4.11000013      -1.90893579E-10
   4.17000008      -2.26069816E-10
   4.23000002      -2.59416294E-10
   4.28999996      -2.89034380E-10
   4.34999990      -3.13029769E-10
   4.40999985      -3.29624411E-10
   4.46999979      -3.37262995E-10
   4.53000021      -3.34709538E-10
   4.59000015      -3.21122184E-10
   4.65000010      -2.96088987E-10
   4.71000004      -2.59610416E-10
   4.76999998      -2.12027465E-10
   4.82999992      -1.53908386E-10
   4.88999987      -8.59166835E-11
   4.94999981      -8.68027612E-12
   5.01000023       7.73276651E-11
   5.07000017       1.71892334E-10
   5.13000011       2.75138218E-10
   5.19000006       3.87566035E-10
   5.25000000       5.10010978E-10
   5.30999994       6.43488374E-10
   5.36999989       7.88919097E-10
   5.42999983       9.46771106E-10
   5.48999977       1.11670206E-09
   5.55000019       1.29730937E-09
   5.61000013       1.48608315E-09
   5.67000008       1.67960879E-09
   5.73000002       1.87398941E-09
   5.78999996       2.06539874E-09
   5.84999990       2.25063279E-09
   5.90999985       2.42753062E-09
   5.96999979       2.59516364E-09
   6.03000021       2.75375478E-09
   6.09000015       2.90434632E-09
   6.15000010       3.04829451E-09
   6.21000004       3.18670734E-09
   6.26999998       3.31995254E-09
   6.32999992       3.44734619E-09
   6.38999987       3.56708685E-09
   6.44999981       3.67643760E-09
   6.51000023       3.77209908E-09
   6.57000017       3.85068732E-09
   6.63000011       3.90922494E-09
   6.69000006       3.94557853E-09
   6.75000000       3.95881594E-09
   6.80999994       3.94945987E-09
   6.86999989       3.91962018E-09
   6.92999983       3.87294952E-09
   6.98999977       3.81438570E-09
   7.05000019       3.74964726E-09
   7.11000013       3.68454511E-09
   7.17000008       3.62425134E-09
   7.23000002       3.57272367E-09
   7.28999996       3.53245855E-09
   7.34999990       3.50464724E-09
   7.40999985       3.48963458E-09
   7.46999979       3.48745410E-09
   7.53000021       3.49817664E-09
   7.59000015       3.52188789E-09
   7.65000010       3.55831253E-09
   7.71000004       3.60629593E-09
   7.76999998       3.66345310E-09
   7.82999992       3.72625619E-09
   7.88999987       3.79062737E-09
   7.94999981       3.85285714E-09
   8.01000023       3.91048793E-09
   8.06999969       3.96279054E-09
   8.13000011       4.01059852E-09
   8.18999958       4.05556655E-09
   8.25000000       4.09911571E-09
   8.31000042       4.14148182E-09
   8.36999989       4.18119983E-09
   8.43000031       4.21517266E-09
   8.48999977       4.23925117E-09
   8.55000019       4.24909441E-09
   8.60999966       4.24104130E-09
   8.67000008       4.21278701E-09
   8.72999954       4.16374180E-09
   8.78999996       4.09504874E-09
   8.85000038       4.00926536E-09
   8.90999985       3.90974764E-09
   8.97000027       3.79982001E-09
   9.02999973       3.68187791E-09
   9.09000015       3.55666785E-09
   9.14999962       3.42297768E-09
   9.21000004       3.27791660E-09
   9.27000046       3.11777715E-09
   9.32999992       2.93926061E-09
   9.39000034       2.74070455E-09
   9.44999981       2.52291077E-09
   9.51000023       2.28930364E-09
   9.56999969       2.04536188E-09
   9.63000011       1.79749671E-09
   9.68999958       1.55171620E-09
   9.75000000       1.31245248E-09
   9.81000042       1.08185416E-09
   9.86999989       8.59697424E-10
   9.93000031       6.43887499E-10
   9.98999977       4.31372604E-10
   10.0500002       2.19199464E-10
   10.1099997       5.41714200E-12
   10.1700001      -2.10406553E-10
   10.2299995      -4.27175656E-10
   10.2900000      -6.42739528E-10
   10.3500004      -8.54689208E-10
   10.4099998      -1.06123355E-09
   10.4700003      -1.26189614E-09
   10.5299997      -1.45782819E-09
   10.5900002      -1.65163672E-09
   10.6499996      -1.84675253E-09
   10.7100000      -2.04648476E-09
   10.7700005      -2.25301200E-09
   10.8299999      -2.46660226E-09
   10.8900003      -2.68533329E-09
   10.9499998      -2.90544855E-09
   11.0100002      -3.12229131E-09
   11.0699997      -3.33153283E-09
   11.1300001      -3.53027385E-09
   11.1899996      -3.71762221E-09
   11.2500000      -3.89454025E-09
   11.3100004      -4.06306544E-09
   11.3699999      -4.22526103E-09
   11.4300003      -4.38233583E-09
   11.4899998      -4.53425386E-09
   11.5500002      -4.67985517E-09
   11.6099997      -4.81726792E-09
   11.6700001      -4.94428187E-09
   11.7299995      -5.05847852E-09
   11.7900000      -5.15714316E-09
   11.8500004      -5.23717292E-09
   11.9099998      -5.29522737E-09
   11.9700003      -5.32817923E-09
   12.0299997      -5.33369571E-09
   12.0900002      -5.31065458E-09
   12.1499996      -5.25916288E-09
   12.2100000      -5.18020693E-09
   12.2700005      -5.07519848E-09
   12.3299999      -4.94574781E-09
   12.3900003      -4.79383466E-09
   12.4499998      -4.62223282E-09
   12.5100002      -4.43481207E-09
   12.5699997      -4.23635482E-09
   12.6300001      -4.03179179E-09
   12.6899996      -3.82514598E-09
   12.7500000      -3.61870889E-09
   12.8100004      -3.41291817E-09
   12.8699999      -3.20704130E-09
   12.9300003      -3.00034131E-09
   12.9899998      -2.79313039E-09
   13.0500002      -2.58717292E-09
   13.1099997      -2.38526021E-09
   13.1700001      -2.19021934E-09
   13.2299995      -2.00390060E-09
   13.2900000      -1.82667492E-09
   13.3500004      -1.65768221E-09
   13.4099998      -1.49568791E-09
   13.4700003      -1.34013523E-09
   13.5299997      -1.19191468E-09
   13.5900002      -1.05353404E-09
   13.6499996      -9.28629007E-10
   13.7100000      -8.20999935E-10
   13.7700005      -7.33516081E-10
   13.8299999      -6.67254363E-10
   13.8900003      -6.21169616E-10
   13.9499998      -5.92422222E-10
   14.0100002      -5.77271453E-10
   14.0699997      -5.72220882E-10
   14.1300001      -5.74973125E-10
   14.1899996      -5.84794435E-10
   14.2500000      -6.02119243E-10
   14.3100004      -6.27570051E-10
   14.3699999      -6.60853150E-10
   14.4300003      -7.00067337E-10
   14.4899998      -7.41768869E-10
   14.5500002      -7.81759824E-10
   14.6099997      -8.16214596E-10
   14.6700001      -8.42612480E-10
   14.7299995      -8.60079730E-10
   14.7900000      -8.69069150E-10
   14.8500004      -8.70623851E-10
   14.9099998      -8.65618743E-10
   14.9700003      -8.54293525E-10
   15.0299997      -8.36178737E-10
   15.0900002      -8.10313705E-10
   15.1499996      -7.75576658E-10
   15.2100000      -7.30990990E-10
   15.2700005      -6.75957790E-10
   15.3299999      -6.10407669E-10
   15.3900003      -5.34846778E-10
   15.4499998      -4.50245508E-10
   15.5100002      -3.57758545E-10
   15.5699997      -2.58378041E-10
   15.6300001      -1.52730953E-10
   15.6899996      -4.12327082E-11
   15.7500000       7.53535706E-11
   15.8100004       1.95160596E-10
   15.8699999       3.14667709E-10
   15.9300003       4.28748342E-10
   15.9899998       5.31453437E-10
   16.0499992       6.17302209E-10
   16.1100006       6.82585044E-10
   16.1700001       7.26165017E-10
   16.2299995       7.49513562E-10
   16.2900009       7.56073482E-10
   16.3500004       7.50308038E-10
   16.4099998       7.36829764E-10
   16.4699993       7.19837745E-10
   16.5300007       7.02860048E-10
   16.5900002       6.88666957E-10
   16.6499996       6.79244050E-10
   16.7099991       6.75822676E-10
   16.7700005       6.79038603E-10
   16.8299999       6.89232227E-10
   16.8899994       7.06767922E-10
   16.9500008       7.32142236E-10
   17.0100002       7.65703390E-10
   17.0699997       8.07014289E-10
   17.1299992       8.54149917E-10
   17.1900005       9.03350061E-10
   17.2500000       9.49339829E-10
   17.3099995       9.86331128E-10
   17.3700008       1.00937869E-09
   17.4300003       1.01558917E-09
   17.4899998       1.00476283E-09
   17.5499992       9.79323178E-10
   17.6100006       9.43703116E-10
   17.6700001       9.03520647E-10
   17.7299995       8.64842031E-10
   17.7900009       8.33639824E-10
   17.8500004       8.15365830E-10
   17.9099998       8.14492696E-10
   17.9699993       8.33956515E-10
   18.0300007       8.74596784E-10
   18.0900002       9.34807565E-10
   18.1499996       1.01061126E-09
   18.2099991       1.09623544E-09
   18.2700005       1.18508847E-09
   18.3299999       1.27088606E-09
   18.3899994       1.34863998E-09
   18.4500008       1.41529899E-09
   18.5100002       1.46995882E-09
   18.5699997       1.51370150E-09
   18.6299992       1.54919755E-09
   18.6900005       1.58021463E-09
   18.7500000       1.61112523E-09
   18.8099995       1.64643088E-09
   18.8700008       1.69027559E-09
   18.9300003       1.74591253E-09
   18.9899998       1.81515258E-09
   19.0499992       1.89790206E-09
   19.1100006       1.99196259E-09
   19.1700001       2.09325512E-09
   19.2299995       2.19653229E-09
   19.2900009       2.29645924E-09
   19.3500004       2.38879161E-09
   19.4099998       2.47128185E-09
   19.4699993       2.54400989E-09
   19.5300007       2.60902566E-09
   19.5900002       2.66943290E-09
   19.6499996       2.72824741E-09
   19.7099991       2.78743983E-09
   19.7700005       2.84748158E-09
   19.8299999       2.90750890E-09
   19.8899994       2.96597369E-09
   19.9500008       3.02148084E-09
   20.0100002       3.07345438E-09
   20.0699997       3.12236415E-09
   20.1299992       3.16943449E-09
   20.1900005       3.21595861E-09
   20.2500000       3.26249561E-09
   20.3099995       3.30826011E-09
   20.3700008       3.35094175E-09
   20.4300003       3.38702000E-09
   20.4899998       3.41246120E-09
   20.5499992       3.42355322E-09
   20.6100006       3.41759909E-09
   20.6700001       3.39325990E-09
   20.7299995       3.35047035E-09
   20.7900009       3.29000893E-09
   20.8500004       3.21292171E-09
   20.9099998       3.12004067E-09
   20.9699993       3.01180103E-09
   21.0300007       2.88844348E-09
   21.0900002       2.75053202E-09
   21.1499996       2.59957345E-09
   21.2099991       2.43843590E-09
   21.2700005       2.27130514E-09
   21.3299999       2.10306328E-09
   21.3899994       1.93819782E-09
   21.4500008       1.77956605E-09
   21.5100002       1.62744762E-09
   21.5699997       1.47925017E-09
   21.6299992       1.33003042E-09
   21.6900005       1.17370047E-09
   21.7500000       1.00455000E-09
   21.8099995       8.18612234E-10
   21.8700008       6.14460427E-10
   21.9300003       3.93220900E-10
   21.9899998       1.57842378E-10
   22.0499992      -8.81083193E-11
   22.1100006      -3.41715933E-10
   22.1700001      -6.01628525E-10
   22.2299995      -8.68306982E-10
   22.2900009      -1.14353416E-09
   22.3500004      -1.42937551E-09
   22.4099998      -1.72700276E-09
   22.4699993      -2.03585393E-09
   22.5300007      -2.35347031E-09
   22.5900002      -2.67604938E-09
   22.6499996      -2.99943692E-09
   22.7099991      -3.32008776E-09
   22.7700005      -3.63558561E-09
   22.8299999      -3.94456823E-09
   22.8899994      -4.24622248E-09
   22.9500008      -4.53971216E-09
   23.0100002      -4.82385110E-09
   23.0699997      -5.09711917E-09
   23.1299992      -5.35786571E-09
   23.1900005      -5.60444269E-09
   23.2500000      -5.83511151E-09
   23.3099995      -6.04779293E-09
   23.3700008      -6.23989704E-09
   23.4300003      -6.40847331E-09
   23.4899998      -6.55071997E-09
   23.5499992      -6.66467281E-09
   23.6100006      -6.74976208E-09
   23.6700001      -6.80700607E-09
   23.7299995      -6.83881174E-09
   23.7900009      -6.84853241E-09
   23.8500004      -6.84001789E-09
   23.9099998      -6.81727874E-09
   23.9699993      -6.78426337E-09
   24.0300007      -6.74465461E-09
   24.0900002      -6.70162814E-09
   24.1499996      -6.65757272E-09
   24.2099991      -6.61382282E-09
   24.2700005      -6.57040999E-09
   24.3299999      -6.52577414E-09
   24.3899994      -6.47640253E-09
   24.4500008      -6.41651310E-09
   24.5100002      -6.33807762E-09
   24.5699997      -6.23153396E-09
   24.6299992      -6.08735817E-09
   24.6900005      -5.89822902E-09
   24.7500000      -5.66113245E-09
   24.8099995      -5.37859401E-09
   24.8700008      -5.05851938E-09
   24.9300003      -4.71267247E-09
   24.9899998      -4.35438885E-09
   25.0499992      -3.99633793E-09
   25.1100006      -3.64897024E-09
   25.1700001      -3.31981131E-09
   25.2299995      -3.01339664E-09
   25.2900009      -2.73150502E-09
   25.3500004      -2.47352983E-09
   25.4099998      -2.23705499E-09
   25.4699993      -2.01873229E-09
   25.5300007      -1.81534598E-09
   25.5900002      -1.62466296E-09
   25.6499996      -1.44559054E-09
   25.7099991      -1.27746547E-09
   25.7700005      -1.11883158E-09
   25.8299999      -9.66478342E-10
   25.8899994      -8.15489065E-10
   25.9500008      -6.60522137E-10
   26.0100002      -4.97828057E-10
   26.0699997      -3.27030875E-10
   26.1299992      -1.51799462E-10
   26.1900005       2.08772652E-11
   26.2500000       1.82382262E-10
   26.3099995       3.24320237E-10
   26.3700008       4.39860759E-10
   26.4300003       5.24403243E-10
   26.4899998       5.75839765E-10
   26.5499992       5.94764016E-10
   26.6100006       5.84675031E-10
   26.6700001       5.51852286E-10
   26.7299995       5.04507103E-10
   26.7900009       4.51169213E-10
   26.8500004       3.98826555E-10
   26.9099998       3.51676771E-10
   26.9699993       3.11156240E-10
   27.0300007       2.77248474E-10
   27.0900002       2.50333587E-10
   27.1499996       2.32516659E-10
   27.2099991       2.27690422E-10
   27.2700005       2.40349435E-10
   27.3299999       2.73898237E-10
   27.3899994       3.29427485E-10
   27.4500008       4.05561917E-10
   27.5100002       4.99283281E-10
   27.5699997       6.07082162E-10
   27.6299992       7.25716875E-10
   27.6900005       8.52252047E-10
   27.7500000       9.83592541E-10
   27.8099995       1.11603915E-09
   27.8700008       1.24529831E-09
   27.9300003       1.36698708E-09
   27.9899998       1.47730506E-09
   28.0499992       1.57343794E-09
   28.1100006       1.65347458E-09
   28.1700001       1.71596259E-09
   28.2299995       1.75947790E-09
   28.2900009       1.78257520E-09
   28.3500004       1.78427217E-09
   28.4099998       1.76492887E-09
   28.4699993       1.72717507E-09
   28.5300007       1.67646819E-09
   28.5900002       1.62092240E-09
   28.6499996       1.57021529E-09
   28.7099991       1.53363722E-09
   28.7700005       1.51768798E-09
   28.8299999       1.52395307E-09
   28.8899994       1.54813207E-09
   28.9500008       1.58086677E-09
   29.0100002       1.61040759E-09
   29.0699997       1.62635960E-09
   29.1299992       1.62316649E-09
   29.1900005       1.60195335E-09
   29.2500000       1.56998026E-09
   29.3099995       1.53797119E-09
   29.3700008       1.51649271E-09
   29.4300003       1.51288859E-09
   29.4899998       1.52989554E-09
   29.5499992       1.56619151E-09
   29.6100006       1.61825953E-09
   29.6700001       1.68249936E-09
   29.7299995       1.75664006E-09
   29.7900009       1.84002968E-09
   29.8500004       1.93293803E-09
   29.9099998       2.03535033E-09
   29.9699993       2.14576956E-09
   30.0300007       2.26041119E-09
   30.0900002       2.37301756E-09
   30.1499996       2.47542142E-09
   30.2099991       2.55887334E-09
   30.2700005       2.61594368E-09
   30.3299999       2.64254263E-09
   30.3899994       2.63937405E-09
   30.4500008       2.61218136E-09
   30.5100002       2.57051425E-09
   30.5699997       2.52533172E-09
   30.6299992       2.48627563E-09
   30.6900005       2.45960474E-09
   30.7500000       2.44748133E-09
   30.8099995       2.44866638E-09
   30.8700008       2.46007636E-09
   30.9300003       2.47834753E-09
   30.9899998       2.50071852E-09
   31.0499992       2.52501908E-09
   31.1100006       2.54907762E-09
   31.1700001       2.57013699E-09
   31.2299995       2.58479393E-09
   31.2900009       2.58961053E-09
   31.3500004       2.58213717E-09
   31.4099998       2.56182831E-09
   31.4699993       2.53036503E-09
   31.5300007       2.49117860E-09
   31.5900002       2.44835063E-09
   31.6499996       2.40534659E-09
   31.7099991       2.36413578E-09
   31.7700005       2.32506592E-09
   31.8299999       2.28753461E-09
   31.8899994       2.25113372E-09
   31.9500008       2.21671304E-09
   32.0099983       2.18680851E-09
   32.0699997       2.16511920E-09
   32.1300011       2.15512119E-09
   32.1899986       2.15829488E-09
   32.2500000       2.17267071E-09
   32.3100014       2.19236829E-09
   32.3699989       2.20848118E-09
   32.4300003       2.21117769E-09
   32.4900017       2.19239804E-09
   32.5499992       2.14823426E-09
   32.6100006       2.08010675E-09
   32.6699982       1.99422079E-09
   32.7299995       1.89939797E-09
   32.7900009       1.80398785E-09
   32.8499985       1.71294823E-09
   32.9099998       1.62614888E-09
   32.9700012       1.53850110E-09
   33.0299988       1.44182477E-09
   33.0900002       1.32772393E-09
   33.1500015       1.19041843E-09
   33.2099991       1.02859365E-09
   33.2700005       8.45789105E-10
   33.3300018       6.49402587E-10
   33.3899994       4.48793891E-10
   33.4500008       2.53101984E-10
   33.5099983       6.92918431E-11
   33.5699997      -9.92277788E-11
   33.6300011      -2.53203541E-10
   33.6899986      -3.97207017E-10
   33.7500000      -5.38333378E-10
   33.8100014      -6.84125478E-10
   33.8699989      -8.40254366E-10
   33.9300003      -1.00875797E-09
   33.9900017      -1.18760468E-09
   34.0499992      -1.37191436E-09
   34.1100006      -1.55645496E-09
   34.1699982      -1.73838755E-09
   34.2299995      -1.91900074E-09
   34.2900009      -2.10355267E-09
   34.3499985      -2.29915997E-09
   34.4099998      -2.51156518E-09
   34.4700012      -2.74212497E-09
   34.5299988      -2.98627478E-09
   34.5900002      -3.23409166E-09
   34.6500015      -3.47273876E-09
   34.7099991      -3.68989839E-09
   34.7700005      -3.87703070E-09
   34.8300018      -4.03146450E-09
   34.8899994      -4.15677759E-09
   34.9500008      -4.26145608E-09
   35.0099983      -4.35629932E-09
   35.0699997      -4.45134329E-09
   35.1300011      -4.55319693E-09
   35.1899986      -4.66355798E-09
   35.2500000      -4.77931872E-09
   35.3100014      -4.89415397E-09
   35.3699989      -5.00094233E-09
   35.4300003      -5.09408560E-09
   35.4900017      -5.17086107E-09
   35.5499992      -5.23138244E-09
   35.6100006      -5.27737587E-09
   35.6699982      -5.31046807E-09
   35.7299995      -5.33085132E-09
   35.7900009      -5.33692113E-09
   35.8499985      -5.32600453E-09
   35.9099998      -5.29579314E-09
   35.9700012      -5.24583488E-09
   36.0299988      -5.17844878E-09
   36.0900002      -5.09869391E-09
   36.1500015      -5.01333108E-09
   36.2099991      -4.92905272E-09
   36.2700005      -4.85047069E-09
   36.3300018      -4.77845674E-09
   36.3899994      -4.70942041E-09
   36.4500008      -4.63587613E-09
   36.5099983      -4.54828264E-09
   36.5699997      -4.43767734E-09
   36.6300011      -4.29826086E-09
   36.6899986      -4.12904644E-09
   36.7500000      -3.93399047E-09
   36.8100014      -3.72061537E-09
   36.8699989      -3.49774187E-09
   36.9300003      -3.27324878E-09
   36.9900017      -3.05267589E-09
   37.0499992      -2.83900170E-09
   37.1100006      -2.63335220E-09
   37.1699982      -2.43601606E-09
   37.2299995      -2.24712715E-09
   37.2900009      -2.06668394E-09
   37.3499985      -1.89400140E-09
   37.4099998      -1.72700765E-09
   37.4700012      -1.56185664E-09
   37.5299988      -1.39314904E-09
   37.5900002      -1.21477872E-09
   37.6500015      -1.02118058E-09
   37.7099991      -8.08641099E-10
   37.7700005      -5.76335035E-10
   37.8300018      -3.26817656E-10
   37.8899994      -6.58031615E-11
   37.9500008       1.98812258E-10
   38.0099983       4.58550031E-10
   38.0699997       7.06234904E-10
   38.1300011       9.37663835E-10
   38.1899986       1.15251952E-09
   38.2500000       1.35415745E-09
   38.3100014       1.54823809E-09
   38.3699989       1.74058068E-09
   38.4300003       1.93491645E-09
   38.4900017       2.13127271E-09
   38.5499992       2.32550823E-09
   38.6100006       2.51011412E-09
   38.6699982       2.67597766E-09
   38.7299995       2.81451928E-09
   38.7900009       2.91956725E-09
   38.8499985       2.98847724E-09
   38.9099998       3.02229153E-09
   38.9700012       3.02500269E-09
   39.0299988       3.00221203E-09
   39.0900002       2.95958813E-09
   39.1500015       2.90155411E-09
   39.2099991       2.83055979E-09
   39.2700005       2.74713940E-09
   39.3300018       2.65070543E-09
   39.3899994       2.54077825E-09
   39.4500008       2.41814813E-09
   39.5099983       2.28546626E-09
   39.5699997       2.14696372E-09
   39.6300011       2.00737160E-09
   39.6899986       1.87047466E-09
   39.7500000       1.73791481E-09
   39.8100014       1.60873581E-09
   39.8699989       1.47982904E-09
   39.9300003       1.34702005E-09
   39.9900017       1.20630617E-09
   40.0499992       1.05476960E-09
   40.1100006       8.90952756E-10
   40.1699982       7.14769965E-10
   40.2299995       5.27198174E-10
   40.2900009       3.29958422E-10
   40.3499985       1.25245300E-10
   40.4099998      -8.45614759E-11
   40.4700012      -2.97256525E-10
   40.5299988      -5.11168663E-10
   40.5900002      -7.25335125E-10
   40.6500015      -9.39327838E-10
   40.7099991      -1.15274634E-09
   40.7700005      -1.36459943E-09
   40.8300018      -1.57289126E-09
   40.8899994      -1.77461124E-09
   40.9500008      -1.96609351E-09
   41.0099983      -2.14352469E-09
   41.0699997      -2.30338526E-09
   41.1300011      -2.44278597E-09
   41.1899986      -2.55984811E-09
   41.2500000      -2.65426547E-09
   41.3100014      -2.72794387E-09
   41.3699989      -2.78529799E-09
   41.4300003      -2.83268675E-09
   41.4900017      -2.87677326E-09
   41.5499992      -2.92221358E-09
   41.6100006      -2.96964320E-09
   41.6699982      -3.01506908E-09
   41.7299995      -3.05124348E-09
   41.7900009      -3.07065440E-09
   41.8499985      -3.06890535E-09
   41.9099998      -3.04694336E-09
   41.9700012      -3.01110581E-09
   42.0299988      -2.97096081E-09
   42.0900002      -2.93591262E-09
   42.1500015      -2.91202396E-09
   42.2099991      -2.90025914E-09
   42.2700005      -2.89660296E-09
   42.3300018      -2.89371083E-09
   42.3899994      -2.88326540E-09
   42.4500008      -2.85818214E-09
   42.5099983      -2.81408719E-09
   42.5699997      -2.74984391E-09
   42.6300011      -2.66715872E-09
   42.6899986      -2.56948041E-09
   42.7500000      -2.46053089E-09
   42.8100014      -2.34294584E-09
   42.8699989      -2.21751706E-09
   42.9300003      -2.08334794E-09
   42.9900017      -1.93884220E-09
   43.0499992      -1.78303294E-09
   43.1100006      -1.61655067E-09
   43.1699982      -1.44173651E-09
   43.2299995      -1.26187161E-09
   43.2900009      -1.08000187E-09
   43.3499985      -8.98015662E-10
   43.4099998      -7.16405824E-10
   43.4700012      -5.34684241E-10
   43.5299988      -3.52045199E-10
   43.5900002      -1.67845016E-10
   43.6500015       1.82441891E-11
   43.7099991       2.06216863E-10
   43.7700005       3.95570299E-10
   43.8300018       5.84941595E-10
   43.8899994       7.71833486E-10
   43.9500008       9.52831813E-10
   44.0099983       1.12444343E-09
   44.0699997       1.28417010E-09
   44.1300011       1.43109424E-09
   44.1899986       1.56540958E-09
   44.2500000       1.68699099E-09
   44.3100014       1.79383464E-09
   44.3699989       1.88147786E-09
   44.4300003       1.94404048E-09
   44.4900017       1.97654537E-09
   44.5499992       1.97729078E-09
   44.6100006       1.94887106E-09
   44.6699982       1.89715754E-09
   44.7299995       1.82871429E-09
   44.7900009       1.74802528E-09
   44.8499985       1.65596026E-09
   44.9099998       1.55011493E-09
   44.9700012       1.42654544E-09
   45.0299988       1.28172695E-09
   45.0900002       1.11367016E-09
   45.1500015       9.21887233E-10
   45.2099991       7.06706527E-10
   45.2700005       4.68743766E-10
   45.3300018       2.08995571E-10
   45.3899994      -7.06218833E-11
   45.4500008      -3.66879943E-10
   45.5099983      -6.75447420E-10
   45.5699997      -9.91635996E-10
   45.6300011      -1.31115174E-09
   45.6899986      -1.63033398E-09
   45.7500000      -1.94584016E-09
   45.8100014      -2.25428831E-09
   45.8699989      -2.55250088E-09
   45.9300003      -2.83854518E-09
   45.9900017      -3.11302251E-09
   46.0499992      -3.37961659E-09
   46.1100006      -3.64417518E-09
   46.1699982      -3.91246102E-09
   46.2299995      -4.18761559E-09
   46.2900009      -4.46866455E-09
   46.3499985      -4.75084372E-09
   46.4099998      -5.02744602E-09
   46.4700012      -5.29203792E-09
   46.5299988      -5.53983037E-09
   46.5900002      -5.76771386E-09
   46.6500015      -5.97345018E-09
   46.7099991      -6.15501605E-09
   46.7700005      -6.31080299E-09
   46.8300018      -6.44050768E-09
   46.8899994      -6.54583943E-09
   46.9500008      -6.63015154E-09
   47.0099983      -6.69687727E-09
   47.0699997      -6.74757894E-09
   47.1300011      -6.78088519E-09
   47.1899986      -6.79310874E-09
   47.2500000      -6.78027545E-09
   47.3100014      -6.74032741E-09
   47.3699989      -6.67413369E-09
   47.4300003      -6.58467991E-09
   47.4900017      -6.47498188E-09
   47.5499992      -6.34603747E-09
   47.6100006      -6.19600460E-09
   47.6699982      -6.02091443E-09
   47.7299995      -5.81628123E-09
   47.7900009      -5.57857494E-09
   47.8499985      -5.30590594E-09
   47.9099998      -4.99806108E-09
   47.9700012      -4.65652583E-09
   48.0299988      -4.28497104E-09
   48.0900002      -3.88999188E-09
   48.1500015      -3.48129703E-09
   48.2099991      -3.07057157E-09
   48.2700005      -2.66900657E-09
   48.3300018      -2.28445884E-09
   48.3899994      -1.91967309E-09
   48.4500008      -1.57256952E-09
   48.5099983      -1.23846389E-09
   48.5699997      -9.13004061E-10
   48.6300011      -5.94262639E-10
   48.6899986      -2.83039536E-10
   48.7500000       1.84390871E-11
   48.8100014       3.08352593E-10
   48.8699989       5.86466598E-10
   48.9300003       8.54125271E-10
   48.9900017       1.11337062E-09
   49.0499992       1.36594858E-09
   49.1100006       1.61276847E-09
   49.1699982       1.85382920E-09
   49.2299995       2.08824180E-09
   49.2900009       2.31408603E-09
   49.3499985       2.52831156E-09
   49.4099998       2.72722489E-09
   49.4700012       2.90788815E-09
   49.5299988       3.07004044E-09
   49.5900002       3.21743476E-09
   49.6500015       3.35741324E-09
   49.7099991       3.49833695E-09
   49.7700005       3.64576591E-09
   49.8300018       3.79921961E-09
   49.8899994       3.95127708E-09
   49.9500008       4.08964151E-09
   50.0099983       4.20124868E-09
   50.0699997       4.27645475E-09
   50.1300011       4.31144720E-09
   50.1899986       4.30809743E-09
   50.2500000       4.27186153E-09
   50.3100014       4.20916058E-09
   50.3699989       4.12552126E-09
   50.4300003       4.02495859E-09
   50.4900017       3.91022503E-09
   50.5499992       3.78323728E-09
   50.6100006       3.64528363E-09