  -2.400000      0.0000000E+00
  -2.340000      0.0000000E+00
  -2.280000      0.0000000E+00
  -2.220000      0.0000000E+00
  -2.160000      3.0948994E-19
  -2.100000      2.0127101E-18
  -2.040000      6.8422114E-18
  -1.980000      1.6406752E-17
  -1.920000      3.2428392E-17
  -1.860000      5.9454129E-17
  -1.800000      1.0657200E-16
  -1.740000      1.7720967E-16
  -1.680000      2.3559631E-16
  -1.620000      1.5591519E-16
  -1.560000     -3.0470494E-16
  -1.500000     -1.4375744E-15
  -1.440000     -3.3596357E-15
  -1.380000     -5.6654913E-15
  -1.320000     -7.1299219E-15
  -1.260000     -5.7606296E-15
  -1.200000      5.2095046E-16
  -1.140000      1.2549887E-14
  -1.080000      2.8372116E-14
  -1.020000      4.2356160E-14
 -0.9600000      4.5942071E-14
 -0.9000000      3.0528186E-14
 -0.8400000     -8.0426490E-15
 -0.7800000     -6.5124596E-14
 -0.7200000     -1.2542766E-13
 -0.6600000     -1.6562051E-13
 -0.6000000     -1.6160791E-13
 -0.5400000     -9.8392181E-14
 -0.4800000      2.1371693E-14
 -0.4200000      1.7417796E-13
 -0.3600000      3.2000837E-13
 -0.3000000      4.1319959E-13
 -0.2400000      4.1591820E-13
 -0.1800000      3.0928710E-13
 -0.1200000      9.8686501E-14
 -5.9999999E-02 -1.8712618E-13
  0.0000000E+00 -5.0063957E-13
  5.9999999E-02 -7.8093299E-13
  0.1200000     -9.5880649E-13
  0.1800000     -9.6400676E-13
  0.2400000     -7.3853450E-13
  0.3000000     -2.5791389E-13
  0.3600000      4.4353223E-13
  0.4200000      1.2540444E-12
  0.4800000      1.9862033E-12
  0.5400000      2.4090222E-12
  0.6000000      2.3093075E-12
  0.6600000      1.5672524E-12
  0.7200000      2.2072373E-13
  0.7800000     -1.5085014E-12
  0.8400000     -3.2433097E-12
  0.9000000     -4.5333962E-12
  0.9600000     -4.9707291E-12
   1.020000     -4.3055282E-12
   1.080000     -2.5285074E-12
   1.140000      1.0516031E-13
   1.200000      3.1178896E-12
   1.260000      5.9074247E-12
   1.320000      7.8759924E-12
   1.380000      8.5597866E-12
   1.440000      7.7289052E-12
   1.500000      5.4359264E-12
   1.560000      2.0041471E-12
   1.620000     -2.0390816E-12
   1.680000     -6.0658145E-12
   1.740000     -9.4622582E-12
   1.800000     -1.1728960E-11
   1.860000     -1.2547153E-11
   1.920000     -1.1802599E-11
   1.980000     -9.5691276E-12
   2.040000     -6.0618134E-12
   2.100000     -1.5729914E-12
   2.160000      3.5959835E-12
   2.220000      9.1965966E-12
   2.280000      1.5080895E-11
   2.340000      2.1230516E-11
   2.400000      2.7765977E-11
   2.460000      3.4938222E-11
   2.520000      4.3105217E-11
   2.580000      5.2693721E-11
   2.640000      6.4141338E-11
   2.700000      7.7810813E-11
   2.760000      9.3872680E-11
   2.820000      1.1216652E-10
   2.880000      1.3207159E-10
   2.940000      1.5243465E-10
   3.000000      1.7160415E-10
   3.060000      1.8760030E-10
   3.120000      1.9841168E-10
   3.180000      2.0236679E-10
   3.240000      1.9849902E-10
   3.300000      1.8681945E-10
   3.360000      1.6843317E-10
   3.420000      1.4547190E-10
   3.480000      1.2085460E-10
   3.540000      9.7917577E-11
   3.600000      7.9973798E-11
   3.660000      6.9871733E-11
   3.720000      6.9628338E-11
   3.780000      8.0206779E-11
   3.840000      1.0148941E-10
   3.900000      1.3245606E-10
   3.960000      1.7152264E-10
   4.020000      2.1694273E-10
   4.080000      2.6714767E-10
   4.140000      3.2091524E-10
   4.200000      3.7730924E-10
   4.260000      4.3540538E-10
   4.320000      4.9388249E-10
   4.380000      5.5059279E-10
   4.440000      6.0222199E-10
   4.500000      6.4412536E-10
   4.560000      6.7038619E-10
   4.620000      6.7411449E-10
   4.680000      6.4796901E-10
   4.740000      5.8485228E-10
   4.800000      4.7868459E-10
   4.860000      3.2512099E-10
   4.920000      1.2205498E-10
   4.980000     -1.3022321E-10
   5.040000     -4.2927170E-10
   5.100000     -7.7109580E-10
   5.160000     -1.1509442E-09
   5.220000     -1.5640841E-09
   5.280000     -2.0063429E-09
   5.340000     -2.4742846E-09
   5.400000     -2.9650060E-09
   5.460000     -3.4756553E-09
   5.520000     -4.0028496E-09
   5.580000     -4.5421777E-09
   5.640000     -5.0879208E-09
   5.700000     -5.6330283E-09
   5.760000     -6.1693219E-09
   5.820000     -6.6878290E-09
   5.880000     -7.1791808E-09
   5.940000     -7.6340152E-09
   6.000000     -8.0433988E-09
   6.060000     -8.3992813E-09
   6.120000     -8.6949656E-09
   6.180000     -8.9255341E-09
   6.240000     -9.0880938E-09
   6.300000     -9.1817141E-09
   6.360000     -9.2070325E-09
   6.420000     -9.1655750E-09
   6.480000     -9.0590220E-09
   6.540000     -8.8886702E-09
   6.600000     -8.6552854E-09
   6.660000     -8.3593887E-09
   6.720000     -8.0018294E-09
   6.780000     -7.5843536E-09
   6.840000     -7.1099087E-09
   6.900000     -6.5825416E-09
   6.960000     -6.0069820E-09
   7.020000     -5.3881108E-09
   7.080000     -4.7306252E-09
   7.140000     -4.0390478E-09
   7.200000     -3.3180785E-09
   7.260000     -2.5730862E-09
   7.320000     -1.8104815E-09
   7.380000     -1.0377599E-09
   7.440000     -2.6317593E-10
   7.500000      5.0481747E-10
   7.560000      1.2581418E-09
   7.620000      1.9894750E-09
   7.680000      2.6923641E-09
   7.740000      3.3611420E-09
   7.800000      3.9908170E-09
   7.860000      4.5770951E-09
   7.920000      5.1165991E-09
   7.980000      5.6071920E-09
   8.040000      6.0482264E-09
   8.100000      6.4405183E-09
   8.160000      6.7859438E-09
   8.220000      7.0867126E-09
   8.280000      7.3445379E-09
   8.340000      7.5599793E-09
   8.400000      7.7322104E-09
   8.460000      7.8593043E-09
   8.520000      7.9389757E-09
   8.580000      7.9695406E-09
   8.640000      7.9507760E-09
   8.700000      7.8844442E-09
   8.760000      7.7743003E-09
   8.820000      7.6256246E-09
   8.880000      7.4443962E-09
   8.940000      7.2363928E-09
   9.000000      7.0064479E-09
   9.060000      6.7580923E-09
   9.120000      6.4936438E-09
   9.180000      6.2146666E-09
   9.240000      5.9225940E-09
   9.300000      5.6192180E-09
   9.360000      5.3068239E-09
   9.420000      4.9878919E-09
   9.480000      4.6645106E-09
   9.540000      4.3377866E-09
   9.600000      4.0075969E-09
   9.660000      3.6728549E-09
   9.720000      3.3322356E-09
   9.780000      2.9850555E-09
   9.840000      2.6319011E-09
   9.900000      2.2747086E-09
   9.960000      1.9162409E-09
   10.02000      1.5591980E-09
   10.08000      1.2053443E-09
   10.14000      8.5499446E-10
   10.20000      5.0698645E-10
   10.26000      1.5902224E-10
   10.32000     -1.9188981E-10
   10.38000     -5.4912769E-10
   10.44000     -9.1634772E-10
   10.50000     -1.2974413E-09
   10.56000     -1.6963330E-09
   10.62000     -2.1164632E-09
   10.68000     -2.5599993E-09
   10.74000     -3.0270266E-09
   10.80000     -3.5150702E-09
   10.86000     -4.0192298E-09
   10.92000     -4.5329798E-09
   10.98000     -5.0494449E-09
   11.04000     -5.5627472E-09
   11.10000     -6.0689991E-09
   11.16000     -6.5666597E-09
   11.22000     -7.0562201E-09
   11.28000     -7.5394553E-09
   11.34000     -8.0186409E-09
   11.40000     -8.4961096E-09
   11.46000     -8.9743404E-09
   11.52000     -9.4564756E-09
   11.58000     -9.9469428E-09
   11.64000     -1.0451781E-08
   11.70000     -1.0978402E-08
   11.76000     -1.1534793E-08
   11.82000     -1.2128418E-08
   11.88000     -1.2765214E-08
   11.94000     -1.3448910E-08
   12.00000     -1.4180755E-08
   12.06000     -1.4959417E-08
   12.12000     -1.5780870E-08
   12.18000     -1.6638158E-08
   12.24000     -1.7521165E-08
   12.30000     -1.8416696E-08
   12.36000     -1.9309034E-08
   12.42000     -2.0180984E-08
   12.48000     -2.1015062E-08
   12.54000     -2.1794488E-08
   12.60000     -2.2503754E-08
   12.66000     -2.3128834E-08
   12.72000     -2.3657380E-08
   12.78000     -2.4079192E-08
   12.84000     -2.4387033E-08
   12.90000     -2.4577520E-08
   12.96000     -2.4651666E-08
   13.02000     -2.4614788E-08
   13.08000     -2.4475826E-08
   13.14000     -2.4246443E-08
   13.20000     -2.3940325E-08
   13.26000     -2.3572834E-08
   13.32000     -2.3160764E-08
   13.38000     -2.2721798E-08
   13.44000     -2.2273293E-08
   13.50000     -2.1830539E-08
   13.56000     -2.1405093E-08
   13.62000     -2.1003851E-08
   13.68000     -2.0629338E-08
   13.74000     -2.0281020E-08
   13.80000     -1.9956993E-08
   13.86000     -1.9655280E-08
   13.92000     -1.9374252E-08
   13.98000     -1.9112290E-08
   14.04000     -1.8867180E-08
   14.10000     -1.8635737E-08
   14.16000     -1.8413848E-08
   14.22000     -1.8196777E-08
   14.28000     -1.7979348E-08
   14.34000     -1.7755902E-08
   14.40000     -1.7520222E-08
   14.46000     -1.7265871E-08
   14.52000     -1.6987244E-08
   14.58000     -1.6681167E-08
   14.64000     -1.6348428E-08
   14.70000     -1.5994408E-08
   14.76000     -1.5628320E-08
   14.82000     -1.5261188E-08
   14.88000     -1.4903225E-08
   14.94000     -1.4561635E-08
   15.00000     -1.4239558E-08
   15.06000     -1.3936406E-08
   15.12000     -1.3649319E-08
   15.18000     -1.3375085E-08
   15.24000     -1.3111891E-08
   15.30000     -1.2860369E-08
   15.36000     -1.2623686E-08
   15.42000     -1.2406653E-08
   15.48000     -1.2214051E-08
   15.54000     -1.2048659E-08
   15.60000     -1.1909649E-08
   15.66000     -1.1791968E-08
   15.72000     -1.1687097E-08
   15.78000     -1.1584984E-08
   15.84000     -1.1476508E-08
   15.90000     -1.1355529E-08
   15.96000     -1.1219786E-08
   16.02000     -1.1070422E-08
   16.08000     -1.0910491E-08
   16.14000     -1.0743144E-08
   16.20000     -1.0570124E-08
   16.26000     -1.0390932E-08
   16.32000     -1.0202638E-08
   16.38000     -1.0000210E-08
   16.44000     -9.7772075E-09
   16.50000     -9.5268078E-09
   16.56000     -9.2430641E-09
   16.62000     -8.9220791E-09
   16.68000     -8.5626342E-09
   16.74000     -8.1658271E-09
   16.80000     -7.7337043E-09
   16.86000     -7.2673938E-09
   16.92000     -6.7656556E-09
   16.98000     -6.2246794E-09
   17.04000     -5.6393921E-09
   17.10000     -5.0057944E-09
   17.16000     -4.3232857E-09
   17.22000     -3.5959489E-09
   17.28000     -2.8322762E-09
   17.34000     -2.0435531E-09
   17.40000     -1.2416507E-09
   17.46000     -4.3706924E-10
   17.52000      3.6222289E-10
   17.58000      1.1510486E-09
   17.64000      1.9265767E-09
   17.70000      2.6874445E-09
   17.76000      3.4326639E-09
   17.82000      4.1605093E-09
   17.88000      4.8676836E-09
   17.94000      5.5491527E-09
   18.00000      6.1989982E-09
   18.06000      6.8123049E-09
   18.12000      7.3876136E-09
   18.18000      7.9290663E-09
   18.24000      8.4473077E-09
   18.30000      8.9585850E-09
   18.36000      9.4821315E-09
   18.42000      1.0036578E-08
   18.48000      1.0636453E-08
   18.54000      1.1289803E-08
   18.60000      1.1997544E-08
   18.66000      1.2754676E-08
   18.72000      1.3552923E-08
   18.78000      1.4384072E-08
   18.84000      1.5242986E-08
   18.90000      1.6129427E-08
   18.96000      1.7048031E-08
   19.02000      1.8006375E-08
   19.08000      1.9011754E-08
   19.14000      2.0067734E-08
   19.20000      2.1171745E-08
   19.26000      2.2314554E-08
   19.32000      2.3481746E-08
   19.38000      2.4656597E-08
   19.44000      2.5823230E-08
   19.50000      2.6968955E-08
   19.56000      2.8085127E-08
   19.62000      2.9166344E-08
   19.68000      3.0208383E-08
   19.74000      3.1205531E-08
   19.80000      3.2148133E-08
   19.86000      3.3021102E-08
   19.92000      3.3804188E-08
   19.98000      3.4474176E-08
   20.04000      3.5008885E-08
   20.10000      3.5391896E-08
   20.16000      3.5616559E-08
   20.22000      3.5687723E-08
   20.28000      3.5620420E-08
   20.34000      3.5435672E-08
   20.40000      3.5154898E-08
   20.46000      3.4794812E-08
   20.52000      3.4364465E-08
   20.58000      3.3865241E-08
   20.64000      3.3293276E-08
   20.70000      3.2643150E-08
   20.76000      3.1911245E-08
   20.82000      3.1097699E-08
   20.88000      3.0206412E-08
   20.94000      2.9243321E-08
   21.00000      2.8213593E-08
   21.06000      2.7118611E-08
   21.12000      2.5953780E-08
   21.18000      2.4707965E-08
   21.24000      2.3365059E-08
   21.30000      2.1907498E-08
   21.36000      2.0320904E-08
   21.42000      1.8598376E-08
   21.48000      1.6743030E-08
   21.54000      1.4767815E-08
   21.60000      1.2692724E-08
   21.66000      1.0540381E-08
   21.72000      8.3315141E-09
   21.78000      6.0817453E-09
   21.84000      3.8004058E-09
   21.90000      1.4913679E-09
   21.96000     -8.4476182E-10
   22.02000     -3.2079559E-09
   22.08000     -5.5963807E-09
   22.14000     -8.0048874E-09
   22.20000     -1.0424718E-08
   22.26000     -1.2844493E-08
   22.32000     -1.5252256E-08
   22.38000     -1.7637966E-08
   22.44000     -1.9995541E-08
   22.50000     -2.2323530E-08
   22.56000     -2.4623910E-08
   22.62000     -2.6899070E-08
   22.68000     -2.9147833E-08
   22.74000     -3.1361694E-08
   22.80000     -3.3522468E-08
   22.86000     -3.5602124E-08
   22.92000     -3.7564849E-08
   22.98000     -3.9371095E-08
   23.04000     -4.0982627E-08
   23.10000     -4.2367724E-08
   23.16000     -4.3505327E-08
   23.22000     -4.4387129E-08
   23.28000     -4.5016922E-08
   23.34000     -4.5407180E-08
   23.40000     -4.5573824E-08
   23.46000     -4.5530825E-08
   23.52000     -4.5286708E-08
   23.58000     -4.4844352E-08
   23.64000     -4.4204405E-08
   23.70000     -4.3370957E-08
   23.76000     -4.2357282E-08
   23.82000     -4.1189072E-08
   23.88000     -3.9903544E-08
   23.94000     -3.8544293E-08
   24.00000     -3.7153260E-08
   24.06000     -3.5762199E-08
   24.12000     -3.4386325E-08
   24.18000     -3.3021937E-08
   24.24000     -3.1648870E-08
   24.30000     -3.0236926E-08
   24.36000     -2.8754515E-08
   24.42000     -2.7177004E-08
   24.48000     -2.5492421E-08
   24.54000     -2.3703009E-08
   24.60000     -2.1822512E-08
   24.66000     -1.9870415E-08
   24.72000     -1.7865490E-08
   24.78000     -1.5820991E-08
   24.84000     -1.3743237E-08
   24.90000     -1.1633882E-08
   24.96000     -9.4947179E-09
   25.02000     -7.3329192E-09
   25.08000     -5.1645315E-09
   25.14000     -3.0147207E-09
   25.20000     -9.1457969E-10
   25.26000      1.1044465E-09
   25.32000      3.0166174E-09
   25.38000      4.8063860E-09
   25.44000      6.4698411E-09
   25.50000      8.0126927E-09
   25.56000      9.4455705E-09
   25.62000      1.0778343E-08
   25.68000      1.2015425E-08
   25.74000      1.3153687E-08
   25.80000      1.4183465E-08
   25.86000      1.5092063E-08
   25.92000      1.5868157E-08
   25.98000      1.6505309E-08
   26.04000      1.7003279E-08
   26.10000      1.7366787E-08
   26.16000      1.7602398E-08
   26.22000      1.7714735E-08
   26.28000      1.7703345E-08
   26.34000      1.7561035E-08
   26.40000      1.7273951E-08
   26.46000      1.6823146E-08
   26.52000      1.6187155E-08
   26.58000      1.5344975E-08
   26.64000      1.4278938E-08
   26.70000      1.2976982E-08
   26.76000      1.1434048E-08
   26.82000      9.6524726E-09
   26.88000      7.6416162E-09
   26.94000      5.4170779E-09
   27.00000      2.9998151E-09
   27.06000      4.1521811E-10
   27.12000     -2.3081286E-09
   27.18000     -5.1403757E-09
   27.24000     -8.0531093E-09
   27.30000     -1.1022316E-08
   27.36000     -1.4030611E-08
   27.42000     -1.7067608E-08
   27.48000     -2.0127942E-08
   27.54000     -2.3207360E-08
   27.60000     -2.6298268E-08
   27.66000     -2.9386470E-08
   27.72000     -3.2450266E-08
   27.78000     -3.5462147E-08
   27.84000     -3.8392084E-08
   27.90000     -4.1210868E-08
   27.96000     -4.3892133E-08
   28.02000     -4.6412477E-08
   28.08000     -4.8750007E-08
   28.14000     -5.0882331E-08
   28.20000     -5.2785115E-08
   28.26000     -5.4431954E-08
   28.32000     -5.5795891E-08
   28.38000     -5.6852180E-08
   28.44000     -5.7581833E-08
   28.50000     -5.7974898E-08
   28.56000     -5.8032626E-08
   28.62000     -5.7767540E-08
   28.68000     -5.7200879E-08
   28.74000     -5.6357678E-08
   28.80000     -5.5260482E-08
   28.86000     -5.3923554E-08
   28.92000     -5.2349435E-08
   28.98000     -5.0529174E-08
   29.04000     -4.8446328E-08
   29.10000     -4.6083507E-08
   29.16000     -4.3429388E-08
   29.22000     -4.0484014E-08
   29.28000     -3.7260826E-08
   29.34000     -3.3785103E-08
   29.40000     -3.0089559E-08
   29.46000     -2.6208575E-08
   29.52000     -2.2172840E-08
   29.58000     -1.8005913E-08
   29.64000     -1.3723644E-08
   29.70000     -9.3365884E-09
   29.76000     -4.8548605E-09
   29.82000     -2.9396485E-10
   29.88000      4.3202273E-09
   29.94000      8.9492200E-09
   30.00000      1.3543525E-08
   30.06000      1.8048153E-08
   30.12000      2.2410553E-08
   30.18000      2.6588504E-08
   30.24000      3.0555380E-08
   30.30000      3.4300882E-08
   30.36000      3.7826982E-08
   30.42000      4.1140439E-08
   30.48000      4.4244498E-08
   30.54000      4.7132620E-08
   30.60000      4.9786287E-08
   30.66000      5.2177537E-08
   30.72000      5.4275105E-08
   30.78000      5.6051974E-08
   30.84000      5.7491555E-08
   30.90000      5.8590370E-08
   30.96000      5.9356157E-08
   31.02000      5.9802034E-08
   31.08000      5.9938756E-08
   31.14000      5.9767864E-08
   31.20000      5.9278342E-08
   31.26000      5.8448357E-08
   31.32000      5.7251739E-08
   31.38000      5.5667272E-08
   31.44000      5.3687714E-08
   31.50000      5.1325507E-08
   31.56000      4.8613309E-08
   31.62000      4.5599155E-08
   31.68000      4.2337895E-08
   31.74000      3.8881559E-08
   31.80000      3.5271505E-08
   31.86000      3.1534306E-08
   31.92000      2.7682358E-08
   31.98000      2.3718568E-08
   32.04000      1.9643711E-08
   32.10000      1.5464220E-08
   32.16000      1.1198229E-08
   32.22000      6.8780097E-09
   32.28000      2.5480118E-09
   32.34000     -1.7410458E-09
   32.40000     -5.9402070E-09
   32.46000     -1.0009780E-08
   32.52000     -1.3923725E-08
   32.58000     -1.7669425E-08
   32.64000     -2.1243075E-08
   32.70000     -2.4642647E-08
   32.76000     -2.7861287E-08
   32.82000     -3.0883712E-08
   32.88000     -3.3686934E-08
   32.94000     -3.6244884E-08
   33.00000     -3.8535067E-08
   33.06000     -4.0544908E-08
   33.12000     -4.2275719E-08
   33.18000     -4.3743039E-08
   33.24000     -4.4973291E-08
   33.30000     -4.5997560E-08
   33.36000     -4.6843926E-08
   33.42000     -4.7530271E-08
   33.48000     -4.8059526E-08
   33.54000     -4.8418936E-08
   33.60000     -4.8583949E-08
   33.66000     -4.8525983E-08
   33.72000     -4.8221722E-08
   33.78000     -4.7661000E-08
   33.84000     -4.6850516E-08
   33.90000     -4.5812079E-08
   33.96000     -4.4576204E-08
   34.02000     -4.3173547E-08
   34.08000     -4.1627427E-08
   34.14000     -3.9950034E-08
   34.20000     -3.8143348E-08
   34.26000     -3.6203978E-08
   34.32000     -3.4129847E-08
   34.38000     -3.1926206E-08
   34.44000     -2.9609074E-08
   34.50000     -2.7205097E-08
   34.56000     -2.4748015E-08
   34.62000     -2.2272948E-08
   34.68000     -1.9810168E-08
   34.74000     -1.7380319E-08
   34.80000     -1.4992612E-08
   34.86000     -1.2646715E-08
   34.92000     -1.0337802E-08
   34.98000     -8.0630445E-09
   35.04000     -5.8272178E-09
   35.10000     -3.6452725E-09
   35.16000     -1.5408894E-09
   35.22000      4.5840065E-10
   35.28000      2.3275724E-09
   35.34000      4.0494430E-09
   35.40000      5.6169958E-09
   35.46000      7.0319817E-09
   35.52000      8.3005745E-09
   35.58000      9.4279153E-09
   35.64000      1.0413656E-08
   35.70000      1.1250106E-08
   35.76000      1.1923564E-08
   35.82000      1.2418294E-08
   35.88000      1.2721707E-08
   35.94000      1.2828961E-08
   36.00000      1.2745295E-08
   36.06000      1.2485219E-08
   36.12000      1.2068679E-08
   36.18000      1.1515453E-08
   36.24000      1.0839713E-08
   36.30000      1.0046723E-08
   36.36000      9.1329042E-09
   36.42000      8.0891480E-09
   36.48000      6.9061015E-09
   36.54000      5.5793401E-09
   36.60000      4.1124895E-09
   36.66000      2.5172890E-09
   36.72000      8.1081292E-10
   36.78000     -9.8883446E-10
   36.84000     -2.8665810E-09
   36.90000     -4.8126956E-09
   36.96000     -6.8226442E-09
   37.02000     -8.8947596E-09
   37.08000     -1.1026774E-08
   37.14000     -1.3212616E-08
   37.20000     -1.5440678E-08
   37.26000     -1.7694221E-08
   37.32000     -1.9953733E-08
   37.38000     -2.2200361E-08
   37.44000     -2.4419009E-08
   37.50000     -2.6599826E-08
   37.56000     -2.8737315E-08
   37.62000     -3.0827284E-08
   37.68000     -3.2862829E-08
   37.74000     -3.4831054E-08
   37.80000     -3.6712123E-08
   37.86000     -3.8481311E-08
   37.92000     -4.0113676E-08
   37.98000     -4.1589583E-08
   38.04000     -4.2899064E-08
   38.10000     -4.4043144E-08
   38.16000     -4.5031562E-08
   38.22000     -4.5877655E-08
   38.28000     -4.6592362E-08
   38.34000     -4.7179736E-08
   38.40000     -4.7635758E-08
   38.46000     -4.7950952E-08
   38.52000     -4.8115769E-08
   38.58000     -4.8126569E-08
   38.64000     -4.7989833E-08
   38.70000     -4.7722899E-08
   38.76000     -4.7350881E-08
   38.82000     -4.6900762E-08
   38.88000     -4.6394661E-08
   38.94000     -4.5844377E-08
   39.00000     -4.5248790E-08
   39.06000     -4.4594582E-08
   39.12000     -4.3859931E-08
   39.18000     -4.3019952E-08
   39.24000     -4.2052402E-08
   39.30000     -4.0942165E-08
   39.36000     -3.9683325E-08
   39.42000     -3.8278291E-08
   39.48000     -3.6734306E-08
   39.54000     -3.5058388E-08
   39.60000     -3.3252512E-08
   39.66000     -3.1310776E-08
   39.72000     -2.9219672E-08
   39.78000     -2.6961375E-08
   39.84000     -2.4518762E-08
   39.90000     -2.1880201E-08
   39.96000     -1.9042435E-08
   40.02000     -1.6010762E-08
   40.08000     -1.2796994E-08
   40.14000     -9.4164747E-09
   40.20000     -5.8855076E-09
   40.26000     -2.2200062E-09
   40.32000      1.5646471E-09
   40.38000      5.4530371E-09
   40.44000      9.4290042E-09
   40.50000      1.3475023E-08
   40.56000      1.7571562E-08
   40.62000      2.1696327E-08
   40.68000      2.5823480E-08
   40.74000      2.9923285E-08
   40.80000      3.3962642E-08
   40.86000      3.7906741E-08
   40.92000      4.1721481E-08
   40.98000      4.5376112E-08
   41.04000      4.8845280E-08
   41.10000      5.2110096E-08
   41.16000      5.5158115E-08
   41.22000      5.7982248E-08
   41.28000      6.0578948E-08
   41.34000      6.2945823E-08
   41.40000      6.5079256E-08
   41.46000      6.6972781E-08
   41.52000      6.8617076E-08
   41.58000      7.0002038E-08
   41.64000      7.1120631E-08
   41.70000      7.1973020E-08
   41.76000      7.2569009E-08
   41.82000      7.2927172E-08
   41.88000      7.3070368E-08
   41.94000      7.3019088E-08
   42.00000      7.2785291E-08
   42.06000      7.2369339E-08
   42.12000      7.1761512E-08
   42.18000      7.0947500E-08
   42.24000      6.9915650E-08
   42.30000      6.8663255E-08
   42.36000      6.7199608E-08
   42.42000      6.5545223E-08
   42.48000      6.3727867E-08
   42.54000      6.1777200E-08
   42.60000      5.9719802E-08
   42.66000      5.7576088E-08
   42.72000      5.5359756E-08
   42.78000      5.3079724E-08
   42.84000      5.0743836E-08
   42.90000      4.8363141E-08
   42.96000      4.5955073E-08
   43.02000      4.3544159E-08
   43.08000      4.1159559E-08
   43.14000      3.8829928E-08
   43.20000      3.6577241E-08
   43.26000      3.4411972E-08
   43.32000      3.2331709E-08
   43.38000      3.0323967E-08
   43.44000      2.8372412E-08
   43.50000      2.6464347E-08
   43.56000      2.4596813E-08
   43.62000      2.2779231E-08
   43.68000      2.1031777E-08
   43.74000      1.9380199E-08
   43.80000      1.7848720E-08
   43.86000      1.6453248E-08
   43.92000      1.5196823E-08
   43.98000      1.4068570E-08
   44.04000      1.3046397E-08
   44.10000      1.2102666E-08
   44.16000      1.1211135E-08
   44.22000      1.0353022E-08
   44.28000      9.5202868E-09
   44.34000      8.7150891E-09
   44.40000      7.9458138E-09
   44.46000      7.2212538E-09
   44.52000      6.5452825E-09
   44.58000      5.9140568E-09
   44.64000      5.3167093E-09
   44.70000      4.7390669E-09
   44.76000      4.1687853E-09
   44.82000      3.5998933E-09
   44.88000      3.0351850E-09
   44.94000      2.4858848E-09
   45.00000      1.9690500E-09
   45.06000      1.5038725E-09
   45.12000      1.1081427E-09
   45.18000      7.9580559E-10
   45.24000      5.7594673E-10
   45.30000      4.5302756E-10
   45.36000      4.2787615E-10
   45.42000      4.9889337E-10
   45.48000      6.6306316E-10
   45.54000      9.1656716E-10
   45.60000      1.2549872E-09
   45.66000      1.6732069E-09
   45.72000      2.1651823E-09
   45.78000      2.7237737E-09
   45.84000      3.3408105E-09
   45.90000      4.0075010E-09
   45.96000      4.7151687E-09
   46.02000      5.4561311E-09
   46.08000      6.2243775E-09
   46.14000      7.0156916E-09
   46.20000      7.8270643E-09
   46.26000      8.6555900E-09
   46.32000      9.4974357E-09
   46.38000      1.0347548E-08
   46.44000      1.1200504E-08
   46.50000      1.2052235E-08
   46.56000      1.2901723E-08
   46.62000      1.3751474E-08
   46.68000      1.4605949E-08
   46.74000      1.5468155E-08
   46.80000      1.6335576E-08
   46.86000      1.7197289E-08
   46.92000      1.8033782E-08
   46.98000      1.8819952E-08
   47.04000      1.9530338E-08
   47.10000      2.0144807E-08
   47.16000      2.0652632E-08
   47.22000      2.1053721E-08
   47.28000      2.1356861E-08
   47.34000      2.1575724E-08
   47.40000      2.1723963E-08
   47.46000      2.1810592E-08
   47.52000      2.1836600E-08
   47.58000      2.1793371E-08
   47.64000      2.1663279E-08
   47.70000      2.1422439E-08
   47.76000      2.1045151E-08
   47.82000      2.0509008E-08
   47.88000      1.9799231E-08
   47.94000      1.8910910E-08
   48.00000      1.7848532E-08
   48.06000      1.6623080E-08
   48.12000      1.5247986E-08
   48.18000      1.3735369E-08
   48.24000      1.2093814E-08
   48.30000      1.0328161E-08
   48.36000      8.4410994E-09
   48.42000      6.4359718E-09
   48.48000      4.3200279E-09
   48.54000      2.1073694E-09
   48.60000     -1.7923596E-10
   48.66000     -2.5085112E-09
   48.72000     -4.8433400E-09
   48.78000     -7.1457853E-09
   48.84000     -9.3832764E-09
   48.90000     -1.1533990E-08
   48.96000     -1.3589394E-08
   49.02000     -1.5552857E-08
   49.08000     -1.7434781E-08
   49.14000     -1.9246153E-08
   49.20000     -2.0992998E-08
   49.26000     -2.2673607E-08
   49.32000     -2.4279094E-08
   49.38000     -2.5796336E-08
   49.44000     -2.7211717E-08
   49.50000     -2.8514146E-08
   49.56000     -2.9696611E-08
   49.62000     -3.0756297E-08
   49.68000     -3.1693613E-08
   49.74000     -3.2510627E-08
   49.80000     -3.3209172E-08
   49.86000     -3.3789128E-08
   49.92000     -3.4247392E-08
   49.98000     -3.4578228E-08
   50.04000     -3.4775194E-08
   50.10000     -3.4834159E-08
   50.16000     -3.4756003E-08
   50.22000     -3.4547668E-08
   50.28000     -3.4220704E-08
   50.34000     -3.3787849E-08
   50.40000     -3.3259113E-08
   50.46000     -3.2639399E-08
   50.52000     -3.1928653E-08
   50.58000     -3.1124497E-08
   50.64000     -3.0225866E-08
   50.70000     -2.9236038E-08
   50.76000     -2.8163736E-08
   50.82000     -2.7022285E-08
   50.88000     -2.5827466E-08
   50.94000     -2.4595185E-08
   51.00000     -2.3339714E-08
   51.06000     -2.2072802E-08
   51.12000     -2.0803553E-08
   51.18000     -1.9538916E-08
   51.24000     -1.8284663E-08
   51.30000     -1.7046577E-08
   51.36000     -1.5831517E-08
   51.42000     -1.4647694E-08
   51.48000     -1.3503794E-08
   51.54000     -1.2407015E-08
   51.60000     -1.1360834E-08
   51.66000     -1.0363633E-08
   51.72000     -9.4090478E-09
   51.78000     -8.4881693E-09
   51.84000     -7.5927593E-09
   51.90000     -6.7182282E-09
   51.96000     -5.8653269E-09
   52.02000     -5.0402491E-09
   52.08000     -4.2536250E-09
   52.14000     -3.5192633E-09
   52.20000     -2.8533371E-09
   52.26000     -2.2742128E-09
   52.32000     -1.8026625E-09
   52.38000     -1.4620385E-09
   52.44000     -1.2780816E-09
   52.50000     -1.2782276E-09
   52.56000     -1.4903785E-09
   52.62000     -1.9411663E-09
   52.68000     -2.6538434E-09
   52.74000     -3.6461962E-09
   52.80000     -4.9291500E-09
   52.86000     -6.5067547E-09
   52.92000     -8.3778247E-09
   52.98000     -1.0538770E-08
   53.04000     -1.2986424E-08
   53.10000     -1.5719529E-08
   53.16000     -1.8737971E-08
   53.22000     -2.2039950E-08
   53.28000     -2.5618155E-08
   53.34000     -2.9456466E-08
   53.40000     -3.3528377E-08
   53.46000     -3.7797502E-08
   53.52000     -4.2219792E-08
   53.58000     -4.6746429E-08
   53.64000     -5.1326399E-08
   53.70000     -5.5907805E-08
   53.76000     -6.0437223E-08
   53.82000     -6.4856877E-08
   53.88000     -6.9099748E-08
   53.94000     -7.3083626E-08
   54.00000     -7.6705867E-08
   54.06000     -7.9840653E-08
   54.12000     -8.2340257E-08
   54.18000     -8.4040387E-08
   54.24000     -8.4768217E-08
   54.30000     -8.4350432E-08
   54.36000     -8.2618882E-08
   54.42000     -7.9412281E-08
   54.48000     -7.4574089E-08
   54.54000     -6.7948044E-08
   54.60000     -5.9373530E-08
   54.66000     -4.8682875E-08
   54.72000     -3.5701724E-08
   54.78000     -2.0253102E-08
   54.84000     -2.1645132E-09
   54.90000      1.8723142E-08
   54.96000      4.2546720E-08
   55.02000      6.9414085E-08
   55.08000      9.9400928E-08
   55.14000      1.3255142E-07
   55.20000      1.6888139E-07
   55.26000      2.0838139E-07
   55.32000      2.5101767E-07
   55.38000      2.9672924E-07
   55.44000      3.4542194E-07
   55.50000      3.9696121E-07
   55.56000      4.5116582E-07