  -2.400000      0.0000000E+00
  -2.340000      0.0000000E+00
  -2.280000      0.0000000E+00
  -2.220000      0.0000000E+00
  -2.160000      0.0000000E+00
  -2.100000      2.4393439E-21
  -2.040000      1.0607247E-20
  -1.980000     -4.9924954E-21
  -1.920000     -1.8264251E-19
  -1.860000     -7.7954494E-19
  -1.800000     -1.8623647E-18
  -1.740000     -2.5391572E-18
  -1.680000     -2.3244398E-19
  -1.620000      8.6271844E-18
  -1.560000      2.5085660E-17
  -1.500000      4.1974304E-17
  -1.440000      4.0489469E-17
  -1.380000     -3.9769218E-18
  -1.320000     -1.0294846E-16
  -1.260000     -2.2966557E-16
  -1.200000     -3.0693888E-16
  -1.140000     -2.3038034E-16
  -1.080000      6.7332131E-17
  -1.020000      5.3858706E-16
 -0.9600000      9.8515723E-16
 -0.9000000      1.1157193E-15
 -0.8400000      6.9730759E-16
 -0.7800000     -2.7156686E-16
 -0.7200000     -1.4816061E-15
 -0.6600000     -2.4090928E-15
 -0.6000000     -2.5620942E-15
 -0.5400000     -1.7363352E-15
 -0.4800000     -1.1338772E-16
 -0.4200000      1.8617996E-15
 -0.3600000      3.7119055E-15
 -0.3000000      5.0522021E-15
 -0.2400000      5.4843939E-15
 -0.1800000      4.3896589E-15
 -0.1200000      9.7302730E-16
 -5.9999999E-02 -5.1499065E-15
  0.0000000E+00 -1.2959569E-14
  5.9999999E-02 -1.9328972E-14
  0.1200000     -1.9537447E-14
  0.1800000     -9.4482180E-15
  0.2400000      1.1326893E-14
  0.3000000      3.7082374E-14
  0.3600000      5.6541804E-14
  0.4200000      5.7117404E-14
  0.4800000      3.1540136E-14
  0.5400000     -1.6530151E-14
  0.6000000     -7.1629179E-14
  0.6600000     -1.1200069E-13
  0.7200000     -1.1951613E-13
  0.7800000     -8.8903460E-14
  0.8400000     -3.0770596E-14
  0.9000000      3.4022430E-14
  0.9600000      8.5951076E-14
   1.020000      1.1753206E-13
   1.080000      1.3604311E-13
   1.140000      1.5555455E-13
   1.200000      1.8243944E-13
   1.260000      2.0371220E-13
   1.320000      1.8737400E-13
   1.380000      9.7694727E-14
   1.440000     -8.0900686E-14
   1.500000     -3.2455251E-13
   1.560000     -5.6837244E-13
   1.620000     -7.2753083E-13
   1.680000     -7.3368172E-13
   1.740000     -5.6939924E-13
   1.800000     -2.8160777E-13
   1.860000      3.6502810E-14
   1.920000      2.9034313E-13
   1.980000      4.3611550E-13
   2.040000      5.1415540E-13
   2.100000      6.4250612E-13
   2.160000      9.6558330E-13
   2.220000      1.5727763E-12
   2.280000      2.4177680E-12
   2.340000      3.2744300E-12
   2.400000      3.7566673E-12
   2.460000      3.4098484E-12
   2.520000      1.8566745E-12
   2.580000     -1.0414592E-12
   2.640000     -5.0581388E-12
   2.700000     -9.5580713E-12
   2.760000     -1.3565034E-11
   2.820000     -1.5941793E-11
   2.880000     -1.5649313E-11
   2.940000     -1.2025284E-11
   3.000000     -5.0088670E-12
   3.060000      4.7547378E-12
   3.120000      1.5969342E-11
   3.180000      2.6900353E-11
   3.240000      3.5697834E-11
   3.300000      4.0748613E-11
   3.360000      4.0964811E-11
   3.420000      3.5934082E-11
   3.480000      2.5900242E-11
   3.540000      1.1597716E-11
   3.600000     -5.9912240E-12
   3.660000     -2.5869289E-11
   3.720000     -4.7177567E-11
   3.780000     -6.9245859E-11
   3.840000     -9.1569030E-11
   3.900000     -1.1377170E-10
   3.960000     -1.3561893E-10
   4.020000     -1.5708920E-10
   4.080000     -1.7846825E-10
   4.140000     -2.0038270E-10
   4.200000     -2.2369608E-10
   4.260000     -2.4924596E-10
   4.320000     -2.7748434E-10
   4.380000     -3.0815500E-10
   4.440000     -3.4015984E-10
   4.500000     -3.7171072E-10
   4.560000     -4.0075462E-10
   4.620000     -4.2554041E-10
   4.680000     -4.4512422E-10
   4.740000     -4.5962184E-10
   4.800000     -4.7011034E-10
   4.860000     -4.7821841E-10
   4.920000     -4.8556253E-10
   4.980000     -4.9323717E-10
   5.040000     -5.0152749E-10
   5.100000     -5.0990789E-10
   5.160000     -5.1727317E-10
   5.220000     -5.2226545E-10
   5.280000     -5.2355154E-10
   5.340000     -5.1995935E-10
   5.400000     -5.1046706E-10
   5.460000     -4.9411575E-10
   5.520000     -4.6994342E-10
   5.580000     -4.3701742E-10
   5.640000     -3.9458598E-10
   5.700000     -3.4230813E-10
   5.760000     -2.8048347E-10
   5.820000     -2.1019728E-10
   5.880000     -1.3332020E-10
   5.940000     -5.2342543E-11
   6.000000      2.9937223E-11
   6.060000      1.1081858E-10
   6.120000      1.8812875E-10
   6.180000      2.6059824E-10
   6.240000      3.2810860E-10
   6.300000      3.9175699E-10
   6.360000      4.5371240E-10
   6.420000      5.1687832E-10
   6.480000      5.8441813E-10
   6.540000      6.5922662E-10
   6.600000      7.4344542E-10
   6.660000      8.3810198E-10
   6.720000      9.4292896E-10
   6.780000      1.0563782E-09
   6.840000      1.1758204E-09
   6.900000      1.2978982E-09
   6.960000      1.4189955E-09
   7.020000      1.5357805E-09
   7.080000      1.6457654E-09
   7.140000      1.7478021E-09
   7.200000      1.8424080E-09
   7.260000      1.9318067E-09
   7.320000      2.0196005E-09
   7.380000      2.1100599E-09
   7.440000      2.2071416E-09
   7.500000      2.3134512E-09
   7.560000      2.4294391E-09
   7.620000      2.5530926E-09
   7.680000      2.6802733E-09
   7.740000      2.8056444E-09
   7.800000      2.9239426E-09
   7.860000      3.0312182E-09
   7.920000      3.1256646E-09
   7.980000      3.2077954E-09
   8.040000      3.2799488E-09
   8.100000      3.3453327E-09
   8.160000      3.4069656E-09
   8.220000      3.4668863E-09
   8.280000      3.5258640E-09
   8.340000      3.5836287E-09
   8.400000      3.6394374E-09
   8.460000      3.6926555E-09
   8.520000      3.7430636E-09
   8.580000      3.7907495E-09
   8.640000      3.8356389E-09
   8.700000      3.8769095E-09
   8.760000      3.9125951E-09
   8.820000      3.9395953E-09
   8.880000      3.9541312E-09
   8.940000      3.9524859E-09
   9.000000      3.9317389E-09
   9.060000      3.8902197E-09
   9.120000      3.8275441E-09
   9.180000      3.7442880E-09
   9.240000      3.6414882E-09
   9.300000      3.5202194E-09
   9.360000      3.3813821E-09
   9.420000      3.2257315E-09
   9.480000      3.0540439E-09
   9.540000      2.8672902E-09
   9.600000      2.6667255E-09
   9.660000      2.4538780E-09
   9.720000      2.2304731E-09
   9.780000      1.9983242E-09
   9.840000      1.7592023E-09
   9.900000      1.5146869E-09
   9.960000      1.2660096E-09
   10.02000      1.0139620E-09
   10.08000      7.5894424E-10
   10.14000      5.0118154E-10
   10.20000      2.4103619E-10
   10.26000     -2.0749824E-11
   10.32000     -2.8304517E-10
   10.38000     -5.4460064E-10
   10.44000     -8.0447238E-10
   10.50000     -1.0623400E-09
   10.56000     -1.3184878E-09
   10.62000     -1.5734032E-09
   10.68000     -1.8271940E-09
   10.74000     -2.0791739E-09
   10.80000     -2.3279070E-09
   10.86000     -2.5717306E-09
   10.92000     -2.8094747E-09
   10.98000     -3.0409089E-09
   11.04000     -3.2665657E-09
   11.10000     -3.4869181E-09
   11.16000     -3.7012806E-09
   11.22000     -3.9070240E-09
   11.28000     -4.0995904E-09
   11.34000     -4.2734305E-09
   11.40000     -4.4235402E-09
   11.46000     -4.5469712E-09
   11.52000     -4.6436930E-09
   11.58000     -4.7164774E-09
   11.64000     -4.7698676E-09
   11.70000     -4.8086606E-09
   11.76000     -4.8364597E-09
   11.82000     -4.8547997E-09
   11.88000     -4.8630926E-09
   11.94000     -4.8593800E-09
   12.00000     -4.8416080E-09
   12.06000     -4.8089825E-09
   12.12000     -4.7629207E-09
   12.18000     -4.7072182E-09
   12.24000     -4.6473065E-09
   12.30000     -4.5888235E-09
   12.36000     -4.5359880E-09
   12.42000     -4.4904302E-09
   12.48000     -4.4509485E-09
   12.54000     -4.4143107E-09
   12.60000     -4.3767572E-09
   12.66000     -4.3355661E-09
   12.72000     -4.2900306E-09
   12.78000     -4.2414898E-09
   12.84000     -4.1924957E-09
   12.90000     -4.1455510E-09
   12.96000     -4.1019885E-09
   13.02000     -4.0613801E-09
   13.08000     -4.0216088E-09
   13.14000     -3.9794275E-09
   13.20000     -3.9312309E-09
   13.26000     -3.8738031E-09
   13.32000     -3.8049208E-09
   13.38000     -3.7237893E-09
   13.44000     -3.6312979E-09
   13.50000     -3.5300436E-09
   13.56000     -3.4240464E-09
   13.62000     -3.3181573E-09
   13.68000     -3.2172738E-09
   13.74000     -3.1256180E-09
   13.80000     -3.0463412E-09
   13.86000     -2.9816187E-09
   13.92000     -2.9331702E-09
   13.98000     -2.9029243E-09
   14.04000     -2.8934426E-09
   14.10000     -2.9077760E-09
   14.16000     -2.9486626E-09
   14.22000     -3.0172680E-09
   14.28000     -3.1119107E-09
   14.34000     -3.2272771E-09
   14.40000     -3.3544914E-09
   14.46000     -3.4821026E-09
   14.52000     -3.5977106E-09
   14.58000     -3.6897330E-09
   14.64000     -3.7487831E-09
   14.70000     -3.7683514E-09
   14.76000     -3.7447725E-09
   14.82000     -3.6767531E-09
   14.88000     -3.5648262E-09
   14.94000     -3.4110192E-09
   15.00000     -3.2188008E-09
   15.06000     -2.9931762E-09
   15.12000     -2.7407139E-09
   15.18000     -2.4693394E-09
   15.24000     -2.1878492E-09
   15.30000     -1.9051953E-09
   15.36000     -1.6296141E-09
   15.42000     -1.3676659E-09
   15.48000     -1.1232741E-09
   15.54000     -8.9693508E-10
   15.60000     -6.8536127E-10
   15.66000     -4.8181892E-10
   15.72000     -2.7724278E-10
   15.78000     -6.1900859E-11
   15.84000      1.7289355E-10
   15.90000      4.3359027E-10
   15.96000      7.2405654E-10
   16.02000      1.0459642E-09
   16.08000      1.3994094E-09
   16.14000      1.7831721E-09
   16.20000      2.1943032E-09
   16.26000      2.6272224E-09
   16.32000      3.0729113E-09
   16.38000      3.5188399E-09
   16.44000      3.9499186E-09
   16.50000      4.3502264E-09
   16.56000      4.7048596E-09
   16.62000      5.0011972E-09
   16.68000      5.2292211E-09
   16.74000      5.3810378E-09
   16.80000      5.4501261E-09
   16.86000      5.4308855E-09
   16.92000      5.3188400E-09
   16.98000      5.1114633E-09
   17.04000      4.8093058E-09
   17.10000      4.4170170E-09
   17.16000      3.9439199E-09
   17.22000      3.4039616E-09
   17.28000      2.8149993E-09
   17.34000      2.1975120E-09
   17.40000      1.5729447E-09
   17.46000      9.6202735E-10
   17.52000      3.8344256E-10
   17.58000     -1.4685995E-10
   17.64000     -6.1565431E-10
   17.70000     -1.0119930E-09
   17.76000     -1.3267760E-09
   17.82000     -1.5527373E-09
   17.88000     -1.6849695E-09
   17.94000     -1.7217494E-09
   18.00000     -1.6652187E-09
   18.06000     -1.5215245E-09
   18.12000     -1.3003053E-09
   18.18000     -1.0137113E-09
   18.24000     -6.7529576E-10
   18.30000     -2.9903971E-10
   18.36000      1.0142496E-10
   18.42000      5.1346288E-10
   18.48000      9.2599850E-10
   18.54000      1.3299002E-09
   18.60000      1.7180063E-09
   18.66000      2.0847182E-09
   18.72000      2.4253579E-09
   18.78000      2.7357359E-09
   18.84000      3.0123739E-09
   18.90000      3.2535101E-09
   18.96000      3.4604903E-09
   19.02000      3.6387613E-09
   19.08000      3.7977128E-09
   19.14000      3.9490553E-09
   19.20000      4.1041313E-09
   19.26000      4.2710901E-09
   19.32000      4.4529531E-09
   19.38000      4.6471946E-09
   19.44000      4.8467901E-09
   19.50000      5.0421183E-09
   19.56000      5.2228688E-09
   19.62000      5.3792859E-09
   19.68000      5.5025411E-09
   19.74000      5.5844591E-09
   19.80000      5.6170730E-09
   19.86000      5.5925158E-09
   19.92000      5.5035279E-09
   19.98000      5.3445994E-09
   20.04000      5.1134834E-09
   20.10000      4.8126223E-09
   20.16000      4.4500155E-09
   20.22000      4.0391659E-09
   20.28000      3.5980530E-09
   20.34000      3.1474017E-09
   20.40000      2.7087632E-09
   20.46000      2.3029461E-09
   20.52000      1.9491040E-09
   20.58000      1.6644469E-09
   20.64000      1.4642368E-09
   20.70000      1.3616506E-09
   20.76000      1.3672367E-09
   20.82000      1.4879591E-09
   20.88000      1.7260346E-09
   20.94000      2.0778503E-09
   21.00000      2.5331859E-09
   21.06000      3.0749043E-09
   21.12000      3.6792485E-09
   21.18000      4.3169059E-09
   21.24000      4.9549485E-09
   21.30000      5.5595279E-09
   21.36000      6.0989129E-09
   21.42000      6.5461316E-09
   21.48000      6.8805504E-09
   21.54000      7.0880208E-09
   21.60000      7.1598514E-09
   21.66000      7.0913235E-09
   21.72000      6.8806227E-09
   21.78000      6.5287273E-09
   21.84000      6.0402083E-09
   21.90000      5.4243712E-09
   21.96000      4.6959627E-09
   22.02000      3.8748884E-09
   22.08000      2.9848501E-09
   22.14000      2.0512347E-09
   22.20000      1.0988512E-09
   22.26000      1.5007423E-10
   22.32000     -7.7620377E-10
   22.38000     -1.6646355E-09
   22.44000     -2.5025548E-09
   22.50000     -3.2784946E-09
   22.56000     -3.9806545E-09
   22.62000     -4.5960373E-09
   22.68000     -5.1108753E-09
   22.74000     -5.5125389E-09
   22.80000     -5.7924674E-09
   22.86000     -5.9490795E-09
   22.92000     -5.9894565E-09
   22.98000     -5.9289493E-09
   23.04000     -5.7886753E-09
   23.10000     -5.5916631E-09
   23.16000     -5.3589062E-09
   23.22000     -5.1065099E-09
   23.28000     -4.8446065E-09
   23.34000     -4.5780761E-09
   23.40000     -4.3086068E-09
   23.46000     -4.0373545E-09
   23.52000     -3.7674153E-09
   23.58000     -3.5053551E-09
   23.64000     -3.2611966E-09
   23.70000     -3.0466147E-09
   23.76000     -2.8716980E-09
   23.82000     -2.7413418E-09
   23.88000     -2.6527955E-09
   23.94000     -2.5957108E-09
   24.00000     -2.5551146E-09
   24.06000     -2.5163918E-09
   24.12000     -2.4702629E-09
   24.18000     -2.4155160E-09
   24.24000     -2.3581679E-09
   24.30000     -2.3073425E-09
   24.36000     -2.2697217E-09
   24.42000     -2.2450817E-09
   24.48000     -2.2249182E-09
   24.54000     -2.1947217E-09
   24.60000     -2.1388908E-09
   24.66000     -2.0462856E-09
   24.72000     -1.9143653E-09
   24.78000     -1.7506144E-09
   24.84000     -1.5710139E-09
   24.90000     -1.3962197E-09
   24.96000     -1.2466266E-09
   25.02000     -1.1376262E-09
   25.08000     -1.0762581E-09
   25.14000     -1.0601326E-09
   25.20000     -1.0789828E-09
   25.26000     -1.1184573E-09
   25.32000     -1.1649799E-09
   25.38000     -1.2099928E-09
   25.44000     -1.2519894E-09
   25.50000     -1.2955246E-09
   25.56000     -1.3475927E-09
   25.62000     -1.4128700E-09
   25.68000     -1.4898018E-09
   25.74000     -1.5691632E-09
   25.80000     -1.6356988E-09
   25.86000     -1.6722345E-09
   25.92000     -1.6647536E-09
   25.98000     -1.6066456E-09
   26.04000     -1.5006888E-09
   26.10000     -1.3581193E-09
   26.16000     -1.1950855E-09
   26.22000     -1.0276172E-09
   26.28000     -8.6674445E-10
   26.34000     -7.1541406E-10
   26.40000     -5.6829985E-10
   26.46000     -4.1459305E-10
   26.52000     -2.4271810E-10
   26.58000     -4.5116570E-11
   26.64000      1.7881778E-10
   26.70000      4.2278464E-10
   26.76000      6.7642669E-10
   26.82000      9.2959007E-10
   26.88000      1.1760669E-09
   26.94000      1.4152717E-09
   27.00000      1.6513517E-09
   27.06000      1.8903843E-09
   27.12000      2.1369897E-09
   27.18000      2.3916833E-09
   27.24000      2.6497415E-09
   27.30000      2.9016838E-09
   27.36000      3.1350114E-09
   27.42000      3.3366689E-09
   27.48000      3.4956853E-09
   27.54000      3.6054444E-09
   27.60000      3.6649841E-09
   27.66000      3.6788006E-09
   27.72000      3.6550001E-09
   27.78000      3.6022527E-09
   27.84000      3.5266046E-09
   27.90000      3.4294061E-09
   27.96000      3.3072129E-09
   28.02000      3.1536569E-09
   28.08000      2.9623872E-09
   28.14000      2.7297593E-09
   28.20000      2.4561884E-09
   28.26000      2.1458262E-09
   28.32000      1.8050024E-09
   28.38000      1.4402965E-09
   28.44000      1.0570237E-09
   28.50000      6.5853900E-10
   28.56000      2.4639221E-10
   28.62000     -1.7880651E-10
   28.68000     -6.1596217E-10
   28.74000     -1.0617205E-09
   28.80000     -1.5087727E-09
   28.86000     -1.9449522E-09
   28.92000     -2.3538713E-09
   28.98000     -2.7174338E-09
   29.04000     -3.0197385E-09
   29.10000     -3.2510530E-09
   29.16000     -3.4102206E-09
   29.22000     -3.5043295E-09
   29.28000     -3.5456000E-09
   29.34000     -3.5466672E-09
   29.40000     -3.5161514E-09
   29.46000     -3.4562462E-09
   29.52000     -3.3631626E-09
   29.58000     -3.2300702E-09
   29.64000     -3.0512646E-09
   29.70000     -2.8259572E-09
   29.76000     -2.5603413E-09
   29.82000     -2.2672255E-09
   29.88000     -1.9633024E-09
   29.94000     -1.6648407E-09
   30.00000     -1.3831571E-09
   30.06000     -1.1214430E-09
   30.12000     -8.7426311E-10
   30.18000     -6.3019334E-10
   30.24000     -3.7685499E-10
   30.30000     -1.0647920E-10
   30.36000      1.8028000E-10
   30.42000      4.7395443E-10
   30.48000      7.5949941E-10
   30.54000      1.0217182E-09
   30.60000      1.2504521E-09
   30.66000      1.4433043E-09
   30.72000      1.6049118E-09
   30.78000      1.7433992E-09
   30.84000      1.8657864E-09
   30.90000      1.9742998E-09
   30.96000      2.0648248E-09
   31.02000      2.1276985E-09
   31.08000      2.1502642E-09
   31.14000      2.1203208E-09
   31.20000      2.0296991E-09
   31.26000      1.8772774E-09
   31.32000      1.6707156E-09
   31.38000      1.4261282E-09
   31.44000      1.1652296E-09
   31.50000      9.1028302E-10
   31.56000      6.7825845E-10
   31.62000      4.7632798E-10
   31.68000      3.0063882E-10
   31.74000      1.3909184E-10
   31.80000     -2.2870608E-11
   31.86000     -1.9582248E-10
   31.92000     -3.8187439E-10
   31.98000     -5.7381144E-10
   32.04000     -7.5785822E-10
   32.10000     -9.1861324E-10
   32.16000     -1.0440735E-09
   32.22000     -1.1290145E-09
   32.28000     -1.1758997E-09
   32.34000     -1.1934111E-09
   32.40000     -1.1932583E-09
   32.46000     -1.1861568E-09
   32.52000     -1.1779718E-09
   32.58000     -1.1671272E-09
   32.64000     -1.1443466E-09
   32.70000     -1.0953551E-09
   32.76000     -1.0062183E-09
   32.82000     -8.6981422E-10
   32.88000     -6.9108863E-10
   32.94000     -4.8884302E-10
   33.00000     -2.9295094E-10
   33.06000     -1.3768266E-10
   33.12000     -5.3391683E-11
   33.18000     -5.9454761E-11
   33.24000     -1.6080509E-10
   33.30000     -3.4897626E-10
   33.36000     -6.0698196E-10
   33.42000     -9.1618929E-10
   33.48000     -1.2629204E-09
   33.54000     -1.6427516E-09
   33.60000     -2.0611965E-09
   33.66000     -2.5304607E-09
   33.72000     -3.0631246E-09
   33.78000     -3.6647543E-09
   33.84000     -4.3281543E-09
   33.90000     -5.0317990E-09
   33.96000     -5.7437086E-09
   34.02000     -6.4299055E-09
   34.08000     -7.0644637E-09
   34.14000     -7.6371416E-09
   34.20000     -8.1552596E-09
   34.26000     -8.6388008E-09
   34.32000     -9.1105523E-09
   34.38000     -9.5852783E-09
   34.44000     -1.0062206E-08
   34.50000     -1.0523643E-08
   34.56000     -1.0939914E-08
   34.62000     -1.1278349E-08
   34.68000     -1.1512803E-08
   34.74000     -1.1630377E-08
   34.80000     -1.1633404E-08
   34.86000     -1.1536597E-08
   34.92000     -1.1360710E-08
   34.98000     -1.1125059E-08
   35.04000     -1.0841320E-08
   35.10000     -1.0510573E-08
   35.16000     -1.0124519E-08
   35.22000     -9.6704698E-09
   35.28000     -9.1383692E-09
   35.34000     -8.5273131E-09
   35.40000     -7.8491187E-09
   35.46000     -7.1275297E-09
   35.52000     -6.3933441E-09
   35.58000     -5.6772791E-09
   35.64000     -5.0031552E-09
   35.70000     -4.3836326E-09
   35.76000     -3.8195660E-09
   35.82000     -3.3026628E-09
   35.88000     -2.8201312E-09
   35.94000     -2.3597040E-09
   36.00000     -1.9136626E-09
   36.06000     -1.4809733E-09
   36.12000     -1.0671444E-09
   36.18000     -6.8189282E-10
   36.24000     -3.3526767E-10
   36.30000     -3.3451217E-11
   36.36000      2.2417554E-10
   36.42000      4.4533452E-10
   36.48000      6.4210826E-10
   36.54000      8.2610774E-10
   36.60000      1.0036513E-09
   36.66000      1.1732508E-09
   36.72000      1.3267321E-09
   36.78000      1.4535798E-09
   36.84000      1.5465128E-09
   36.90000      1.6057100E-09
   36.96000      1.6398155E-09
   37.02000      1.6634358E-09
   37.08000      1.6924200E-09
   37.14000      1.7389804E-09
   37.20000      1.8084421E-09
   37.26000      1.8984190E-09
   37.32000      2.0001800E-09
   37.38000      2.1013704E-09
   37.44000      2.1891737E-09
   37.50000      2.2531863E-09
   37.56000      2.2874120E-09
   37.62000      2.2908597E-09
   37.68000      2.2663793E-09
   37.74000      2.2178812E-09
   37.80000      2.1468425E-09
   37.86000      2.0496258E-09
   37.92000      1.9171220E-09
   37.98000      1.7373483E-09
   38.04000      1.5002030E-09
   38.10000      1.2023496E-09
   38.16000      8.4990442E-10
   38.22000      4.5750650E-10
   38.28000      4.4026827E-11
   38.34000     -3.7325593E-10
   38.40000     -7.8354379E-10
   38.46000     -1.1845829E-09
   38.52000     -1.5814208E-09
   38.58000     -1.9828243E-09
   38.64000     -2.3971114E-09
   38.70000     -2.8290286E-09
   38.76000     -3.2785490E-09
   38.82000     -3.7415933E-09
   38.88000     -4.2120805E-09
   38.94000     -4.6844955E-09
   39.00000     -5.1561622E-09
   39.06000     -5.6284750E-09
   39.12000     -6.1064762E-09
   39.18000     -6.5965273E-09
   39.24000     -7.1025048E-09
   39.30000     -7.6217539E-09
   39.36000     -8.1425542E-09
   39.42000     -8.6446086E-09
   39.48000     -9.1029815E-09
   39.54000     -9.4943449E-09
   39.60000     -9.8031574E-09
   39.66000     -1.0025158E-08
   39.72000     -1.0166612E-08
   39.78000     -1.0239563E-08
   39.84000     -1.0255109E-08
   39.90000     -1.0217563E-08
   39.96000     -1.0121819E-08
   40.02000     -9.9547952E-09
   40.08000     -9.7001047E-09
   40.14000     -9.3439825E-09
   40.20000     -8.8802459E-09
   40.26000     -8.3127434E-09
   40.32000     -7.6547106E-09
   40.38000     -6.9254238E-09
   40.44000     -6.1451870E-09
   40.50000     -5.3300977E-09
   40.56000     -4.4881614E-09
   40.62000     -3.6181742E-09
   40.68000     -2.7121849E-09
   40.74000     -1.7611886E-09
   40.80000     -7.6236112E-10
   40.86000      2.7492100E-10
   40.92000      1.3270464E-09
   40.98000      2.3596345E-09
   41.04000      3.3358079E-09
   41.10000      4.2263717E-09
   41.16000      5.0179110E-09
   41.22000      5.7154734E-09
   41.28000      6.3387144E-09
   41.34000      6.9131341E-09
   41.40000      7.4600432E-09
   41.46000      7.9892137E-09
   41.52000      8.4968130E-09
   41.58000      8.9688106E-09
   41.64000      9.3879358E-09
   41.70000      9.7411057E-09
   41.76000      1.0024562E-08
   41.82000      1.0245184E-08
   41.88000      1.0418008E-08
   41.94000      1.0561153E-08
   42.00000      1.0689940E-08
   42.06000      1.0812022E-08
   42.12000      1.0924909E-08
   42.18000      1.1016645E-08
   42.24000      1.1069545E-08
   42.30000      1.1065941E-08
   42.36000      1.0994175E-08
   42.42000      1.0852795E-08
   42.48000      1.0651398E-08
   42.54000      1.0407765E-08
   42.60000      1.0142326E-08
   42.66000      9.8720179E-09
   42.72000      9.6058121E-09
   42.78000      9.3434203E-09
   42.84000      9.0774011E-09
   42.90000      8.7975893E-09
   42.96000      8.4960696E-09
   43.02000      8.1709199E-09
   43.08000      7.8276079E-09
   43.14000      7.4777899E-09
   43.20000      7.1360877E-09
   43.26000      6.8159323E-09
   43.32000      6.5257888E-09
   43.38000      6.2668968E-09
   43.44000      6.0331837E-09
   43.50000      5.8133280E-09
   43.56000      5.5942047E-09
   43.62000      5.3644693E-09
   43.68000      5.1170512E-09
   43.74000      4.8498379E-09
   43.80000      4.5646500E-09
   43.86000      4.2652828E-09
   43.92000      3.9556158E-09
   43.98000      3.6385164E-09
   44.04000      3.3156633E-09
   44.10000      2.9879870E-09
   44.16000      2.6562883E-09
   44.22000      2.3218043E-09
   44.28000      1.9867292E-09
   44.34000      1.6547125E-09
   44.40000      1.3311307E-09
   44.46000      1.0227199E-09
   44.52000      7.3623363E-10
   44.58000      4.7631249E-10
   44.64000      2.4340649E-10
   44.70000      3.2923331E-11
   44.76000     -1.6357721E-10
   44.82000     -3.5529593E-10
   44.88000     -5.4844085E-10
   44.94000     -7.4353868E-10
   45.00000     -9.3510200E-10
   45.06000     -1.1137505E-09
   45.12000     -1.2696272E-09
   45.18000     -1.3953602E-09
   45.24000     -1.4872440E-09
   45.30000     -1.5444456E-09
   45.36000     -1.5671766E-09
   45.42000     -1.5552249E-09
   45.48000     -1.5077924E-09
   45.54000     -1.4246118E-09
   45.60000     -1.3074675E-09
   45.66000     -1.1610490E-09
   45.72000     -9.9257003E-10
   45.78000     -8.1039381E-10
   45.84000     -6.2246441E-10
   45.90000     -4.3531995E-10
   45.96000     -2.5396027E-10
   46.02000     -8.2238799E-11
   46.08000      7.6836912E-11
   46.14000      2.2133377E-10
   46.20000      3.5112080E-10
   46.26000      4.6864679E-10
   46.32000      5.7921218E-10
   46.38000      6.9041400E-10
   46.44000      8.1084478E-10
   46.50000      9.4844299E-10
   46.56000      1.1089916E-09
   46.62000      1.2951404E-09
   46.68000      1.5061040E-09
   46.74000      1.7379851E-09
   46.80000      1.9845285E-09
   46.86000      2.2380495E-09
   46.92000      2.4902747E-09
   46.98000      2.7328999E-09
   47.04000      2.9578031E-09
   47.10000      3.1570275E-09
   47.16000      3.3227836E-09
   47.22000      3.4477168E-09
   47.28000      3.5255556E-09
   47.34000      3.5520213E-09
   47.40000      3.5256793E-09
   47.46000      3.4483720E-09
   47.52000      3.3249903E-09
   47.58000      3.1625873E-09
   47.64000      2.9690870E-09
   47.70000      2.7519822E-09
   47.76000      2.5174260E-09
   47.82000      2.2699740E-09
   47.88000      2.0129904E-09
   47.94000      1.7494580E-09
   48.00000      1.4827141E-09
   48.06000      1.2166126E-09
   48.12000      9.5482988E-10
   48.18000      6.9945416E-10
   48.24000      4.4946158E-10
   48.30000      1.9990846E-10
   48.36000     -5.7504116E-11
   48.42000     -3.3240100E-10
   48.48000     -6.3283606E-10
   48.54000     -9.6257868E-10
   48.60000     -1.3195891E-09
   48.66000     -1.6961769E-09
   48.72000     -2.0806417E-09
   48.78000     -2.4597093E-09
   48.84000     -2.8209992E-09
   48.90000     -3.1550111E-09
   48.96000     -3.4564380E-09
   49.02000     -3.7247210E-09
   49.08000     -3.9637005E-09
   49.14000     -4.1801678E-09
   49.20000     -4.3813833E-09
   49.26000     -4.5721902E-09
   49.32000     -4.7528705E-09
   49.38000     -4.9189581E-09
   49.44000     -5.0634816E-09
   49.50000     -5.1808762E-09
   49.56000     -5.2707061E-09
   49.62000     -5.3390963E-09
   49.68000     -5.3967413E-09
   49.74000     -5.4540688E-09
   49.80000     -5.5157066E-09
   49.86000     -5.5769145E-09
   49.92000     -5.6237286E-09
   49.98000     -5.6367755E-09
   50.04000     -5.5969531E-09
   50.10000     -5.4904770E-09
   50.16000     -5.3114158E-09
   50.22000     -5.0612665E-09
   50.28000     -4.7465267E-09
   50.34000     -4.3757380E-09
   50.40000     -3.9570369E-09
   50.46000     -3.4963492E-09
   50.52000     -2.9957434E-09
   50.58000     -2.4515996E-09
   50.64000     -1.8529625E-09
   50.70000     -1.1810878E-09
   50.76000     -4.1113121E-10
   50.82000      4.8401150E-10
   50.88000      1.5289875E-09
   50.94000      2.7424822E-09
   51.00000      4.1367065E-09
   51.06000      5.7202771E-09
   51.12000      7.5031945E-09
   51.18000      9.5015853E-09
   51.24000      1.1740116E-08
   51.30000      1.4251373E-08
   51.36000      1.7073107E-08
   51.42000      2.0245215E-08
   51.48000      2.3808015E-08
   51.54000      2.7802258E-08
   51.60000      3.2270094E-08
   51.66000      3.7255784E-08
   51.72000      4.2805585E-08
   51.78000      4.8967213E-08
   51.84000      5.5789847E-08
   51.90000      6.3325416E-08
   51.96000      7.1630637E-08
   52.02000      8.0768508E-08
   52.08000      9.0807454E-08
   52.14000      1.0181781E-07
   52.20000      1.1386654E-07
   52.26000      1.2701219E-07
   52.32000      1.4130178E-07
   52.38000      1.5677030E-07
   52.44000      1.7344117E-07
   52.50000      1.9132600E-07
   52.56000      2.1042243E-07
   52.62000      2.3071024E-07
   52.68000      2.5214686E-07
   52.74000      2.7466447E-07
   52.80000      2.9816832E-07
   52.86000      3.2253573E-07
   52.92000      3.4761433E-07
   52.98000      3.7321840E-07
   53.04000      3.9912351E-07
   53.10000      4.2506218E-07
   53.16000      4.5072090E-07
   53.22000      4.7573968E-07
   53.28000      4.9971226E-07
   53.34000      5.2218553E-07
   53.40000      5.4265746E-07
   53.46000      5.6057422E-07
   53.52000      5.7532861E-07
   53.58000      5.8626193E-07
   53.64000      5.9266927E-07
   53.70000      5.9380676E-07
   53.76000      5.8889862E-07
   53.82000      5.7714180E-07
   53.88000      5.5771085E-07
   53.94000      5.2976276E-07
   54.00000      4.9244636E-07
   54.06000      4.4491495E-07
   54.12000      3.8634113E-07
   54.18000      3.1593160E-07
   54.24000      2.3293975E-07
   54.30000      1.3667689E-07
   54.36000      2.6523079E-08
   54.42000     -9.8060205E-08
   54.48000     -2.3751529E-07
   54.54000     -3.9217247E-07
   54.60000     -5.6223462E-07
   54.66000     -7.4776375E-07
   54.72000     -9.4866806E-07
   54.78000     -1.1646902E-06
   54.84000     -1.3953940E-06
   54.90000     -1.6401526E-06
   54.96000     -1.8981407E-06
   55.02000     -2.1683297E-06
   55.08000     -2.4494907E-06
   55.14000     -2.7401984E-06
   55.20000     -3.0388383E-06
   55.26000     -3.3436102E-06
   55.32000     -3.6525357E-06
   55.38000     -3.9634624E-06
   55.44000     -4.2740794E-06
   55.50000     -4.5819347E-06
   55.56000     -4.8844604E-06