  -2.400000      0.0000000E+00
  -2.340000      0.0000000E+00
  -2.280000      0.0000000E+00
  -2.220000      0.0000000E+00
  -2.160000      0.0000000E+00
  -2.100000      7.2813730E-22
  -2.040000      1.9606725E-21
  -1.980000     -1.2302803E-20
  -1.920000     -1.0423854E-19
  -1.860000     -3.8668628E-19
  -1.800000     -9.0666037E-19
  -1.740000     -1.3391535E-18
  -1.680000     -6.1480773E-19
  -1.620000      3.0878768E-18
  -1.560000      1.1397981E-17
  -1.500000      2.3612135E-17
  -1.440000      3.4069700E-17
  -1.380000      3.0879311E-17
  -1.320000     -1.7676883E-18
  -1.260000     -7.6541040E-17
  -1.200000     -1.9241620E-16
  -1.140000     -3.2430718E-16
  -1.080000     -4.1751286E-16
  -1.020000     -3.9066115E-16
 -0.9600000     -1.4950726E-16
 -0.9000000      3.8575209E-16
 -0.8400000      1.2355094E-15
 -0.7800000      2.2963372E-15
 -0.7200000      3.2688486E-15
 -0.6600000      3.6162928E-15
 -0.6000000      2.6207320E-15
 -0.5400000     -3.9326819E-16
 -0.4800000     -5.6493282E-15
 -0.4200000     -1.2420766E-14
 -0.3600000     -1.8679524E-14
 -0.3000000     -2.1211738E-14
 -0.2400000     -1.6449155E-14
 -0.1800000     -1.9975807E-15
 -0.1200000      2.1561812E-14
 -5.9999999E-02  4.9386703E-14
  0.0000000E+00  7.2483828E-14
  5.9999999E-02  7.9752184E-14
  0.1200000      6.1745802E-14
  0.1800000      1.5051349E-14
  0.2400000     -5.4434450E-14
  0.3000000     -1.3098847E-13
  0.3600000     -1.9212680E-13
  0.4200000     -2.1470729E-13
  0.4800000     -1.8221045E-13
  0.5400000     -9.0714023E-14
  0.6000000      4.8502367E-14
  0.6600000      2.1046889E-13
  0.7200000      3.6132642E-13
  0.7800000      4.6458502E-13
  0.8400000      4.8711697E-13
  0.9000000      4.0427698E-13
  0.9600000      2.0487164E-13
   1.020000     -1.0286197E-13
   1.080000     -4.8428400E-13
   1.140000     -8.7295660E-13
   1.200000     -1.1719450E-12
   1.260000     -1.2674831E-12
   1.320000     -1.0576865E-12
   1.380000     -4.9249520E-13
   1.440000      3.8681368E-13
   1.500000      1.4256392E-12
   1.560000      2.3679123E-12
   1.620000      2.9093440E-12
   1.680000      2.7845799E-12
   1.740000      1.8647026E-12
   1.800000      2.3145464E-13
   1.860000     -1.8038044E-12
   1.920000     -3.7535218E-12
   1.980000     -5.0728796E-12
   2.040000     -5.3128699E-12
   2.100000     -4.2609874E-12
   2.160000     -2.0237874E-12
   2.220000      9.7718383E-13
   2.280000      4.0971341E-12
   2.340000      6.6211524E-12
   2.400000      7.9351647E-12
   2.460000      7.6693504E-12
   2.520000      5.7810519E-12
   2.580000      2.5641527E-12
   2.640000     -1.4089326E-12
   2.700000     -5.3944601E-12
   2.760000     -8.6117962E-12
   2.820000     -1.0384833E-11
   2.880000     -1.0272453E-11
   2.940000     -8.1701035E-12
   3.000000     -4.3626973E-12
   3.060000      4.9072915E-13
   3.120000      5.4535365E-12
   3.180000      9.4869806E-12
   3.240000      1.1681356E-11
   3.300000      1.1498394E-11
   3.360000      8.9675446E-12
   3.420000      4.7795526E-12
   3.480000      2.3759930E-13
   3.540000     -2.9438719E-12
   3.600000     -2.9661007E-12
   3.660000      1.6621375E-12
   3.720000      1.1751859E-11
   3.780000      2.7169537E-11
   3.840000      4.6753056E-11
   3.900000      6.8441891E-11
   3.960000      8.9603762E-11
   4.020000      1.0748884E-10
   4.080000      1.1970711E-10
   4.140000      1.2461843E-10
   4.200000      1.2155339E-10
   4.260000      1.1083594E-10
   4.320000      9.3639915E-11
   4.380000      7.1754817E-11
   4.440000      4.7347144E-11
   4.500000      2.2775849E-11
   4.560000      4.7134638E-13
   4.620000     -1.7161635E-11
   4.680000     -2.7878529E-11
   4.740000     -2.9810907E-11
   4.800000     -2.1757996E-11
   4.860000     -3.4884272E-12
   4.920000      2.4051950E-11
   4.980000      5.8726510E-11
   5.040000      9.7439001E-11
   5.100000      1.3658144E-10
   5.160000      1.7259634E-10
   5.220000      2.0250998E-10
   5.280000      2.2430476E-10
   5.340000      2.3705488E-10
   5.400000      2.4082950E-10
   5.460000      2.3643518E-10
   5.520000      2.2510387E-10
   5.580000      2.0822234E-10
   5.640000      1.8715625E-10
   5.700000      1.6317166E-10
   5.760000      1.3742038E-10
   5.820000      1.1094739E-10
   5.880000      8.4694203E-11
   5.940000      5.9496019E-11
   6.000000      3.6085464E-11
   6.060000      1.5110318E-11
   6.120000     -2.8480024E-12
   6.180000     -1.7290761E-11
   6.240000     -2.7895268E-11
   6.300000     -3.4709052E-11
   6.360000     -3.8428590E-11
   6.420000     -4.0700429E-11
   6.480000     -4.4350638E-11
   6.540000     -5.3445880E-11
   6.600000     -7.3118005E-11
   6.660000     -1.0913738E-10
   6.720000     -1.6728061E-10
   6.780000     -2.5259134E-10
   6.840000     -3.6866796E-10
   6.900000     -5.1712068E-10
   6.960000     -6.9732231E-10
   7.020000     -9.0652841E-10
   7.080000     -1.1403679E-09
   7.140000     -1.3936137E-09
   7.200000     -1.6610626E-09
   7.260000     -1.9383013E-09
   7.320000     -2.2221560E-09
   7.380000     -2.5107048E-09
   7.440000     -2.8028597E-09
   7.500000     -3.0976683E-09
   7.560000     -3.3935574E-09
   7.620000     -3.6877497E-09
   7.680000     -3.9759906E-09
   7.740000     -4.2526165E-09
   7.800000     -4.5108570E-09
   7.860000     -4.7432551E-09
   7.920000     -4.9421032E-09
   7.980000     -5.0998730E-09
   8.040000     -5.2096709E-09
   8.100000     -5.2657558E-09
   8.160000     -5.2640754E-09
   8.220000     -5.2027125E-09
   8.280000     -5.0820672E-09
   8.340000     -4.9046718E-09
   8.400000     -4.6746718E-09
   8.460000     -4.3971498E-09
   8.520000     -4.0775778E-09
   8.580000     -3.7216150E-09
   8.640000     -3.3353122E-09
   8.700000     -2.9255427E-09
   8.760000     -2.5003364E-09
   8.820000     -2.0687769E-09
   8.880000     -1.6403143E-09
   8.940000     -1.2236058E-09
   9.000000     -8.2525131E-10
   9.060000     -4.4888770E-10
   9.120000     -9.4996892E-11
   9.180000      2.3846924E-10
   9.240000      5.5484767E-10
   9.300000      8.5732238E-10
   9.360000      1.1477485E-09
   9.420000      1.4260841E-09
   9.480000      1.6905460E-09
   9.540000      1.9383555E-09
   9.600000      2.1667654E-09
   9.660000      2.3739954E-09
   9.720000      2.5597500E-09
   9.780000      2.7251530E-09
   9.840000      2.8721099E-09
   9.900000      3.0023219E-09
   9.960000      3.1162908E-09
   10.02000      3.2126921E-09
   10.08000      3.2883720E-09
   10.14000      3.3390146E-09
   10.20000      3.3602743E-09
   10.26000      3.3489904E-09
   10.32000      3.3040741E-09
   10.38000      3.2267975E-09
   10.44000      3.1204561E-09
   10.50000      2.9895972E-09
   10.56000      2.8391183E-09
   10.62000      2.6734832E-09
   10.68000      2.4961682E-09
   10.74000      2.3092963E-09
   10.80000      2.1134079E-09
   10.86000      1.9073616E-09
   10.92000      1.6885013E-09
   10.98000      1.4532471E-09
   11.04000      1.1981663E-09
   11.10000      9.2135544E-10
   11.16000      6.2371264E-10
   11.22000      3.0959835E-10
   11.28000     -1.3507790E-11
   11.34000     -3.3641617E-10
   11.40000     -6.5038197E-10
   11.46000     -9.4939379E-10
   11.52000     -1.2319069E-09
   11.58000     -1.5014910E-09
   11.64000     -1.7661762E-09
   11.70000     -2.0366573E-09
   11.76000     -2.3238349E-09
   11.82000     -2.6363633E-09
   11.88000     -2.9789047E-09
   11.94000     -3.3516134E-09
   12.00000     -3.7510293E-09
   12.06000     -4.1720893E-09
   12.12000     -4.6105542E-09
   12.18000     -5.0649298E-09
   12.24000     -5.5371170E-09
   12.30000     -6.0315135E-09
   12.36000     -6.5529249E-09
   12.42000     -7.1041586E-09
   12.48000     -7.6842728E-09
   12.54000     -8.2881293E-09
   12.60000     -8.9072723E-09
   12.66000     -9.5315835E-09
   12.72000     -1.0150925E-08
   12.78000     -1.0756180E-08
   12.84000     -1.1339540E-08
   12.90000     -1.1894328E-08
   12.96000     -1.2414789E-08
   13.02000     -1.2896095E-08
   13.08000     -1.3334512E-08
   13.14000     -1.3727472E-08
   13.20000     -1.4073335E-08
   13.26000     -1.4370908E-08
   13.32000     -1.4618993E-08
   13.38000     -1.4816332E-08
   13.44000     -1.4962001E-08
   13.50000     -1.5056056E-08
   13.56000     -1.5100010E-08
   13.62000     -1.5096845E-08
   13.68000     -1.5050698E-08
   13.74000     -1.4966579E-08
   13.80000     -1.4850592E-08
   13.86000     -1.4710714E-08
   13.92000     -1.4557723E-08
   13.98000     -1.4405432E-08
   14.04000     -1.4269597E-08
   14.10000     -1.4165381E-08
   14.16000     -1.4104048E-08
   14.22000     -1.4090065E-08
   14.28000     -1.4119752E-08
   14.34000     -1.4181998E-08
   14.40000     -1.4260781E-08
   14.46000     -1.4338519E-08
   14.52000     -1.4399156E-08
   14.58000     -1.4430165E-08
   14.64000     -1.4423271E-08
   14.70000     -1.4374150E-08
   14.76000     -1.4281687E-08
   14.82000     -1.4147264E-08
   14.88000     -1.3974327E-08
   14.94000     -1.3768269E-08
   15.00000     -1.3536439E-08
   15.06000     -1.3288109E-08
   15.12000     -1.3034134E-08
   15.18000     -1.2786163E-08
   15.24000     -1.2555339E-08
   15.30000     -1.2350593E-08
   15.36000     -1.2176891E-08
   15.42000     -1.2033863E-08
   15.48000     -1.1915318E-08
   15.54000     -1.1809854E-08
   15.60000     -1.1702516E-08
   15.66000     -1.1577066E-08
   15.72000     -1.1418321E-08
   15.78000     -1.1214019E-08
   15.84000     -1.0955834E-08
   15.90000     -1.0639511E-08
   15.96000     -1.0264272E-08
   16.02000     -9.8319068E-09
   16.08000     -9.3459320E-09
   16.14000     -8.8112229E-09
   16.20000     -8.2342337E-09
   16.26000     -7.6236386E-09
   16.32000     -6.9909256E-09
   16.38000     -6.3503540E-09
   16.44000     -5.7178662E-09
   16.50000     -5.1090177E-09
   16.56000     -4.5365049E-09
   16.62000     -4.0082062E-09
   16.68000     -3.5265422E-09
   16.74000     -3.0894334E-09
   16.80000     -2.6924207E-09
   16.86000     -2.3310098E-09
   16.92000     -2.0022592E-09
   16.98000     -1.7050710E-09
   17.04000     -1.4393033E-09
   17.10000     -1.2043301E-09
   17.16000     -9.9777486E-10
   17.22000     -8.1488538E-10
   17.28000     -6.4859734E-10
   17.34000     -4.9007892E-10
   17.40000     -3.2953615E-10
   17.46000     -1.5722186E-10
   17.52000      3.5312375E-11
   17.58000      2.5379659E-10
   17.64000      5.0000676E-10
   17.70000      7.7127627E-10
   17.76000      1.0612350E-09
   17.82000      1.3618263E-09
   17.88000      1.6660682E-09
   17.94000      1.9706219E-09
   18.00000      2.2772544E-09
   18.06000      2.5927482E-09
   18.12000      2.9274652E-09
   18.18000      3.2932879E-09
   18.24000      3.7017653E-09
   18.30000      4.1630255E-09
   18.36000      4.6855346E-09
   18.42000      5.2763975E-09
   18.48000      5.9417125E-09
   18.54000      6.6865815E-09
   18.60000      7.5145579E-09
   18.66000      8.4265466E-09
   18.72000      9.4193133E-09
   18.78000      1.0483943E-08
   18.84000      1.1604639E-08
   18.90000      1.2758368E-08
   18.96000      1.3915670E-08
   19.02000      1.5042778E-08
   19.08000      1.6104741E-08
   19.14000      1.7069018E-08
   19.20000      1.7908810E-08
   19.26000      1.8605574E-08
   19.32000      1.9150434E-08
   19.38000      1.9544487E-08
   19.44000      1.9798192E-08
   19.50000      1.9930008E-08
   19.56000      1.9964499E-08
   19.62000      1.9930079E-08
   19.68000      1.9856632E-08
   19.74000      1.9773418E-08
   19.80000      1.9707450E-08
   19.86000      1.9682542E-08
   19.92000      1.9718781E-08
   19.98000      1.9832100E-08
   20.04000      2.0033568E-08
   20.10000      2.0328278E-08
   20.16000      2.0714044E-08
   20.22000      2.1180357E-08
   20.28000      2.1708116E-08
   20.34000      2.2270513E-08
   20.40000      2.2835080E-08
   20.46000      2.3366704E-08
   20.52000      2.3831122E-08
   20.58000      2.4198373E-08
   20.64000      2.4445635E-08
   20.70000      2.4558915E-08
   20.76000      2.4533266E-08
   20.82000      2.4371454E-08
   20.88000      2.4081370E-08
   20.94000      2.3672873E-08
   21.00000      2.3154907E-08
   21.06000      2.2533646E-08
   21.12000      2.1812138E-08
   21.18000      2.0991358E-08
   21.24000      2.0072113E-08
   21.30000      1.9057019E-08
   21.36000      1.7951665E-08
   21.42000      1.6764432E-08
   21.48000      1.5504893E-08
   21.54000      1.4181251E-08
   21.60000      1.2797816E-08
   21.66000      1.1353626E-08
   21.72000      9.8430908E-09
   21.78000      8.2588505E-09
   21.84000      6.5961903E-09
   21.90000      4.8575437E-09
   21.96000      3.0554264E-09
   22.02000      1.2125424E-09
   22.08000     -6.4119698E-10
   22.14000     -2.4738847E-09
   22.20000     -4.2573998E-09
   22.26000     -5.9719545E-09
   22.32000     -7.6081168E-09
   22.38000     -9.1659160E-09
   22.44000     -1.0651553E-08
   22.50000     -1.2072844E-08
   22.56000     -1.3434810E-08
   22.62000     -1.4736667E-08
   22.68000     -1.5971148E-08
   22.74000     -1.7126482E-08
   22.80000     -1.8190546E-08
   22.86000     -1.9155911E-08
   22.92000     -2.0023926E-08
   22.98000     -2.0806052E-08
   23.04000     -2.1521467E-08
   23.10000     -2.2191429E-08
   23.16000     -2.2832264E-08
   23.22000     -2.3449733E-08
   23.28000     -2.4037096E-08
   23.34000     -2.4577831E-08
   23.40000     -2.5052126E-08
   23.46000     -2.5444761E-08
   23.52000     -2.5751437E-08
   23.58000     -2.5981336E-08
   23.64000     -2.6155055E-08
   23.70000     -2.6298615E-08
   23.76000     -2.6435446E-08
   23.82000     -2.6578746E-08
   23.88000     -2.6726386E-08
   23.94000     -2.6859915E-08
   24.00000     -2.6948106E-08
   24.06000     -2.6954321E-08
   24.12000     -2.6845765E-08
   24.18000     -2.6601917E-08
   24.24000     -2.6219487E-08
   24.30000     -2.5712147E-08
   24.36000     -2.5105040E-08
   24.42000     -2.4425901E-08
   24.48000     -2.3695851E-08
   24.54000     -2.2923082E-08
   24.60000     -2.2101521E-08
   24.66000     -2.1214705E-08
   24.72000     -2.0243400E-08
   24.78000     -1.9174182E-08
   24.84000     -1.8006164E-08
   24.90000     -1.6753686E-08
   24.96000     -1.5444083E-08
   25.02000     -1.4111137E-08
   25.08000     -1.2786145E-08
   25.14000     -1.1489401E-08
   25.20000     -1.0224971E-08
   25.26000     -8.9809067E-09
   25.32000     -7.7352782E-09
   25.38000     -6.4663963E-09
   25.44000     -5.1638409E-09
   25.50000     -3.8363144E-09
   25.56000     -2.5132705E-09
   25.62000     -1.2394249E-09
   25.68000     -6.3858217E-11
   25.74000      9.7264674E-10
   25.80000      1.8478317E-09
   25.86000      2.5625286E-09
   25.92000      3.1383471E-09
   25.98000      3.6094754E-09
   26.04000      4.0112940E-09
   26.10000      4.3692499E-09
   26.16000      4.6912456E-09
   26.22000      4.9657167E-09
   26.28000      5.1660041E-09
   26.34000      5.2597167E-09
   26.40000      5.2201550E-09
   26.46000      5.0359281E-09
   26.52000      4.7152438E-09
   26.58000      4.2830175E-09
   26.64000      3.7715462E-09
   26.70000      3.2079859E-09
   26.76000      2.6032794E-09
   26.82000      1.9467221E-09
   26.88000      1.2082827E-09
   26.94000      3.4785880E-10
   27.00000     -6.7184724E-10
   27.06000     -1.8732840E-09
   27.12000     -3.2567373E-09
   27.18000     -4.7998143E-09
   27.24000     -6.4634893E-09
   27.30000     -8.2025178E-09
   27.36000     -9.9769339E-09
   27.42000     -1.1761229E-08
   27.48000     -1.3548600E-08
   27.54000     -1.5349062E-08
   27.60000     -1.7182048E-08
   27.66000     -1.9065723E-08
   27.72000     -2.1006491E-08
   27.78000     -2.2992085E-08
   27.84000     -2.4990710E-08
   27.90000     -2.6956501E-08
   27.96000     -2.8839436E-08
   28.02000     -3.0596254E-08
   28.08000     -3.2198685E-08
   28.14000     -3.3636336E-08
   28.20000     -3.4913565E-08
   28.26000     -3.6041673E-08
   28.32000     -3.7029089E-08
   28.38000     -3.7872709E-08
   28.44000     -3.8552908E-08
   28.50000     -3.9033729E-08
   28.56000     -3.9268329E-08
   28.62000     -3.9208288E-08
   28.68000     -3.8814520E-08
   28.74000     -3.8066830E-08
   28.80000     -3.6969386E-08
   28.86000     -3.5550421E-08
   28.92000     -3.3855986E-08
   28.98000     -3.1939539E-08
   29.04000     -2.9850217E-08
   29.10000     -2.7623193E-08
   29.16000     -2.5274737E-08
   29.22000     -2.2802958E-08
   29.28000     -2.0193699E-08
   29.34000     -1.7429526E-08
   29.40000     -1.4499203E-08
   29.46000     -1.1405143E-08
   29.52000     -8.1670235E-09
   29.58000     -4.8207784E-09
   29.64000     -1.4133430E-09
   29.70000      2.0053990E-09
   29.76000      5.3912057E-09
   29.82000      8.7120924E-09
   29.88000      1.1950925E-08
   29.94000      1.5103135E-08
   30.00000      1.8170308E-08
   30.06000      2.1151825E-08
   30.12000      2.4037547E-08
   30.18000      2.6804171E-08
   30.24000      2.9416672E-08
   30.30000      3.1834471E-08
   30.36000      3.4020363E-08
   30.42000      3.5949281E-08
   30.48000      3.7614047E-08
   30.54000      3.9026244E-08
   30.60000      4.0211635E-08
   30.66000      4.1201407E-08
   30.72000      4.2021551E-08
   30.78000      4.2683475E-08
   30.84000      4.3178545E-08
   30.90000      4.3478504E-08
   30.96000      4.3541732E-08
   31.02000      4.3323794E-08
   31.08000      4.2789214E-08
   31.14000      4.1920899E-08
   31.20000      4.0724370E-08
   31.26000      3.9225434E-08
   31.32000      3.7462062E-08
   31.38000      3.5473125E-08
   31.44000      3.3287531E-08
   31.50000      3.0917235E-08
   31.56000      2.8356382E-08
   31.62000      2.5586818E-08
   31.68000      2.2588313E-08
   31.74000      1.9350265E-08
   31.80000      1.5881136E-08
   31.86000      1.2212470E-08
   31.92000      8.3959177E-09
   31.98000      4.4938715E-09
   32.04000      5.6643373E-10
   32.10000     -3.3411562E-09
   32.16000     -7.2064181E-09
   32.22000     -1.1029946E-08
   32.28000     -1.4827653E-08
   32.34000     -1.8617227E-08
   32.40000     -2.2403144E-08
   32.46000     -2.6165370E-08
   32.52000     -2.9855713E-08
   32.58000     -3.3403392E-08
   32.64000     -3.6728306E-08
   32.70000     -3.9757825E-08
   32.76000     -4.2441823E-08
   32.82000     -4.4761201E-08
   32.88000     -4.6727330E-08
   32.94000     -4.8372709E-08
   33.00000     -4.9736066E-08
   33.06000     -5.0846772E-08
   33.12000     -5.1713620E-08
   33.18000     -5.2321493E-08
   33.24000     -5.2636945E-08
   33.30000     -5.2620738E-08
   33.36000     -5.2243113E-08
   33.42000     -5.1496791E-08
   33.48000     -5.0403287E-08
   33.54000     -4.9010428E-08
   33.60000     -4.7381860E-08
   33.66000     -4.5581917E-08
   33.72000     -4.3660737E-08
   33.78000     -4.1644380E-08
   33.84000     -3.9532974E-08
   33.90000     -3.7307267E-08
   33.96000     -3.4941333E-08
   34.02000     -3.2417237E-08
   34.08000     -2.9736929E-08
   34.14000     -2.6927854E-08
   34.20000     -2.4040459E-08
   34.26000     -2.1138595E-08
   34.32000     -1.8285787E-08
   34.38000     -1.5531608E-08
   34.44000     -1.2902346E-08
   34.50000     -1.0398736E-08
   34.56000     -8.0013187E-09
   34.62000     -5.6815330E-09
   34.68000     -3.4148651E-09
   34.74000     -1.1917206E-09
   34.80000      9.7742037E-10
   34.86000      3.0640104E-09
   34.92000      5.0295879E-09
   34.98000      6.8370212E-09
   35.04000      8.4608986E-09
   35.10000      9.8935953E-09
   35.16000      1.1145156E-08
   35.22000      1.2237261E-08
   35.28000      1.3193411E-08
   35.34000      1.4028540E-08
   35.40000      1.4741337E-08
   35.46000      1.5311633E-08
   35.52000      1.5703714E-08
   35.58000      1.5874715E-08
   35.64000      1.5785758E-08
   35.70000      1.5412738E-08
   35.76000      1.4753575E-08
   35.82000      1.3829764E-08
   35.88000      1.2681640E-08
   35.94000      1.1358734E-08
   36.00000      9.9081916E-09
   36.06000      8.3649301E-09
   36.12000      6.7467241E-09
   36.18000      5.0557740E-09
   36.24000      3.2860756E-09
   36.30000      1.4338224E-09
   36.36000     -4.9305698E-10
   36.42000     -2.4698694E-09
   36.48000     -4.4566466E-09
   36.54000     -6.4057408E-09
   36.60000     -8.2728144E-09
   36.66000     -1.0027215E-08
   36.72000     -1.1657930E-08
   36.78000     -1.3173039E-08
   36.84000     -1.4593026E-08
   36.90000     -1.5940577E-08
   36.96000     -1.7230679E-08
   37.02000     -1.8464497E-08
   37.08000     -1.9628825E-08
   37.14000     -2.0700771E-08
   37.20000     -2.1655506E-08
   37.26000     -2.2474103E-08
   37.32000     -2.3148894E-08
   37.38000     -2.3685075E-08
   37.44000     -2.4098648E-08
   37.50000     -2.4412010E-08
   37.56000     -2.4648852E-08
   37.62000     -2.4829841E-08
   37.68000     -2.4970005E-08
   37.74000     -2.5077957E-08
   37.80000     -2.5156666E-08
   37.86000     -2.5205049E-08
   37.92000     -2.5219723E-08
   37.98000     -2.5196368E-08
   38.04000     -2.5130539E-08
   38.10000     -2.5018073E-08
   38.16000     -2.4855465E-08
   38.22000     -2.4640558E-08
   38.28000     -2.4373584E-08
   38.34000     -2.4058227E-08
   38.40000     -2.3702075E-08
   38.46000     -2.3315851E-08
   38.52000     -2.2911326E-08
   38.58000     -2.2498336E-08
   38.64000     -2.2081922E-08
   38.70000     -2.1660792E-08
   38.76000     -2.1227935E-08
   38.82000     -2.0773475E-08
   38.88000     -2.0288955E-08
   38.94000     -1.9771500E-08
   39.00000     -1.9226166E-08
   39.06000     -1.8665210E-08
   39.12000     -1.8104091E-08
   39.18000     -1.7555283E-08
   39.24000     -1.7022073E-08
   39.30000     -1.6494823E-08
   39.36000     -1.5951601E-08
   39.42000     -1.5363476E-08
   39.48000     -1.4703002E-08
   39.54000     -1.3952845E-08
   39.60000     -1.3111285E-08
   39.66000     -1.2192280E-08
   39.72000     -1.1219861E-08
   39.78000     -1.0218789E-08
   39.84000     -9.2049186E-09
   39.90000     -8.1787963E-09
   39.96000     -7.1247901E-09
   40.02000     -6.0160419E-09
   40.08000     -4.8235145E-09
   40.14000     -3.5261167E-09
   40.20000     -2.1186228E-09
   40.26000     -6.1482597E-10
   40.32000      9.5517128E-10
   40.38000      2.5528937E-09
   40.44000      4.1423553E-09
   40.50000      5.7004463E-09
   40.56000      7.2232913E-09
   40.62000      8.7260501E-09
   40.68000      1.0235738E-08
   40.74000      1.1779155E-08
   40.80000      1.3370017E-08
   40.86000      1.5000063E-08
   40.92000      1.6637673E-08
   40.98000      1.8234937E-08
   41.04000      1.9741057E-08
   41.10000      2.1117538E-08
   41.16000      2.2350044E-08
   41.22000      2.3452875E-08
   41.28000      2.4464557E-08
   41.34000      2.5435980E-08
   41.40000      2.6414890E-08
   41.46000      2.7431650E-08
   41.52000      2.8490835E-08
   41.58000      2.9571430E-08
   41.64000      3.0635654E-08
   41.70000      3.1643609E-08
   41.76000      3.2568842E-08
   41.82000      3.3409350E-08
   41.88000      3.4189998E-08
   41.94000      3.4955235E-08
   42.00000      3.5754528E-08
   42.06000      3.6625639E-08
   42.12000      3.7581568E-08
   42.18000      3.8605666E-08
   42.24000      3.9656211E-08
   42.30000      4.0678565E-08
   42.36000      4.1620552E-08
   42.42000      4.2445979E-08
   42.48000      4.3142389E-08
   42.54000      4.3721148E-08
   42.60000      4.4210289E-08
   42.66000      4.4642732E-08
   42.72000      4.5043567E-08
   42.78000      4.5420279E-08
   42.84000      4.5759062E-08
   42.90000      4.6028418E-08
   42.96000      4.6188955E-08
   43.02000      4.6205940E-08
   43.08000      4.6060215E-08
   43.14000      4.5753314E-08
   43.20000      4.5304983E-08
   43.26000      4.4744009E-08
   43.32000      4.4096016E-08
   43.38000      4.3372729E-08
   43.44000      4.2566477E-08
   43.50000      4.1651536E-08
   43.56000      4.0591345E-08
   43.62000      3.9348894E-08
   43.68000      3.7896967E-08
   43.74000      3.6225480E-08
   43.80000      3.4344275E-08
   43.86000      3.2281104E-08
   43.92000      3.0075476E-08
   43.98000      2.7770222E-08
   44.04000      2.5402874E-08
   44.10000      2.2999371E-08
   44.16000      2.0571770E-08
   44.22000      1.8120557E-08
   44.28000      1.5640515E-08
   44.34000      1.3127871E-08
   44.40000      1.0586199E-08
   44.46000      8.0292226E-09
   44.52000      5.4801439E-09
   44.58000      2.9684535E-09
   44.64000      5.2586752E-10
   44.70000     -1.8171797E-09
   44.76000     -4.0337929E-09
   44.82000     -6.1016601E-09
   44.88000     -8.0032425E-09
   44.94000     -9.7253592E-09
   45.00000     -1.1258256E-08
   45.06000     -1.2594204E-08
   45.12000     -1.3726007E-08
   45.18000     -1.4646032E-08
   45.24000     -1.5346348E-08
   45.30000     -1.5820101E-08
   45.36000     -1.6063588E-08
   45.42000     -1.6078113E-08
   45.48000     -1.5870793E-08
   45.54000     -1.5454107E-08
   45.60000     -1.4844655E-08
   45.66000     -1.4061888E-08
   45.72000     -1.3127268E-08
   45.78000     -1.2063861E-08
   45.84000     -1.0895784E-08
   45.90000     -9.6470805E-09
   45.96000     -8.3400140E-09
   46.02000     -6.9933956E-09
   46.08000     -5.6217813E-09
   46.14000     -4.2360520E-09
   46.20000     -2.8451432E-09
   46.26000     -1.4580580E-09
   46.32000     -8.5096603E-11
   46.38000      1.2623806E-09
   46.44000      2.5736233E-09
   46.50000      3.8409129E-09
   46.56000      5.0617599E-09
   46.62000      6.2400103E-09
   46.68000      7.3853310E-09
   46.74000      8.5109253E-09
   46.80000      9.6297148E-09
   46.86000      1.0749624E-08
   46.92000      1.1869069E-08
   46.98000      1.2974115E-08
   47.04000      1.4038763E-08
   47.10000      1.5029126E-08
   47.16000      1.5910979E-08
   47.22000      1.6658664E-08
   47.28000      1.7262380E-08
   47.34000      1.7730940E-08
   47.40000      1.8088448E-08
   47.46000      1.8365544E-08
   47.52000      1.8587974E-08
   47.58000      1.8766450E-08
   47.64000      1.8891514E-08
   47.70000      1.8935387E-08
   47.76000      1.8860403E-08
   47.82000      1.8631253E-08
   47.88000      1.8226933E-08
   47.94000      1.7648304E-08
   48.00000      1.6918690E-08
   48.06000      1.6077175E-08
   48.12000      1.5166790E-08
   48.18000      1.4221555E-08
   48.24000      1.3256750E-08
   48.30000      1.2265856E-08
   48.36000      1.1225272E-08
   48.42000      1.0105319E-08
   48.48000      8.8837337E-09
   48.54000      7.5569879E-09
   48.60000      6.1454437E-09
   48.66000      4.6905346E-09
   48.72000      3.2448639E-09
   48.78000      1.8585737E-09
   48.84000      5.6648225E-10
   48.90000     -6.1989081E-10
   48.96000     -1.7130530E-09
   49.02000     -2.7431128E-09
   49.08000     -3.7465586E-09
   49.14000     -4.7539737E-09
   49.20000     -5.7805143E-09
   49.26000     -6.8219053E-09
   49.32000     -7.8568245E-09
   49.38000     -8.8545784E-09
   49.44000     -9.7853796E-09
   49.50000     -1.0629885E-08
   49.56000     -1.1385003E-08
   49.62000     -1.2064245E-08
   49.68000     -1.2692657E-08
   49.74000     -1.3298081E-08
   49.80000     -1.3901611E-08
   49.86000     -1.4510303E-08
   49.92000     -1.5114363E-08
   49.98000     -1.5689523E-08
   50.04000     -1.6203646E-08
   50.10000     -1.6625352E-08
   50.16000     -1.6931931E-08
   50.22000     -1.7114424E-08
   50.28000     -1.7178625E-08
   50.34000     -1.7142208E-08
   50.40000     -1.7029086E-08
   50.46000     -1.6862767E-08
   50.52000     -1.6660451E-08
   50.58000     -1.6429325E-08
   50.64000     -1.6165909E-08
   50.70000     -1.5858584E-08
   50.76000     -1.5492654E-08
   50.82000     -1.5056532E-08
   50.88000     -1.4547192E-08
   50.94000     -1.3973084E-08
   51.00000     -1.3353445E-08
   51.06000     -1.2714163E-08
   51.12000     -1.2081642E-08
   51.18000     -1.1476887E-08
   51.24000     -1.0911976E-08
   51.30000     -1.0390058E-08
   51.36000     -9.9086250E-09
   51.42000     -9.4645953E-09
   51.48000     -9.0592343E-09
   51.54000     -8.7013063E-09
   51.60000     -8.4077039E-09
   51.66000     -8.2017122E-09
   51.72000     -8.1096347E-09
   51.78000     -8.1566460E-09
   51.84000     -8.3626936E-09
   51.90000     -8.7391800E-09
   51.96000     -9.2871977E-09
   52.02000     -9.9980220E-09
   52.08000     -1.0856120E-08
   52.14000     -1.1844218E-08
   52.20000     -1.2949092E-08
   52.26000     -1.4166220E-08
   52.32000     -1.5501719E-08
   52.38000     -1.6970827E-08
   52.44000     -1.8593427E-08
   52.50000     -2.0388100E-08
   52.56000     -2.2366262E-08
   52.62000     -2.4527793E-08
   52.68000     -2.6858684E-08
   52.74000     -2.9330730E-08
   52.80000     -3.1903109E-08
   52.86000     -3.4525570E-08
   52.92000     -3.7142790E-08
   52.98000     -3.9699056E-08
   53.04000     -4.2141878E-08
   53.10000     -4.4422890E-08
   53.16000     -4.6495128E-08
   53.22000     -4.8306855E-08
   53.28000     -4.9793741E-08
   53.34000     -5.0872128E-08
   53.40000     -5.1435872E-08
   53.46000     -5.1358150E-08
   53.52000     -5.0497597E-08
   53.58000     -4.8706745E-08
   53.64000     -4.5840029E-08
   53.70000     -4.1759073E-08
   53.76000     -3.6334175E-08
   53.82000     -2.9442269E-08
   53.88000     -2.0962535E-08
   53.94000     -1.0771541E-08
   54.00000      1.2602931E-09
   54.06000      1.5269395E-08
   54.12000      3.1395892E-08
   54.18000      4.9776563E-08
   54.24000      7.0534924E-08
   54.30000      9.3770566E-08
   54.36000      1.1955036E-07
   54.42000      1.4790376E-07
   54.48000      1.7882303E-07
   54.54000      2.1226725E-07
   54.60000      2.4816805E-07
   54.66000      2.8643368E-07
   54.72000      3.2694999E-07
   54.78000      3.6957741E-07
   54.84000      4.1414543E-07
   54.90000      4.6044659E-07
   54.96000      5.0823115E-07
   55.02000      5.5720403E-07
   55.08000      6.0702303E-07
   55.14000      6.5729921E-07
   55.20000      7.0759859E-07
   55.26000      7.5744606E-07
   55.32000      8.0633191E-07
   55.38000      8.5371920E-07
   55.44000      8.9905154E-07
   55.50000      9.4175925E-07
   55.56000      9.8126293E-07