 -0.750000000       0.00000000    
 -0.689999998       0.00000000    
 -0.629999995       0.00000000    
 -0.569999993       0.00000000    
 -0.509999990       0.00000000    
 -0.449999988       7.28138255E-22
 -0.389999986       1.96067029E-21
 -0.330000013      -1.23028495E-20
 -0.270000011      -1.04238722E-19
 -0.209999993      -3.86686593E-19
 -0.150000006      -9.06660158E-19
  -9.00000036E-02  -1.33915144E-18
  -2.99999993E-02  -6.14802507E-19
   2.99999993E-02   3.08788405E-18
   9.00000036E-02   1.13979814E-17
  0.150000006       2.36121138E-17
  0.209999993       3.40696438E-17
  0.270000011       3.08792346E-17
  0.330000013      -1.76771103E-18
  0.389999986      -7.65408617E-17
  0.449999988      -1.92415684E-16
  0.509999990      -3.24306363E-16
  0.569999993      -4.17512307E-16
  0.629999995      -3.90662051E-16
  0.689999998      -1.49511003E-16
  0.750000000       3.85745475E-16
  0.810000002       1.23550343E-15
  0.870000005       2.29634041E-15
  0.930000007       3.26887124E-15
  0.990000010       3.61633898E-15
   1.04999995       2.62078347E-15
   1.11000001      -3.93259954E-16
   1.16999996      -5.64942897E-15
   1.23000002      -1.24210131E-14
   1.28999996      -1.86798564E-14
   1.35000002      -2.12119395E-14
   1.40999997      -1.64489038E-14
   1.47000003      -1.99661399E-15
   1.52999997       2.15634005E-14
   1.59000003       4.93882008E-14
   1.64999998       7.24839364E-14
   1.71000004       7.97495411E-14
   1.76999998       6.17400282E-14
   1.83000004       1.50441098E-14
   1.88999999      -5.44390549E-14
   1.95000005      -1.30985107E-13
   2.00999999      -1.92111802E-13
   2.06999993      -2.14682344E-13
   2.13000011      -1.82185064E-13
   2.19000006      -9.07043063E-14
   2.25000000       4.84800764E-14
   2.30999994       2.10408242E-13
   2.36999989       3.61240822E-13
   2.43000007       4.64510591E-13
   2.49000001       4.87103142E-13
   2.54999995       4.04364883E-13
   2.60999990       2.05066067E-13
   2.67000008      -1.02612817E-13
   2.73000002      -4.84086783E-13
   2.78999996      -8.72940338E-13
   2.84999990      -1.17220198E-12
   2.91000009      -1.26800491E-12
   2.97000003      -1.05832639E-12
   3.02999997      -4.92986890E-13
   3.08999991       3.86769338E-13
   3.15000010       1.42623901E-12
   3.21000004       2.36911684E-12
   3.26999998       2.91081438E-12
   3.32999992       2.78573540E-12
   3.39000010       1.86491447E-12
   3.45000005       2.30322760E-13
   3.50999999      -1.80619896E-12
   3.56999993      -3.75651333E-12
   3.63000011      -5.07535810E-12
   3.69000006      -5.31365620E-12
   3.75000000      -4.25933420E-12
   3.80999994      -2.01980446E-12
   3.86999989       9.82392661E-13
   3.93000007       4.10174715E-12
   3.99000001       6.62326964E-12
   4.05000019       7.93358868E-12
   4.11000013       7.66418005E-12
   4.17000008       5.77378553E-12
   4.23000002       2.55721941E-12
   4.28999996      -1.41309338E-12
   4.34999990      -5.39437505E-12
   4.40999985      -8.60756084E-12
   4.46999979      -1.03780326E-11
   4.53000021      -1.02654291E-11
   4.59000015      -8.16488890E-12
   4.65000010      -4.36016154E-12
   4.71000004       4.91090187E-13
   4.76999998       5.45301478E-12
   4.82999992       9.48658339E-12
   4.88999987       1.16808325E-11
   4.94999981       1.14960229E-11
   5.01000023       8.96094570E-12
   5.07000017       4.76731458E-12
   5.13000011       2.20932295E-13
   5.19000006      -2.96040536E-12
   5.25000000      -2.97543392E-12
   5.30999994       1.66709973E-12
   5.36999989       1.17749794E-11
   5.42999983       2.72087249E-11
   5.48999977       4.67994601E-11
   5.55000019       6.84817134E-11
   5.61000013       8.96224275E-11
   5.67000008       1.07476160E-10
   5.73000002       1.19661434E-10
   5.78999996       1.24548288E-10
   5.84999990       1.21475621E-10
   5.90999985       1.10770955E-10
   5.96999979       9.36055886E-11
   6.03000021       7.17613330E-11
   6.09000015       4.73943142E-11
   6.15000010       2.28539132E-11
   6.21000004       5.64427953E-13
   6.26999998      -1.70708551E-11
   6.32999992      -2.78048886E-11
   6.38999987      -2.97648815E-11
   6.44999981      -2.17460008E-11
   6.51000023      -3.51433184E-12
   6.57000017       2.39857439E-11
   6.63000011       5.86198937E-11
   6.69000006       9.72970177E-11
   6.75000000       1.36418210E-10
   6.80999994       1.72437564E-10
   6.86999989       2.02391687E-10
   6.92999983       2.24266536E-10
   6.98999977       2.37128733E-10
   7.05000019       2.41026865E-10
   7.11000013       2.36737074E-10
   7.17000008       2.25458749E-10
   7.23000002       2.08554271E-10
   7.28999996       1.87382707E-10
   7.34999990       1.63226446E-10
   7.40999985       1.37274414E-10
   7.46999979       1.10620256E-10
   7.53000021       8.42517028E-11
   7.59000015       5.90337154E-11
   7.65000010       3.57029580E-11
   7.71000004       1.48844843E-11
   7.76999998      -2.88216391E-12
   7.82999992      -1.71461595E-11
   7.88999987      -2.76251539E-11
   7.94999981      -3.43903031E-11
   8.01000023      -3.81427528E-11
   8.06999969      -4.05186440E-11
   8.13000011      -4.43249326E-11
   8.18999958      -5.36044403E-11
   8.25000000      -7.34599465E-11
   8.31000042      -1.09623088E-10
   8.36999989      -1.67818537E-10
   8.43000031      -2.53027876E-10
   8.48999977      -3.68790415E-10
   8.55000019      -5.16682530E-10
   8.60999966      -6.96092128E-10
   8.67000008      -9.04354591E-10
   8.72999954      -1.13724063E-09
   8.78999996      -1.38970324E-09
   8.85000038      -1.65671643E-09
   8.90999985      -1.93399718E-09
   8.97000027      -2.21841989E-09
   9.02999973      -2.50801757E-09
   9.09000015      -2.80157786E-09
   9.14999962      -3.09797632E-09
   9.21000004      -3.39546191E-09
   9.27000046      -3.69110320E-09
   9.32999992      -3.98053412E-09
   9.39000034      -4.25801794E-09
   9.44999981      -4.51674076E-09
   9.51000023      -4.74922679E-09
   9.56999969      -4.94776842E-09
   9.63000011      -5.10486942E-09
   9.68999958      -5.21370813E-09
   9.75000000      -5.26865840E-09
   9.81000042      -5.26581845E-09
   9.86999989      -5.20342569E-09
   9.93000031      -5.08200459E-09
   9.98999977      -4.90414953E-09
   10.0500002      -4.67398475E-09
   10.1099997      -4.39649739E-09
   10.1700001      -4.07700806E-09
   10.2299995      -3.72100861E-09
   10.2900000      -3.33439987E-09
   10.3500004      -2.92394930E-09
   10.4099998      -2.49763321E-09
   10.4700003      -2.06453232E-09
   10.5299997      -1.63412928E-09
   10.5900002      -1.21513888E-09
   10.6499996      -8.14238066E-10
   10.7100000      -4.35162878E-10
   10.7700005      -7.85280591E-11
   10.8299999       2.57538851E-10
   10.8900003       5.76157233E-10
   10.9499998       8.80270745E-10
   11.0100002       1.17150911E-09
   11.0699997       1.44967394E-09
   11.1300001       1.71294612E-09
   11.1899996       1.95866390E-09
   11.2500000       2.18434471E-09
   11.3100004       2.38857178E-09
   11.3699999       2.57143196E-09
   11.4300003       2.73435563E-09
   11.4899998       2.87941271E-09
   11.5500002       3.00830250E-09
   11.6099997       3.12139936E-09
   11.6700001       3.21719984E-09
   11.7299995       3.29240990E-09
   11.7900000       3.34266614E-09
   11.8500004       3.36366979E-09
   11.9099998       3.35234729E-09
   11.9700003       3.30765704E-09
   12.0299997       3.23081384E-09
   12.0900002       3.12493875E-09
   12.1499996       2.99433944E-09
   12.2100000       2.84370238E-09
   12.2700005       2.67740496E-09
   12.3299999       2.49900500E-09
   12.3900003       2.31085662E-09
   12.4499998       2.11378670E-09
   12.5100002       1.90688199E-09
   12.5699997       1.68756187E-09
   12.6300001       1.45213919E-09
   12.6899996       1.19693899E-09
   12.7500000       9.19777032E-10
   12.8100004       6.21344698E-10
   12.8699999       3.05943437E-10
   12.9300003      -1.88426150E-11
   12.9899998      -3.43600703E-10
   13.0500002      -6.59323818E-10
   13.1099997      -9.59776481E-10
   13.1700001      -1.24327471E-09
   13.2299995      -1.51333701E-09
   13.2900000      -1.77800064E-09
   13.3500004      -2.04798734E-09
   13.4099998      -2.33422015E-09
   13.4700003      -2.64537814E-09
   13.5299997      -2.98618308E-09
   13.5900002      -3.35692385E-09
   13.6499996      -3.75437459E-09
   13.7100000      -4.17379420E-09
   13.7700005      -4.61129845E-09
   13.8299999      -5.06569409E-09
   13.8900003      -5.53904700E-09
   13.9499998      -6.03572081E-09
   14.0100002      -6.56028076E-09
   14.0699997      -7.11512982E-09
   14.1300001      -7.69885222E-09
   14.1899996      -8.30586977E-09
   14.2500000      -8.92742058E-09
   14.3100004      -9.55326129E-09
   14.3699999      -1.01733209E-08
   14.4300003      -1.07786819E-08
   14.4899998      -1.13617871E-08
   14.5500002      -1.19161667E-08
   14.6099997      -1.24361552E-08
   14.6700001      -1.29168587E-08
   14.7299995      -1.33543487E-08
   14.7900000      -1.37458001E-08
   14.8500004      -1.40893421E-08
   14.9099998      -1.43836552E-08
   14.9700003      -1.46275738E-08
   15.0299997      -1.48200368E-08
   15.0900002      -1.49604631E-08
   15.1499996      -1.50493484E-08
   15.2100000      -1.50887143E-08
   15.2700005      -1.50821116E-08
   15.3299999      -1.50342920E-08
   15.3900003      -1.49509027E-08
   15.4499998      -1.48386352E-08
   15.5100002      -1.47058952E-08
   15.5699997      -1.45635646E-08
   15.6300001      -1.44251109E-08
   15.6899996      -1.43054306E-08
   15.7500000      -1.42183429E-08
   15.8100004      -1.41734269E-08
   15.8699999      -1.41733434E-08
   15.9300003      -1.42127163E-08
   15.9899998      -1.42790695E-08
   16.0499992      -1.43554866E-08
   16.1100006      -1.44240468E-08
   16.1700001      -1.44689309E-08
   16.2299995      -1.44784007E-08
   16.2900009      -1.44454644E-08
   16.3500004      -1.43675090E-08
   16.4099998      -1.42454404E-08
   16.4699993      -1.40828185E-08
   16.5300007      -1.38852387E-08
   16.5900002      -1.36599896E-08
   16.6499996      -1.34158524E-08
   16.7099991      -1.31628850E-08
   16.7700005      -1.29119764E-08
   16.8299999      -1.26740458E-08
   16.8899994      -1.24588473E-08
   16.9500008      -1.22734587E-08
   17.0100002      -1.21207897E-08
   17.0699997      -1.19985151E-08
   17.1299992      -1.18988401E-08
   17.1900005      -1.18093118E-08
   17.2500000      -1.17145413E-08
   17.3099995      -1.15984564E-08
   17.3700008      -1.14465095E-08
   17.4300003      -1.12473444E-08
   17.4899998      -1.09936282E-08
   17.5499992      -1.06820028E-08
   17.6100006      -1.03123714E-08
   17.6700001      -9.88690463E-09
   17.7299995      -9.40917833E-09
   17.7900009      -8.88379326E-09
   17.8500004      -8.31661051E-09
   17.9099998      -7.71542741E-09
   17.9699993      -7.09064674E-09
   18.0300007      -6.45535136E-09
   18.0900002      -5.82439075E-09
   18.1499996      -5.21250243E-09
   18.2099991      -4.63202499E-09
   18.2700005      -4.09106793E-09
   18.3299999      -3.59290175E-09
   18.3899994      -3.13683968E-09
   18.4500008      -2.72017098E-09
   18.5100002      -2.34024999E-09
   18.5699997      -1.99579908E-09
   18.6299992      -1.68693515E-09
   18.6900005      -1.41408829E-09
   18.7500000      -1.17646548E-09
   18.8099995      -9.70814540E-10
   18.8700008      -7.90946586E-10
   18.9300003      -6.28046892E-10
   18.9899998      -4.71509276E-10
   19.0499992      -3.10025311E-10
   19.1100006      -1.32812122E-10
   19.1700001       6.90106930E-11
   19.2299995       3.00976993E-10
   19.2900009       5.64094382E-10
   19.3500004       8.54466276E-10
   19.4099998       1.16417287E-09
   19.4699993       1.48344936E-09
   19.5300007       1.80362136E-09
   19.5900002       2.11985407E-09
   19.6499996       2.43278042E-09
   19.7099991       2.74853562E-09
   19.7700005       3.07738546E-09
   19.8299999       3.43166784E-09
   19.8899994       3.82388921E-09
   19.9500008       4.26556612E-09
   20.0100002       4.76691175E-09
   20.0699997       5.33703748E-09
   20.1299992       5.98417360E-09
   20.1900005       6.71545397E-09
   20.2500000       7.53606422E-09
   20.3099995       8.44780779E-09
   20.3700008       9.44734779E-09
   20.4300003       1.05245599E-08
   20.4899998       1.16614798E-08
   20.5499992       1.28323130E-08
   20.6100006       1.40047884E-08
   20.6700001       1.51428026E-08
   20.7299995       1.62099543E-08
   20.7900009       1.71732744E-08
   20.8500004       1.80064479E-08
   20.9099998       1.86920044E-08
   20.9699993       1.92223251E-08
   21.0300007       1.95995824E-08
   21.0900002       1.98349390E-08
   21.1499996       1.99472225E-08
   21.2099991       1.99612220E-08
   21.2700005       1.99057233E-08
   21.3299999       1.98113685E-08
   21.3899994       1.97085850E-08
   21.4500008       1.96258281E-08
   21.5100002       1.95882475E-08
   21.5699997       1.96167385E-08
   21.6299992       1.97271923E-08
   21.6900005       1.99297219E-08
   21.7500000       2.02277821E-08
   21.8099995       2.06173638E-08
   21.8700008       2.10865370E-08
   21.9300003       2.16156728E-08
   21.9899998       2.21785044E-08
   22.0499992       2.27440022E-08
   22.1100006       2.32788722E-08
   22.1700001       2.37504132E-08
   22.2299995       2.41293883E-08
   22.2900009       2.43925307E-08
   22.3500004       2.45243008E-08
   22.4099998       2.45174938E-08
   22.4699993       2.43725164E-08
   22.5300007       2.40954279E-08
   22.5900002       2.36952040E-08
   22.6499996       2.31809629E-08
   22.7099991       2.25598846E-08
   22.7700005       2.18363763E-08
   22.8299999       2.10126032E-08
   22.8899994       2.00899883E-08
   22.9500008       1.90710416E-08
   23.0100002       1.79607014E-08
   23.0699997       1.67665437E-08
   23.1299992       1.54976458E-08
   23.1900005       1.41623877E-08
   23.2500000       1.27660318E-08
   23.3099995       1.13091545E-08
   23.3700008       9.78785852E-09
   23.4300003       8.19611756E-09
   23.4899998       6.52974119E-09
   23.5499992       4.79067497E-09
   23.6100006       2.99003489E-09
   23.6700001       1.14860332E-09
   23.7299995      -7.05589698E-10
   23.7900009      -2.54191468E-09
   23.8500004      -4.33253655E-09
   23.9099998      -6.05688033E-09
   23.9699993      -7.70390862E-09
   24.0300007      -9.27173627E-09
   24.0900002      -1.07649498E-08
   24.1499996      -1.21905552E-08
   24.2099991      -1.35537901E-08
   24.2700005      -1.48549963E-08
   24.3299999      -1.60885243E-08
   24.3899994      -1.72441421E-08
   24.4500008      -1.83106756E-08
   24.5100002      -1.92807654E-08
   24.5699997      -2.01549959E-08
   24.6299992      -2.09435527E-08
   24.6900005      -2.16643308E-08
   24.7500000      -2.23377690E-08
   24.8099995      -2.29801600E-08
   24.8700008      -2.35980266E-08
   24.9300003      -2.41859510E-08
   24.9899998      -2.47288341E-08
   25.0499992      -2.52079069E-08
   25.1100006      -2.56082018E-08
   25.1700001      -2.59247273E-08
   25.2299995      -2.61651465E-08
   25.2900009      -2.63481059E-08
   25.3500004      -2.64977995E-08
   25.4099998      -2.66365028E-08
   25.4699993      -2.67772755E-08
   25.5300007      -2.69189027E-08
   25.5900002      -2.70445728E-08
   25.6499996      -2.71248606E-08
   25.7099991      -2.71244769E-08
   25.7700005      -2.70110831E-08
   25.8299999      -2.67636189E-08
   25.8899994      -2.63775384E-08
   25.9500008      -2.58650594E-08
   26.0100002      -2.52502428E-08
   26.0699997      -2.45604728E-08
   26.1299992      -2.38173037E-08
   26.1900005      -2.30298820E-08
   26.2500000      -2.21931362E-08
   26.3099995      -2.12912585E-08
   26.3700008      -2.03050892E-08
   26.4300003      -1.92207832E-08
   26.4899998      -1.80368858E-08
   26.5499992      -1.67674532E-08
   26.6100006      -1.54402251E-08
   26.6700001      -1.40902054E-08
   26.7299995      -1.27505757E-08
   26.7900009      -1.14436975E-08
   26.8500004      -1.01752669E-08
   26.9099998      -8.93393537E-09
   26.9699993      -7.69699948E-09
   27.0300007      -6.44070086E-09
   27.0900002      -5.15172927E-09
   27.1499996      -3.83586496E-09
   27.2099991      -2.52041477E-09
   27.2700005      -1.24929256E-09
   27.3299999      -7.22350374E-11
   27.3899994       9.68239600E-10
   27.4500008       1.84776983E-09
   27.5100002       2.56548427E-09
   27.5699997       3.14221249E-09
   27.6299992       3.61239039E-09
   27.6900005       4.01234823E-09
   27.7500000       4.36861525E-09
   27.8099995       4.68972416E-09
   27.8700008       4.96396257E-09
   27.9300003       5.16376675E-09
   27.9899998       5.25546584E-09
   28.0499992       5.21128207E-09
   28.1100006       5.01952169E-09
   28.1700001       4.68921835E-09
   28.2299995       4.24723545E-09
   28.2900009       3.72853437E-09
   28.3500004       3.16294924E-09
   28.4099998       2.56330956E-09
   28.4699993       1.91938865E-09
   28.5300007       1.20001642E-09
   28.5900002       3.62648689E-10
   28.6499996      -6.33003705E-10
   28.7099991      -1.81200410E-09
   28.7700005      -3.17611759E-09
   28.8299999      -4.70298822E-09
   28.8899994      -6.35244035E-09
   28.9500008      -8.07757861E-09
   29.0100002      -9.83711601E-09
   29.0699997      -1.16051853E-08
   29.1299992      -1.33757929E-08
   29.1900005      -1.51606727E-08
   29.2500000      -1.69812520E-08
   29.3099995      -1.88572837E-08
   29.3700008      -2.07957331E-08
   29.4300003      -2.27836807E-08
   29.4899998      -2.47875906E-08
   29.5499992      -2.67593148E-08
   29.6100006      -2.86467561E-08
   29.6700001      -3.04055519E-08
   29.7299995      -3.20078080E-08
   29.7900009      -3.34450867E-08
   29.8500004      -3.47247635E-08
   29.9099998      -3.58613050E-08
   29.9699993      -3.68653481E-08
   30.0300007      -3.77341287E-08
   30.0900002      -3.84462595E-08
   30.1499996      -3.89623445E-08
   30.2099991      -3.92314199E-08
   30.2700005      -3.92015593E-08
   30.3299999      -3.88317538E-08
   30.3899994      -3.81018772E-08
   30.4500008      -3.70178945E-08
   30.5100002      -3.56107428E-08
   30.5699997      -3.39291191E-08
   30.6299992      -3.20281899E-08
   30.6900005      -2.99574801E-08
   30.7500000      -2.77512822E-08
   30.8099995      -2.54241446E-08
   30.8700008      -2.29723049E-08
   30.9300003      -2.03802468E-08
   30.9899998      -1.76301693E-08
   31.0499992      -1.47116106E-08
   31.1100006      -1.16286589E-08
   31.1700001      -8.40301340E-09
   31.2299995      -5.07232434E-09
   31.2900009      -1.68438796E-09
   31.3500004       1.71111503E-09
   31.4099998       5.07103026E-09
   31.4699993       8.36487501E-09
   31.5300007       1.15768994E-08
   31.5900002       1.47034527E-08
   31.6499996       1.77465118E-08
   31.7099991       2.07055617E-08
   31.7700005       2.35705677E-08
   31.8299999       2.63185456E-08
   31.8899994       2.89149646E-08
   31.9500008       3.13197397E-08
   32.0099983       3.34958941E-08
   32.0699997       3.54182248E-08
   32.1300011       3.70791788E-08
   32.1899986       3.84899579E-08
   32.2500000       3.96763156E-08
   32.3100014       4.06700238E-08
   32.3699989       4.14982892E-08
   32.4300003       4.21741149E-08
   32.4900017       4.26905089E-08
   32.5499992       4.30203393E-08
   32.6100006       4.31221459E-08
   32.6699982       4.29504006E-08
   32.7299995       4.24672777E-08
   32.7900009       4.16524628E-08
   32.8499985       4.05080236E-08
   32.9099998       3.90568822E-08
   32.9700012       3.73353402E-08
   33.0299988       3.53820369E-08
   33.0900002       3.32268506E-08
   33.1500015       3.08833030E-08
   33.2099991       2.83469141E-08
   33.2700005       2.56001353E-08
   33.3300018       2.26223662E-08
   33.3899994       1.94018899E-08
   33.4500008       1.59458438E-08
   33.5099983       1.22848318E-08
   33.5699997       8.47038795E-09
   33.6300011       4.56574734E-09
   33.6899986       6.32637609E-10
   33.7500000      -3.28171912E-09
   33.8100014      -7.15306658E-09
   33.8699989      -1.09809530E-08
   33.9300003      -1.47813166E-08
   33.9900017      -1.85729352E-08
   34.0499992      -2.23620926E-08
   34.1100006      -2.61305910E-08
   34.1699982      -2.98313836E-08
   34.2299995      -3.33936256E-08
   34.2900009      -3.67358659E-08
   34.3499985      -3.97832949E-08
   34.4099998      -4.24835598E-08
   34.4700012      -4.48161259E-08
   34.5299988      -4.67921808E-08
   34.5900002      -4.84453260E-08
   34.6500015      -4.98162223E-08
   34.7099991      -5.09362863E-08
   34.7700005      -5.18158068E-08
   34.8300018      -5.24401571E-08
   34.8899994      -5.27752526E-08
   34.9500008      -5.27802371E-08
   35.0099983      -5.24231787E-08
   35.0699997      -5.16945704E-08
   35.1300011      -5.06142150E-08
   35.1899986      -4.92292251E-08
   35.2500000      -4.76037734E-08
   35.3100014      -4.58038052E-08
   35.3699989      -4.38815562E-08
   35.4300003      -4.18648547E-08
   35.4900017      -3.97544575E-08
   35.5499992      -3.75302029E-08
   35.6100006      -3.51638860E-08
   35.6699982      -3.26346488E-08
   35.7299995      -2.99419582E-08
   35.7900009      -2.71120992E-08
   35.8499985      -2.41961917E-08
   35.9099998      -2.12605027E-08
   35.9700012      -1.83721607E-08
   36.0299988      -1.55847211E-08
   36.0900002      -1.29280133E-08
   36.1500015      -1.04052278E-08
   36.2099991      -7.99786104E-09
   36.2700005      -5.67670488E-09
   36.3300018      -3.41519324E-09
   36.3899994      -1.20080867E-09
   36.4500008       9.58980118E-10
   36.5099983       3.03788017E-09
   36.5699997       4.99828579E-09
   36.6300011       6.80233070E-09
   36.6899986       8.42263059E-09
   36.7500000       9.84910731E-09
   36.8100014       1.10897638E-08
   36.8699989       1.21652874E-08
   36.9300003       1.30994335E-08
   36.9900017       1.39083820E-08
   37.0499992       1.45925076E-08
   37.1100006       1.51332067E-08
   37.1699982       1.54958162E-08
   37.2299995       1.56378430E-08
   37.2900009       1.55201647E-08
   37.3499985       1.51179602E-08
   37.4099998       1.44282017E-08
   37.4700012       1.34714719E-08
   37.5299988       1.22875701E-08
   37.5900002       1.09262057E-08
   37.6500015       9.43563627E-09
   37.7099991       7.85282062E-09
   37.7700005       6.19819440E-09
   37.8300018       4.47671011E-09
   37.8899994       2.68459344E-09
   37.9500008       8.19282586E-10
   38.0099983      -1.11121290E-09
   38.0699997      -3.08312642E-09
   38.1300011      -5.05802022E-09
   38.1899986      -6.98988156E-09
   38.2500000      -8.83567264E-09
   38.3100014      -1.05654303E-08
   38.3699989      -1.21681651E-08
   38.4300003      -1.36514631E-08
   38.4900017      -1.50350861E-08
   38.5499992      -1.63411187E-08
   38.6100006      -1.75843855E-08
   38.6699982      -1.87664781E-08
   38.7299995      -1.98751735E-08
   38.7900009      -2.08889102E-08
   38.8499985      -2.17842455E-08
   38.9099998      -2.25434480E-08
   38.9700012      -2.31597426E-08
   39.0299988      -2.36388988E-08
   39.0900002      -2.39972735E-08
   39.1500015      -2.42574369E-08
   39.2099991      -2.44430662E-08
   39.2700005      -2.45746303E-08
   39.3300018      -2.46668090E-08
   39.3899994      -2.47278980E-08
   39.4500008      -2.47608352E-08
   39.5099983      -2.47650096E-08
   39.5699997      -2.47380285E-08
   39.6300011      -2.46768437E-08
   39.6899986      -2.45781582E-08
   39.7500000      -2.44384601E-08
   39.8100014      -2.42542697E-08
   39.8699989      -2.40230023E-08
   39.9300003      -2.37443984E-08
   39.9900017      -2.34219151E-08
   40.0499992      -2.30632313E-08
   40.1100006      -2.26792842E-08
   40.1699982      -2.22817818E-08
   40.2299995      -2.18799325E-08
   40.2900009      -2.14776339E-08
   40.3499985      -2.10722693E-08
   40.4099998      -2.06558326E-08
   40.4700012      -2.02181507E-08
   40.5299988      -1.97512371E-08
   40.5900002      -1.92532088E-08
   40.6500015      -1.87302440E-08
   40.7099991      -1.81955482E-08
   40.7700005      -1.76651849E-08
   40.8300018      -1.71519083E-08
   40.8899994      -1.66589338E-08
   40.9500008      -1.61761236E-08
   41.0099983      -1.56804649E-08
   41.0699997      -1.51413264E-08
   41.1300011      -1.45291770E-08
   41.1899986      -1.38247236E-08
   41.2500000      -1.30250140E-08
   41.3100014      -1.21438806E-08
   41.3699989      -1.12062546E-08
   41.4300003      -1.02382813E-08
   41.4900017      -9.25693122E-09
   41.5499992      -8.26299917E-09
   41.6100006      -7.24010585E-09
   41.6699982      -6.16002049E-09
   41.7299995      -4.99237363E-09
   41.7900009      -3.71536557E-09
   41.8499985      -2.32392861E-09
   41.9099998      -8.32723446E-10
   41.9700012       7.26966154E-10
   42.0299988       2.31555197E-09
   42.0900002       3.89619270E-09
   42.1500015       5.44517187E-09
   42.2099991       6.95817404E-09
   42.2700005       8.45007175E-09
   42.3300018       9.94785321E-09
   42.3899994       1.14786900E-08
   42.4500008       1.30571287E-08
   42.5099983       1.46760595E-08
   42.5699997       1.63050622E-08
   42.6300011       1.78971735E-08
   42.6899986       1.94020906E-08
   42.7500000       2.07813251E-08
   42.8100014       2.20201493E-08
   42.8699989       2.31321788E-08
   42.9300003       2.41550460E-08
   42.9900017       2.51385988E-08
   43.0499992       2.61294808E-08
   43.1100006       2.71571157E-08
   43.1699982       2.82255996E-08
   43.2299995       2.93141742E-08
   43.2900009       3.03861469E-08
   43.3499985       3.14033777E-08
   43.4099998       3.23413936E-08
   43.4700012       3.31998429E-08
   43.5299988       3.40044224E-08
   43.5900002       3.47993030E-08
   43.6500015       3.56326311E-08
   43.7099991       3.65401291E-08
   43.7700005       3.75325548E-08
   43.8300018       3.85912955E-08
   43.8899994       3.96733242E-08
   43.9500008       4.07235063E-08
   44.0099983       4.16898054E-08
   44.0699997       4.25365521E-08
   44.1300011       4.32517844E-08
   44.1899986       4.38470558E-08
   44.2500000       4.43502017E-08
   44.3100014       4.47937225E-08
   44.3699989       4.52022952E-08
   44.4300003       4.55832705E-08
   44.4900017       4.59230591E-08
   44.5499992       4.61906602E-08
   44.6100006       4.63472034E-08
   44.6699982       4.63583412E-08
   44.7299995       4.62050558E-08
   44.7900009       4.58888216E-08
   44.8499985       4.54292071E-08
   44.9099998       4.48547866E-08
   44.9700012       4.41909123E-08
   45.0299988       4.34489067E-08
   45.0900002       4.26205773E-08
   45.1500015       4.16796873E-08
   45.2099991       4.05894305E-08
   45.2700005       3.93131359E-08
   45.3300018       3.78246838E-08
   45.3899994       3.61157610E-08
   45.4500008       3.41983544E-08
   45.5099983       3.21022036E-08
   45.5699997       2.98682359E-08
   45.6300011       2.75397731E-08
   45.6899986       2.51539412E-08
   45.7500000       2.27356072E-08
   45.8100014       2.02955643E-08
   45.8699989       1.78333472E-08
   45.9300003       1.53434989E-08
   45.9900017       1.28228628E-08
   46.0499992       1.02763105E-08
   46.1100006       7.71906361E-09
   46.1699982       5.17541832E-09
   46.2299995       2.67504063E-09
   46.2900009       2.48729620E-10
   46.3499985      -2.07481299E-09
   46.4099998      -4.27059987E-09
   46.4700012      -6.31764996E-09
   46.5299988      -8.19863999E-09
   46.5900002      -9.89941551E-09
   46.6500015      -1.14084600E-08
   46.7099991      -1.27162147E-08
   46.7700005      -1.38142928E-08
   46.8300018      -1.46949430E-08
   46.8899994      -1.53512225E-08
   46.9500008      -1.57780740E-08
   47.0099983      -1.59739244E-08
   47.0699997      -1.59420726E-08
   47.1300011      -1.56911515E-08
   47.1899986      -1.52344573E-08
   47.2500000      -1.45886236E-08
   47.3100014      -1.37723566E-08
   47.3699989      -1.28058115E-08
   47.4300003      -1.17105428E-08
   47.4900017      -1.05094697E-08
   47.5499992      -9.22624110E-09
   47.6100006      -7.88382781E-09
   47.6699982      -6.50280052E-09
   47.7299995      -5.10011322E-09
   47.7900009      -3.68903108E-09
   47.8499985      -2.28021135E-09
   47.9099998      -8.83296269E-10
   47.9700012       4.91916397E-10
   48.0299988       1.83542181E-09
   48.0900002       3.13818149E-09
   48.1500015       4.39403491E-09
   48.2099991       5.60154811E-09
   48.2700005       6.76501877E-09
   48.3300018       7.89409693E-09
   48.3899994       9.00178510E-09
   48.4500008       1.01008970E-08
   48.5099983       1.11995186E-08
   48.5699997       1.22964945E-08
   48.6300011       1.33784486E-08
   48.6899986       1.44198840E-08
   48.7500000       1.53872204E-08
   48.8100014       1.62463198E-08
   48.8699989       1.69714713E-08
   48.9300003       1.75527681E-08
   48.9900017       1.79989250E-08
   49.0499992       1.83339424E-08
   49.1100006       1.85883504E-08
   49.1699982       1.87878122E-08
   49.2299995       1.89431386E-08
   49.2900009       1.90453200E-08
   49.3499985       1.90674587E-08
   49.4099998       1.89731022E-08
   49.4700012       1.87281710E-08
   49.5299988       1.83125373E-08
   49.5900002       1.77273360E-08
   49.6500015       1.69955481E-08
   49.7099991       1.61555587E-08
   49.7700005       1.52496984E-08
   49.8300018       1.43115368E-08
   49.8899994       1.33562086E-08
   49.9500008       1.23771633E-08
   50.0099983       1.13506697E-08
   50.0699997       1.02466640E-08
   50.1300011       9.04226383E-09
   50.1899986       7.73320430E-09
   50.2500000       6.33911856E-09
   50.3100014       4.90073448E-09
   50.3699989       3.46994700E-09
   50.4300003       2.09615214E-09
   50.4900017       8.13441481E-10
   50.5499992      -3.67233077E-10
   50.6100006      -1.45864898E-09