 -0.750000000       0.00000000    
 -0.689999998       0.00000000    
 -0.629999995       0.00000000    
 -0.569999993       0.00000000    
 -0.509999990      -6.50792722E-19
 -0.449999988      -3.84669342E-18
 -0.389999986      -1.19427898E-17
 -0.330000013      -2.76245618E-17
 -0.270000011      -5.92106206E-17
 -0.209999993      -1.28362655E-16
 -0.150000006      -2.58514270E-16
  -9.00000036E-02  -4.14225952E-16
  -2.99999993E-02  -3.95325867E-16
   2.99999993E-02   2.30933607E-16
   9.00000036E-02   2.00645906E-15
  0.150000006       5.15151251E-15
  0.209999993       8.91696317E-15
  0.270000011       1.11184060E-14
  0.330000013       8.44023016E-15
  0.389999986      -2.09410600E-15
  0.449999988      -2.07505200E-14
  0.509999990      -4.29457698E-14
  0.569999993      -5.89799409E-14
  0.629999995      -5.68425718E-14
  0.689999998      -2.77993621E-14
  0.750000000       2.74752280E-14
  0.810000002       9.56641450E-14
  0.870000005       1.53306824E-13
  0.930000007       1.75247458E-13
  0.990000010       1.45751466E-13
   1.04999995       6.66793281E-14
   1.11000001      -4.22441318E-14
   1.16999996      -1.52123621E-13
   1.23000002      -2.38275084E-13
   1.28999996      -2.90443613E-13
   1.35000002      -3.12915573E-13
   1.40999997      -3.13316647E-13
   1.47000003      -2.86662295E-13
   1.52999997      -2.06308888E-13
   1.59000003      -3.18538666E-14
   1.64999998       2.64766209E-13
   1.71000004       6.65755482E-13
   1.76999998       1.08571724E-12
   1.83000004       1.37971752E-12
   1.88999999       1.38702830E-12
   1.95000005       9.98085620E-13
   2.00999999       2.16833428E-13
   2.06999993      -8.12851631E-13
   2.13000011      -1.83585135E-12
   2.19000006      -2.56524381E-12
   2.25000000      -2.78365612E-12
   2.30999994      -2.42441375E-12
   2.36999989      -1.59576605E-12
   2.43000007      -5.34555093E-13
   2.49000001       4.93212188E-13
   2.54999995       1.30224412E-12
   2.60999990       1.85842487E-12
   2.67000008       2.27508095E-12
   2.73000002       2.73225735E-12
   2.78999996       3.35183292E-12
   2.84999990       4.08494896E-12
   2.91000009       4.66860058E-12
   2.97000003       4.68331667E-12
   3.02999997       3.70241251E-12
   3.08999991       1.48185012E-12
   3.15000010      -1.88382166E-12
   3.21000004      -5.90802884E-12
   3.26999998      -9.79442569E-12
   3.32999992      -1.26360823E-11
   3.39000010      -1.36652512E-11
   3.45000005      -1.24646300E-11
   3.50999999      -9.06377057E-12
   3.56999993      -3.88839265E-12
   3.63000011       2.41245153E-12
   3.69000006       9.19002461E-12
   3.75000000       1.59831506E-11
   3.80999994       2.26022499E-11
   3.86999989       2.90903100E-11
   3.93000007       3.55931083E-11
   3.99000001       4.22061310E-11
   4.05000019       4.88693808E-11
   4.11000013       5.53538396E-11
   4.17000008       6.13378168E-11
   4.23000002       6.65279012E-11
   4.28999996       7.07560815E-11
   4.34999990       7.39918404E-11
   4.40999985       7.62432201E-11
   4.46999979       7.73706724E-11
   4.53000021       7.68824865E-11
   4.59000015       7.38014788E-11
   4.65000010       6.66782671E-11
   4.71000004       5.37786690E-11
   4.76999998       3.34082553E-11
   4.82999992       4.28026017E-12
   4.88999987      -3.41902652E-11
   4.94999981      -8.17615489E-11
   5.01000023      -1.37444320E-10
   5.07000017      -1.99745678E-10
   5.13000011      -2.66982270E-10
   5.19000006      -3.37553652E-10
   5.25000000      -4.10099926E-10
   5.30999994      -4.83527107E-10
   5.36999989      -5.56943380E-10
   5.42999983      -6.29575225E-10
   5.48999977      -7.00722591E-10
   5.55000019      -7.69773911E-10
   5.61000013      -8.36259229E-10
   5.67000008      -8.99899544E-10
   5.73000002      -9.60615920E-10
   5.78999996      -1.01848718E-09
   5.84999990      -1.07366938E-09
   5.90999985      -1.12630649E-09
   5.96999979      -1.17645682E-09
   6.03000021      -1.22404531E-09
   6.09000015      -1.26884636E-09
   6.15000010      -1.31049105E-09
   6.21000004      -1.34849309E-09
   6.26999998      -1.38228484E-09
   6.32999992      -1.41124568E-09
   6.38999987      -1.43470524E-09
   6.44999981      -1.45191270E-09
   6.51000023      -1.46198587E-09
   6.57000017      -1.46388612E-09
   6.63000011      -1.45647161E-09
   6.69000006      -1.43866608E-09
   6.75000000      -1.40972400E-09
   6.80999994      -1.36950651E-09
   6.86999989      -1.31864764E-09
   6.92999983      -1.25850097E-09
   6.98999977      -1.19083687E-09
   7.05000019      -1.11736165E-09
   7.11000013      -1.03921893E-09
   7.17000008      -9.56659973E-10
   7.23000002      -8.69012862E-10
   7.28999996      -7.74967590E-10
   7.34999990      -6.73074874E-10
   7.40999985      -5.62273894E-10
   7.46999979      -4.42262504E-10
   7.53000021      -3.13591014E-10
   7.59000015      -1.77469303E-10
   7.65000010      -3.53785820E-11
   7.71000004       1.11359900E-10
   7.76999998       2.61910021E-10
   7.82999992       4.16045920E-10
   7.88999987       5.74062964E-10
   7.94999981       7.36538441E-10
   8.01000023       9.04044506E-10
   8.06999969       1.07691289E-09
   8.13000011       1.25510635E-09
   8.18999958       1.43819079E-09
   8.25000000       1.62535518E-09
   8.31000042       1.81541771E-09
   8.36999989       2.00678607E-09
   8.43000031       2.19740004E-09
   8.48999977       2.38472042E-09
   8.55000019       2.56583377E-09
   8.60999966       2.73770007E-09
   8.67000008       2.89749469E-09
   8.72999954       3.04295189E-09
   8.78999996       3.17259596E-09
   8.85000038       3.28580763E-09
   8.90999985       3.38273165E-09
   8.97000027       3.46408724E-09
   9.02999973       3.53095109E-09
   9.09000015       3.58454599E-09
   9.14999962       3.62602859E-09
   9.21000004       3.65626351E-09
   9.27000046       3.67560404E-09
   9.32999992       3.68375486E-09
   9.39000034       3.67980779E-09
   9.44999981       3.66249009E-09
   9.51000023       3.63055142E-09
   9.56999969       3.58313246E-09
   9.63000011       3.51992102E-09
   9.68999958       3.44101703E-09
   9.75000000       3.34658568E-09
   9.81000042       3.23651972E-09
   9.86999989       3.11034998E-09
   9.93000031       2.96750313E-09
   9.98999977       2.80779200E-09
   10.0500002       2.63186362E-09
   10.1099997       2.44132647E-09
   10.1700001       2.23846564E-09
   10.2299995       2.02570227E-09
   10.2900000       1.80511994E-09
   10.3500004       1.57833824E-09
   10.4099998       1.34679368E-09
   10.4700003       1.11220122E-09
   10.5299997       8.76834494E-10
   10.5900002       6.43356646E-10
   10.6499996       4.14221546E-10
   10.7100000       1.90965077E-10
   10.7700005      -2.61794718E-11
   10.8299999      -2.38068926E-10
   10.8900003      -4.45909420E-10
   10.9499998      -6.50373977E-10
   11.0100002      -8.51053450E-10
   11.0699997      -1.04651743E-09
   11.1300001      -1.23489607E-09
   11.1899996      -1.41459722E-09
   11.2500000      -1.58472091E-09
   11.3100004      -1.74496584E-09
   11.3699999      -1.89516403E-09
   11.4300003      -2.03482231E-09
   11.4899998      -2.16302443E-09
   11.5500002      -2.27879138E-09
   11.6099997      -2.38167130E-09
   11.6700001      -2.47216758E-09
   11.7299995      -2.55170773E-09
   11.7900000      -2.62213651E-09
   11.8500004      -2.68501399E-09
   11.9099998      -2.74109579E-09
   11.9700003      -2.79024093E-09
   12.0299997      -2.83171753E-09
   12.0900002      -2.86465163E-09
   12.1499996      -2.88832736E-09
   12.2100000      -2.90221069E-09
   12.2700005      -2.90578916E-09
   12.3299999      -2.89846391E-09
   12.3900003      -2.87967117E-09
   12.4499998      -2.84922441E-09
   12.5100002      -2.80766610E-09
   12.5699997      -2.75637357E-09
   12.6300001      -2.69727152E-09
   12.6899996      -2.63223821E-09
   12.7500000      -2.56248489E-09
   12.8100004      -2.48822696E-09
   12.8699999      -2.40884246E-09
   12.9300003      -2.32347919E-09
   12.9899998      -2.23187957E-09
   13.0500002      -2.13508389E-09
   13.1099997      -2.03573869E-09
   13.1700001      -1.93788208E-09
   13.2299995      -1.84627769E-09
   13.2900000      -1.76552417E-09
   13.3500004      -1.69924919E-09
   13.4099998      -1.64965408E-09
   13.4700003      -1.61754765E-09
   13.5299997      -1.60278812E-09
   13.5900002      -1.60486846E-09
   13.6499996      -1.62329739E-09
   13.7100000      -1.65751257E-09
   13.7700005      -1.70630454E-09
   13.8299999      -1.76701298E-09
   13.8900003      -1.83492610E-09
   13.9499998      -1.90327043E-09
   14.0100002      -1.96392236E-09
   14.0699997      -2.00862460E-09
   14.1300001      -2.03025929E-09
   14.1899996      -2.02371342E-09
   14.2500000      -1.98609973E-09
   14.3100004      -1.91640881E-09
   14.3699999      -1.81491600E-09
   14.4300003      -1.68268655E-09
   14.4899998      -1.52139090E-09
   14.5500002      -1.33340916E-09
   14.6099997      -1.12205922E-09
   14.6700001      -8.91773544E-10
   14.7299995      -6.48134213E-10
   14.7900000      -3.97768180E-10
   14.8500004      -1.48131410E-10
   14.9099998       9.28312496E-11
   14.9700003       3.17200710E-10
   15.0299997       5.17784648E-10
   15.0900002       6.88901103E-10
   15.1499996       8.27019564E-10
   15.2100000       9.31006439E-10
   15.2700005       1.00184894E-09
   15.3299999       1.04194442E-09
   15.3900003       1.05424369E-09
   15.4499998       1.04159426E-09
   15.5100002       1.00652076E-09
   15.5699997       9.51453027E-10
   15.6300001       8.79207096E-10
   15.6899996       7.93435262E-10
   15.7500000       6.98805624E-10
   15.8100004       6.00816452E-10
   15.8699999       5.05288811E-10
   15.9300003       4.17678531E-10
   15.9899998       3.42388978E-10
   16.0499992       2.82266599E-10
   16.1100006       2.38432996E-10
   16.1700001       2.10541390E-10
   16.2299995       1.97412614E-10
   16.2900009       1.97846087E-10
   16.3500004       2.11272291E-10
   16.4099998       2.37913023E-10
   16.4699993       2.78289475E-10
   16.5300007       3.32207151E-10
   16.5900002       3.97626543E-10
   16.6499996       4.69932981E-10
   16.7099991       5.41988399E-10
   16.7700005       6.05017703E-10
   16.8299999       6.50028087E-10
   16.8899994       6.69244382E-10
   16.9500008       6.57080446E-10
   17.0100002       6.10410444E-10
   17.0699997       5.28230626E-10
   17.1299992       4.11038203E-10
   17.1900005       2.60305083E-10
   17.2500000       7.82901730E-11
   17.3099995      -1.31796934E-10
   17.3700008      -3.65469294E-10
   17.4300003      -6.16744766E-10
   17.4899998      -8.78240036E-10
   17.5499992      -1.14161136E-09
   17.6100006      -1.39819289E-09
   17.6700001      -1.63958680E-09
   17.7299995      -1.85799398E-09
   17.7900009      -2.04623829E-09
   17.8500004      -2.19764229E-09
   17.9099998      -2.30603447E-09
   17.9699993      -2.36612530E-09
   18.0300007      -2.37427056E-09
   18.0900002      -2.32936226E-09
   18.1499996      -2.23341123E-09
   18.2099991      -2.09143125E-09
   18.2700005      -1.91052574E-09
   18.3299999      -1.69844638E-09
   18.3899994      -1.46216450E-09
   18.4500008      -1.20697830E-09
   18.5100002      -9.36403399E-10
   18.5699997      -6.52708609E-10
   18.6299992      -3.57695235E-10
   18.6900005      -5.33028829E-11
   18.7500000       2.58155608E-10
   18.8099995       5.74058023E-10
   18.8700008       8.91613228E-10
   18.9300003       1.20790766E-09
   18.9899998       1.51985002E-09
   19.0499992       1.82412530E-09
   19.1100006       2.11724172E-09
   19.1700001       2.39560416E-09
   19.2299995       2.65544031E-09
   19.2900009       2.89245516E-09
   19.3500004       3.10131609E-09
   19.4099998       3.27530647E-09
   19.4699993       3.40654283E-09
   19.5300007       3.48692630E-09
   19.5900002       3.50960083E-09
   19.6499996       3.47036933E-09
   19.7099991       3.36849482E-09
   19.7700005       3.20662008E-09
   19.8299999       2.98999514E-09
   19.8899994       2.72550915E-09
   19.9500008       2.42102116E-09
   20.0100002       2.08517337E-09
   20.0699997       1.72752146E-09
   20.1299992       1.35864553E-09
   20.1900005       9.90028171E-10
   20.2500000       6.33736175E-10
   20.3099995       3.02112863E-10
   20.3700008       7.60716577E-12
   20.4300003      -2.37396297E-10
   20.4899998      -4.21087332E-10
   20.5499992      -5.33357913E-10
   20.6100006      -5.67462355E-10
   20.6700001      -5.21686139E-10
   20.7299995      -4.00287692E-10
   20.7900009      -2.13184234E-10
   20.8500004       2.56142104E-11
   20.9099998       3.00272307E-10
   20.9699993       5.95301697E-10
   21.0300007       8.97030339E-10
   21.0900002       1.19421961E-09
   21.1499996       1.47809209E-09
   21.2099991       1.74217107E-09
   21.2700005       1.98217798E-09
   21.3299999       2.19598584E-09
   21.3899994       2.38351427E-09
   21.4500008       2.54655053E-09
   21.5100002       2.68862843E-09
   21.5699997       2.81512591E-09
   21.6299992       2.93350122E-09
   21.6900005       3.05325876E-09
   21.7500000       3.18508997E-09
   21.8099995       3.33888628E-09
   21.8700008       3.52093399E-09
   21.9300003       3.73123488E-09
   21.9899998       3.96213462E-09
   22.0499992       4.19906421E-09
   22.1100006       4.42335546E-09
   22.1700001       4.61618299E-09
   22.2299995       4.76226569E-09
   22.2900009       4.85213603E-09
   22.3500004       4.88252994E-09
   22.4099998       4.85524021E-09
   22.4699993       4.77531747E-09
   22.5300007       4.64951722E-09
   22.5900002       4.48555681E-09
   22.6499996       4.29228209E-09
   22.7099991       4.08046130E-09
   22.7700005       3.86373600E-09
   22.8299999       3.65920205E-09
   22.8899994       3.48715035E-09
   22.9500008       3.36965211E-09
   23.0100002       3.32801364E-09
   23.0699997       3.37954842E-09
   23.1299992       3.53451401E-09
   23.1900005       3.79417742E-09
   23.2500000       4.15065449E-09
   23.3099995       4.58854199E-09
   23.3700008       5.08764320E-09
   23.4300003       5.62576608E-09
   23.4899998       6.18070839E-09
   23.5499992       6.73112543E-09
   23.6100006       7.25663218E-09
   23.6700001       7.73779885E-09
   23.7299995       8.15661316E-09
   23.7900009       8.49753690E-09
   23.8500004       8.74882922E-09
   23.9099998       8.90365826E-09
   23.9699993       8.96062868E-09
   24.0300007       8.92367424E-09
   24.0900002       8.80143336E-09
   24.1499996       8.60632543E-09
   24.2099991       8.35341574E-09
   24.2700005       8.05909117E-09
   24.3299999       7.73967290E-09
   24.3899994       7.41012940E-09
   24.4500008       7.08315939E-09
   24.5100002       6.76871936E-09
   24.5699997       6.47384812E-09
   24.6299992       6.20244256E-09
   24.6900005       5.95475047E-09
   24.7500000       5.72664760E-09
   24.8099995       5.50912205E-09
   24.8700008       5.28852961E-09
   24.9300003       5.04789854E-09
   24.9899998       4.76906870E-09
   25.0499992       4.43504877E-09
   25.1100006       4.03185840E-09
   25.1700001       3.54952134E-09
   25.2299995       2.98232616E-09
   25.2900009       2.32883646E-09
   25.3500004       1.59203561E-09
   25.4099998       7.79641296E-10
   25.4699993      -9.57609478E-11
   25.5300007      -1.01717401E-09
   25.5900002      -1.96435845E-09
   25.6499996      -2.91541546E-09
   25.7099991      -3.84827503E-09
   25.7700005      -4.74173723E-09
   25.8299999      -5.57614133E-09
   25.8899994      -6.33407282E-09
   25.9500008      -7.00147185E-09
   26.0100002      -7.56906449E-09
   26.0699997      -8.03352407E-09
   26.1299992      -8.39759107E-09
   26.1900005      -8.66870753E-09
   26.2500000      -8.85648888E-09
   26.3099995      -8.96996699E-09
   26.3700008      -9.01575259E-09
   26.4300003      -8.99775454E-09
   26.4899998      -8.91836294E-09
   26.5499992      -8.78027606E-09
   26.6100006      -8.58802895E-09
   26.6700001      -8.34856628E-09
   26.7299995      -8.07075740E-09
   26.7900009      -7.76419373E-09
   26.8500004      -7.43772555E-09
   26.9099998      -7.09811276E-09
   26.9699993      -6.74907152E-09
   27.0300007      -6.39099085E-09
   27.0900002      -6.02157124E-09
   27.1499996      -5.63747227E-09
   27.2099991      -5.23659693E-09
   27.2700005      -4.82018248E-09
   27.3299999      -4.39368586E-09
   27.3899994      -3.96586675E-09
   27.4500008      -3.54634389E-09
   27.5100002      -3.14280646E-09
   27.5699997      -2.75934831E-09
   27.6299992      -2.39685072E-09
   27.6900005      -2.05516737E-09
   27.7500000      -1.73577774E-09
   27.8099995      -1.44324996E-09
   27.8700008      -1.18452792E-09
   27.9300003      -9.66344227E-10
   27.9899998      -7.92158672E-10
   28.0499992      -6.60293542E-10
   28.1100006      -5.64231051E-10
   28.1700001      -4.94839003E-10
   28.2299995      -4.43350578E-10
   28.2900009      -4.03747674E-10
   28.3500004      -3.73780673E-10
   28.4099998      -3.54709012E-10
   28.4699993      -3.50411755E-10
   28.5300007      -3.66520397E-10
   28.5900002      -4.09842604E-10
   28.6499996      -4.87973550E-10
   28.7099991      -6.08911532E-10
   28.7700005      -7.80671749E-10
   28.8299999      -1.01103304E-09
   28.8899994      -1.30743050E-09
   28.9500008      -1.67667091E-09
   29.0100002      -2.12394458E-09
   29.0699997      -2.65087285E-09
   29.1299992      -3.25303606E-09
   29.1900005      -3.91817823E-09
   29.2500000      -4.62644145E-09
   29.3099995      -5.35327294E-09
   29.3700008      -6.07428641E-09
   29.4300003      -6.77018619E-09
   29.4899998      -7.42957695E-09
   29.5499992      -8.04845257E-09
   29.6100006      -8.62682903E-09
   29.6700001      -9.16444964E-09
   29.7299995      -9.65788782E-09
   29.7900009      -1.01004254E-08
   29.8500004      -1.04845093E-08
   29.9099998      -1.08052207E-08
   29.9699993      -1.10627738E-08
   30.0300007      -1.12628928E-08
   30.0900002      -1.14150582E-08
   30.1499996      -1.15296714E-08
   30.2099991      -1.16153389E-08
   30.2700005      -1.16770575E-08
   30.3299999      -1.17153727E-08
   30.3899994      -1.17262458E-08
   30.4500008      -1.17014327E-08
   30.5100002      -1.16294734E-08
   30.5699997      -1.14974430E-08
   30.6299992      -1.12933707E-08
   30.6900005      -1.10087157E-08
   30.7500000      -1.06400453E-08
   30.8099995      -1.01892335E-08
   30.8700008      -9.66219993E-09
   30.9300003      -9.06685482E-09
   30.9899998      -8.41126102E-09
   31.0499992      -7.70280373E-09
   31.1100006      -6.94853775E-09
   31.1700001      -6.15626172E-09
   31.2299995      -5.33563149E-09
   31.2900009      -4.49866633E-09
   31.3500004      -3.65935526E-09
   31.4099998      -2.83237411E-09
   31.4699993      -2.03112993E-09
   31.5300007      -1.26554267E-09
   31.5900002      -5.40151701E-10
   31.6499996       1.46722134E-10
   31.7099991       8.02151845E-10
   31.7700005       1.43601386E-09
   31.8299999       2.05731565E-09
   31.8899994       2.67077938E-09
   31.9500008       3.27509775E-09
   32.0099983       3.86357346E-09
   32.0699997       4.42670300E-09
   32.1300011       4.95527086E-09
   32.1899986       5.44235323E-09
   32.2500000       5.88337379E-09
   32.3100014       6.27457553E-09
   32.3699989       6.61120181E-09
   32.4300003       6.88670587E-09
   32.4900017       7.09350179E-09
   32.5499992       7.22469506E-09
   32.6100006       7.27564320E-09
   32.6699982       7.24450011E-09
   32.7299995       7.13174586E-09
   32.7900009       6.93949298E-09
   32.8499985       6.67141631E-09
   32.9099998       6.33345154E-09
   32.9700012       5.93454708E-09
   33.0299988       5.48637180E-09
   33.0900002       5.00142505E-09
   33.1500015       4.49012383E-09
   33.2099991       3.95832167E-09
   33.2700005       3.40674533E-09
   33.3300018       2.83279777E-09
   33.3899994       2.23380558E-09
   33.4500008       1.60989810E-09
   33.5099983       9.64946567E-10
   33.5699997       3.05194009E-10
   33.6300011      -3.63383934E-10
   33.6899986      -1.03724662E-09
   33.7500000      -1.71562609E-09
   33.8100014      -2.39885067E-09
   33.8699989      -3.08564974E-09
   33.9300003      -3.77089826E-09
   33.9900017      -4.44485515E-09
   34.0499992      -5.09402076E-09
   34.1100006      -5.70297676E-09
   34.1699982      -6.25636876E-09
   34.2299995      -6.74048906E-09
   34.2900009      -7.14440507E-09
   34.3499985      -7.46077777E-09
   34.4099998      -7.68642039E-09
   34.4700012      -7.82239162E-09
   34.5299988      -7.87339083E-09
   34.5900002      -7.84643550E-09
   34.6500015      -7.74921816E-09
   34.7099991      -7.58867191E-09
   34.7700005      -7.37019024E-09
   34.8300018      -7.09753323E-09
   34.8899994      -6.77314071E-09
   34.9500008      -6.39850217E-09
   35.0099983      -5.97446936E-09
   35.0699997      -5.50160095E-09
   35.1300011      -4.98065100E-09
   35.1899986      -4.41307524E-09
   35.2500000      -3.80119181E-09
   35.3100014      -3.14771453E-09
   35.3699989      -2.45477683E-09
   35.4300003      -1.72312420E-09
   35.4900017      -9.52338763E-10
   35.5499992      -1.42530113E-10
   35.6100006       7.02950809E-10
   35.6699982       1.57506397E-09
   35.7299995       2.45834841E-09
   35.7900009       3.33267081E-09
   35.8499985       4.17699031E-09
   35.9099998       4.97363972E-09
   35.9700012       5.71136427E-09
   36.0299988       6.38601172E-09
   36.0900002       6.99892366E-09
   36.1500015       7.55401341E-09
   36.2099991       8.05480305E-09
   36.2700005       8.50232151E-09
   36.3300018       8.89416008E-09
   36.3899994       9.22453580E-09
   36.4500008       9.48521439E-09
   36.5099983       9.66721014E-09
   36.5699997       9.76312631E-09
   36.6300011       9.76957981E-09
   36.6899986       9.68873337E-09
   36.7500000       9.52787538E-09
   36.8100014       9.29663369E-09
   36.8699989       9.00257646E-09
   36.9300003       8.64696492E-09
   36.9900017       8.22273361E-09
   37.0499992       7.71598074E-09
   37.1100006       7.11069159E-09
   37.1699982       6.39497744E-09
   37.2299995       5.56638335E-09
   37.2900009       4.63426408E-09
   37.3499985       3.61848174E-09
   37.4099998       2.54509791E-09
   37.4700012       1.44072032E-09
   37.5299988       3.27382177E-10
   37.5900002      -7.80546128E-10
   37.6500015      -1.87664240E-09
   37.7099991      -2.95995672E-09
   37.7700005      -4.03058698E-09
   37.8300018      -5.08477171E-09
   37.8899994      -6.11133011E-09
   37.9500008      -7.09109926E-09
   38.0099983      -8.00010191E-09
   38.0699997      -8.81573303E-09
   38.1300011      -9.52381018E-09
   38.1899986      -1.01236157E-08
   38.2500000      -1.06285771E-08
   38.3100014      -1.10619345E-08
   38.3699989      -1.14487939E-08
   38.4300003      -1.18075496E-08
   38.4900017      -1.21439063E-08
   38.5499992      -1.24495791E-08
   38.6100006      -1.27058515E-08
   38.6699982      -1.28903217E-08
   38.7299995      -1.29842412E-08
   38.7900009      -1.29779574E-08
   38.8499985      -1.28729765E-08
   38.9099998      -1.26804567E-08
   38.9700012      -1.24170239E-08
   39.0299988      -1.20995107E-08
   39.0900002      -1.17403705E-08
   39.1500015      -1.13452714E-08
   39.2099991      -1.09136478E-08
   39.2700005      -1.04420197E-08
   39.3300018      -9.92882132E-09
   39.3899994      -9.37873956E-09
   39.4500008      -8.80460238E-09
   39.5099983      -8.22570989E-09
   39.5699997      -7.66301156E-09
   39.6300011      -7.13292092E-09
   39.6899986      -6.64229116E-09
   39.7500000      -6.18661034E-09
   39.8100014      -5.75209080E-09
   39.8699989      -5.32071009E-09
   39.9300003      -4.87604579E-09
   39.9900017      -4.40766801E-09
   40.0499992      -3.91267152E-09
   40.1100006      -3.39428086E-09
   40.1699982      -2.85865287E-09
   40.2299995      -2.31148389E-09
   40.2900009      -1.75579962E-09
   40.3499985      -1.19154431E-09
   40.4099998      -6.16760920E-10
   40.4700012      -2.96146024E-11
   40.5299988       5.69626901E-10
   40.5900002       1.17733845E-09
   40.6500015       1.78631920E-09
   40.7099991       2.38655562E-09
   40.7700005       2.96665337E-09
   40.8300018       3.51549945E-09
   40.8899994       4.02371914E-09
   40.9500008       4.48460336E-09
   41.0099983       4.89434004E-09
   41.0699997       5.25157873E-09
   41.1300011       5.55652102E-09
   41.1899986       5.80983173E-09
   41.2500000       6.01170846E-09
   41.3100014       6.16141227E-09
   41.3699989       6.25741015E-09
   41.4300003       6.29811803E-09
   41.4900017       6.28295016E-09
   41.5499992       6.21324370E-09
   41.6100006       6.09256245E-09
   41.6699982       5.92609783E-09
   41.7299995       5.71928283E-09
   41.7900009       5.47615064E-09
   41.8499985       5.19824805E-09
   41.9099998       4.88476637E-09
   41.9700012       4.53408155E-09
   42.0299988       4.14622159E-09
   42.0900002       3.72525166E-09
   42.1500015       3.28048300E-09
   42.2099991       2.82583223E-09
   42.2700005       2.37745046E-09
   42.3300018       1.95049887E-09
   42.3899994       1.55634794E-09
   42.4500008       1.20131283E-09
   42.5099983       8.87361518E-10
   42.5699997       6.14393592E-10
   42.6300011       3.83003101E-10
   42.6899986       1.96460570E-10
   42.7500000       6.10037715E-11
   42.8100014      -1.57194726E-11
   42.8699989      -2.73794355E-11
   42.9300003       2.83583417E-11
   42.9900017       1.48444729E-10
   43.0499992       3.25051874E-10
   43.1100006       5.47991152E-10
   43.1699982       8.07931777E-10
   43.2299995       1.09899601E-09
   43.2900009       1.41955281E-09
   43.3499985       1.77083714E-09
   43.4099998       2.15402274E-09
   43.4700012       2.56709165E-09
   43.5299988       3.00293168E-09
   43.5900002       3.44948803E-09
   43.6500015       3.89184240E-09
   43.7099991       4.31523528E-09
   43.7700005       4.70774841E-09
   43.8300018       5.06167419E-09
   43.8899994       5.37332712E-09
   43.9500008       5.64176261E-09
   44.0099983       5.86719118E-09
   44.0699997       6.04974471E-09
   44.1300011       6.18887430E-09
   44.1899986       6.28326191E-09
   44.2500000       6.33102593E-09
   44.3100014       6.33009378E-09
   44.3699989       6.27879393E-09
   44.4300003       6.17672669E-09
   44.4900017       6.02579187E-09
   44.5499992       5.83101567E-09
   44.6100006       5.60070568E-09
   44.6699982       5.34569722E-09
   44.7299995       5.07784348E-09
   44.7900009       4.80830176E-09
   44.8499985       4.54628157E-09
   44.9099998       4.29866631E-09
   44.9700012       4.07044665E-09
   45.0299988       3.86549459E-09
   45.0900002       3.68710329E-09
   45.1500015       3.53795349E-09
   45.2099991       3.41962525E-09
   45.2700005       3.33208128E-09
   45.3300018       3.27359184E-09
   45.3899994       3.24128790E-09
   45.4500008       3.23211413E-09
   45.5099983       3.24369775E-09
   45.5699997       3.27466587E-09
   45.6300011       3.32426775E-09
   45.6899986       3.39156658E-09
   45.7500000       3.47473983E-09
   45.8100014       3.57098529E-09
   45.8699989       3.67720832E-09
   45.9300003       3.79121268E-09
   45.9900017       3.91277721E-09
   46.0499992       4.04395717E-09
   46.1100006       4.18825197E-09
   46.1699982       4.34879022E-09
   46.2299995       4.52618476E-09
   46.2900009       4.71693617E-09
   46.3499985       4.91309349E-09
   46.4099998       5.10337195E-09
   46.4700012       5.27531663E-09
   46.5299988       5.41766898E-09
   46.5900002       5.52204726E-09
   46.6500015       5.58341728E-09
   46.7099991       5.59940894E-09
   46.7700005       5.56900703E-09
   46.8300018       5.49132118E-09
   46.8899994       5.36494227E-09
   46.9500008       5.18801757E-09
   47.0099983       4.95882002E-09
   47.0699997       4.67648320E-09
   47.1300011       4.34165948E-09
   47.1899986       3.95701694E-09
   47.2500000       3.52758245E-09
   47.3100014       3.06086689E-09
   47.3699989       2.56659560E-09
   47.4300003       2.05587991E-09
   47.4900017       1.53984547E-09
   47.5499992       1.02803743E-09
   47.6100006       5.27137278E-10
   47.6699982       4.04931262E-11
   47.7299995      -4.31344849E-10
   47.7900009      -8.89301466E-10
   47.8499985      -1.33418454E-09
   47.9099998      -1.76537307E-09
   47.9700012      -2.18014651E-09
   48.0299988      -2.57376120E-09
   48.0900002      -2.94021252E-09
   48.1500015      -3.27356120E-09
   48.2099991      -3.56964414E-09
   48.2700005      -3.82783449E-09
   48.3300018      -4.05229139E-09
   48.3899994      -4.25205471E-09
   48.4500008      -4.43958248E-09
   48.5099983      -4.62795491E-09
   48.5699997      -4.82767648E-09
   48.6300011      -5.04439024E-09
   48.6899986      -5.27853272E-09
   48.7500000      -5.52706947E-09
   48.8100014      -5.78638693E-09
   48.8699989      -6.05482198E-09
   48.9300003      -6.33353592E-09
   48.9900017      -6.62539801E-09
   49.0499992      -6.93263713E-09
   49.1100006      -7.25460847E-09
   49.1699982      -7.58680940E-09
   49.2299995      -7.92143773E-09
   49.2900009      -8.24894641E-09
   49.3499985      -8.55971205E-09
   49.4099998      -8.84522677E-09
   49.4700012      -9.09883369E-09
   49.5299988      -9.31635569E-09
   49.5900002      -9.49678203E-09
   49.6500015      -9.64268398E-09
   49.7099991      -9.75963488E-09
   49.7700005      -9.85418680E-09
   49.8300018      -9.93073979E-09
   49.8899994      -9.98858241E-09
   49.9500008      -1.00206545E-08
   50.0099983      -1.00150164E-08
   50.0699997      -9.95868632E-09
   50.1300011      -9.84229054E-09
   50.1899986      -9.66350822E-09
   50.2500000      -9.42787803E-09
   50.3100014      -9.14683795E-09
   50.3699989      -8.83407214E-09
   50.4300003      -8.50180726E-09
   50.4900017      -8.15840107E-09
   50.5499992      -7.80773846E-09
   50.6100006      -7.45017559E-09