 -0.750000000       0.00000000    
 -0.689999998       0.00000000    
 -0.629999995       0.00000000    
 -0.569999993       0.00000000    
 -0.509999990       0.00000000    
 -0.449999988       2.43934452E-21
 -0.389999986       1.06072512E-20
 -0.330000013      -4.99251644E-21
 -0.270000011      -1.82642578E-19
 -0.209999993      -7.79545297E-19
 -0.150000006      -1.86236530E-18
  -9.00000036E-02  -2.53915807E-18
  -2.99999993E-02  -2.32445016E-19
   2.99999993E-02   8.62718525E-18
   9.00000036E-02   2.50856682E-17
  0.150000006       4.19743140E-17
  0.209999993       4.04894851E-17
  0.270000011      -3.97689331E-18
  0.330000013      -1.02948411E-16
  0.389999986      -2.29665519E-16
  0.449999988      -3.06938773E-16
  0.509999990      -2.30380177E-16
  0.569999993       6.73322570E-17
  0.629999995       5.38586852E-16
  0.689999998       9.85156598E-16
  0.750000000       1.11571826E-15
  0.810000002       6.97307274E-16
  0.870000005      -2.71564639E-16
  0.930000007      -1.48160091E-15
  0.990000010      -2.40908622E-15
   1.04999995      -2.56209149E-15
   1.11000001      -1.73634279E-15
   1.16999996      -1.13409493E-16
   1.23000002       1.86176974E-15
   1.28999996       3.71188642E-15
   1.35000002       5.05221949E-15
   1.40999997       5.48446591E-15
   1.47000003       4.38977281E-15
   1.52999997       9.73128730E-16
   1.59000003      -5.14989806E-15
   1.64999998      -1.29597210E-14
   1.71000004      -1.93292817E-14
   1.76999998      -1.95378026E-14
   1.83000004      -9.44841705E-15
   1.88999999       1.13270590E-14
   1.95000005       3.70829805E-14
   2.00999999       5.65426849E-14
   2.06999993       5.71181625E-14
   2.13000011       3.15402950E-14
   2.19000006      -1.65308729E-14
   2.25000000      -7.16306558E-14
   2.30999994      -1.12002320E-13
   2.36999989      -1.19517108E-13
   2.43000007      -8.89032500E-14
   2.49000001      -3.07693290E-14
   2.54999995       3.40239955E-14
   2.60999990       8.59520178E-14
   2.67000008       1.17532083E-13
   2.73000002       1.36043059E-13
   2.78999996       1.55556083E-13
   2.84999990       1.82443795E-13
   2.91000009       2.03718417E-13
   2.97000003       1.87378067E-13
   3.02999997       9.76904579E-14
   3.08999991      -8.09179994E-14
   3.15000010      -3.24581480E-13
   3.21000004      -5.68402584E-13
   3.26999998      -7.27543947E-13
   3.32999992      -7.33659823E-13
   3.39000010      -5.69335486E-13
   3.45000005      -2.81515642E-13
   3.50999999       3.65886419E-14
   3.56999993       2.90377667E-13
   3.63000011       4.36063945E-13
   3.69000006       5.14013636E-13
   3.75000000       6.42310803E-13
   3.80999994       9.65402888E-13
   3.86999989       1.57268480E-12
   3.93000007       2.41781204E-12
   3.99000001       3.27460736E-12
   4.05000019       3.75692793E-12
   4.11000013       3.41011789E-12
   4.17000008       1.85689138E-12
   4.23000002      -1.04132382E-12
   4.28999996      -5.05808329E-12
   4.34999990      -9.55809390E-12
   4.40999985      -1.35651690E-11
   4.46999979      -1.59421209E-11
   4.53000021      -1.56499206E-11
   4.59000015      -1.20261795E-11
   4.65000010      -5.00988877E-12
   4.71000004       4.75395071E-12
   4.76999998       1.59692780E-11
   4.82999992       2.69014411E-11
   4.88999987       3.57002032E-11
   4.94999981       4.07518949E-11
   5.01000023       4.09681108E-11
   5.07000017       3.59361603E-11
   5.13000011       2.58999246E-11
   5.19000006       1.15943748E-11
   5.25000000      -5.99729988E-12
   5.30999994      -2.58767886E-11
   5.36999989      -4.71844230E-11
   5.42999983      -6.92498073E-11
   5.48999977      -9.15683224E-11
   5.55000019      -1.13765677E-10
   5.61000013      -1.35608330E-10
   5.67000008      -1.57076060E-10
   5.73000002      -1.78455473E-10
   5.78999996      -2.00373357E-10
   5.84999990      -2.23692856E-10
   5.90999985      -2.49250592E-10
   5.96999979      -2.77497192E-10
   6.03000021      -3.08174958E-10
   6.09000015      -3.40184159E-10
   6.15000010      -3.71735115E-10
   6.21000004      -4.00773636E-10
   6.26999998      -4.25548180E-10
   6.32999992      -4.45115805E-10
   6.38999987      -4.59594779E-10
   6.44999981      -4.70066264E-10
   6.51000023      -4.78163675E-10
   6.57000017      -4.85508245E-10
   6.63000011      -4.93197261E-10
   6.69000006      -5.01515274E-10
   6.75000000      -5.09932485E-10
   6.80999994      -5.17336063E-10
   6.86999989      -5.22358656E-10
   6.92999983      -5.23658117E-10
   6.98999977      -5.20056387E-10
   7.05000019      -5.10530840E-10
   7.11000013      -4.94127683E-10
   7.17000008      -4.69895234E-10
   7.23000002      -4.36913616E-10
   7.28999996      -3.94443200E-10
   7.34999990      -3.42151391E-10
   7.40999985      -2.80340223E-10
   7.46999979      -2.10091139E-10
   7.53000021      -1.33266745E-10
   7.59000015      -5.23480426E-11
   7.65000010       2.98742489E-11
   7.71000004       1.10703974E-10
   7.76999998       1.87969529E-10
   7.82999992       2.60401339E-10
   7.88999987       3.27882249E-10
   7.94999981       3.91513572E-10
   8.01000023       4.53471205E-10
   8.06999969       5.16666376E-10
   8.13000011       5.84267523E-10
   8.18999958       6.59170385E-10
   8.25000000       7.43512418E-10
   8.31000042       8.38314973E-10
   8.36999989       9.43304879E-10
   8.43000031       1.05693165E-09
   8.48999977       1.17656551E-09
   8.55000019       1.29884636E-09
   8.60999966       1.42014733E-09
   8.67000008       1.53711255E-09
   8.72999954       1.64721559E-09
   8.78999996       1.74926285E-09
   8.85000038       1.84373117E-09
   8.90999985       1.93282568E-09
   8.97000027       2.02016093E-09
   9.02999973       2.11005680E-09
   9.09000015       2.20654761E-09
   9.14999962       2.31232677E-09
   9.21000004       2.42792009E-09
   9.27000046       2.55135957E-09
   9.32999992       2.67850875E-09
   9.39000034       2.80398993E-09
   9.44999981       2.92246849E-09
   9.51000023       3.02990832E-09
   9.56999969       3.12442050E-09
   9.63000011       3.20645310E-09
   9.68999958       3.27830607E-09
   9.75000000       3.34317840E-09
   9.81000042       3.40411144E-09
   9.86999989       3.46319551E-09
   9.93000031       3.52127638E-09
   9.98999977       3.57817953E-09
   10.0500002       3.63326236E-09
   10.1099997       3.68598130E-09
   10.1700001       3.73618425E-09
   10.2299995       3.78398601E-09
   10.2900000       3.82929644E-09
   10.3500004       3.87123844E-09
   10.4099998       3.90776433E-09
   10.4700003       3.93568289E-09
   10.5299997       3.95113275E-09
   10.5900002       3.95033695E-09
   10.6499996       3.93034139E-09
   10.7100000       3.88946519E-09
   10.7700005       3.82733134E-09
   10.8299999       3.74452203E-09
   10.8900003       3.64207642E-09
   10.9499998       3.52105567E-09
   11.0100002       3.38233552E-09
   11.0699997       3.22664273E-09
   11.1300001       3.05473513E-09
   11.1899996       2.86758572E-09
   11.2500000       2.66647837E-09
   11.3100004       2.45299225E-09
   11.3699999       2.22891217E-09
   11.4300003       1.99610306E-09
   11.4899998       1.75636683E-09
   11.5500002       1.51128587E-09
   11.6099997       1.26207467E-09
   11.6700001       1.00950215E-09
   11.7299995       7.53953899E-10
   11.7900000       4.95658126E-10
   11.8500004       2.34995495E-10
   11.9099998      -2.72667687E-11
   11.9700003      -2.89976460E-10
   12.0299997      -5.51874935E-10
   12.0900002      -8.12019341E-10
   12.1499996      -1.07009368E-09
   12.2100000      -1.32638212E-09
   12.2700005      -1.58136337E-09
   12.3299999      -1.83512860E-09
   12.3900003      -2.08697348E-09
   12.4499998      -2.33544428E-09
   12.5100002      -2.57886312E-09
   12.5699997      -2.81603962E-09
   12.6300001      -3.04671377E-09
   12.6899996      -3.27137983E-09
   12.7500000      -3.49047524E-09
   12.8100004      -3.70330278E-09
   12.8699999      -3.90726962E-09
   12.9300003      -4.09791578E-09
   12.9899998      -4.26985070E-09
   13.0500002      -4.41826309E-09
   13.1099997      -4.54038984E-09
   13.1700001      -4.63633620E-09
   13.2299995      -4.70892836E-09
   13.2900000      -4.76267381E-09
   13.3500004      -4.80226570E-09
   13.4099998      -4.83117413E-09
   13.4700003      -4.85081264E-09
   13.5299997      -4.86051865E-09
   13.5900002      -4.85831420E-09
   13.6499996      -4.84216356E-09
   13.7100000      -4.81129625E-09
   13.7700005      -4.76711870E-09
   13.8299999      -4.71335904E-09
   13.8900003      -4.65532857E-09
   13.9499998      -4.59851579E-09
   14.0100002      -4.54700944E-09
   14.0699997      -4.50237181E-09
   14.1300001      -4.46342696E-09
   14.1899996      -4.42705739E-09
   14.2500000      -4.38967307E-09
   14.3100004      -4.34871650E-09
   14.3699999      -4.30358327E-09
   14.4300003      -4.25561142E-09
   14.4899998      -4.20724078E-09
   14.5500002      -4.16078061E-09
   14.6099997      -4.11732826E-09
   14.6700001      -4.07623002E-09
   14.7299995      -4.03517886E-09
   14.7900000      -3.99077971E-09
   14.8500004      -3.93930799E-09
   14.9099998      -3.87744636E-09
   14.9700003      -3.80289400E-09
   15.0299997      -3.71484110E-09
   15.0900002      -3.61428554E-09
   15.1499996      -3.50411478E-09
   15.2100000      -3.38885364E-09
   15.2700005      -3.27404992E-09
   15.3299999      -3.16541171E-09
   15.3900003      -3.06795789E-09
   15.4499998      -2.98548386E-09
   15.5100002      -2.92052849E-09
   15.5699997      -2.87481683E-09
   15.6300001      -2.84990764E-09
   15.6899996      -2.84765678E-09
   15.7500000      -2.87015967E-09
   15.8100004      -2.91906077E-09
   15.8699999      -2.99441005E-09
   15.9300003      -3.09349812E-09
   15.9899998      -3.21016280E-09
   16.0499992      -3.33493810E-09
   16.1100006      -3.45610363E-09
   16.1700001      -3.56136232E-09
   16.2299995      -3.63963837E-09
   16.2900009      -3.68246367E-09
   16.3500004      -3.68462061E-09
   16.4099998      -3.64402597E-09
   16.4699993      -3.56111984E-09
   16.5300007      -3.43815110E-09
   16.5900002      -3.27866290E-09
   16.6499996      -3.08728776E-09
   16.7099991      -2.86973778E-09
   16.7700005      -2.63279265E-09
   16.8299999      -2.38410736E-09
   16.8899994      -2.13177964E-09
   16.9500008      -1.88370541E-09
   17.0100002      -1.64678349E-09
   17.0699997      -1.42603485E-09
   17.1299992      -1.22372723E-09
   17.1900005      -1.03867726E-09
   17.2500000      -8.65993444E-10
   17.3099995      -6.97508329E-10
   17.3700008      -5.22973331E-10
   17.4300003      -3.31785432E-10
   17.4899998      -1.14739537E-10
   17.5499992       1.34757899E-10
   17.6100006       4.20342372E-10
   17.6700001       7.43105300E-10
   17.7299995       1.10227505E-09
   17.7900009       1.49557455E-09
   17.8500004       1.91893390E-09
   17.9099998       2.36571407E-09
   17.9699993       2.82599855E-09
   18.0300007       3.28657679E-09
   18.0900002       3.73190234E-09
   18.1499996       4.14580059E-09
   18.2099991       4.51328530E-09
   18.2700005       4.82180518E-09
   18.3299999       5.06155517E-09
   18.3899994       5.22499111E-09
   18.4500008       5.30603739E-09
   18.5100002       5.29958211E-09
   18.5699997       5.20158672E-09
   18.6299992       5.00982056E-09
   18.6900005       4.72490713E-09
   18.7500000       4.35129932E-09
   18.8099995       3.89785004E-09
   18.8700008       3.37777450E-09
   18.9300003       2.80797674E-09
   18.9899998       2.20782104E-09
   19.0499992       1.59756630E-09
   19.1100006       9.96805749E-10
   19.1700001       4.23284102E-10
   19.2299995      -1.07634603E-10
   19.2900009      -5.82836113E-10
   19.3500004      -9.90953986E-10
   19.4099998      -1.32196332E-09
   19.4699993      -1.56726676E-09
   19.5300007      -1.72036552E-09
   19.5900002      -1.77784665E-09
   19.6499996      -1.74020554E-09
   19.7099991      -1.61210434E-09
   19.7700005      -1.40194834E-09
   19.8299999      -1.12098197E-09
   19.8899994      -7.82251763E-10
   19.9500008      -3.99692501E-10
   20.0100002       1.26082053E-11
   20.0699997       4.41057274E-10
   20.1299992       8.73174422E-10
   20.1900005       1.29809363E-09
   20.2500000       1.70675896E-09
   20.3099995       2.09171858E-09
   20.3700008       2.44668019E-09
   20.4300003       2.76624101E-09
   20.4899998       3.04621683E-09
   20.5499992       3.28467831E-09
   20.6100006       3.48330809E-09
   20.6700001       3.64832253E-09
   20.7299995       3.79020948E-09
   20.7900009       3.92201205E-09
   20.8500004       4.05654843E-09
   20.9099998       4.20350199E-09
   20.9699993       4.36739578E-09
   21.0300007       4.54706139E-09
   21.0900002       4.73657336E-09
   21.1499996       4.92704144E-09
   21.2099991       5.10843279E-09
   21.2700005       5.27080202E-09
   21.3299999       5.40469980E-09
   21.3899994       5.50100232E-09
   21.4500008       5.55060131E-09
   21.5100002       5.54443913E-09
   21.5699997       5.47413714E-09
   21.6299992       5.33323030E-09
   21.6900005       5.11872100E-09
   21.7500000       4.83252904E-09
   21.8099995       4.48234871E-09
   21.8700008       4.08158485E-09
   21.9300003       3.64831210E-09
   21.9899998       3.20352855E-09
   22.0499992       2.76920509E-09
   22.1100006       2.36665265E-09
   22.1700001       2.01551109E-09
   22.2299995       1.73333792E-09
   22.2900009       1.53548618E-09
   22.3500004       1.43490764E-09
   22.4099998       1.44164236E-09
   22.4699993       1.56199809E-09
   22.5300007       1.79759307E-09
   22.5900002       2.14447282E-09
   22.6499996       2.59245136E-09
   22.7099991       3.12478088E-09
   22.7700005       3.71829723E-09
   22.8299999       4.34426495E-09
   22.8899994       4.97011987E-09
   22.9500008       5.56209967E-09
   23.0100002       6.08834805E-09
   23.0699997       6.52176801E-09
   23.1299992       6.84181911E-09
   23.1900005       7.03482872E-09
   23.2500000       7.09295866E-09
   23.3099995       7.01256697E-09
   23.3700008       6.79287471E-09
   23.4300003       6.43557874E-09
   23.4899998       5.94547389E-09
   23.5499992       5.33157296E-09
   23.6100006       4.60795180E-09
   23.6700001       3.79372178E-09
   23.7299995       2.91192825E-09
   23.7900009       1.98763139E-09
   23.8500004       1.04566500E-09
   23.9099998       1.08631472E-10
   23.9699993      -8.04422307E-10
   24.0300007      -1.67836289E-09
   24.0900002      -2.50129162E-09
   24.1499996      -3.26304050E-09
   24.2099991      -3.95338784E-09
   24.2700005      -4.56078331E-09
   24.3299999      -5.07236209E-09
   24.3899994      -5.47559109E-09
   24.4500008      -5.76120840E-09
   24.5100002      -5.92641758E-09
   24.5699997      -5.97701000E-09
   24.6299992      -5.92738392E-09
   24.6900005      -5.79825254E-09
   24.7500000      -5.61271385E-09
   24.8099995      -5.39197842E-09
   24.8700008      -5.15208232E-09
   24.9300003      -4.90245711E-09
   24.9899998      -4.64655558E-09
   25.0499992      -4.38411929E-09
   25.1100006      -4.11429113E-09
   25.1700001      -3.83863163E-09
   25.2299995      -3.56308894E-09
   25.2900009      -3.29818017E-09
   25.3500004      -3.05707371E-09
   25.4099998      -2.85197932E-09
   25.4699993      -2.69004996E-09
   25.5300007      -2.57048649E-09
   25.5900002      -2.48433230E-09
   25.6499996      -2.41744447E-09
   25.7099991      -2.35568631E-09
   25.7700005      -2.29020558E-09
   25.8299999      -2.22041807E-09
   25.8899994      -2.15324447E-09
   25.9500008      -2.09885798E-09
   26.0100002      -2.06484430E-09
   26.0699997      -2.05141704E-09
   26.1299992      -2.04981254E-09
   26.1900005      -2.04452322E-09
   26.2500000      -2.01837258E-09
   26.3099995      -1.95836414E-09
   26.3700008      -1.86015270E-09
   26.4300003      -1.72972925E-09
   26.4899998      -1.58202085E-09
   26.5499992      -1.43705536E-09
   26.6100006      -1.31491096E-09
   26.6700001      -1.23082500E-09
   26.7299995      -1.19171439E-09
   26.7900009      -1.19502896E-09
   26.8500004      -1.23029853E-09
   26.9099998      -1.28297584E-09
   26.9699993      -1.33938094E-09
   27.0300007      -1.39103351E-09
   27.0900002      -1.43675749E-09
   27.1499996      -1.48172319E-09
   27.2099991      -1.53379731E-09
   27.2700005      -1.59869096E-09
   27.3299999      -1.67588787E-09
   27.3899994      -1.75701287E-09
   27.4500008      -1.82729165E-09
   27.5100002      -1.86955718E-09
   27.5699997      -1.86934423E-09
   27.6299992      -1.81929305E-09
   27.6900005      -1.72139281E-09
   27.7500000      -1.58633273E-09
   27.8099995      -1.43015444E-09
   27.8700008      -1.26925537E-09
   27.9300003      -1.11535070E-09
   27.9899998      -9.72095515E-10
   28.0499992      -8.34578295E-10
   28.1100006      -6.91897761E-10
   28.1700001      -5.31857558E-10
   28.2299995      -3.45926843E-10
   28.2900009      -1.32476058E-10
   28.3500004       1.02966469E-10
   28.4099998       3.50375590E-10
   28.4699993       5.99479466E-10
   28.5300007       8.43659642E-10
   28.5900002       1.08188292E-09
   28.6499996       1.31806810E-09
   28.7099991       1.55845192E-09
   28.7700005       1.80823545E-09
   28.8299999       2.06881889E-09
   28.8899994       2.33643549E-09
   28.9500008       2.60235411E-09
   29.0100002       2.85436075E-09
   29.0699997       3.07907722E-09
   29.1299992       3.26463834E-09
   29.1900005       3.40317818E-09
   29.2500000       3.49246743E-09
   29.3099995       3.53606588E-09
   29.3700008       3.54169649E-09
   29.4300003       3.51819440E-09
   29.4899998       3.47208573E-09
   29.5499992       3.40514350E-09
   29.6100006       3.31394445E-09
   29.6700001       3.19156945E-09
   29.7299995       3.03062531E-09
   29.7900009       2.82623080E-09
   29.8500004       2.57774380E-09
   29.9099998       2.28873098E-09
   29.9699993       1.96550509E-09
   30.0300007       1.61508007E-09
   30.0900002       1.24340782E-09
   30.1499996       8.54427140E-10
   30.2099991       4.50059268E-10
   30.2700005       3.10536180E-11
   30.3299999      -4.01507577E-10
   30.3899994      -8.44333270E-10
   30.4500008      -1.29017519E-09
   30.5100002      -1.72694026E-09
   30.5699997      -2.13838058E-09
   30.6299992      -2.50663335E-09
   30.6900005      -2.81606716E-09
   30.7500000      -3.05710901E-09
   30.8099995      -3.22846039E-09
   30.8700008      -3.33663164E-09
   30.9300003      -3.39283401E-09
   30.9899998      -3.40844863E-09
   31.0499992      -3.39092732E-09
   31.1100006      -3.34173444E-09
   31.1700001      -3.25700977E-09
   31.2299995      -3.13047988E-09
   31.2900009      -2.95732860E-09
   31.3500004      -2.73753820E-09
   31.4099998      -2.47755594E-09
   31.4699993      -2.18977791E-09
   31.5300007      -1.89001392E-09
   31.5900002      -1.59364533E-09
   31.6499996      -1.31159650E-09
   31.7099991      -1.04743281E-09
   31.7700005      -7.96726962E-10
   31.8299999      -5.49201074E-10
   31.8899994      -2.93142288E-10
   31.9500008      -2.05580795E-11
   32.0099983       2.68967876E-10
   32.0699997       5.67375980E-10
   32.1300011       8.60627125E-10
   32.1899986       1.13352450E-09
   32.2500000       1.37475076E-09
   32.3100014       1.57997782E-09
   32.3699989       1.75188086E-09
   32.4300003       1.89732297E-09
   32.4900017       2.02314210E-09
   32.5499992       2.13232787E-09
   32.6100006       2.22193797E-09
   32.6699982       2.28325026E-09
   32.7299995       2.30388753E-09
   32.7900009       2.27124097E-09
   32.8499985       2.17638330E-09
   32.9099998       2.01758144E-09
   32.9700012       1.80242476E-09
   33.0299988       1.54762059E-09
   33.0900002       1.27595734E-09
   33.1500015       1.01088415E-09
   33.2099991       7.70283781E-10
   33.2700005       5.61713176E-10
   33.3300018       3.81130905E-10
   33.3899994       2.15826981E-10
   33.4500008       5.04918884E-11
   33.5099983      -1.26029728E-10
   33.5699997      -3.16021986E-10
   33.6300011      -5.11958920E-10
   33.6899986      -6.99393266E-10
   33.7500000      -8.62182825E-10
   33.8100014      -9.87862236E-10
   33.8699989      -1.07126885E-09
   33.9300003      -1.11545884E-09
   33.9900017      -1.12997089E-09
   34.0499992      -1.12718834E-09
   34.1100006      -1.11789922E-09
   34.1699982      -1.10726439E-09
   34.2299995      -1.09240916E-09
   34.2900009      -1.06264719E-09
   34.3499985      -1.00276010E-09
   34.4099998      -8.98747188E-10
   34.4700012      -7.44354300E-10
   34.5299988      -5.46022394E-10
   34.5900002      -3.24157173E-10
   34.6500015      -1.09858941E-10
   34.7099991       6.20051371E-11
   34.7700005       1.61056821E-10
   34.8300018       1.68175585E-10
   34.8899994       7.86087792E-11
   34.9500008      -9.93235494E-11
   35.0099983      -3.49160423E-10
   35.0699997      -6.53032961E-10
   35.1300011      -9.98011895E-10
   35.1899986      -1.38014578E-09
   35.2500000      -1.80496262E-09
   35.3100014      -2.28416752E-09
   35.3699989      -2.82940715E-09
   35.4300003      -3.44507245E-09
   35.4900017      -4.12280743E-09
   35.5499992      -4.84018425E-09
   35.6100006      -5.56473267E-09
   35.6699982      -6.26239549E-09
   35.7299995      -6.90741864E-09
   35.7900009      -7.48972617E-09
   35.8499985      -8.01656785E-09
   35.9099998      -8.50753867E-09
   35.9700012      -8.98484132E-09
   36.0299988      -9.46273637E-09
   36.0900002      -9.94033655E-09
   36.1500015      -1.04003979E-08
   36.2099991      -1.08141895E-08
   36.2700005      -1.11502052E-08
   36.3300018      -1.13832934E-08
   36.3899994      -1.15010748E-08
   36.4500008      -1.15058256E-08
   36.5099983      -1.14117542E-08
   36.5699997      -1.12389458E-08
   36.6300011      -1.10061666E-08
   36.6899986      -1.07248210E-08
   36.7500000      -1.03959703E-08
   36.8100014      -1.00114210E-08
   36.8699989      -9.55854063E-09
   36.9300003      -9.02721098E-09
   36.9900017      -8.41638759E-09
   37.0499992      -7.73778908E-09
   37.1100006      -7.01521596E-09
   37.1699982      -6.27971586E-09
   37.2299995      -5.56236568E-09
   37.2900009      -4.88729013E-09
   37.3499985      -4.26725011E-09
   37.4099998      -3.70294506E-09
   37.4700012      -3.18574767E-09
   37.5299988      -2.70254708E-09
   37.5900002      -2.24098962E-09
   37.6500015      -1.79363857E-09
   37.7099991      -1.36008904E-09
   37.7700005      -9.46645096E-10
   37.8300018      -5.63723901E-10
   37.8899994      -2.21756266E-10
   37.9500008       7.30825331E-11
   38.0099983       3.21684651E-10
   38.0699997       5.32065281E-10
   38.1300011       7.16373405E-10
   38.1899986       8.85962026E-10
   38.2500000       1.04667974E-09
   38.3100014       1.19663424E-09
   38.3699989       1.32760503E-09
   38.4300003       1.42952727E-09
   38.4900017       1.49596702E-09
   38.5499992       1.52803370E-09
   38.6100006       1.53502433E-09
   38.6699982       1.53170232E-09
   38.7299995       1.53362834E-09
   38.7900009       1.55259161E-09
   38.8499985       1.59377578E-09
   38.9099998       1.65525293E-09
   38.9700012       1.72940728E-09
   39.0299988       1.80542636E-09
   39.0900002       1.87205185E-09
   39.1500015       1.92004923E-09
   39.2099991       1.94397276E-09
   39.2700005       1.94277439E-09
   39.3300018       1.91884308E-09
   39.3899994       1.87548488E-09
   39.4500008       1.81361437E-09
   39.5099983       1.72910664E-09
   39.5699997       1.61234903E-09
   39.6300011       1.45071422E-09
   39.6899986       1.23326160E-09
   39.7500000       9.55699964E-10
   39.8100014       6.23265051E-10
   39.8699989       2.50007293E-10
   39.9300003      -1.45362333E-10
   39.9900017      -5.45315182E-10
   40.0499992      -9.38566225E-10
   40.1100006      -1.32239719E-09
   40.1699982      -1.70164971E-09
   40.2299995      -2.08527284E-09
   40.2900009      -2.48214560E-09
   40.3499985      -2.89784396E-09
   40.4099998      -3.33329919E-09
   40.4700012      -3.78539688E-09
   40.5299988      -4.24893143E-09
   40.5900002      -4.71906780E-09
   40.6500015      -5.19347632E-09
   40.7099991      -5.67339420E-09
   40.7700005      -6.16309492E-09
   40.8300018      -6.66759448E-09
   40.8899994      -7.18908177E-09
   40.9500008      -7.72324604E-09
   41.0099983      -8.25712476E-09
   41.0699997      -8.76981776E-09
   41.1300011      -9.23641164E-09
   41.1899986      -9.63402247E-09
   41.2500000      -9.94770222E-09
   41.3100014      -1.01737649E-08
   41.3699989      -1.03189981E-08
   41.4300003      -1.03959801E-08
   41.4900017      -1.04163664E-08
   41.5499992      -1.03849356E-08
   41.6100006      -1.02967395E-08
   41.6699982      -1.01383844E-08
   41.7299995      -9.89276927E-09
   41.7900009      -9.54529256E-09
   41.8499985      -9.08921827E-09
   41.9099998      -8.52836735E-09
   41.9700012      -7.87638221E-09
   42.0299988      -7.15294979E-09
   42.0900002      -6.37827879E-09
   42.1500015      -5.56758373E-09
   42.2099991      -4.72738426E-09
   42.2700005      -3.85497856E-09
   42.3300018      -2.94157321E-09
   42.3899994      -1.97834504E-09
   42.4500008      -9.63508717E-10
   42.5099983       9.22673535E-11
   42.5699997       1.16450682E-09
   42.6300011       2.21874696E-09
   42.6899986       3.21864957E-09
   42.7500000       4.13563672E-09
   42.8100014       4.95643393E-09
   42.8699989       5.68554714E-09
   42.9300003       6.34166009E-09
   42.9900017       6.94939928E-09
   43.0499992       7.52972529E-09
   43.1100006       8.09263767E-09
   43.1699982       8.63475957E-09
   43.2299995       9.14226295E-09
   43.2900009       9.59753432E-09
   43.3499985       9.98669680E-09
   43.4099998       1.03051567E-08
   43.4700012       1.05593161E-08
   43.5299988       1.07641904E-08
   43.5900002       1.09380620E-08
   43.6500015       1.10961338E-08
   43.7099991       1.12453433E-08
   43.7700005       1.13819869E-08
   43.8300018       1.14928813E-08
   43.8899994       1.15596759E-08
   43.9500008       1.15649259E-08
   44.0099983       1.14979350E-08
   44.0699997       1.13584040E-08
   44.1300011       1.11567058E-08
   44.1899986       1.09107701E-08
   44.2500000       1.06407541E-08
   44.3100014       1.03634479E-08
   44.3699989       1.00882760E-08
   44.4300003       9.81609993E-09
   44.4900017       9.54090940E-09
   44.5499992       9.25355881E-09
   44.6100006       8.94613628E-09
   44.6699982       8.61555982E-09
   44.7299995       8.26535551E-09
   44.7900009       7.90518673E-09
   44.8499985       7.54835572E-09
   44.9099998       7.20804882E-09
   44.9700012       6.89350710E-09
   45.0299988       6.60738397E-09
   45.0900002       6.34517594E-09
   45.1500015       6.09692030E-09
   45.2099991       5.85047699E-09
   45.2700005       5.59510838E-09
   45.3300018       5.32402034E-09
   45.3899994       5.03507724E-09
   45.4500008       4.72980854E-09
   45.5099983       4.41152004E-09
   45.5699997       4.08355616E-09
   45.6300011       3.74838249E-09
   45.6899986       3.40753470E-09
   45.7500000       3.06202996E-09
   45.8100014       2.71281175E-09
   45.8699989       2.36108622E-09
   45.9300003       2.00870209E-09
   45.9900017       1.65870051E-09
   46.0499992       1.31582889E-09
   46.1100006       9.86479898E-10
   46.1699982       6.77557899E-10
   46.2299995       3.94345612E-10
   46.2900009       1.38220477E-10
   46.3499985      -9.44854958E-11
   46.4099998      -3.11501380E-10
   46.4700012      -5.21562238E-10
   46.5299988      -7.30527971E-10
   46.5900002      -9.38525924E-10
   46.6500015      -1.13954901E-09
   46.7099991      -1.32367972E-09
   46.7700005      -1.48073764E-09
   46.8300018      -1.60347002E-09
   46.8899994      -1.68881809E-09
   46.9500008      -1.73700310E-09
   47.0099983      -1.74942272E-09
   47.0699997      -1.72687398E-09
   47.1300011      -1.66918379E-09
   47.1899986      -1.57627678E-09
   47.2500000      -1.44978030E-09
   47.3100014      -1.29401145E-09
   47.3699989      -1.11570908E-09
   47.4300003      -9.22734167E-10
   47.4900017      -7.22569726E-10
   47.5499992      -5.21433619E-10
   47.6100006      -3.24266419E-10
   47.6699982      -1.35199393E-10
   47.7299995       4.21906295E-11
   47.7900009       2.05300332E-10
   47.8499985       3.53487656E-10
   47.9099998       4.89030594E-10
   47.9700012       6.17364770E-10
   48.0299988       7.46253614E-10
   48.0900002       8.84097406E-10
   48.1500015       1.03800391E-09
   48.2099991       1.21231369E-09
   48.2700005       1.40799583E-09
   48.3300018       1.62291358E-09
   48.3899994       1.85262539E-09
   48.4500008       2.09127982E-09
   48.5099983       2.33227548E-09
   48.5699997       2.56857979E-09
   48.6300011       2.79279933E-09
   48.6899986       2.99720471E-09
   48.7500000       3.17389715E-09
   48.8100014       3.31521144E-09
   48.8699989       3.41433171E-09
   48.9300003       3.46599505E-09
   48.9900017       3.46711304E-09
   49.0499992       3.41716566E-09
   49.1100006       3.31827610E-09
   49.1699982       3.17495519E-09
   49.2299995       2.99354763E-09
   49.2900009       2.78145151E-09
   49.3499985       2.54623167E-09
   49.4099998       2.29479480E-09
   49.4700012       2.03283190E-09
   49.5299988       1.76470294E-09
   49.5900002       1.49376567E-09
   49.6500015       1.22292165E-09
   49.7099991       9.54971657E-10
   49.7700005       6.92394420E-10
   49.8300018       4.36456649E-10
   49.8899994       1.86001992E-10
   49.9500008      -6.33857133E-11
   50.0099983      -3.19151316E-10
   50.0699997      -5.90186511E-10
   50.1300011      -8.84258167E-10
   50.1899986      -1.20533827E-09
   50.2500000      -1.55184443E-09
   50.3100014      -1.91644123E-09
   50.3699989      -2.28742225E-09
   50.4300003      -2.65114508E-09
   50.4900017      -2.99474845E-09
   50.5499992      -3.30850725E-09
   50.6100006      -3.58740859E-09