  -2.400000      0.0000000E+00
  -2.340000      0.0000000E+00
  -2.280000      0.0000000E+00
  -2.220000      0.0000000E+00
  -2.160000     -6.5079241E-19
  -2.100000     -3.8466603E-18
  -2.040000     -1.1942715E-17
  -1.980000     -2.7624688E-17
  -1.920000     -5.9210296E-17
  -1.860000     -1.2835526E-16
  -1.800000     -2.5848174E-16
  -1.740000     -4.1415247E-16
  -1.680000     -3.9525458E-16
  -1.620000      2.3082000E-16
  -1.560000      2.0058492E-15
  -1.500000      5.1502326E-15
  -1.440000      8.9155274E-15
  -1.380000      1.1118471E-14
  -1.320000      8.4441722E-15
  -1.260000     -2.0851463E-15
  -1.200000     -2.0739627E-14
  -1.140000     -4.2942067E-14
  -1.080000     -5.8995967E-14
  -1.020000     -5.6885432E-14
 -0.9600000     -2.7858514E-14
 -0.9000000      2.7435182E-14
 -0.8400000      9.5695052E-14
 -0.7800000      1.5344806E-13
 -0.7200000      1.7548501E-13
 -0.6600000      1.4598870E-13
 -0.6000000      6.6749022E-14
 -0.5400000     -4.2510276E-14
 -0.4800000     -1.5278283E-13
 -0.4200000     -2.3917034E-13
 -0.3600000     -2.9117998E-13
 -0.3000000     -3.1296949E-13
 -0.2400000     -3.1227370E-13
 -0.1800000     -2.8450340E-13
 -0.1200000     -2.0360494E-13
 -5.9999999E-02 -2.9727587E-14
  0.0000000E+00  2.6498010E-13
  5.9999999E-02  6.6308986E-13
  0.1200000      1.0801877E-12
  0.1800000      1.3726881E-12
  0.2400000      1.3810689E-12
  0.3000000      9.9622611E-13
  0.3600000      2.2136965E-13
  0.4200000     -8.0159414E-13
  0.4800000     -1.8202584E-12
  0.5400000     -2.5501975E-12
  0.6000000     -2.7752128E-12
  0.6600000     -2.4276672E-12
  0.7200000     -1.6126152E-12
  0.7800000     -5.6226811E-13
  0.8400000      4.6190748E-13
  0.9000000      1.2773364E-12
  0.9600000      1.8495195E-12
   1.020000      2.2880335E-12
   1.080000      2.7667400E-12
   1.140000      3.4007519E-12
   1.200000      4.1360066E-12
   1.260000      4.7075564E-12
   1.320000      4.6979612E-12
   1.380000      3.6860784E-12
   1.440000      1.4354805E-12
   1.500000     -1.9515737E-12
   1.560000     -5.9826705E-12
   1.620000     -9.8589869E-12
   1.680000     -1.2675150E-11
   1.740000     -1.3668690E-11
   1.800000     -1.2430021E-11
   1.860000     -8.9968831E-12
   1.920000     -3.8015476E-12
   1.980000      2.5036221E-12
   2.040000      9.2703544E-12
   2.100000      1.6040957E-11
   2.160000      2.2630665E-11
   2.220000      2.9086721E-11
   2.280000      3.5557446E-11
   2.340000      4.2139264E-11
   2.400000      4.8772909E-11
   2.460000      5.5231739E-11
   2.520000      6.1199310E-11
   2.580000      6.6389789E-11
   2.640000      7.0642471E-11
   2.700000      7.3929696E-11
   2.760000      7.6253996E-11
   2.820000      7.7460482E-11
   2.880000      7.7035385E-11
   2.940000      7.3980849E-11
   3.000000      6.6839562E-11
   3.060000      5.3892533E-11
   3.120000      3.3487029E-11
   3.180000      4.3961614E-12
   3.240000     -3.3908411E-11
   3.300000     -8.1161564E-11
   3.360000     -1.3641223E-10
   3.420000     -1.9828099E-10
   3.480000     -2.6526192E-10
   3.540000     -3.3595682E-10
   3.600000     -4.0917414E-10
   3.660000     -4.8389376E-10
   3.720000     -5.5916100E-10
   3.780000     -6.3399586E-10
   3.840000     -7.0738193E-10
   3.900000     -7.7834533E-10
   3.960000     -8.4608520E-10
   4.020000     -9.1009061E-10
   4.080000     -9.7019193E-10
   4.140000     -1.0265264E-09
   4.200000     -1.0794394E-09
   4.260000     -1.1293547E-09
   4.320000     -1.1766523E-09
   4.380000     -1.2215735E-09
   4.440000     -1.2641578E-09
   4.500000     -1.3042152E-09
   4.560000     -1.3413279E-09
   4.620000     -1.3748799E-09
   4.680000     -1.4041009E-09
   4.740000     -1.4281042E-09
   4.800000     -1.4459035E-09
   4.860000     -1.4564102E-09
   4.920000     -1.4584448E-09
   4.980000     -1.4508080E-09
   5.040000     -1.4324466E-09
   5.100000     -1.4026996E-09
   5.160000     -1.3615503E-09
   5.220000     -1.3097670E-09
   5.280000     -1.2488279E-09
   5.340000     -1.1806003E-09
   5.400000     -1.1068454E-09
   5.460000     -1.0287143E-09
   5.520000     -9.4642139E-10
   5.580000     -8.5922836E-10
   5.640000     -7.6575590E-10
   5.700000     -6.6450523E-10
   5.760000     -5.5439986E-10
   5.820000     -4.3514947E-10
   5.880000     -3.0732103E-10
   5.940000     -1.7211760E-10
   6.000000     -3.0975545E-11
   6.060000      1.1485613E-10
   6.120000      2.6460503E-10
   6.180000      4.1805456E-10
   6.240000      5.7542549E-10
   6.300000      7.3714451E-10
   6.360000      9.0361096E-10
   6.420000      1.0750438E-09
   6.480000      1.2514298E-09
   6.540000      1.4325300E-09
   6.600000      1.6178683E-09
   6.660000      1.8066472E-09
   6.720000      1.9975888E-09
   6.780000      2.1887743E-09
   6.840000      2.3775844E-09
   6.900000      2.5608278E-09
   6.960000      2.7350666E-09
   7.020000      2.8970588E-09
   7.080000      3.0441827E-09
   7.140000      3.1747103E-09
   7.200000      3.2878749E-09
   7.260000      3.3837559E-09
   7.320000      3.4630725E-09
   7.380000      3.5269696E-09
   7.440000      3.5768213E-09
   7.500000      3.6140346E-09
   7.560000      3.6398125E-09
   7.620000      3.6548875E-09
   7.680000      3.6593120E-09
   7.740000      3.6524128E-09
   7.800000      3.6329835E-09
   7.860000      3.5996657E-09
   7.920000      3.5513579E-09
   7.980000      3.4874552E-09
   8.040000      3.4078131E-09
   8.100000      3.3124887E-09
   8.160000      3.2014547E-09
   8.220000      3.0745160E-09
   8.280000      2.9315208E-09
   8.340000      2.7727689E-09
   8.400000      2.5993501E-09
   8.460000      2.4131750E-09
   8.520000      2.2166291E-09
   8.580000      2.0120210E-09
   8.640000      1.8011561E-09
   8.700000      1.5852929E-09
   8.760000      1.3655099E-09
   8.820000      1.1432267E-09
   8.880000      9.2049973E-10
   8.940000      6.9982931E-10
   9.000000      4.8352294E-10
   9.060000      2.7296077E-10
   9.120000      6.8213830E-11
   9.180000     -1.3171569E-10
   9.240000     -3.2812217E-10
   9.300000     -5.2170462E-10
   9.360000     -7.1204342E-10
   9.420000     -8.9771435E-10
   9.480000     -1.0769275E-09
   9.540000     -1.2482759E-09
   9.600000     -1.4111378E-09
   9.660000     -1.5655269E-09
   9.720000     -1.7115498E-09
   9.780000     -1.8488717E-09
   9.840000     -1.9765769E-09
   9.900000     -2.0935247E-09
   9.960000     -2.1989752E-09
   10.02000     -2.2930773E-09
   10.08000     -2.3769009E-09
   10.14000     -2.4519866E-09
   10.20000     -2.5196722E-09
   10.26000     -2.5805786E-09
   10.32000     -2.6344968E-09
   10.38000     -2.6806604E-09
   10.44000     -2.7181666E-09
   10.50000     -2.7462639E-09
   10.56000     -2.7643883E-09
   10.62000     -2.7720295E-09
   10.68000     -2.7686522E-09
   10.74000     -2.7538229E-09
   10.80000     -2.7275295E-09
   10.86000     -2.6904894E-09
   10.92000     -2.6442069E-09
   10.98000     -2.5906637E-09
   11.04000     -2.5317370E-09
   11.10000     -2.4686213E-09
   11.16000     -2.4015450E-09
   11.22000     -2.3299487E-09
   11.28000     -2.2530724E-09
   11.34000     -2.1707165E-09
   11.40000     -2.0838749E-09
   11.46000     -1.9949904E-09
   11.52000     -1.9077393E-09
   11.58000     -1.8264094E-09
   11.64000     -1.7550889E-09
   11.70000     -1.6969438E-09
   11.76000     -1.6538309E-09
   11.82000     -1.6263724E-09
   11.88000     -1.6144235E-09
   11.94000     -1.6176773E-09
   12.00000     -1.6360605E-09
   12.06000     -1.6696500E-09
   12.12000     -1.7180685E-09
   12.18000     -1.7796064E-09
   12.24000     -1.8505035E-09
   12.30000     -1.9248023E-09
   12.36000     -1.9949382E-09
   12.42000     -2.0528919E-09
   12.48000     -2.0914592E-09
   12.54000     -2.1051705E-09
   12.60000     -2.0905775E-09
   12.66000     -2.0459530E-09
   12.72000     -1.9707036E-09
   12.78000     -1.8648587E-09
   12.84000     -1.7288757E-09
   12.90000     -1.5637853E-09
   12.96000     -1.3715357E-09
   13.02000     -1.1553379E-09
   13.08000     -9.1987773E-10
   13.14000     -6.7133532E-10
   13.20000     -4.1720175E-10
   13.26000     -1.6587387E-10
   13.32000      7.3984152E-11
   13.38000      2.9426911E-10
   13.44000      4.8830501E-10
   13.50000      6.5150568E-10
   13.56000      7.8160467E-10
   13.62000      8.7836322E-10
   13.68000      9.4288399E-10
   13.74000      9.7682917E-10
   13.80000      9.8187614E-10
   13.86000      9.5961017E-10
   13.92000      9.1184216E-10
   13.98000      8.4114127E-10
   14.04000      7.5130824E-10
   14.10000      6.4756478E-10
   14.16000      5.3636418E-10
   14.22000      4.2485665E-10
   14.28000      3.2012673E-10
   14.34000      2.2836925E-10
   14.40000      1.5419126E-10
   14.46000      1.0022750E-10
   14.52000      6.7195645E-11
   14.58000      5.4388306E-11
   14.64000      6.0417608E-11
   14.70000      8.3883130E-11
   14.76000      1.2362242E-10
   14.82000      1.7837527E-10
   14.88000      2.4598584E-10
   14.94000      3.2253825E-10
   15.00000      4.0191198E-10
   15.06000      4.7608434E-10
   15.12000      5.3617283E-10
   15.18000      5.7386129E-10
   15.24000      5.8268540E-10
   15.30000      5.5873567E-10
   15.36000      5.0062676E-10
   15.42000      4.0891399E-10
   15.48000      2.8534455E-10
   15.54000      1.3232719E-10
   15.60000     -4.7186376E-11
   15.66000     -2.4947300E-10
   15.72000     -4.6971477E-10
   15.78000     -7.0186884E-10
   15.84000     -9.3889341E-10
   15.90000     -1.1732880E-09
   15.96000     -1.3977249E-09
   16.02000     -1.6054899E-09
   16.08000     -1.7905479E-09
   16.14000     -1.9472701E-09
   16.20000     -2.0700721E-09
   16.26000     -2.1533253E-09
   16.32000     -2.1917961E-09
   16.38000     -2.1815862E-09
   16.44000     -2.1212370E-09
   16.50000     -2.0124660E-09
   16.56000     -1.8601020E-09
   16.62000     -1.6711181E-09
   16.68000     -1.4530954E-09
   16.74000     -1.2127189E-09
   16.80000     -9.5488595E-10
   16.86000     -6.8267753E-10
   16.92000     -3.9801529E-10
   16.98000     -1.0254061E-10
   17.04000      2.0174939E-10
   17.10000      5.1232119E-10
   17.16000      8.2627793E-10
   17.22000      1.1406147E-09
   17.28000      1.4523382E-09
   17.34000      1.7584273E-09
   17.40000      2.0557600E-09
   17.46000      2.3411255E-09
   17.52000      2.6112865E-09
   17.58000      2.8629239E-09
   17.64000      3.0923200E-09
   17.70000      3.2948453E-09
   17.76000      3.4645575E-09
   17.82000      3.5942989E-09
   17.88000      3.6764793E-09
   17.94000      3.7043744E-09
   18.00000      3.6734362E-09
   18.06000      3.5820922E-09
   18.12000      3.4317811E-09
   18.18000      3.2263923E-09
   18.24000      2.9715548E-09
   18.30000      2.6741946E-09
   18.36000      2.3424716E-09
   18.42000      1.9858901E-09
   18.48000      1.6152611E-09
   18.54000      1.2423550E-09
   18.60000      8.7938690E-10
   18.66000      5.3863375E-10
   18.72000      2.3235645E-10
   18.78000     -2.7131453E-11
   18.84000     -2.2769145E-10
   18.90000     -3.5829736E-10
   18.96000     -4.1071513E-10
   19.02000     -3.8143633E-10
   19.08000     -2.7306371E-10
   19.14000     -9.4463812E-11
   19.20000      1.4049165E-10
   19.26000      4.1517442E-10
   19.32000      7.1266348E-10
   19.38000      1.0177126E-09
   19.44000      1.3178812E-09
   19.50000      1.6038990E-09
   19.56000      1.8695421E-09
   19.62000      2.1112718E-09
   19.68000      2.3277558E-09
   19.74000      2.5193374E-09
   19.80000      2.6876059E-09
   19.86000      2.8352904E-09
   19.92000      2.9666063E-09
   19.98000      3.0878717E-09
   20.04000      3.2078349E-09
   20.10000      3.3370380E-09
   20.16000      3.4858467E-09
   20.22000      3.6614713E-09
   20.28000      3.8649839E-09
   20.34000      4.0896118E-09
   20.40000      4.3212038E-09
   20.46000      4.5409134E-09
   20.52000      4.7291944E-09
   20.58000      4.8697415E-09
   20.64000      4.9521236E-09
   20.70000      4.9725446E-09
   20.76000      4.9329505E-09
   20.82000      4.8392428E-09
   20.88000      4.6994661E-09
   20.94000      4.5226107E-09
   21.00000      4.3182817E-09
   21.06000      4.0971644E-09
   21.12000      3.8719459E-09
   21.18000      3.6582011E-09
   21.24000      3.4746508E-09
   21.30000      3.3422933E-09
   21.36000      3.2822114E-09
   21.42000      3.3123859E-09
   21.48000      3.4443679E-09
   21.54000      3.6808989E-09
   21.60000      4.0153059E-09
   21.66000      4.4328465E-09
   21.72000      4.9134088E-09
   21.78000      5.4345120E-09
   21.84000      5.9736478E-09
   21.90000      6.5095191E-09
   21.96000      7.0223907E-09
   22.02000      7.4941244E-09
   22.08000      7.9084419E-09
   22.14000      8.2515648E-09
   22.20000      8.5130507E-09
   22.26000      8.6864889E-09
   22.32000      8.7698329E-09
   22.38000      8.7654097E-09
   22.44000      8.6797156E-09
   22.50000      8.5230365E-09
   22.56000      8.3088052E-09
   22.62000      8.0525284E-09
   22.68000      7.7703008E-09
   22.74000      7.4771851E-09
   22.80000      7.1858555E-09
   22.86000      6.9058150E-09
   22.92000      6.6431696E-09
   22.98000      6.4006356E-09
   23.04000      6.1774297E-09
   23.10000      5.9689147E-09
   23.16000      5.7662990E-09
   23.22000      5.5568425E-09
   23.28000      5.3249174E-09
   23.34000      5.0538103E-09
   23.40000      4.7277666E-09
   23.46000      4.3336725E-09
   23.52000      3.8620231E-09
   23.58000      3.3072785E-09
   23.64000      2.6679832E-09
   23.70000      1.9469741E-09
   23.76000      1.1516509E-09
   23.82000      2.9399760E-10
   23.88000     -6.0998034E-10
   23.94000     -1.5414271E-09
   24.00000     -2.4800495E-09
   24.06000     -3.4052661E-09
   24.12000     -4.2968455E-09
   24.18000     -5.1352709E-09
   24.24000     -5.9023897E-09
   24.30000     -6.5827699E-09
   24.36000     -7.1656174E-09
   24.42000     -7.6464666E-09
   24.48000     -8.0276426E-09
   24.54000     -8.3169232E-09
   24.60000     -8.5246938E-09
   24.66000     -8.6607121E-09
   24.72000     -8.7318339E-09
   24.78000     -8.7415568E-09
   24.84000     -8.6913250E-09
   24.90000     -8.5827265E-09
   24.96000     -8.4194394E-09
   25.02000     -8.2080813E-09
   25.08000     -7.9577678E-09
   25.14000     -7.6787190E-09
   25.20000     -7.3804567E-09
   25.26000     -7.0701263E-09
   25.32000     -6.7513262E-09
   25.38000     -6.4237895E-09
   25.44000     -6.0841812E-09
   25.50000     -5.7280269E-09
   25.56000     -5.3523279E-09
   25.62000     -4.9578914E-09
   25.68000     -4.5502806E-09
   25.74000     -4.1387240E-09
   25.80000     -3.7333328E-09
   25.86000     -3.3419274E-09
   25.92000     -2.9681466E-09
   25.98000     -2.6118960E-09
   26.04000     -2.2718991E-09
   26.10000     -1.9488751E-09
   26.16000     -1.6474438E-09
   26.22000     -1.3755547E-09
   26.28000     -1.1416541E-09
   26.34000     -9.5109809E-10
   26.40000     -8.0371820E-10
   26.46000     -6.9375616E-10
   26.52000     -6.1207600E-10
   26.58000     -5.4943899E-10
   26.64000     -4.9931537E-10
   26.70000     -4.5924681E-10
   26.76000     -4.3070628E-10
   26.82000     -4.1809395E-10
   26.88000     -4.2762538E-10
   26.94000     -4.6651927E-10
   27.00000     -5.4247767E-10
   27.06000     -6.6329869E-10
   27.12000     -8.3657764E-10
   27.18000     -1.0695821E-09
   27.24000     -1.3692767E-09
   27.30000     -1.7421639E-09
   27.36000     -2.1933961E-09
   27.42000     -2.7248626E-09
   27.48000     -3.3326504E-09
   27.54000     -4.0050598E-09
   27.60000     -4.7225748E-09
   27.66000     -5.4605334E-09
   27.72000     -6.1939134E-09
   27.78000     -6.9024035E-09
   27.84000     -7.5735631E-09
   27.90000     -8.2027034E-09
   27.96000     -8.7897893E-09
   28.02000     -9.3351487E-09
   28.08000     -9.8362936E-09
   28.14000     -1.0287405E-08
   28.20000     -1.0681441E-08
   28.26000     -1.1013493E-08
   28.32000     -1.1283473E-08
   28.38000     -1.1496814E-08
   28.44000     -1.1663023E-08
   28.50000     -1.1792899E-08
   28.56000     -1.1895581E-08
   28.62000     -1.1976288E-08
   28.68000     -1.2035087E-08
   28.74000     -1.2066639E-08
   28.80000     -1.2060873E-08
   28.86000     -1.2004564E-08
   28.92000     -1.1883759E-08
   28.98000     -1.1686589E-08
   29.04000     -1.1405707E-08
   29.10000     -1.1039447E-08
   29.16000     -1.0591326E-08
   29.22000     -1.0068163E-08
   29.28000     -9.4778034E-09
   29.34000     -8.8274952E-09
   29.40000     -8.1235649E-09
   29.46000     -7.3722504E-09
   29.52000     -6.5810366E-09
   29.58000     -5.7596510E-09
   29.64000     -4.9202393E-09
   29.70000     -4.0766319E-09
   29.76000     -3.2429184E-09
   29.82000     -2.4316322E-09
   29.88000     -1.6518547E-09
   29.94000     -9.0765950E-10
   30.00000     -1.9747905E-10
   30.06000      4.8505283E-10
   30.12000      1.1486329E-09
   30.18000      1.8007973E-09
   30.24000      2.4447038E-09
   30.30000      3.0775997E-09
   30.36000      3.6917092E-09
   30.42000      4.2770556E-09
   30.48000      4.8247002E-09
   30.54000      5.3286624E-09
   30.60000      5.7856484E-09
   30.66000      6.1930461E-09
   30.72000      6.5466876E-09
   30.78000      6.8399317E-09
   30.84000      7.0646484E-09
   30.90000      7.2134263E-09
   30.96000      7.2815918E-09
   31.02000      7.2679138E-09
   31.08000      7.1739086E-09
   31.14000      7.0026434E-09
   31.20000      6.7581785E-09
   31.26000      6.4460459E-09
   31.32000      6.0741541E-09
   31.38000      5.6528986E-09
   31.44000      5.1936890E-09
   31.50000      4.7062412E-09
   31.56000      4.1960431E-09
   31.62000      3.6635772E-09
   31.68000      3.1059386E-09
   31.74000      2.5200335E-09
   31.80000      1.9055451E-09
   31.86000      1.2659777E-09
   31.92000      6.0731953E-10
   31.98000     -6.4665662E-11
   32.04000     -7.4667866E-10
   32.10000     -1.4381952E-09
   32.16000     -2.1396320E-09
   32.22000     -2.8494467E-09
   32.28000     -3.5617869E-09
   32.34000     -4.2658366E-09
   32.40000     -4.9469642E-09
   32.46000     -5.5888751E-09
   32.52000     -6.1757355E-09
   32.58000     -6.6936408E-09
   32.64000     -7.1314541E-09
   32.70000     -7.4813364E-09
   32.76000     -7.7392102E-09
   32.82000     -7.9050242E-09
   32.88000     -7.9824538E-09
   32.94000     -7.9778726E-09
   33.00000     -7.8987936E-09
   33.06000     -7.7523312E-09
   33.12000     -7.5441990E-09
   33.18000     -7.2784396E-09
   33.24000     -6.9576616E-09
   33.30000     -6.5834702E-09
   33.36000     -6.1568466E-09
   33.42000     -5.6785288E-09
   33.48000     -5.1494844E-09
   33.54000     -4.5714148E-09
   33.60000     -3.9469592E-09
   33.66000     -3.2792742E-09
   33.72000     -2.5710511E-09
   33.78000     -1.8235546E-09
   33.84000     -1.0365730E-09
   33.90000     -2.0985684E-10
   33.96000      6.5423522E-10
   34.02000      1.5480496E-09
   34.08000      2.4574265E-09
   34.14000      3.3629308E-09
   34.20000      4.2433106E-09
   34.26000      5.0798232E-09
   34.32000      5.8596297E-09
   34.38000      6.5769501E-09
   34.44000      7.2317974E-09
   34.50000      7.8271478E-09
   34.56000      8.3658502E-09
   34.62000      8.8483345E-09
   34.68000      9.2715240E-09
   34.74000      9.6289137E-09
   34.80000      9.9116031E-09
   34.86000      1.0110112E-08
   34.92000      1.0216803E-08
   34.98000      1.0228352E-08
   35.04000      1.0147320E-08
   35.10000      9.9817541E-09
   35.16000      9.7423820E-09
   35.22000      9.4380512E-09
   35.28000      9.0712087E-09
   35.34000      8.6355589E-09
   35.40000      8.1173352E-09
   35.46000      7.5000663E-09
   35.52000      6.7710917E-09
   35.58000      5.9272769E-09
   35.64000      4.9777045E-09
   35.70000      3.9424610E-09
   35.76000      2.8481810E-09
   35.82000      1.7221362E-09
   35.88000      5.8693173E-10
   35.94000     -5.4261223E-10
   36.00000     -1.6596612E-09
   36.06000     -2.7628286E-09
   36.12000     -3.8518237E-09
   36.18000     -4.9227444E-09
   36.24000     -5.9647247E-09
   36.30000     -6.9594122E-09
   36.36000     -7.8839530E-09
   36.42000     -8.7168353E-09
   36.48000     -9.4445971E-09
   36.54000     -1.0066706E-08
   36.60000     -1.0596306E-08
   36.66000     -1.1056079E-08
   36.72000     -1.1470494E-08
   36.78000     -1.1857317E-08
   36.84000     -1.2221592E-08
   36.90000     -1.2554294E-08
   36.96000     -1.2835919E-08
   37.02000     -1.3043343E-08
   37.08000     -1.3157319E-08
   37.14000     -1.3167988E-08
   37.20000     -1.3076887E-08
   37.26000     -1.2895294E-08
   37.32000     -1.2639914E-08
   37.38000     -1.2327585E-08
   37.44000     -1.1970780E-08
   37.50000     -1.1575303E-08
   37.56000     -1.1140892E-08
   37.62000     -1.0664460E-08
   37.68000     -1.0144757E-08
   37.74000     -9.5865591E-09
   37.80000     -9.0024859E-09
   37.86000     -8.4114085E-09
   37.92000     -7.8337656E-09
   37.98000     -7.2855664E-09
   38.04000     -6.7734995E-09
   38.10000     -6.2932255E-09
   38.16000     -5.8315228E-09
   38.22000     -5.3712914E-09
   38.28000     -4.8972773E-09
   38.34000     -4.4002402E-09
   38.40000     -3.8782138E-09
   38.46000     -3.3349223E-09
   38.52000     -2.7765681E-09
   38.58000     -2.2086464E-09
   38.64000     -1.6340460E-09
   38.70000     -1.0528679E-09
   38.76000     -4.6359852E-10
   38.82000      1.3513428E-10
   38.88000      7.4294321E-10
   38.94000      1.3566408E-09
   39.00000      1.9699100E-09
   39.06000      2.5736568E-09
   39.12000      3.1569491E-09
   39.18000      3.7083943E-09
   39.24000      4.2177022E-09
   39.30000      4.6770618E-09
   39.36000      5.0819224E-09
   39.42000      5.4309277E-09
   39.48000      5.7250129E-09
   39.54000      5.9660130E-09
   39.60000      6.1553123E-09
   39.66000      6.2930310E-09
   39.72000      6.3780337E-09
   39.78000      6.4086980E-09
   39.84000      6.3840742E-09
   39.90000      6.3049201E-09
   39.96000      6.1741310E-09
   40.02000      5.9963163E-09
   40.08000      5.7766294E-09
   40.14000      5.5193090E-09
   40.20000      5.2265969E-09
   40.26000      4.8986339E-09
   40.32000      4.5346003E-09
   40.38000      4.1348027E-09
   40.44000      3.7029257E-09
   40.50000      3.2474354E-09
   40.56000      2.7813583E-09
   40.62000      2.3203173E-09
   40.68000      1.8794721E-09
   40.74000      1.4705726E-09
   40.80000      1.1003630E-09
   40.86000      7.7100576E-10
   40.92000      4.8229465E-10
   40.98000      2.3459804E-10
   41.04000      3.1116467E-11
   41.10000     -1.2163853E-10
   41.16000     -2.1540256E-10
   41.22000     -2.4304045E-10
   41.28000     -2.0140759E-10
   41.34000     -9.2847972E-11
   41.40000      7.5382291E-11
   41.46000      2.9350733E-10
   41.52000      5.5235683E-10
   41.58000      8.4582241E-10
   41.64000      1.1715758E-09
   41.70000      1.5297971E-09
   41.76000      1.9205542E-09
   41.82000      2.3410565E-09
   41.88000      2.7839888E-09
   41.94000      3.2376044E-09
   42.00000      3.6874728E-09
   42.06000      4.1190993E-09
   42.12000      4.5203934E-09
   42.18000      4.8831503E-09
   42.24000      5.2032254E-09
   42.30000      5.4796137E-09
   42.36000      5.7129790E-09
   42.42000      5.9041927E-09
   42.48000      6.0532810E-09
   42.54000      6.1589427E-09
   42.60000      6.2186190E-09
   42.66000      6.2290639E-09
   42.72000      6.1873089E-09
   42.78000      6.0918746E-09
   42.84000      5.9439462E-09
   42.90000      5.7481575E-09
   42.96000      5.5126437E-09
   43.02000      5.2482410E-09
   43.08000      4.9670139E-09
   43.14000      4.6805821E-09
   43.20000      4.3987964E-09
   43.26000      4.1291464E-09
   43.32000      3.8769441E-09
   43.38000      3.6459791E-09
   43.44000      3.4391914E-09
   43.50000      3.2590166E-09
   43.56000      3.1073131E-09
   43.62000      2.9850817E-09
   43.68000      2.8922893E-09
   43.74000      2.8280049E-09
   43.80000      2.7908105E-09
   43.86000      2.7792293E-09
   43.92000      2.7918874E-09
   43.98000      2.8272926E-09
   44.04000      2.8834157E-09
   44.10000      2.9574463E-09
   44.16000      3.0460721E-09
   44.22000      3.1463421E-09
   44.28000      3.2567828E-09
   44.34000      3.3781655E-09
   44.40000      3.5133541E-09
   44.46000      3.6660408E-09
   44.52000      3.8387262E-09
   44.58000      4.0307286E-09
   44.64000      4.2370805E-09
   44.70000      4.4488249E-09
   44.76000      4.6546065E-09
   44.82000      4.8428839E-09
   44.88000      5.0038649E-09
   44.94000      5.1304982E-09
   45.00000      5.2183369E-09
   45.06000      5.2646452E-09
   45.12000      5.2673461E-09
   45.18000      5.2243267E-09
   45.24000      5.1332685E-09
   45.30000      4.9918722E-09
   45.36000      4.7982289E-09
   45.42000      4.5511945E-09
   45.48000      4.2508232E-09
   45.54000      3.8989332E-09
   45.60000      3.4997580E-09
   45.66000      3.0603882E-09
   45.72000      2.5906053E-09
   45.78000      2.1018665E-09
   45.84000      1.6056002E-09
   45.90000      1.1113616E-09
   45.96000      6.2554778E-10
   46.02000      1.5115026E-10
   46.08000     -3.1143901E-10
   46.14000     -7.6298884E-10
   46.20000     -1.2039491E-09
   46.26000     -1.6333846E-09
   46.32000     -2.0484987E-09
   46.38000     -2.4447093E-09
   46.44000     -2.8162306E-09
   46.50000     -3.1571730E-09
   46.56000     -3.4631362E-09
   46.62000     -3.7330241E-09
   46.68000     -3.9704555E-09
   46.74000     -4.1839945E-09
   46.80000     -4.3857229E-09
   46.86000     -4.5883954E-09
   46.92000     -4.8022026E-09
   46.98000     -5.0325251E-09
   47.04000     -5.2796953E-09
   47.10000     -5.5407843E-09
   47.16000     -5.8124137E-09
   47.22000     -6.0930820E-09
   47.28000     -6.3838597E-09
   47.34000     -6.6872587E-09
   47.40000     -7.0051063E-09
   47.46000     -7.3366500E-09
   47.52000     -7.6778095E-09
   47.58000     -8.0216838E-09
   47.64000     -8.3597556E-09
   47.70000     -8.6830951E-09
   47.76000     -8.9832222E-09
   47.82000     -9.2528225E-09
   47.88000     -9.4866328E-09
   47.94000     -9.6824841E-09
   48.00000     -9.8419655E-09
   48.06000     -9.9699138E-09
   48.12000     -1.0072359E-08
   48.18000     -1.0153387E-08
   48.24000     -1.0212280E-08
   48.30000     -1.0242399E-08
   48.36000     -1.0232609E-08
   48.42000     -1.0170841E-08
   48.48000     -1.0048303E-08
   48.54000     -9.8625597E-09
   48.60000     -9.6183292E-09
   48.66000     -9.3258912E-09
   48.72000     -8.9980308E-09
   48.78000     -8.6468050E-09
   48.84000     -8.2811784E-09
   48.90000     -7.9060376E-09
   48.96000     -7.5225479E-09
   49.02000     -7.1295498E-09
   49.08000     -6.7255290E-09
   49.14000     -6.3106191E-09
   49.20000     -5.8879337E-09
   49.26000     -5.4636113E-09
   49.32000     -5.0453508E-09
   49.38000     -4.6398982E-09
   49.44000     -4.2506163E-09
   49.50000     -3.8763788E-09
   49.56000     -3.5124819E-09
   49.62000     -3.1531717E-09
   49.68000     -2.7945164E-09
   49.74000     -2.4361537E-09
   49.80000     -2.0811801E-09
   49.86000     -1.7345894E-09
   49.92000     -1.4014855E-09
   49.98000     -1.0862392E-09
   50.04000     -7.9287332E-10
   50.10000     -5.2593063E-10
   50.16000     -2.9064370E-10
   50.22000     -9.1748401E-11
   50.28000      6.8611797E-11
   50.34000      1.9257095E-10
   50.40000      2.8652170E-10
   50.46000      3.5909156E-10
   50.52000      4.1812159E-10
   50.58000      4.6836590E-10
   50.64000      5.1125904E-10
   50.70000      5.4684440E-10
   50.76000      5.7665789E-10
   50.82000      6.0583805E-10
   50.88000      6.4330269E-10
   50.94000      7.0005551E-10
   51.00000      7.8675677E-10
   51.06000      9.1196295E-10
   51.12000      1.0818563E-09
   51.18000      1.3013250E-09
   51.24000      1.5755875E-09
   51.30000      1.9115167E-09
   51.36000      2.3182878E-09
   51.42000      2.8075120E-09
   51.48000      3.3932599E-09
   51.54000      4.0922568E-09
   51.60000      4.9242956E-09
   51.66000      5.9127774E-09
   51.72000      7.0853088E-09
   51.78000      8.4743705E-09
   51.84000      1.0117916E-08
   51.90000      1.2059579E-08
   51.96000      1.4348024E-08
   52.02000      1.7035234E-08
   52.08000      2.0174070E-08
   52.14000      2.3816003E-08
   52.20000      2.8010067E-08
   52.26000      3.2803523E-08
   52.32000      3.8243925E-08
   52.38000      4.4381434E-08
   52.44000      5.1270341E-08
   52.50000      5.8969043E-08
   52.56000      6.7538892E-08
   52.62000      7.7042500E-08
   52.68000      8.7542354E-08
   52.74000      9.9099630E-08
   52.80000      1.1177302E-07
   52.86000      1.2561705E-07
   52.92000      1.4067994E-07
   52.98000      1.5700179E-07
   53.04000      1.7461328E-07
   53.10000      1.9353530E-07
   53.16000      2.1377876E-07
   53.22000      2.3534275E-07
   53.28000      2.5821058E-07
   53.34000      2.8234331E-07
   53.40000      3.0767256E-07
   53.46000      3.3409410E-07
   53.52000      3.6146386E-07
   53.58000      3.8959701E-07
   53.64000      4.1826877E-07
   53.70000      4.4721574E-07
   53.76000      4.7613577E-07
   53.82000      5.0468537E-07
   53.88000      5.3247624E-07
   53.94000      5.5907003E-07
   54.00000      5.8397546E-07
   54.06000      6.0664649E-07
   54.12000      6.2648411E-07
   54.18000      6.4283972E-07
   54.24000      6.5502047E-07
   54.30000      6.6229416E-07
   54.36000      6.6389350E-07
   54.42000      6.5901958E-07
   54.48000      6.4684434E-07
   54.54000      6.2651475E-07
   54.60000      5.9715768E-07
   54.66000      5.5788820E-07
   54.72000      5.0782069E-07
   54.78000      4.4608191E-07
   54.84000      3.7182664E-07
   54.90000      2.8425427E-07
   54.96000      1.8262517E-07
   55.02000      6.6276215E-08
   55.08000     -6.5365484E-08
   55.14000     -2.1277062E-07
   55.20000     -3.7629653E-07
   55.26000     -5.5617556E-07
   55.32000     -7.5250153E-07
   55.38000     -9.6521410E-07
   55.44000     -1.1940833E-06
   55.50000     -1.4386958E-06
   55.56000     -1.6984455E-06