 -0.750000000       0.00000000    
 -0.689999998       0.00000000    
 -0.629999995       0.00000000    
 -0.569999993       0.00000000    
 -0.509999990       3.09497252E-19
 -0.449999988       2.01283152E-18
 -0.389999986       6.84215430E-18
 -0.330000013       1.64031305E-17
 -0.270000011       3.24123874E-17
 -0.209999993       5.94233979E-17
 -0.150000006       1.06572984E-16
  -9.00000036E-02   1.77387572E-16
  -2.99999993E-02   2.36147201E-16
   2.99999993E-02   1.56792906E-16
   9.00000036E-02  -3.04323374E-16
  0.150000006      -1.43964367E-15
  0.209999993      -3.36655765E-15
  0.270000011      -5.67764829E-15
  0.330000013      -7.14193871E-15
  0.389999986      -5.75906341E-15
  0.449999988       5.54120431E-16
  0.509999990       1.26248135E-14
  0.569999993       2.84721994E-14
  0.629999995       4.24238993E-14
  0.689999998       4.58868105E-14
  0.750000000       3.02690273E-14
  0.810000002      -8.50421672E-15
  0.870000005      -6.56357835E-14
  0.930000007      -1.25674495E-13
  0.990000010      -1.65226421E-13
   1.04999995      -1.60344462E-13
   1.11000001      -9.64290564E-14
   1.16999996       2.33195641E-14
   1.23000002       1.74959765E-13
   1.28999996       3.18473058E-13
   1.35000002       4.08859931E-13
   1.40999997       4.09561599E-13
   1.47000003       3.03160681E-13
   1.52999997       9.59740371E-14
   1.59000003      -1.83532145E-13
   1.64999998      -4.89686959E-13
   1.71000004      -7.64603279E-13
   1.76999998      -9.42250293E-13
   1.83000004      -9.54250351E-13
   1.88999999      -7.41977822E-13
   1.95000005      -2.77450317E-13
   2.00999999       4.10604764E-13
   2.06999993       1.21629009E-12
   2.13000011       1.95607246E-12
   2.19000006       2.39906597E-12
   2.25000000       2.32777079E-12
   2.30999994       1.61455701E-12
   2.36999989       2.88133856E-13
   2.43000007      -1.43744500E-12
   2.49000001      -3.18888102E-12
   2.54999995      -4.51435807E-12
   2.60999990      -4.99902810E-12
   2.67000008      -4.38240286E-12
   2.73000002      -2.64298175E-12
   2.78999996      -2.49765537E-14
   2.84999990       3.00120193E-12
   2.91000009       5.83485473E-12
   2.97000003       7.87330617E-12
   3.02999997       8.64165163E-12
   3.08999991       7.89402745E-12
   3.15000010       5.66449535E-12
   3.21000004       2.25835062E-12
   3.26999998      -1.81093552E-12
   3.32999992      -5.92147295E-12
   3.39000010      -9.45447193E-12
   3.45000005      -1.18925252E-11
   3.50999999      -1.28862936E-11
   3.56999993      -1.22817945E-11
   3.63000011      -1.01108366E-11
   3.69000006      -6.55402121E-12
   3.75000000      -1.88782974E-12
   3.80999994       3.57413188E-12
   3.86999989       9.53853663E-12
   3.93000007       1.57836504E-11
   3.99000001       2.22013762E-11
   4.05000019       2.88275272E-11
   4.11000013       3.58577057E-11
   4.17000008       4.36446018E-11
   4.23000002       5.26695666E-11
   4.28999996       6.34787570E-11
   4.34999990       7.65755237E-11
   4.40999985       9.22702539E-11
   4.46999979       1.10506798E-10
   4.53000021       1.30705835E-10
   4.59000015       1.51679683E-10
   4.65000010       1.71669845E-10
   4.71000004       1.88533800E-10
   4.76999998       2.00067060E-10
   4.82999992       2.04404313E-10
   4.88999987       2.00416919E-10
   4.94999981       1.88019905E-10
   5.01000023       1.68322509E-10
   5.07000017       1.43588627E-10
   5.13000011       1.17007931E-10
   5.19000006       9.23071480E-11
   5.25000000       7.32542915E-11
   5.30999994       6.31302580E-11
   5.36999989       6.42591466E-11
   5.42999983       7.76944273E-11
   5.48999977       1.03138782E-10
   5.55000019       1.39126585E-10
   5.61000013       1.83427190E-10
   5.67000008       2.33557756E-10
   5.73000002       2.87255136E-10
   5.78999996       3.42766843E-10
   5.84999990       3.98878208E-10
   5.90999985       4.54677129E-10
   5.96999979       5.09133458E-10
   6.03000021       5.60615609E-10
   6.09000015       6.06469375E-10
   6.15000010       6.42761289E-10
   6.21000004       6.64248212E-10
   6.26999998       6.64598654E-10
   6.32999992       6.36856679E-10
   6.38999987       5.74098435E-10
   6.44999981       4.70188832E-10
   6.51000023       3.20502153E-10
   6.57000017       1.22452631E-10
   6.63000011      -1.24295532E-10
   6.69000006      -4.17999468E-10
   6.75000000      -7.55344454E-10
   6.80999994      -1.13214482E-09
   6.86999989      -1.54403557E-09
   6.92999983      -1.98696148E-09
   6.98999977      -2.45734344E-09
   7.05000019      -2.95190961E-09
   7.11000013      -3.46728579E-09
   7.17000008      -3.99950739E-09
   7.23000002      -4.54361082E-09
   7.28999996      -5.09342346E-09
   7.34999990      -5.64157565E-09
   7.40999985      -6.17970564E-09
   7.46999979      -6.69877842E-09
   7.53000021      -7.18945126E-09
   7.59000015      -7.64246444E-09
   7.65000010      -8.04905831E-09
   7.71000004      -8.40142800E-09
   7.76999998      -8.69319550E-09
   7.82999992      -8.91981511E-09
   7.88999987      -9.07876352E-09
   7.94999981      -9.16942700E-09
   8.01000023      -9.19264131E-09
   8.06999969      -9.14999632E-09
   8.13000011      -9.04311559E-09
   8.18999958      -8.87318485E-09
   8.25000000      -8.64088356E-09
   8.31000042      -8.34672687E-09
   8.36999989      -7.99164646E-09
   8.43000031      -7.57751373E-09
   8.48999977      -7.10736092E-09
   8.55000019      -6.58521193E-09
   8.60999966      -6.01560624E-09
   8.67000008      -5.40309308E-09
   8.72999954      -4.75195083E-09
   8.78999996      -4.06628686E-09
   8.85000038      -3.35046590E-09
   8.90999985      -2.60964628E-09
   8.97000027      -1.85015303E-09
   9.02999973      -1.07949250E-09
   9.09000015      -3.05990538E-10
   9.14999962       4.61797822E-10
   9.21000004       1.21566945E-09
   9.27000046       1.94814564E-09
   9.32999992       2.65257061E-09
   9.39000034       3.32302363E-09
   9.44999981       3.95422273E-09
   9.51000023       4.54158489E-09
   9.56999969       5.08148945E-09
   9.63000011       5.57164315E-09
   9.68999958       6.01135319E-09
   9.75000000       6.40148468E-09
   9.81000042       6.74402756E-09
   9.86999989       7.04133285E-09
   9.93000031       7.29525063E-09
   9.98999977       7.50647189E-09
   10.0500002       7.67431985E-09
   10.1099997       7.79706699E-09
   10.1700001       7.87270160E-09
   10.2299995       7.89987098E-09
   10.2900000       7.87869148E-09
   10.3500004       7.81120058E-09
   10.4099998       7.70129382E-09
   10.4700003       7.55419460E-09
   10.5299997       7.37565031E-09
   10.5900002       7.17107840E-09
   10.6499996       6.94493707E-09
   10.7100000       6.70047706E-09
   10.7700005       6.43992548E-09
   10.8299999       6.16498452E-09
   10.8900003       5.87741278E-09
   10.9499998       5.57940982E-09
   11.0100002       5.27360333E-09
   11.0699997       4.96261787E-09
   11.1300001       4.64840610E-09
   11.1899996       4.33168656E-09
   11.2500000       4.01180333E-09
   11.3100004       3.68716391E-09
   11.3699999       3.35612826E-09
   11.4300003       3.01797942E-09
   11.4899998       2.67354250E-09
   11.5500002       2.32515385E-09
   11.6099997       1.97598049E-09
   11.6700001       1.62898328E-09
   11.7299995       1.28596256E-09
   11.7900000       9.47046219E-10
   11.8500004       6.10735407E-10
   11.9099998       2.74346296E-10
   11.9700003      -6.54616153E-11
   12.0299997      -4.12333723E-10
   12.0900002      -7.70111697E-10
   12.1499996      -1.14281851E-09
   12.2100000      -1.53448720E-09
   12.2700005      -1.94866057E-09
   12.3299999      -2.38759790E-09
   12.3900003      -2.85144419E-09
   12.4499998      -3.33772654E-09
   12.5100002      -3.84146626E-09
   12.5699997      -4.35597469E-09
   12.6300001      -4.87413399E-09
   12.6899996      -5.38976552E-09
   12.7500000      -5.89865357E-09
   12.8100004      -6.39893649E-09
   12.8699999      -6.89083191E-09
   12.9300003      -7.37592298E-09
   12.9899998      -7.85640797E-09
   13.0500002      -8.33467251E-09
   13.1099997      -8.81337314E-09
   13.1700001      -9.29593824E-09
   13.2299995      -9.78715065E-09
   13.2900000      -1.02934230E-08
   13.3500004      -1.08225002E-08
   13.4099998      -1.13826202E-08
   13.4700003      -1.19813768E-08
   13.5299997      -1.26246817E-08
   13.5900002      -1.33160780E-08
   13.6499996      -1.40564476E-08
   13.7100000      -1.48439421E-08
   13.7700005      -1.56739031E-08
   13.8299999      -1.65386975E-08
   13.8900003      -1.74276007E-08
   13.9499998      -1.83269613E-08
   14.0100002      -1.92208685E-08
   14.0699997      -2.00922194E-08
   14.1300001      -2.09239097E-08
   14.1899996      -2.16997496E-08
   14.2500000      -2.24049419E-08
   14.3100004      -2.30261819E-08
   14.3699999      -2.35517383E-08
   14.4300003      -2.39718485E-08
   14.4899998      -2.42794975E-08
   14.5500002      -2.44712997E-08
   14.6099997      -2.45480827E-08
   14.6700001      -2.45148701E-08
   14.7299995      -2.43802969E-08
   14.7900000      -2.41558027E-08
   14.8500004      -2.38549998E-08
   14.9099998      -2.34933477E-08
   14.9700003      -2.30879085E-08
   15.0299997      -2.26567280E-08
   15.0900002      -2.22175753E-08
   15.1499996      -2.17861338E-08
   15.2100000      -2.13742695E-08
   15.2700005      -2.09890771E-08
   15.3299999      -2.06331112E-08
   15.3900003      -2.03056700E-08
   15.4499998      -2.00044781E-08
   15.5100002      -1.97269880E-08
   15.5699997      -1.94708729E-08
   15.6300001      -1.92337488E-08
   15.6899996      -1.90126439E-08
   15.7500000      -1.88036449E-08
   15.8100004      -1.86019626E-08
   15.8699999      -1.84022024E-08
   15.9300003      -1.81985484E-08
   15.9899998      -1.79847515E-08
   16.0499992      -1.77541164E-08
   16.1100006      -1.74999375E-08
   16.1700001      -1.72166210E-08
   16.2299995      -1.69013461E-08
   16.2900009      -1.65555534E-08
   16.3500004      -1.61854992E-08
   16.4099998      -1.58013851E-08
   16.4699993      -1.54151696E-08
   16.5300007      -1.50378394E-08
   16.5900002      -1.46771129E-08
   16.6499996      -1.43363739E-08
   16.7099991      -1.40150487E-08
   16.7700005      -1.37101406E-08
   16.8299999      -1.34182656E-08
   16.8899994      -1.31374911E-08
   16.9500008      -1.28684334E-08
   17.0100002      -1.26143487E-08
   17.0699997      -1.23801964E-08
   17.1299992      -1.21709185E-08
   17.1900005      -1.19894565E-08
   17.2500000      -1.18351693E-08
   17.3099995      -1.17032801E-08
   17.3700008      -1.15856951E-08
   17.4300003      -1.14729497E-08
   17.4899998      -1.13566037E-08
   17.5499992      -1.12311449E-08
   17.6100006      -1.10946905E-08
   17.6700001      -1.09483391E-08
   17.7299995      -1.07945715E-08
   17.7900009      -1.06354499E-08
   17.8500004      -1.04712692E-08
   17.9099998      -1.02999795E-08
   17.9699993      -1.01173114E-08
   18.0300007      -9.91737981E-09
   18.0900002      -9.69355352E-09
   18.1499996      -9.43950695E-09
   18.2099991      -9.15032672E-09
   18.2700005      -8.82340778E-09
   18.3299999      -8.45875725E-09
   18.3899994      -8.05834777E-09
   18.4500008      -7.62458452E-09
   18.5100002      -7.15844761E-09
   18.5699997      -6.65819000E-09
   18.6299992      -6.11936457E-09
   18.6900005      -5.53637003E-09
   18.7500000      -4.90494578E-09
   18.8099995      -4.22453494E-09
   18.8700008      -3.49949469E-09
   18.9300003      -2.73866663E-09
   18.9899998      -1.95359839E-09
   19.0499992      -1.15621845E-09
   19.1100006      -3.56862179E-10
   19.1700001       4.36802233E-10
   19.2299995       1.21986476E-09
   19.2900009       1.98953898E-09
   19.3500004       2.74414980E-09
   19.4099998       3.48203133E-09
   19.4699993       4.20056301E-09
   19.5300007       4.89562879E-09
   19.5900002       5.56181323E-09
   19.6499996       6.19357321E-09
   19.7099991       6.78727829E-09
   19.7700005       7.34358219E-09
   19.8299999       7.86922083E-09
   19.8899994       8.37738412E-09
   19.9500008       8.88622509E-09
   20.0100002       9.41577749E-09
   20.0699997       9.98413796E-09
   20.1299992       1.06040954E-08
   20.1900005       1.12811849E-08
   20.2500000       1.20136852E-08
   20.3099995       1.27944784E-08
   20.3700008       1.36141685E-08
   20.4300003       1.44645318E-08
   20.4899998       1.53413016E-08
   20.5499992       1.62454477E-08
   20.6100006       1.71825061E-08
   20.6700001       1.81601756E-08
   20.7299995       1.91848937E-08
   20.7900009       2.02586641E-08
   20.8500004       2.13771898E-08
   20.9099998       2.25300436E-08
   20.9699993       2.37026914E-08
   21.0300007       2.48795278E-08
   21.0900002       2.60467381E-08
   21.1499996       2.71939715E-08
   21.2099991       2.83143340E-08
   21.2700005       2.94028837E-08
   21.3299999       3.04542382E-08
   21.3899994       3.14601429E-08
   21.4500008       3.24076979E-08
   21.5100002       3.32789121E-08
   21.5699997       3.40518689E-08
   21.6299992       3.47035325E-08
   21.6900005       3.52136773E-08
   21.7500000       3.55689771E-08
   21.8099995       3.57659147E-08
   21.8700008       3.58114249E-08
   21.9300003       3.57207384E-08
   21.9899998       3.55131462E-08
   22.0499992       3.52069485E-08
   22.1100006       3.48154785E-08
   22.1700001       3.43454438E-08
   22.2299995       3.37978463E-08
   22.2900009       3.31707710E-08
   22.3500004       3.24625695E-08
   22.4099998       3.16742117E-08
   22.4699993       3.08099040E-08
   22.5300007       2.98759844E-08
   22.5900002       2.88786293E-08
   22.6499996       2.78212049E-08
   22.7099991       2.67020575E-08
   22.7700005       2.55134918E-08
   22.8299999       2.42423308E-08
   22.8899994       2.28721788E-08
   22.9500008       2.13870290E-08
   23.0100002       1.97752623E-08
   23.0699997       1.80328783E-08
   23.1299992       1.61648650E-08
   23.1900005       1.41841978E-08
   23.2500000       1.21088650E-08
   23.3099995       9.95800153E-09
   23.3700008       7.74847386E-09
   23.4300003       5.49294477E-09
   23.4899998       3.19969629E-09
   23.5499992       8.73832784E-10
   23.6100006      -1.48090462E-09
   23.6700001      -3.86043331E-09
   23.7299995      -6.25916785E-09
   23.7900009      -8.66955840E-09
   23.8500004      -1.10823262E-08
   23.9099998      -1.34873366E-08
   23.9699993      -1.58749760E-08
   24.0300007      -1.82377065E-08
   24.0900002      -2.05712354E-08
   24.1499996      -2.28746622E-08
   24.2099991      -2.51492356E-08
   24.2700005      -2.73957603E-08
   24.3299999      -2.96113267E-08
   24.3899994      -3.17862927E-08
   24.4500008      -3.39024631E-08
   24.5100002      -3.59330521E-08
   24.5699997      -3.78445222E-08
   24.6299992      -3.95999642E-08
   24.6900005      -4.11634282E-08
   24.7500000      -4.25044284E-08
   24.8099995      -4.36017018E-08
   24.8700008      -4.44453505E-08
   24.9300003      -4.50366322E-08
   24.9899998      -4.53853417E-08
   25.0499992      -4.55054412E-08
   25.1100006      -4.54103777E-08
   25.1700001      -4.51099424E-08
   25.2299995      -4.46099300E-08
   25.2900009      -4.39149019E-08
   25.3500004      -4.30329550E-08
   25.4099998      -4.19804600E-08
   25.4699993      -4.07846095E-08
   25.5300007      -3.94823125E-08
   25.5900002      -3.81153562E-08
   25.6499996      -3.67230939E-08
   25.7099991      -3.53348213E-08
   25.7700005      -3.39641559E-08
   25.8299999      -3.26070833E-08
   25.8899994      -3.12443085E-08
   25.9500008      -2.98472465E-08
   26.0100002      -2.83859443E-08
   26.0699997      -2.68367053E-08
   26.1299992      -2.51872638E-08
   26.1900005      -2.34381794E-08
   26.2500000      -2.16003624E-08
   26.3099995      -1.96899492E-08
   26.3700008      -1.77226678E-08
   26.4300003      -1.57098512E-08
   26.4899998      -1.36575222E-08
   26.5499992      -1.15686820E-08
   26.6100006      -9.44758760E-09
   26.6700001      -7.30410488E-09
   26.7299995      -5.15619902E-09
   26.7900009      -3.02946579E-09
   26.8500004      -9.53742751E-10
   26.9099998       1.04207776E-09
   26.9699993       2.93527402E-09
   27.0300007       4.71282346E-09
   27.0900002       6.37208641E-09
   27.1499996       7.91846588E-09
   27.2099991       9.36089251E-09
   27.2700005       1.07067040E-08
   27.3299999       1.19577033E-08
   27.3899994       1.31086999E-08
   27.4500008       1.41489025E-08
   27.5100002       1.50654387E-08
   27.5699997       1.58474815E-08
   27.6299992       1.64893290E-08
   27.6900005       1.69913061E-08
   27.7500000       1.73582837E-08
   27.8099995       1.75965837E-08
   27.8700008       1.77104234E-08
   27.9300003       1.76991097E-08
   27.9899998       1.75556405E-08
   28.0499992       1.72668724E-08
   28.1100006       1.68149299E-08
   28.1700001       1.61794382E-08
   28.2299995       1.53401238E-08
   28.2900009       1.42793910E-08
   28.3500004       1.29844864E-08
   28.4099998       1.14490319E-08
   28.4699993       9.67374003E-09
   28.5300007       7.66644348E-09
   28.5900002       5.44166445E-09
   28.6499996       3.01995895E-09
   28.7099991       4.27009816E-10
   28.7700005      -2.30775821E-09
   28.8299999      -5.15335907E-09
   28.8899994      -8.08018807E-09
   28.9500008      -1.10631522E-08
   29.0100002      -1.40839509E-08
   29.0699997      -1.71314500E-08
   29.1299992      -2.01997032E-08
   29.1900005      -2.32841071E-08
   29.2500000      -2.63770623E-08
   29.3099995      -2.94647773E-08
   29.3700008      -3.25263194E-08
   29.4300003      -3.55350629E-08
   29.4899998      -3.84616818E-08
   29.5499992      -4.12772216E-08
   29.6100006      -4.39551258E-08
   29.6700001      -4.64715981E-08
   29.7299995      -4.88045764E-08
   29.7900009      -5.09320799E-08
   29.8500004      -5.28308206E-08
   29.9099998      -5.44758088E-08
   29.9699993      -5.58413049E-08
   30.0300007      -5.69031506E-08
   30.0900002      -5.76420760E-08
   30.1499996      -5.80472310E-08
   30.2099991      -5.81188537E-08
   30.2700005      -5.78688848E-08
   30.3299999      -5.73188430E-08
   30.3899994      -5.64948763E-08
   30.4500008      -5.54212605E-08
   30.5100002      -5.41140786E-08
   30.5699997      -5.25773487E-08
   30.6299992      -5.08027895E-08
   30.6900005      -4.87735008E-08
   30.7500000      -4.64703760E-08
   30.8099995      -4.38791936E-08
   30.8700008      -4.09963334E-08
   30.9300003      -3.78315939E-08
   30.9899998      -3.44075453E-08
   31.0499992      -3.07558992E-08
   31.1100006      -2.69120655E-08
   31.1700001      -2.29094059E-08
   31.2299995      -1.87748164E-08
   31.2900009      -1.45268810E-08
   31.3500004      -1.01773123E-08
   31.4099998      -5.73542236E-09
   31.4699993      -1.21432997E-09
   31.5300007       3.36315242E-09
   31.5900002       7.96121835E-09
   31.6499996       1.25319497E-08
   31.7099991       1.70205734E-08
   31.7700005       2.13736779E-08
   31.8299999       2.55477239E-08
   31.8899994       2.95149398E-08
   31.9500008       3.32645094E-08
   32.0099983       3.67986353E-08
   32.0699997       4.01248741E-08
   32.1300011       4.32474323E-08
   32.1899986       4.61603449E-08
   32.2500000       4.88449317E-08
   32.3100014       5.12721208E-08
   32.3699989       5.34088400E-08
   32.4300003       5.52260815E-08
   32.4900017       5.67058152E-08
   32.5499992       5.78442396E-08
   32.6100006       5.86501194E-08
   32.6699982       5.91386282E-08
   32.7299995       5.93228506E-08
   32.7900009       5.92059202E-08
   32.8499985       5.87769051E-08
   32.9099998       5.80121267E-08
   32.9700012       5.68819516E-08
   33.0299988       5.53608963E-08
   33.0900002       5.34377982E-08
   33.1500015       5.11226261E-08
   33.2099991       4.84476921E-08
   33.2700005       4.54628655E-08
   33.3300018       4.22263753E-08
   33.3899994       3.87940631E-08
   33.4500008       3.52102703E-08
   33.5099983       3.15028110E-08
   33.5699997       2.76832512E-08
   33.6300011       2.37520581E-08
   33.6899986       1.97069721E-08
   33.7500000       1.55519864E-08
   33.8100014       1.13042748E-08
   33.8699989       6.99689462E-09
   33.9300003       2.67636913E-09
   33.9900017      -1.60415015E-09
   34.0499992      -5.79394754E-09
   34.1100006      -9.85296644E-09
   34.1699982      -1.37563800E-08
   34.2299995      -1.74939760E-08
   34.2900009      -2.10647926E-08
   34.3499985      -2.44692036E-08
   34.4099998      -2.77015957E-08
   34.4700012      -3.07464170E-08
   34.5299988      -3.35789423E-08
   34.5900002      -3.61703130E-08
   34.6500015      -3.84948784E-08
   34.7099991      -4.05372838E-08
   34.7700005      -4.22969997E-08
   34.8300018      -4.37889369E-08
   34.8899994      -4.50399824E-08
   34.9500008      -4.60823557E-08
   35.0099983      -4.69453880E-08
   35.0699997      -4.76478412E-08
   35.1300011      -4.81929199E-08
   35.1899986      -4.85675464E-08
   35.2500000      -4.87464931E-08
   35.3100014      -4.87004144E-08
   35.3699989      -4.84053970E-08
   35.4300003      -4.78509676E-08
   35.4900017      -4.70438550E-08
   35.5499992      -4.60062175E-08
   35.6100006      -4.47691093E-08
   35.6699982      -4.33637446E-08
   35.7299995      -4.18137702E-08
   35.7900009      -4.01312690E-08
   35.8499985      -3.83175269E-08
   35.9099998      -3.63680215E-08
   35.9700012      -3.42794131E-08
   36.0299988      -3.20560609E-08
   36.0900002      -2.97138243E-08
   36.1500015      -2.72801017E-08
   36.2099991      -2.47901362E-08
   36.2700005      -2.22808723E-08
   36.3300018      -1.97842347E-08
   36.3899994      -1.73219856E-08
   36.4500008      -1.49038080E-08
   36.5099983      -1.25293198E-08
   36.5699997      -1.01933750E-08
   36.6300011      -7.89281529E-09
   36.6899986      -5.63220803E-09
   36.7500000      -3.42642026E-09
   36.8100014      -1.29907707E-09
   36.8699989       7.22440496E-10
   36.9300003       2.61344812E-09
   36.9900017       4.35730740E-09
   37.0499992       5.94766147E-09
   37.1100006       7.38684758E-09
   37.1699982       8.68130012E-09
   37.2299995       9.83587523E-09
   37.2900009       1.08493117E-08
   37.3499985       1.17125234E-08
   37.4099998       1.24103003E-08
   37.4700012       1.29257618E-08
   37.5299988       1.32459590E-08
   37.5900002       1.33666038E-08
   37.6500015       1.32942155E-08
   37.7099991       1.30448337E-08
   37.7700005       1.26396307E-08
   37.8300018       1.20988828E-08
   37.8899994       1.14364154E-08
   37.9500008       1.06564766E-08
   38.0099983       9.75414416E-09
   38.0699997       8.71905304E-09
   38.1300011       7.54097851E-09
   38.1899986       6.21516305E-09
   38.2500000       4.74544626E-09
   38.3100014       3.14420268E-09
   38.3699989       1.42934609E-09
   38.4300003      -3.80246307E-10
   38.4900017      -2.26905961E-09
   38.5499992      -4.22741042E-09
   38.6100006      -6.25127816E-09
   38.6699982      -8.33975822E-09
   38.7299995      -1.04912656E-08
   38.7900009      -1.27000259E-08
   38.8499985      -1.49542441E-08
   38.9099998      -1.72366352E-08
   38.9700012      -1.95270804E-08
   39.0299988      -2.18063612E-08
   39.0900002      -2.40594300E-08
   39.1500015      -2.62768385E-08
   39.2099991      -2.84536714E-08
   39.2700005      -3.05862962E-08
   39.3300018      -3.26682255E-08
   39.3899994      -3.46867246E-08
   39.4500008      -3.66217954E-08
   39.5099983      -3.84481247E-08
   39.5699997      -4.01395930E-08
   39.6300011      -4.16747881E-08
   39.6899986      -4.30415668E-08
   39.7500000      -4.42388952E-08
   39.8100014      -4.52751081E-08
   39.8699989      -4.61631942E-08
   39.9300003      -4.69147743E-08
   39.9900017      -4.75352273E-08
   40.0499992      -4.80218034E-08
   40.1100006      -4.83657274E-08
   40.1699982      -4.85573359E-08
   40.2299995      -4.85923195E-08
   40.2900009      -4.84763554E-08
   40.3499985      -4.82262550E-08
   40.4099998      -4.78670010E-08
   40.4700012      -4.74256829E-08
   40.5299988      -4.69245691E-08
   40.5900002      -4.63755505E-08
   40.6500015      -4.57776110E-08
   40.7099991      -4.51178153E-08
   40.7700005      -4.43751347E-08
   40.8300018      -4.35257554E-08
   40.8899994      -4.25484394E-08
   40.9500008      -4.14285601E-08
   41.0099983      -4.01599891E-08
   41.0699997      -3.87444032E-08
   41.1300011      -3.71881868E-08
   41.1899986      -3.54979015E-08
   41.2500000      -3.36757431E-08
   41.3100014      -3.17166133E-08
   41.3699989      -2.96080458E-08
   41.4300003      -2.73330532E-08
   41.4900017      -2.48748524E-08
   41.5499992      -2.22216769E-08
   41.6100006      -1.93698408E-08
   41.6699982      -1.63242220E-08
   41.7299995      -1.30963924E-08
   41.7900009      -9.70167768E-09
   41.8499985      -6.15650153E-09
   41.9099998      -2.47688625E-09
   41.9700012       1.32182243E-09
   42.0299988       5.22448573E-09
   42.0900002       9.21550036E-09
   42.1500015       1.32781253E-08
   42.2099991       1.73937149E-08
   42.2700005       2.15407123E-08
   42.3300018       2.56936357E-08
   42.3899994       2.98225444E-08
   42.4500008       3.38935884E-08
   42.5099983       3.78708620E-08
   42.5699997       4.17191579E-08
   42.6300011       4.54068569E-08
   42.6899986       4.89081344E-08
   42.7500000       5.22039620E-08
   42.8100014       5.52819728E-08
   42.8699989       5.81352921E-08
   42.9300003       6.07607262E-08
   42.9900017       6.31564632E-08
   43.0499992       6.53197105E-08
   43.1100006       6.72448692E-08
   43.1699982       6.89232280E-08
   43.2299995       7.03446688E-08
   43.2900009       7.15013257E-08
   43.3499985       7.23918419E-08
   43.4099998       7.30242107E-08
   43.4700012       7.34153645E-08
   43.5299988       7.35870884E-08
   43.5900002       7.35593702E-08
   43.6500015       7.33439904E-08
   43.7099991       7.29411269E-08
   43.7700005       7.23405833E-08
   43.8300018       7.15271753E-08
   43.8899994       7.04882197E-08
   43.9500008       6.92200501E-08
   44.0099983       6.77314773E-08
   44.0699997       6.60431638E-08
   44.1300011       6.41837588E-08
   44.1899986       6.21843910E-08
   44.2500000       6.00735177E-08
   44.3100014       5.78733577E-08
   44.3699989       5.55989672E-08
   44.4300003       5.32598072E-08
   44.4900017       5.08633100E-08
   44.5499992       4.84193450E-08
   44.6100006       4.59438922E-08
   44.6699982       4.34604210E-08
   44.7299995       4.09979464E-08
   44.7900009       3.85860588E-08
   44.8499985       3.62485686E-08
   44.9099998       3.39981732E-08
   44.9700012       3.18345066E-08
   45.0299988       2.97466176E-08
   45.0900002       2.77191532E-08
   45.1500015       2.57400909E-08
   45.2099991       2.38071554E-08
   45.2700005       2.19306546E-08
   45.3300018       2.01318713E-08
   45.3899994       1.84376443E-08
   45.4500008       1.68730239E-08
   45.5099983       1.54542690E-08
   45.5699997       1.41842440E-08
   45.6300011       1.30514390E-08
   45.6899986       1.20328707E-08
   45.7500000       1.10999521E-08
   45.8100014       1.02256310E-08
   45.8699989       9.39059319E-09
   45.9300003       8.58655547E-09
   45.9900017       7.81562903E-09
   46.0499992       7.08610237E-09
   46.1100006       6.40633324E-09
   46.1699982       5.77920245E-09
   46.2299995       5.19930721E-09
   46.2900009       4.65391858E-09
   46.3499985       4.12718570E-09
   46.4099998       3.60578944E-09
   46.4700012       3.08381010E-09
   46.5299988       2.56508326E-09
   46.5900002       2.06245865E-09
   46.6500015       1.59459557E-09
   46.7099991       1.18169985E-09
   46.7700005       8.41703152E-10
   46.8300018       5.87895899E-10
   46.8899994       4.28281743E-10
   46.9500008       3.66279451E-10
   47.0099983       4.02080813E-10
   47.0699997       5.34002342E-10
   47.1300011       7.59420304E-10
   47.1899986       1.07517140E-09
   47.2500000       1.47751289E-09
   47.3100014       1.96182959E-09
   47.3699989       2.52228594E-09
   47.4300003       3.15160875E-09
   47.4900017       3.84117094E-09
   47.5499992       4.58148897E-09
   47.6100006       5.36311529E-09
   47.6699982       6.17770946E-09
   47.7299995       7.01888458E-09
   47.7900009       7.88238541E-09
   47.8499985       8.76539463E-09
   47.9099998       9.66517977E-09
   47.9700012       1.05777467E-08
   48.0299988       1.14972920E-08
   48.0900002       1.24169741E-08
   48.1500015       1.33307765E-08
   48.2099991       1.42355354E-08
   48.2700005       1.51318087E-08
   48.3300018       1.60226978E-08
   48.3899994       1.69106400E-08
   48.4500008       1.77933774E-08
   48.5099983       1.86608649E-08
   48.5699997       1.94947400E-08
   48.6300011       2.02708943E-08
   48.6899986       2.09643876E-08
   48.7500000       2.15549569E-08
   48.8100014       2.20312142E-08
   48.8699989       2.23922267E-08
   48.9300003       2.26462173E-08
   48.9900017       2.28069741E-08
   49.0499992       2.28891111E-08
   49.1100006       2.29033343E-08
   49.1699982       2.28526815E-08
   49.2299995       2.27304877E-08
   49.2900009       2.25205898E-08
   49.3499985       2.21999024E-08
   49.4099998       2.17429204E-08
   49.4700012       2.11270486E-08
   49.5299988       2.03372341E-08
   49.5900002       1.93684997E-08
   49.6500015       1.82256379E-08
   49.7099991       1.69204029E-08
   49.7700005       1.54673661E-08
   49.8300018       1.38799656E-08
   49.8899994       1.21679680E-08
   49.9500008       1.03369384E-08
   50.0099983       8.38965963E-09
   50.0699997       6.32897379E-09
   50.1300011       4.16134860E-09
   50.1899986       1.90026017E-09
   50.2500000      -4.31611719E-10
   50.3100014      -2.80242540E-09
   50.3699989      -5.17407939E-09
   50.4300003      -7.50771711E-09
   50.4900017      -9.77042092E-09
   50.5499992      -1.19408856E-08
   50.6100006      -1.40119116E-08