  -2.400000      0.0000000E+00
  -2.340000      0.0000000E+00
  -2.280000      0.0000000E+00
  -2.220000      0.0000000E+00
  -2.160000      0.0000000E+00
  -2.100000      0.0000000E+00
  -2.040000      0.0000000E+00
  -1.980000      0.0000000E+00
  -1.920000      5.3192083E-26
  -1.860000      4.2490311E-25
  -1.800000      1.3544709E-24
  -1.740000      1.4251467E-24
  -1.680000     -2.4527244E-24
  -1.620000      2.0129381E-24
  -1.560000      9.8050122E-23
  -1.500000      5.0744087E-22
  -1.440000      1.5048907E-21
  -1.380000      2.8773841E-21
  -1.320000      2.8052088E-21
  -1.260000     -3.1166243E-21
  -1.200000     -2.0680984E-20
  -1.140000     -5.1179564E-20
  -1.080000     -8.0770865E-20
  -1.020000     -7.1405223E-20
 -0.9600000      3.3203715E-20
 -0.9000000      2.7294559E-19
 -0.8400000      6.0974388E-19
 -0.7800000      8.7103152E-19
 -0.7200000      7.5772877E-19
 -0.6600000     -3.0165280E-20
 -0.6000000     -1.5601357E-18
 -0.5400000     -3.4389033E-18
 -0.4800000     -4.7776165E-18
 -0.4200000     -4.4956026E-18
 -0.3600000     -1.9084378E-18
 -0.3000000      2.7220864E-18
 -0.2400000      8.1261810E-18
 -0.1800000      1.2683755E-17
 -0.1200000      1.5468476E-17
 -5.9999999E-02  1.6773529E-17
  0.0000000E+00  1.7198926E-17
  5.9999999E-02  1.5310648E-17
  0.1200000      5.4914643E-18
  0.1800000     -2.1199787E-17
  0.2400000     -7.0994291E-17
  0.3000000     -1.3723555E-16
  0.3600000     -1.9173174E-16
  0.4200000     -1.8637367E-16
  0.4800000     -7.1689672E-17
  0.5400000      1.6965096E-16
  0.6000000      4.8876437E-16
  0.6600000      7.5918938E-16
  0.7200000      8.0865833E-16
  0.7800000      4.9604192E-16
  0.8400000     -1.9294967E-16
  0.9000000     -1.0815203E-15
  0.9600000     -1.8207052E-15
   1.020000     -2.0126371E-15
   1.080000     -1.4043236E-15
   1.140000     -6.4435484E-17
   1.200000      1.5630248E-15
   1.260000      2.7953188E-15
   1.320000      3.0143213E-15
   1.380000      2.0098883E-15
   1.440000      1.7844668E-16
   1.500000     -1.5744248E-15
   1.560000     -2.2484132E-15
   1.620000     -1.3239796E-15
   1.680000      7.9145155E-16
   1.740000      2.7422850E-15
   1.800000      2.7648413E-15
   1.860000     -3.5197117E-16
   1.920000     -6.2995479E-15
   1.980000     -1.2813009E-14
   2.040000     -1.6173023E-14
   2.100000     -1.2678123E-14
   2.160000     -6.2769096E-16
   2.220000      1.8035481E-14
   2.280000      3.7348376E-14
   2.340000      4.8785964E-14
   2.400000      4.4400447E-14
   2.460000      2.0647507E-14
   2.520000     -1.8689028E-14
   2.580000     -6.2071855E-14
   2.640000     -9.3153255E-14
   2.700000     -9.6635306E-14
   2.760000     -6.5144030E-14
   2.820000     -4.2709002E-15
   2.880000      6.6931127E-14
   2.940000      1.2128872E-13
   3.000000      1.3361802E-13
   3.060000      9.2116432E-14
   3.120000      6.2013090E-15
   3.180000     -9.3441077E-14
   3.240000     -1.6414736E-13
   3.300000     -1.6752665E-13
   3.360000     -8.6721828E-14
   3.420000      6.2703803E-14
   3.480000      2.3390990E-13
   3.540000      3.6302298E-13
   3.600000      3.9186425E-13
   3.660000      2.9031050E-13
   3.720000      6.8854034E-14
   3.780000     -2.2431410E-13
   3.840000     -5.2063649E-13
   3.900000     -7.5515787E-13
   3.960000     -8.8596849E-13
   4.020000     -8.9991366E-13
   4.080000     -8.0218183E-13
   4.140000     -5.9607880E-13
   4.200000     -2.6560926E-13
   4.260000      2.2612936E-13
   4.320000      9.1625221E-13
   4.380000      1.8036759E-12
   4.440000      2.8083469E-12
   4.500000      3.7486806E-12
   4.560000      4.3542470E-12
   4.620000      4.3190338E-12
   4.680000      3.3850310E-12
   4.740000      1.4327972E-12
   4.800000     -1.4493788E-12
   4.860000     -4.9408251E-12
   4.920000     -8.5179450E-12
   4.980000     -1.1531226E-11
   5.040000     -1.3310817E-11
   5.100000     -1.3277395E-11
   5.160000     -1.1039071E-11
   5.220000     -6.4640242E-12
   5.280000      2.7314235E-13
   5.340000      8.6696934E-12
   5.400000      1.7897862E-11
   5.460000      2.6837043E-11
   5.520000      3.4140975E-11
   5.580000      3.8341417E-11
   5.640000      3.7979810E-11
   5.700000      3.1747400E-11
   5.760000      1.8608375E-11
   5.820000     -2.1147598E-12
   5.880000     -3.0700747E-11
   5.940000     -6.7023137E-11
   6.000000     -1.1055403E-10
   6.060000     -1.6035318E-10
   6.120000     -2.1503019E-10
   6.180000     -2.7268812E-10
   6.240000     -3.3087552E-10
   6.300000     -3.8658102E-10
   6.360000     -4.3629717E-10
   6.420000     -4.7615922E-10
   6.480000     -5.0214360E-10
   6.540000     -5.1029597E-10
   6.600000     -4.9696042E-10
   6.660000     -4.5899740E-10
   6.720000     -3.9399739E-10
   6.780000     -3.0051034E-10
   6.840000     -1.7830912E-10
   6.900000     -2.8679479E-11
   6.960000      1.4530722E-10
   7.020000      3.3861816E-10
   7.080000      5.4427646E-10
   7.140000      7.5365114E-10
   7.200000      9.5704611E-10
   7.260000      1.1445350E-09
   7.320000      1.3069084E-09
   7.380000      1.4365522E-09
   7.440000      1.5280792E-09
   7.500000      1.5786040E-09
   7.560000      1.5876614E-09
   7.620000      1.5568808E-09
   7.680000      1.4895963E-09
   7.740000      1.3905566E-09
   7.800000      1.2658082E-09
   7.860000      1.1226839E-09
   7.920000      9.6971586E-10
   7.980000      8.1626028E-10
   8.040000      6.7170647E-10
   8.100000      5.4432120E-10
   8.160000      4.3997922E-10
   8.220000      3.6115511E-10
   8.280000      3.0653849E-10
   8.340000      2.7145552E-10
   8.400000      2.4900781E-10
   8.460000      2.3157748E-10
   8.520000      2.1221290E-10
   8.580000      1.8546881E-10
   8.640000      1.4751166E-10
   8.700000      9.5618763E-11
   8.760000      2.7459018E-11
   8.820000     -5.9372604E-11
   8.880000     -1.6722836E-10
   8.940000     -2.9764632E-10
   9.000000     -4.5023907E-10
   9.060000     -6.2172600E-10
   9.120000     -8.0559381E-10
   9.180000     -9.9263997E-10
   9.240000     -1.1723004E-09
   9.300000     -1.3343383E-09
   9.360000     -1.4703261E-09
   9.420000     -1.5744404E-09
   9.480000     -1.6433891E-09
   9.540000     -1.6756525E-09
   9.600000     -1.6704963E-09
   9.660000     -1.6272801E-09
   9.720000     -1.5454156E-09
   9.780000     -1.4250015E-09
   9.840000     -1.2678224E-09
   9.900000     -1.0782047E-09
   9.960000     -8.6324897E-10
   10.02000     -6.3220157E-10
   10.08000     -3.9508177E-10
   10.14000     -1.6099301E-10
   10.20000      6.3311772E-11
   10.26000      2.7412572E-10
   10.32000      4.7054388E-10
   10.38000      6.5343858E-10
   10.44000      8.2411505E-10
   10.50000      9.8321917E-10
   10.56000      1.1303559E-09
   10.62000      1.2645694E-09
   10.68000      1.3854572E-09
   10.74000      1.4943925E-09
   10.80000      1.5952376E-09
   10.86000      1.6940935E-09
   10.92000      1.7980109E-09
   10.98000      1.9130377E-09
   11.04000      2.0423114E-09
   11.10000      2.1849784E-09
   11.16000      2.3364757E-09
   11.22000      2.4902029E-09
   11.28000      2.6400668E-09
   11.34000      2.7829907E-09
   11.40000      2.9204623E-09
   11.46000      3.0585363E-09
   11.52000      3.2063177E-09
   11.58000      3.3735512E-09
   11.64000      3.5682703E-09
   11.70000      3.7953822E-09
   11.76000      4.0565964E-09
   11.82000      4.3514796E-09
   11.88000      4.6788968E-09
   11.94000      5.0379669E-09
   12.00000      5.4279106E-09
   12.06000      5.8467542E-09
   12.12000      6.2894285E-09
   12.18000      6.7461579E-09
   12.24000      7.2019777E-09
   12.30000      7.6377944E-09
   12.36000      8.0328029E-09
   12.42000      8.3675733E-09
   12.48000      8.6268601E-09
   12.54000      8.8013428E-09
   12.60000      8.8879135E-09
   12.66000      8.8886196E-09
   12.72000      8.8088408E-09
   12.78000      8.6554097E-09
   12.84000      8.4353271E-09
   12.90000      8.1554044E-09
   12.96000      7.8227256E-09
   13.02000      7.4454696E-09
   13.08000      7.0335080E-09
   13.14000      6.5982442E-09
   13.20000      6.1515411E-09
   13.26000      5.7040008E-09
   13.32000      5.2632330E-09
   13.38000      4.8328519E-09
   13.44000      4.4127466E-09
   13.50000      4.0006705E-09
   13.56000      3.5946746E-09
   13.62000      3.1955134E-09
   13.68000      2.8081182E-09
   13.74000      2.4415410E-09
   13.80000      2.1073474E-09
   13.86000      1.8169810E-09
   13.92000      1.5789761E-09
   13.98000      1.3968998E-09
   14.04000      1.2686134E-09
   14.10000      1.1869892E-09
   14.16000      1.1417571E-09
   14.22000      1.1218725E-09
   14.28000      1.1176930E-09
   14.34000      1.1223867E-09
   14.40000      1.1322602E-09
   14.46000      1.1460551E-09
   14.52000      1.1635872E-09
   14.58000      1.1843160E-09
   14.64000      1.2064374E-09
   14.70000      1.2268653E-09
   14.76000      1.2420817E-09
   14.82000      1.2494548E-09
   14.88000      1.2484132E-09
   14.94000      1.2409486E-09
   15.00000      1.2312538E-09
   15.06000      1.2247201E-09
   15.12000      1.2267982E-09
   15.18000      1.2422141E-09
   15.24000      1.2747534E-09
   15.30000      1.3274541E-09
   15.36000      1.4028056E-09
   15.42000      1.5025964E-09
   15.48000      1.6273249E-09
   15.54000      1.7754359E-09
   15.60000      1.9428137E-09
   15.66000      2.1228737E-09
   15.72000      2.3072766E-09
   15.78000      2.4869755E-09
   15.84000      2.6531530E-09
   15.90000      2.7977307E-09
   15.96000      2.9134184E-09
   16.02000      2.9935476E-09
   16.08000      3.0320295E-09
   16.14000      3.0236498E-09
   16.20000      2.9646854E-09
   16.26000      2.8536249E-09
   16.32000      2.6917351E-09
   16.38000      2.4833067E-09
   16.44000      2.2355615E-09
   16.50000      1.9582773E-09
   16.56000      1.6631786E-09
   16.62000      1.3630846E-09
   16.68000      1.0708170E-09
   16.74000      7.9796691E-10
   16.80000      5.5378047E-10
   16.86000      3.4450520E-10
   16.92000      1.7345665E-10
   16.98000      4.1804955E-11
   17.04000     -5.0222951E-11
   17.10000     -1.0222481E-10
   17.16000     -1.1303974E-10
   17.22000     -8.0877194E-11
   17.28000     -3.9734310E-12
   17.34000      1.1865846E-10
   17.40000      2.8682909E-10
   17.46000      4.9933330E-10
   17.52000      7.5453049E-10
   17.58000      1.0509416E-09
   17.64000      1.3874107E-09
   17.70000      1.7625867E-09
   17.76000      2.1738327E-09
   17.82000      2.6159983E-09
   17.88000      3.0806424E-09
   17.94000      3.5561640E-09
   18.00000      4.0289767E-09
   18.06000      4.4854276E-09
   18.12000      4.9138400E-09
   18.18000      5.3059663E-09
   18.24000      5.6573328E-09
   18.30000      5.9664007E-09
   18.36000      6.2329097E-09
   18.42000      6.4561236E-09
   18.48000      6.6336940E-09
   18.54000      6.7615846E-09
   18.60000      6.8350094E-09
   18.66000      6.8498993E-09
   18.72000      6.8041941E-09
   18.78000      6.6983410E-09
   18.84000      6.5347896E-09
   18.90000      6.3167072E-09
   18.96000      6.0465011E-09
   19.02000      5.7248357E-09
   19.08000      5.3506173E-09
   19.14000      4.9220596E-09
   19.20000      4.4384900E-09
   19.26000      3.9022643E-09
   19.32000      3.3200671E-09
   19.38000      2.7030300E-09
   19.44000      2.0654867E-09
   19.50000      1.4226638E-09
   19.56000      7.8801160E-10
   19.62000      1.7109233E-10
   19.68000     -4.2319007E-10
   19.74000     -9.9367636E-10
   19.80000     -1.5406392E-09
   19.86000     -2.0629209E-09
   19.92000     -2.5556339E-09
   19.98000     -3.0093661E-09
   20.04000     -3.4112773E-09
   20.10000     -3.7477603E-09
   20.16000     -4.0077448E-09
   20.22000     -4.1855239E-09
   20.28000     -4.2821764E-09
   20.34000     -4.3052388E-09
   20.40000     -4.2668922E-09
   20.46000     -4.1814370E-09
   20.52000     -4.0629802E-09
   20.58000     -3.9241006E-09
   20.64000     -3.7757930E-09
   20.70000     -3.6284962E-09
   20.76000     -3.4935461E-09
   20.82000     -3.3842216E-09
   20.88000     -3.3156782E-09
   20.94000     -3.3034862E-09
   21.00000     -3.3610750E-09
   21.06000     -3.4968755E-09
   21.12000     -3.7121681E-09
   21.18000     -4.0004431E-09
   21.24000     -4.3485424E-09
   21.30000     -4.7391802E-09
   21.36000     -5.1539688E-09
   21.42000     -5.5759850E-09
   21.48000     -5.9912271E-09
   21.54000     -6.3888819E-09
   21.60000     -6.7608310E-09
   21.66000     -7.1010144E-09
   21.72000     -7.4051383E-09
   21.78000     -7.6708302E-09
   21.84000     -7.8980014E-09
   21.90000     -8.0890201E-09
   21.96000     -8.2484455E-09
   22.02000     -8.3823259E-09
   22.08000     -8.4972926E-09
   22.14000     -8.5997849E-09
   22.20000     -8.6955723E-09
   22.26000     -8.7895939E-09
   22.32000     -8.8859853E-09
   22.38000     -8.9881329E-09
   22.44000     -9.0987218E-09
   22.50000     -9.2197787E-09
   22.56000     -9.3527532E-09
   22.62000     -9.4986055E-09
   22.68000     -9.6578114E-09
   22.74000     -9.8301784E-09
   22.80000     -1.0014523E-08
   22.86000     -1.0208358E-08
   22.92000     -1.0407857E-08
   22.98000     -1.0608241E-08
   23.04000     -1.0804550E-08
   23.10000     -1.0992518E-08
   23.16000     -1.1169114E-08
   23.22000     -1.1332474E-08
   23.28000     -1.1481182E-08
   23.34000     -1.1613229E-08
   23.40000     -1.1725136E-08
   23.46000     -1.1811744E-08
   23.52000     -1.1866801E-08
   23.58000     -1.1884209E-08
   23.64000     -1.1859426E-08
   23.70000     -1.1790536E-08
   23.76000     -1.1678682E-08
   23.82000     -1.1527865E-08
   23.88000     -1.1344383E-08
   23.94000     -1.1136263E-08
   24.00000     -1.0912876E-08
   24.06000     -1.0684708E-08
   24.12000     -1.0462971E-08
   24.18000     -1.0258803E-08
   24.24000     -1.0081924E-08
   24.30000     -9.9389839E-09
   24.36000     -9.8320809E-09
   24.42000     -9.7580433E-09
   24.48000     -9.7088160E-09
   24.54000     -9.6729229E-09
   24.60000     -9.6375556E-09
   24.66000     -9.5905976E-09
   24.72000     -9.5219406E-09
   24.78000     -9.4238422E-09
   24.84000     -9.2904884E-09
   24.90000     -9.1173042E-09
   24.96000     -8.9006367E-09
   25.02000     -8.6382075E-09
   25.08000     -8.3303036E-09
   25.14000     -7.9812308E-09
   25.20000     -7.6002946E-09
   25.26000     -7.2016872E-09
   25.32000     -6.8029355E-09
   25.38000     -6.4221255E-09
   25.44000     -6.0745284E-09
   25.50000     -5.7695235E-09
   25.56000     -5.5086731E-09
   25.62000     -5.2854876E-09
   25.68000     -5.0869273E-09
   25.74000     -4.8961648E-09
   25.80000     -4.6957629E-09
   25.86000     -4.4703308E-09
   25.92000     -4.2079735E-09
   25.98000     -3.9003458E-09
   26.04000     -3.5417360E-09
   26.10000     -3.1279956E-09
   26.16000     -2.6561908E-09
   26.22000     -2.1254503E-09
   26.28000     -1.5388182E-09
   26.34000     -9.0527569E-10
   26.40000     -2.4082009E-10
   26.46000      4.3225665E-10
   26.52000      1.0880313E-09
   26.58000      1.7008502E-09
   26.64000      2.2491939E-09
   26.70000      2.7182330E-09
   26.76000      3.1003826E-09
   26.82000      3.3940333E-09
   26.88000      3.6013807E-09
   26.94000      3.7265364E-09
   27.00000      3.7747645E-09
   27.06000      3.7529757E-09
   27.12000      3.6708923E-09
   27.18000      3.5419068E-09
   27.24000      3.3828345E-09
   27.30000      3.2122944E-09
   27.36000      3.0481473E-09
   27.42000      2.9048766E-09
   27.48000      2.7918421E-09
   27.54000      2.7129556E-09
   27.60000      2.6677236E-09
   27.66000      2.6530453E-09
   27.72000      2.6648961E-09
   27.78000      2.6991522E-09
   27.84000      2.7512779E-09
   27.90000      2.8151605E-09
   27.96000      2.8818170E-09
   28.02000      2.9387834E-09
   28.08000      2.9707055E-09
   28.14000      2.9611020E-09
   28.20000      2.8947296E-09
   28.26000      2.7596847E-09
   28.32000      2.5485034E-09
   28.38000      2.2579465E-09
   28.44000      1.8877291E-09
   28.50000      1.4388561E-09
   28.56000      9.1230440E-10
   28.62000      3.0856329E-10
   28.68000     -3.7187478E-10
   28.74000     -1.1273498E-09
   28.80000     -1.9536797E-09
   28.86000     -2.8431142E-09
   28.92000     -3.7839807E-09
   28.98000     -4.7612292E-09
   29.04000     -5.7578671E-09
   29.10000     -6.7570283E-09
   29.16000     -7.7441342E-09
   29.22000     -8.7084615E-09
   29.28000     -9.6434976E-09
   29.34000     -1.0545857E-08
   29.40000     -1.1413160E-08
   29.46000     -1.2241798E-08
   29.52000     -1.3025653E-08
   29.58000     -1.3756443E-08
   29.64000     -1.4425551E-08
   29.70000     -1.5026403E-08
   29.76000     -1.5556134E-08
   29.82000     -1.6015669E-08
   29.88000     -1.6408153E-08
   29.94000     -1.6736578E-08
   30.00000     -1.7001824E-08
   30.06000     -1.7202005E-08
   30.12000     -1.7333225E-08
   30.18000     -1.7391084E-08
   30.24000     -1.7371933E-08
   30.30000     -1.7273194E-08
   30.36000     -1.7092761E-08
   30.42000     -1.6828043E-08
   30.48000     -1.6475456E-08
   30.54000     -1.6030747E-08
   30.60000     -1.5490009E-08
   30.66000     -1.4850905E-08
   30.72000     -1.4113491E-08
   30.78000     -1.3280459E-08
   30.84000     -1.2356897E-08
   30.90000     -1.1349910E-08
   30.96000     -1.0268301E-08
   31.02000     -9.1222949E-09
   31.08000     -7.9231519E-09
   31.14000     -6.6825483E-09
   31.20000     -5.4118434E-09
   31.26000     -4.1214965E-09
   31.32000     -2.8208547E-09
   31.38000     -1.5183379E-09
   31.44000     -2.2177626E-10
   31.50000      1.0613852E-09
   31.56000      2.3241520E-09
   31.62000      3.5601784E-09
   31.68000      4.7637916E-09
   31.74000      5.9296146E-09
   31.80000      7.0518555E-09
   31.86000      8.1236013E-09
   31.92000      9.1365591E-09
   31.98000      1.0081470E-08
   32.04000      1.0949091E-08
   32.10000      1.1731365E-08
   32.16000      1.2422378E-08
   32.22000      1.3018852E-08
   32.28000      1.3520252E-08
   32.34000      1.3928593E-08
   32.40000      1.4248058E-08
   32.46000      1.4484312E-08
   32.52000      1.4643438E-08
   32.58000      1.4730544E-08
   32.64000      1.4748386E-08
   32.70000      1.4696567E-08
   32.76000      1.4571703E-08
   32.82000      1.4368565E-08
   32.88000      1.4081677E-08
   32.94000      1.3706651E-08
   33.00000      1.3240665E-08
   33.06000      1.2682088E-08
   33.12000      1.2029753E-08
   33.18000      1.1282682E-08
   33.24000      1.0440715E-08
   33.30000      9.5058894E-09
   33.36000      8.4838483E-09
   33.42000      7.3843949E-09
   33.48000      6.2207741E-09
   33.54000      5.0079927E-09
   33.60000      3.7610768E-09
   33.66000      2.4942348E-09
   33.72000      1.2212850E-09
   33.78000     -4.3125354E-11
   33.84000     -1.2825887E-09
   33.90000     -2.4792988E-09
   33.96000     -3.6159622E-09
   34.02000     -4.6785273E-09
   34.08000     -5.6583644E-09
   34.14000     -6.5527028E-09
   34.20000     -7.3630284E-09
   34.26000     -8.0922948E-09
   34.32000     -8.7424565E-09
   34.38000     -9.3136547E-09
   34.44000     -9.8053254E-09
   34.50000     -1.0218364E-08
   34.56000     -1.0556758E-08
   34.62000     -1.0827425E-08
   34.68000     -1.1038067E-08
   34.74000     -1.1194087E-08
   34.80000     -1.1296193E-08
   34.86000     -1.1339965E-08
   34.92000     -1.1317501E-08
   34.98000     -1.1220126E-08
   35.04000     -1.1040659E-08
   35.10000     -1.0774158E-08
   35.16000     -1.0417152E-08
   35.22000     -9.9662856E-09
   35.28000     -9.4176249E-09
   35.34000     -8.7672509E-09
   35.40000     -8.0128846E-09
   35.46000     -7.1555775E-09
   35.52000     -6.2005312E-09
   35.58000     -5.1567701E-09
   35.64000     -4.0361225E-09
   35.70000     -2.8523319E-09
   35.76000     -1.6208027E-09
   35.82000     -3.5879202E-10
   35.88000      9.1466507E-10
   35.94000      2.1797535E-09
   36.00000      3.4178465E-09
   36.06000      4.6137369E-09
   36.12000      5.7570873E-09
   36.18000      6.8423662E-09
   36.24000      7.8673414E-09
   36.30000      8.8309271E-09
   36.36000      9.7314272E-09
   36.42000      1.0565869E-08
   36.48000      1.1330378E-08
   36.54000      1.2021073E-08
   36.60000      1.2634846E-08
   36.66000      1.3169667E-08
   36.72000      1.3624517E-08
   36.78000      1.3999126E-08
   36.84000      1.4293644E-08
   36.90000      1.4508140E-08
   36.96000      1.4641858E-08
   37.02000      1.4692453E-08
   37.08000      1.4655680E-08
   37.14000      1.4526148E-08
   37.20000      1.4299181E-08
   37.26000      1.3973237E-08
   37.32000      1.3551706E-08
   37.38000      1.3043077E-08
   37.44000      1.2459132E-08
   37.50000      1.1811983E-08
   37.56000      1.1111354E-08
   37.62000      1.0363520E-08
   37.68000      9.5723864E-09
   37.74000      8.7420853E-09
   37.80000      7.8796676E-09
   37.86000      6.9965096E-09
   37.92000      6.1077379E-09
   37.98000      5.2299662E-09
   38.04000      4.3783155E-09
   38.10000      3.5638268E-09
   38.16000      2.7920344E-09
   38.22000      2.0629611E-09
   38.28000      1.3724246E-09
   38.34000      7.1429923E-10
   38.40000      8.3240317E-11
   38.46000     -5.2279947E-10
   38.52000     -1.1010562E-09
   38.58000     -1.6441165E-09
   38.64000     -2.1419184E-09
   38.70000     -2.5849769E-09
   38.76000     -2.9675351E-09
   38.82000     -3.2892000E-09
   38.88000     -3.5542320E-09
   38.94000     -3.7687844E-09
   39.00000     -3.9374419E-09
   39.06000     -4.0607997E-09
   39.12000     -4.1353050E-09
   39.18000     -4.1553867E-09
   39.24000     -4.1167265E-09
   39.30000     -4.0189745E-09
   39.36000     -3.8665804E-09
   39.42000     -3.6674555E-09
   39.48000     -3.4303027E-09
   39.54000     -3.1620078E-09
   39.60000     -2.8663172E-09
   39.66000     -2.5442175E-09
   39.72000     -2.1955362E-09
   39.78000     -1.8207688E-09
   39.84000     -1.4222215E-09
   39.90000     -1.0041243E-09
   39.96000     -5.7203364E-10
   40.02000     -1.3222048E-10
   40.08000      3.0836034E-10
   40.14000      7.4143330E-10
   40.20000      1.1566035E-09
   40.26000      1.5412235E-09
   40.32000      1.8815787E-09
   40.38000      2.1653943E-09
   40.44000      2.3848654E-09
   40.50000      2.5388762E-09
   40.56000      2.6331541E-09
   40.62000      2.6778877E-09
   40.68000      2.6834848E-09
   40.74000      2.6561489E-09
   40.80000      2.5952367E-09
   40.86000      2.4937152E-09
   40.92000      2.3416959E-09
   40.98000      2.1316056E-09
   41.04000      1.8627619E-09
   41.10000      1.5433567E-09
   41.16000      1.1890107E-09
   41.22000      8.1857643E-10
   41.28000      4.4899337E-10
   41.34000      9.1232986E-11
   41.40000     -2.5131472E-10
   41.46000     -5.8185246E-10
   41.52000     -9.0748176E-10
   41.58000     -1.2361678E-09
   41.64000     -1.5744924E-09
   41.70000     -1.9266624E-09
   41.76000     -2.2945723E-09
   41.82000     -2.6783726E-09
   41.88000     -3.0770273E-09
   41.94000     -3.4886249E-09
   42.00000     -3.9104653E-09
   42.06000     -4.3390544E-09
   42.12000     -4.7700977E-09
   42.18000     -5.1984896E-09
   42.24000     -5.6182810E-09
   42.30000     -6.0226446E-09
   42.36000     -6.4039507E-09
   42.42000     -6.7540582E-09
   42.48000     -7.0648563E-09
   42.54000     -7.3289663E-09
   42.60000     -7.5404740E-09
   42.66000     -7.6955251E-09
   42.72000     -7.7927504E-09
   42.78000     -7.8334885E-09
   42.84000     -7.8217974E-09
   42.90000     -7.7641849E-09
   42.96000     -7.6689481E-09
   43.02000     -7.5451432E-09
   43.08000     -7.4013449E-09
   43.14000     -7.2445796E-09
   43.20000     -7.0798341E-09
   43.26000     -6.9103638E-09
   43.32000     -6.7386781E-09
   43.38000     -6.5677521E-09
   43.44000     -6.4018746E-09
   43.50000     -6.2467240E-09
   43.56000     -6.1086212E-09
   43.62000     -5.9933010E-09
   43.68000     -5.9047158E-09
   43.74000     -5.8443086E-09
   43.80000     -5.8109242E-09
   43.86000     -5.8012755E-09
   43.92000     -5.8107634E-09
   43.98000     -5.8345058E-09
   44.04000     -5.8684808E-09
   44.10000     -5.9106702E-09
   44.16000     -5.9619123E-09
   44.22000     -6.0260379E-09
   44.28000     -6.1089183E-09
   44.34000     -6.2164394E-09
   44.40000     -6.3519958E-09
   44.46000     -6.5145453E-09
   44.52000     -6.6982686E-09
   44.58000     -6.8942851E-09
   44.64000     -7.0939317E-09
   44.70000     -7.2922473E-09
   44.76000     -7.4900424E-09
   44.82000     -7.6934468E-09
   44.88000     -7.9109075E-09
   44.94000     -8.1487812E-09
   45.00000     -8.4073033E-09
   45.06000     -8.6786045E-09
   45.12000     -8.9476000E-09
   45.18000     -9.1954773E-09
   45.24000     -9.4045847E-09
   45.30000     -9.5630721E-09
   45.36000     -9.6678878E-09
   45.42000     -9.7252704E-09
   45.48000     -9.7486845E-09
   45.54000     -9.7549346E-09
   45.60000     -9.7596464E-09
   45.66000     -9.7735864E-09
   45.72000     -9.8009876E-09
   45.78000     -9.8404040E-09
   45.84000     -9.8876782E-09
   45.90000     -9.9397184E-09
   45.96000     -9.9973949E-09
   46.02000     -1.0066177E-08
   46.08000     -1.0154123E-08
   46.14000     -1.0268018E-08
   46.20000     -1.0409394E-08
   46.26000     -1.0572201E-08
   46.32000     -1.0743190E-08
   46.38000     -1.0904864E-08
   46.44000     -1.1039731E-08
   46.50000     -1.1134179E-08
   46.56000     -1.1180572E-08
   46.62000     -1.1177146E-08
   46.68000     -1.1126152E-08
   46.74000     -1.1031374E-08
   46.80000     -1.0896111E-08
   46.86000     -1.0722355E-08
   46.92000     -1.0511235E-08
   46.98000     -1.0264294E-08
   47.04000     -9.9849355E-09
   47.10000     -9.6793205E-09
   47.16000     -9.3562846E-09
   47.22000     -9.0261416E-09
   47.28000     -8.6986809E-09
   47.34000     -8.3810212E-09
   47.40000     -8.0761362E-09
   47.46000     -7.7827531E-09
   47.52000     -7.4968209E-09
   47.58000     -7.2141120E-09
   47.64000     -6.9328956E-09
   47.70000     -6.6554651E-09
   47.76000     -6.3876793E-09
   47.82000     -6.1365255E-09
   47.88000     -5.9066521E-09
   47.94000     -5.6974332E-09
   48.00000     -5.5020180E-09
   48.06000     -5.3090474E-09
   48.12000     -5.1065330E-09
   48.18000     -4.8864002E-09
   48.24000     -4.6478257E-09
   48.30000     -4.3980033E-09
   48.36000     -4.1500496E-09
   48.42000     -3.9190216E-09
   48.48000     -3.7177659E-09
   48.54000     -3.5542653E-09
   48.60000     -3.4313645E-09
   48.66000     -3.3486036E-09
   48.72000     -3.3049821E-09
   48.78000     -3.3012153E-09
   48.84000     -3.3404775E-09
   48.90000     -3.4274636E-09
   48.96000     -3.5663834E-09
   49.02000     -3.7588439E-09
   49.08000     -4.0024344E-09
   49.14000     -4.2903645E-09
   49.20000     -4.6120712E-09
   49.26000     -4.9544653E-09
   49.32000     -5.3034896E-09
   49.38000     -5.6457004E-09
   49.44000     -5.9696195E-09
   49.50000     -6.2665331E-09
   49.56000     -6.5304713E-09
   49.62000     -6.7573303E-09
   49.68000     -6.9434973E-09
   49.74000     -7.0846777E-09
   49.80000     -7.1756214E-09
   49.86000     -7.2110256E-09
   49.92000     -7.1872162E-09
   49.98000     -7.1036816E-09
   50.04000     -6.9635409E-09
   50.10000     -6.7725496E-09
   50.16000     -6.5371117E-09
   50.22000     -6.2623142E-09
   50.28000     -5.9510166E-09
   50.34000     -5.6044129E-09
   50.40000     -5.2236402E-09
   50.46000     -4.8114499E-09
   50.52000     -4.3729864E-09
   50.58000     -3.9152694E-09
   50.64000     -3.4456669E-09
   50.70000     -2.9700913E-09
   50.76000     -2.4916349E-09
   50.82000     -2.0100199E-09
   50.88000     -1.5218705E-09
   50.94000     -1.0216011E-09
   51.00000     -5.0270133E-10
   51.06000      4.0776878E-11
   51.12000      6.1279676E-10
   51.18000      1.2143765E-09
   51.24000      1.8435029E-09
   51.30000      2.4960780E-09
   51.36000      3.1675820E-09
   51.42000      3.8547121E-09
   51.48000      4.5561910E-09
   51.54000      5.2723736E-09
   51.60000      6.0040004E-09
   51.66000      6.7510020E-09
   51.72000      7.5123046E-09
   51.78000      8.2870386E-09
   51.84000      9.0767269E-09
   51.90000      9.8874589E-09
   51.96000      1.0731025E-08
   52.02000      1.1624550E-08
   52.08000      1.2588905E-08
   52.14000      1.3646718E-08
   52.20000      1.4820833E-08
   52.26000      1.6133729E-08
   52.32000      1.7607890E-08
   52.38000      1.9266828E-08
   52.44000      2.1136389E-08
   52.50000      2.3246074E-08
   52.56000      2.5630241E-08
   52.62000      2.8329049E-08
   52.68000      3.1389035E-08
   52.74000      3.4863287E-08
   52.80000      3.8811255E-08
   52.86000      4.3298503E-08
   52.92000      4.8396686E-08
   52.98000      5.4183936E-08
   53.04000      6.0745677E-08
   53.10000      6.8175552E-08
   53.16000      7.6576178E-08
   53.22000      8.6059359E-08
   53.28000      9.6745708E-08
   53.34000      1.0876352E-07
   53.40000      1.2224706E-07
   53.46000      1.3733430E-07
   53.52000      1.5416458E-07
   53.58000      1.7287643E-07
   53.64000      1.9360591E-07
   53.70000      2.1648565E-07
   53.76000      2.4164410E-07
   53.82000      2.6920466E-07
   53.88000      2.9928381E-07
   53.94000      3.3198774E-07
   54.00000      3.6740806E-07
   54.06000      4.0561667E-07
   54.12000      4.4666029E-07
   54.18000      4.9055484E-07
   54.24000      5.3728030E-07
   54.30000      5.8677495E-07
   54.36000      6.3892958E-07
   54.42000      6.9358151E-07
   54.48000      7.5050752E-07
   54.54000      8.0941749E-07
   54.60000      8.6994788E-07
   54.66000      9.3165545E-07
   54.72000      9.9401177E-07
   54.78000      1.0563984E-06
   54.84000      1.1181030E-06
   54.90000      1.1783155E-06
   54.96000      1.2361241E-06
   55.02000      1.2905116E-06
   55.08000      1.3403513E-06
   55.14000      1.3844057E-06
   55.20000      1.4213265E-06
   55.26000      1.4496600E-06
   55.32000      1.4678542E-06
   55.38000      1.4742686E-06
   55.44000      1.4671848E-06
   55.50000      1.4448168E-06
   55.56000      1.4053220E-06