 -0.750000000       0.00000000    
 -0.689999998       0.00000000    
 -0.629999995       0.00000000    
 -0.569999993       0.00000000    
 -0.509999990       0.00000000    
 -0.449999988       0.00000000    
 -0.389999986       0.00000000    
 -0.330000013       0.00000000    
 -0.270000011       7.84758151E-26
 -0.209999993       8.59968038E-25
 -0.150000006       4.65973589E-24
  -9.00000036E-02   1.62858094E-23
  -2.99999993E-02   3.94361601E-23
   2.99999993E-02   6.15524562E-23
   9.00000036E-02   2.06780039E-23
  0.150000006      -2.41881490E-22
  0.209999993      -1.00833367E-21
  0.270000011      -2.58960301E-21
  0.330000013      -4.92151866E-21
  0.389999986      -6.67232963E-21
  0.449999988      -4.02311933E-21
  0.509999990       9.85441266E-21
  0.569999993       4.25074707E-20
  0.629999995       9.48184599E-20
  0.689999998       1.48688507E-19
  0.750000000       1.55704924E-19
  0.810000002       3.94821126E-20
  0.870000005      -2.73775767E-19
  0.930000007      -7.91755104E-19
  0.990000010      -1.37786390E-18
   1.04999995      -1.70407147E-18
   1.11000001      -1.29374398E-18
   1.16999996       3.05047330E-19
   1.23000002       3.22926948E-18
   1.28999996       6.97977069E-18
   1.35000002       1.02164912E-17
   1.40999997       1.08414973E-17
   1.47000003       6.51536461E-18
   1.52999997      -4.33522505E-18
   1.59000003      -2.11379669E-17
   1.64999998      -3.98397678E-17
   1.71000004      -5.24082578E-17
   1.76999998      -4.82089199E-17
   1.83000004      -1.80290301E-17
   1.88999999       3.96202837E-17
   1.95000005       1.12231535E-16
   2.00999999       1.71232382E-16
   2.06999993       1.78511386E-16
   2.13000011       1.03025167E-16
   2.19000006      -5.70489925E-17
   2.25000000      -2.57797124E-16
   2.30999994      -4.12546894E-16
   2.36999989      -4.22583070E-16
   2.43000007      -2.29440817E-16
   2.49000001       1.34781008E-16
   2.54999995       5.32115997E-16
   2.60999990       7.62592550E-16
   2.67000008       6.62235240E-16
   2.73000002       2.12350141E-16
   2.78999996      -4.06553130E-16
   2.84999990      -8.70674696E-16
   2.91000009      -8.79620899E-16
   2.97000003      -3.61197348E-16
   3.02999997       4.09415572E-16
   3.08999991       8.85913401E-16
   3.15000010       5.40617190E-16
   3.21000004      -7.49038594E-16
   3.26999998      -2.43766617E-15
   3.32999992      -3.38880857E-15
   3.39000010      -2.36525374E-15
   3.45000005       1.22524226E-15
   3.50999999       6.69032234E-15
   3.56999993       1.19259706E-14
   3.63000011       1.40287486E-14
   3.69000006       1.05217450E-14
   3.75000000       7.07438794E-16
   3.80999994      -1.35090185E-14
   3.86999989      -2.78333061E-14
   3.93000007      -3.69018340E-14
   3.99000001      -3.62454444E-14
   4.05000019      -2.40787665E-14
   4.11000013      -2.12346226E-15
   4.17000008       2.48988028E-14
   4.23000002       5.08356615E-14
   4.28999996       6.99574133E-14
   4.34999990       7.82128675E-14
   4.40999985       7.33948560E-14
   4.46999979       5.44181196E-14
   4.53000021       2.05353804E-14
   4.59000015      -2.85168312E-14
   4.65000010      -9.09217092E-14
   4.71000004      -1.60164986E-13
   4.76999998      -2.22801839E-13
   4.82999992      -2.58453225E-13
   4.88999987      -2.43401084E-13
   4.94999981      -1.57786097E-13
   5.01000023       5.35661391E-15
   5.07000017       2.32372281E-13
   5.13000011       4.85984354E-13
   5.19000006       7.09256438E-13
   5.25000000       8.36471354E-13
   5.30999994       8.08368400E-13
   5.36999989       5.87527314E-13
   5.42999983       1.69681259E-13
   5.48999977      -4.11600089E-13
   5.55000019      -1.08686660E-12
   5.61000013      -1.75727195E-12
   5.67000008      -2.30292174E-12
   5.73000002      -2.59181413E-12
   5.78999996      -2.49068713E-12
   5.84999990      -1.88125470E-12
   5.90999985      -6.85313893E-13
   5.96999979       1.10088100E-12
   6.03000021       3.36821022E-12
   6.09000015       5.86359824E-12
   6.15000010       8.18131847E-12
   6.21000004       9.79066047E-12
   6.26999998       1.01070177E-11
   6.32999992       8.60206004E-12
   6.38999987       4.93593881E-12
   6.44999981      -9.15489472E-13
   6.51000023      -8.56903958E-12
   6.57000017      -1.72044271E-11
   6.63000011      -2.56110931E-11
   6.69000006      -3.23108450E-11
   6.75000000      -3.57404176E-11
   6.80999994      -3.44675087E-11
   6.86999989      -2.74105669E-11
   6.92999983      -1.40367492E-11
   6.98999977       5.47818735E-12
   7.05000019       3.01334235E-11
   7.11000013       5.80276868E-11
   7.17000008       8.63206520E-11
   7.23000002       1.11232308E-10
   7.28999996       1.28091857E-10
   7.34999990       1.31459857E-10
   7.40999985       1.15355059E-10
   7.46999979       7.36153985E-11
   7.53000021       4.08753164E-13
   7.59000015      -1.09118152E-10
   7.65000010      -2.58100125E-10
   7.71000004      -4.47207438E-10
   7.76999998      -6.74006184E-10
   7.82999992      -9.32548483E-10
   7.88999987      -1.21330257E-09
   7.94999981      -1.50349211E-09
   8.01000023      -1.78785509E-09
   8.06999969      -2.04976525E-09
   8.13000011      -2.27259411E-09
   8.18999958      -2.44115306E-09
   8.25000000      -2.54304000E-09
   8.31000042      -2.56973998E-09
   8.36999989      -2.51736876E-09
   8.43000031      -2.38701259E-09
   8.48999977      -2.18467022E-09
   8.55000019      -1.92084459E-09
   8.60999966      -1.60985181E-09
   8.67000008      -1.26891331E-09
   8.72999954      -9.17082688E-10
   8.78999996      -5.74045644E-10
   8.85000038      -2.58829541E-10
   8.90999985       1.15287346E-11
   8.97000027       2.23275398E-10
   9.02999973       3.67073927E-10
   9.09000015       4.38832942E-10
   9.14999962       4.40073672E-10
   9.21000004       3.77717441E-10
   9.27000046       2.63248701E-10
   9.32999992       1.11317025E-10
   9.39000034      -6.20426766E-11
   9.44999981      -2.41299952E-10
   9.51000023      -4.13119483E-10
   9.56999969      -5.67581371E-10
   9.63000011      -6.98766212E-10
   9.68999958      -8.04694533E-10
   9.75000000      -8.86755502E-10
   9.81000042      -9.48863543E-10
   9.86999989      -9.96592919E-10
   9.93000031      -1.03647102E-09
   9.98999977      -1.07547937E-09
   10.0500002      -1.12067877E-09
   10.1099997      -1.17879206E-09
   10.1700001      -1.25558630E-09
   10.2299995      -1.35499900E-09
   10.2900000      -1.47811152E-09
   10.3500004      -1.62222680E-09
   10.4099998      -1.78038884E-09
   10.4700003      -1.94165151E-09
   10.5299997      -2.09224660E-09
   10.5900002      -2.21756324E-09
   10.6499996      -2.30459585E-09
   10.7100000      -2.34433140E-09
   10.7700005      -2.33349140E-09
   10.8299999      -2.27515118E-09
   10.8900003      -2.17802132E-09
   10.9499998      -2.05451878E-09
   11.0100002      -1.91807703E-09
   11.0699997      -1.78037329E-09
   11.1300001      -1.64917302E-09
   11.1899996      -1.52730995E-09
   11.2500000      -1.41298451E-09
   11.3100004      -1.30115374E-09
   11.3699999      -1.18547083E-09
   11.4300003      -1.06009845E-09
   11.4899998      -9.20830079E-10
   11.5500002      -7.65270458E-10
   11.6099997      -5.92219940E-10
   11.6700001      -4.00738748E-10
   11.7299995      -1.89482194E-10
   11.7900000       4.32292882E-11
   11.8500004       2.98483377E-10
   11.9099998       5.75276271E-10
   11.9700003       8.69031513E-10
   12.0299997       1.17081445E-09
   12.0900002       1.46774259E-09
   12.1499996       1.74472115E-09
   12.2100000       1.98719641E-09
   12.2700005       2.18427809E-09
   12.3299999       2.33142150E-09
   12.3900003       2.43193821E-09
   12.4499998       2.49686538E-09
   12.5100002       2.54310040E-09
   12.5699997       2.59010013E-09
   12.6300001       2.65580313E-09
   12.6899996       2.75264811E-09
   12.7500000       2.88463387E-09
   12.8100004       3.04620751E-09
   12.8699999       3.22339355E-09
   12.9300003       3.39703421E-09
   12.9899998       3.54741503E-09
   13.0500002       3.65908193E-09
   13.1099997       3.72450004E-09
   13.1700001       3.74547771E-09
   13.2299995       3.73192055E-09
   13.2900000       3.69832009E-09
   13.3500004       3.65914810E-09
   13.4099998       3.62467523E-09
   13.4700003       3.59858321E-09
   13.5299997       3.57807250E-09
   13.5900002       3.55622798E-09
   13.6499996       3.52558205E-09
   13.7100000       3.48136675E-09
   13.7700005       3.42310069E-09
   13.8299999       3.35383077E-09
   13.8900003       3.27729355E-09
   13.9499998       3.19412696E-09
   14.0100002       3.09870107E-09
   14.0699997       2.97800828E-09
   14.1300001       2.81335488E-09
   14.1899996       2.58462562E-09
   14.2500000       2.27594454E-09
   14.3100004       1.88099447E-09
   14.3699999       1.40626188E-09
   14.4300003       8.71043404E-10
   14.4899998       3.04008818E-10
   14.5500002      -2.62857958E-10
   14.6099997      -8.01332445E-10
   14.6700001      -1.29312661E-09
   14.7299995      -1.73351966E-09
   14.7900000      -2.13152229E-09
   14.8500004      -2.50664245E-09
   14.9099998      -2.88326474E-09
   14.9700003      -3.28428507E-09
   15.0299997      -3.72578546E-09
   15.0900002      -4.21413260E-09
   15.1499996      -4.74609108E-09
   15.2100000      -5.31157474E-09
   15.2700005      -5.89785687E-09
   15.3299999      -6.49366516E-09
   15.3900003      -7.09174541E-09
   15.4499998      -7.68913910E-09
   15.5100002      -8.28531821E-09
   15.5699997      -8.87917828E-09
   15.6300001      -9.46630596E-09
   15.6899996      -1.00378470E-08
   15.7500000      -1.05816484E-08
   15.8100004      -1.10854499E-08
   15.8699999      -1.15410455E-08
   15.9300003      -1.19478845E-08
   15.9899998      -1.23146524E-08
   16.0499992      -1.26580018E-08
   16.1100006      -1.29985036E-08
   16.1700001      -1.33548665E-08
   16.2299995      -1.37380605E-08
   16.2900009      -1.41471803E-08
   16.3500004      -1.45684149E-08
   16.4099998      -1.49776564E-08
   16.4699993      -1.53461759E-08
   16.5300007      -1.56478563E-08
   16.5900002      -1.58659166E-08
   16.6499996      -1.59971538E-08
   16.7099991      -1.60524678E-08
   16.7700005      -1.60535389E-08
   16.8299999      -1.60267781E-08
   16.8899994      -1.59964486E-08
   16.9500008      -1.59790794E-08
   17.0100002      -1.59807776E-08
   17.0699997      -1.59979532E-08
   17.1299992      -1.60208522E-08
   17.1900005      -1.60384310E-08
   17.2500000      -1.60428222E-08
   17.3099995      -1.60319651E-08
   17.3700008      -1.60098139E-08
   17.4300003      -1.59843783E-08
   17.4899998      -1.59645506E-08
   17.5499992      -1.59569726E-08
   17.6100006      -1.59640265E-08
   17.6700001      -1.59835256E-08
   17.7299995      -1.60100804E-08
   17.7900009      -1.60375837E-08
   17.8500004      -1.60618221E-08
   17.9099998      -1.60822999E-08
   17.9699993      -1.61025575E-08
   18.0300007      -1.61288298E-08
   18.0900002      -1.61674887E-08
   18.1499996      -1.62221632E-08
   18.2099991      -1.62916400E-08
   18.2700005      -1.63693787E-08
   18.3299999      -1.64449521E-08
   18.3899994      -1.65070304E-08
   18.4500008      -1.65469185E-08
   18.5100002      -1.65615663E-08
   18.5699997      -1.65550400E-08
   18.6299992      -1.65381326E-08
   18.6900005      -1.65262293E-08
   18.7500000      -1.65361413E-08
   18.8099995      -1.65826499E-08
   18.8700008      -1.66755108E-08
   18.9300003      -1.68173582E-08
   18.9899998      -1.70027850E-08
   19.0499992      -1.72186514E-08
   19.1100006      -1.74456734E-08
   19.1700001      -1.76611135E-08
   19.2299995      -1.78422770E-08
   19.2900009      -1.79701960E-08
   19.3500004      -1.80327131E-08
   19.4099998      -1.80261761E-08
   19.4699993      -1.79552071E-08
   19.5300007      -1.78305495E-08
   19.5900002      -1.76655135E-08
   19.6499996      -1.74720096E-08
   19.7099991      -1.72572499E-08
   19.7700005      -1.70220815E-08
   19.8299999      -1.67613319E-08
   19.8899994      -1.64660605E-08
   19.9500008      -1.61269789E-08
   20.0100002      -1.57380153E-08
   20.0699997      -1.52989355E-08
   20.1299992      -1.48162274E-08
   20.1900005      -1.43020440E-08
   20.2500000      -1.37715217E-08
   20.3099995      -1.32394584E-08
   20.3700008      -1.27173587E-08
   20.4300003      -1.22117605E-08
   20.4899998      -1.17241434E-08
   20.5499992      -1.12521619E-08
   20.6100006      -1.07914468E-08
   20.6700001      -1.03372360E-08
   20.7299995      -9.88532012E-09
   20.7900009      -9.43230738E-09
   20.8500004      -8.97555719E-09
   20.9099998      -8.51314930E-09
   20.9699993      -8.04405786E-09
   21.0300007      -7.56830598E-09
   21.0900002      -7.08673298E-09
   21.1499996      -6.60011601E-09
   21.2099991      -6.10779738E-09
   21.2700005      -5.60641622E-09
   21.3299999      -5.08948128E-09
   21.3899994      -4.54830840E-09
   21.4500008      -3.97428046E-09
   21.5100002      -3.36174000E-09
   21.5699997      -2.71045031E-09
   21.6299992      -2.02662687E-09
   21.6900005      -1.32200484E-09
   21.7500000      -6.11115436E-10
   21.8099995       9.24043411E-11
   21.8700008       7.79305120E-10
   21.9300003       1.44688272E-09
   21.9899998       2.09906847E-09
   22.0499992       2.74435363E-09
   22.1100006       3.39214967E-09
   22.1700001       4.04872447E-09
   22.2299995       4.71408157E-09
   22.2900009       5.38090550E-09
   22.3500004       6.03605299E-09
   22.4099998       6.66416566E-09
   22.4699993       7.25219618E-09
   22.5300007       7.79323184E-09
   22.5900002       8.28825009E-09
   22.6499996       8.74513884E-09
   22.7099991       9.17533072E-09
   22.7700005       9.58919877E-09
   22.8299999       9.99175409E-09
   22.8899994       1.03800222E-08
   22.9500008       1.07429186E-08
   23.0100002       1.10637650E-08
   23.0699997       1.13248664E-08
   23.1299992       1.15130758E-08
   23.1900005       1.16249277E-08
   23.2500000       1.16698313E-08
   23.3099995       1.16700560E-08
   23.3700008       1.16569794E-08
   23.4300003       1.16641088E-08
   23.4899998       1.17185923E-08
   23.5499992       1.18337677E-08
   23.6100006       1.20052759E-08
   23.6700001       1.22123183E-08
   23.7299995       1.24239277E-08
   23.7900009       1.26082957E-08
   23.8500004       1.27420394E-08
   23.9099998       1.28162467E-08
   23.9699993       1.28373037E-08
   24.0300007       1.28224134E-08
   24.0900002       1.27915669E-08
   24.1499996       1.27590036E-08
   24.2099991       1.27272228E-08
   24.2700005       1.26856872E-08
   24.3299999       1.26146356E-08
   24.3899994       1.24926416E-08
   24.4500008       1.23052040E-08
   24.5100002       1.20512658E-08
   24.5699997       1.17451817E-08
   24.6299992       1.14132304E-08
   24.6900005       1.10856462E-08
   24.7500000       1.07868248E-08
   24.8099995       1.05270646E-08
   24.8700008       1.02986926E-08
   24.9300003       1.00778994E-08
   24.9899998       9.83156401E-09
   25.0499992       9.52664791E-09
   25.1100006       9.13904064E-09
   25.1700001       8.65918270E-09
   25.2299995       8.09311818E-09
   25.2900009       7.45933004E-09
   25.3500004       6.78291556E-09
   25.4099998       6.08927042E-09
   25.4699993       5.39915046E-09
   25.5300007       4.72625805E-09
   25.5900002       4.07752010E-09
   25.6499996       3.45540463E-09
   25.7099991       2.86108270E-09
   25.7700005       2.29707298E-09
   25.8299999       1.76826709E-09
   25.8899994       1.28081667E-09
   25.9500008       8.39205538E-10
   26.0100002       4.42574172E-10
   26.0699997       8.17768561E-11
   26.1299992      -2.61512784E-10
   26.1900005      -6.13041562E-10
   26.2500000      -1.00191944E-09
   26.3099995      -1.45542600E-09
   26.3700008      -1.99415173E-09
   26.4300003      -2.62866950E-09
   26.4899998      -3.35828587E-09
   26.5499992      -4.17173496E-09
   26.6100006      -5.04927655E-09
   26.6700001      -5.96557159E-09
   26.7299995      -6.89286273E-09
   26.7900009      -7.80412002E-09
   26.8500004      -8.67585204E-09
   26.9099998      -9.49024948E-09
   26.9699993      -1.02363211E-08
   27.0300007      -1.09099396E-08
   27.0900002      -1.15129462E-08
   27.1499996      -1.20518422E-08
   27.2099991      -1.25365522E-08
   27.2700005      -1.29795739E-08
   27.3299999      -1.33954181E-08
   27.3899994      -1.37999239E-08
   27.4500008      -1.42090135E-08
   27.5100002      -1.46367398E-08
   27.5699997      -1.50929189E-08
   27.6299992      -1.55809783E-08
   27.6900005      -1.60967080E-08
   27.7500000      -1.66283236E-08
   27.8099995      -1.71577987E-08
   27.8700008      -1.76630053E-08
   27.9300003      -1.81200353E-08
   27.9899998      -1.85051476E-08
   28.0499992      -1.87961415E-08
   28.1100006      -1.89732674E-08
   28.1700001      -1.90200122E-08
   28.2299995      -1.89241991E-08
   28.2900009      -1.86794828E-08
   28.3500004      -1.82871265E-08
   28.4099998      -1.77574258E-08
   28.4699993      -1.71099970E-08
   28.5300007      -1.63722529E-08
   28.5900002      -1.55757451E-08
   28.6499996      -1.47508050E-08
   28.7099991      -1.39206335E-08
   28.7700005      -1.30964333E-08
   28.8299999      -1.22752359E-08
   28.8899994      -1.14414478E-08
   28.9500008      -1.05721263E-08
   29.0100002      -9.64478630E-09
   29.0699997      -8.64562733E-09
   29.1299992      -7.57572050E-09
   29.1900005      -6.45315001E-09
   29.2500000      -5.31029043E-09
   29.3099995      -4.18690904E-09
   29.3700008      -3.12118287E-09
   29.4300003      -2.14146945E-09
   29.4899998      -1.26142263E-09
   29.5499992      -4.79891349E-10
   29.6100006       2.14690321E-10
   29.6700001       8.37337255E-10
   29.7299995       1.39977152E-09
   29.7900009       1.90649674E-09
   29.8500004       2.35504882E-09
   29.9099998       2.74002798E-09
   29.9699993       3.05896952E-09
   30.0300007       3.31737149E-09
   30.0900002       3.53054941E-09
   30.1499996       3.72125308E-09
   30.2099991       3.91363875E-09
   30.2700005       4.12560386E-09
   30.3299999       4.36214354E-09
   30.3899994       4.61212535E-09
   30.4500008       4.84973972E-09
   30.5100002       5.04035569E-09
   30.5699997       5.14906562E-09
   30.6299992       5.14930143E-09
   30.6900005       5.02889375E-09
   30.7500000       4.79178164E-09
   30.8099995       4.45503323E-09
   30.8700008       4.04233980E-09
   30.9300003       3.57626440E-09
   30.9899998       3.07176662E-09
   31.0499992       2.53294741E-09
   31.1100006       1.95374517E-09
   31.1700001       1.32197209E-09
   31.2299995       6.25066554E-10
   31.2900009      -1.44476278E-10
   31.3500004      -9.85759141E-10
   31.4099998      -1.88924432E-09
   31.4699993      -2.83963741E-09
   31.5300007      -3.82095600E-09
   31.5900002      -4.82215823E-09
   31.6499996      -5.84147264E-09
   31.7099991      -6.88794000E-09
   31.7700005      -7.97949884E-09
   31.8299999      -9.13814535E-09
   31.8899994      -1.03836673E-08
   31.9500008      -1.17279990E-08
   32.0099983      -1.31719364E-08
   32.0699997      -1.47050550E-08
   32.1300011      -1.63084426E-08
   32.1899986      -1.79590263E-08
   32.2500000      -1.96338572E-08
   32.3100014      -2.13131752E-08
   32.3699989      -2.29816877E-08
   32.4300003      -2.46281324E-08
   32.4900017      -2.62436366E-08
   32.5499992      -2.78193752E-08
   32.6100006      -2.93440792E-08
   32.6699982      -3.08019956E-08
   32.7299995      -3.21720002E-08
   32.7900009      -3.34285026E-08
   32.8499985      -3.45443247E-08
   32.9099998      -3.54950274E-08
   32.9700012      -3.62634154E-08
   33.0299988      -3.68425219E-08
   33.0900002      -3.72359104E-08
   33.1500015      -3.74549245E-08
   33.2099991      -3.75138960E-08
   33.2700005      -3.74248579E-08
   33.3300018      -3.71936615E-08
   33.3899994      -3.68184452E-08
   33.4500008      -3.62907677E-08
   33.5099983      -3.55985534E-08
   33.5699997      -3.47298048E-08
   33.6300011      -3.36758461E-08
   33.6899986      -3.24332596E-08
   33.7500000      -3.10040278E-08
   33.8100014      -2.93940676E-08
   33.8699989      -2.76105858E-08
   33.9300003      -2.56594372E-08
   33.9900017      -2.35435991E-08
   34.0499992      -2.12637055E-08
   34.1100006      -1.88207618E-08
   34.1699982      -1.62202163E-08
   34.2299995      -1.34757556E-08
   34.2900009      -1.06112719E-08
   34.3499985      -7.65999175E-09
   34.4099998      -4.66107997E-09
   34.4700012      -1.65494218E-09
   34.5299988       1.32110756E-09
   34.5900002       4.23554036E-09
   34.6500015       7.06326064E-09
   34.7099991       9.78462555E-09
   34.7700005       1.23836932E-08
   34.8300018       1.48464903E-08
   34.8899994       1.71597794E-08
   34.9500008       1.93105016E-08
   35.0099983       2.12859170E-08
   35.0699997       2.30744384E-08
   35.1300011       2.46669316E-08
   35.1899986       2.60580197E-08
   35.2500000       2.72467044E-08
   35.3100014       2.82356680E-08
   35.3699989       2.90291808E-08
   35.4300003       2.96302041E-08
   35.4900017       3.00378957E-08
   35.5499992       3.02466425E-08
   35.6100006       3.02471292E-08
   35.6699982       3.00290139E-08
   35.7299995       2.95839744E-08
   35.7900009       2.89080546E-08
   35.8499985       2.80025994E-08
   35.9099998       2.68741207E-08
   35.9700012       2.55338453E-08
   36.0299988       2.39976981E-08
   36.0900002       2.22868142E-08
   36.1500015       2.04280060E-08
   36.2099991       1.84532905E-08
   36.2700005       1.63978946E-08
   36.3300018       1.42968481E-08
   36.3899994       1.21810642E-08
   36.4500008       1.00741335E-08
   36.5099983       7.99094479E-09
   36.5699997       5.93863181E-09
   36.6300011       3.91959665E-09
   36.6899986       1.93568561E-09
   36.7500000      -7.81757038E-12
   36.8100014      -1.89974303E-09
   36.8699989      -3.72312181E-09
   36.9300003      -5.45802337E-09
   36.9900017      -7.08635461E-09
   37.0499992      -8.59692850E-09
   37.1100006      -9.98872185E-09
   37.1699982      -1.12706777E-08
   37.2299995      -1.24576527E-08
   37.2900009      -1.35636853E-08
   37.3499985      -1.45950789E-08
   37.4099998      -1.55460960E-08
   37.4700012      -1.63992446E-08
   37.5299988      -1.71303842E-08
   37.5900002      -1.77170083E-08
   37.6500015      -1.81466611E-08
   37.7099991      -1.84223694E-08
   37.7700005      -1.85628846E-08
   37.8300018      -1.85974134E-08
   37.8899994      -1.85564506E-08
   37.9500008      -1.84618774E-08
   38.0099983      -1.83197830E-08
   38.0699997      -1.81188167E-08
   38.1300011      -1.78349104E-08
   38.1899986      -1.74411152E-08
   38.2500000      -1.69192251E-08
   38.3100014      -1.62691531E-08
   38.3699989      -1.55125957E-08
   38.4300003      -1.46895296E-08
   38.4900017      -1.38486147E-08
   38.5499992      -1.30347662E-08
   38.6100006      -1.22781705E-08
   38.6699982      -1.15884076E-08
   38.7299995      -1.09554907E-08
   38.7900009      -1.03572280E-08
   38.8499985      -9.77023618E-09
   38.9099998      -9.18077792E-09
   38.9700012      -8.59178240E-09
   39.0299988      -8.02363953E-09
   39.0900002      -7.50845697E-09
   39.1500015      -7.07964398E-09
   39.2099991      -6.76048328E-09
   39.2700005      -6.55592292E-09
   39.3300018      -6.45101172E-09
   39.3899994      -6.41709530E-09
   39.4500008      -6.42397335E-09
   39.5099983      -6.45364828E-09
   39.5699997      -6.51028031E-09
   39.6300011      -6.62210864E-09
   39.6899986      -6.83398627E-09
   39.7500000      -7.19282323E-09
   39.8100014      -7.73101405E-09
   39.8699989      -8.45381631E-09
   39.9300003      -9.33519928E-09
   39.9900017      -1.03237028E-08
   40.0499992      -1.13562901E-08
   40.1100006      -1.23756081E-08
   40.1699982      -1.33449927E-08
   40.2299995      -1.42564627E-08
   40.2900009      -1.51291815E-08
   40.3499985      -1.59989639E-08
   40.4099998      -1.69022432E-08
   40.4700012      -1.78597972E-08
   40.5299988      -1.88658298E-08
   40.5900002      -1.98863024E-08
   40.6500015      -2.08672777E-08
   40.7099991      -2.17505285E-08
   40.7700005      -2.24908376E-08
   40.8300018      -2.30687434E-08
   40.8899994      -2.34941897E-08
   40.9500008      -2.37998581E-08
   41.0099983      -2.40269245E-08
   41.0699997      -2.42085605E-08
   41.1300011      -2.43570639E-08
   41.1899986      -2.44589931E-08
   41.2500000      -2.44795579E-08
   41.3100014      -2.43745131E-08
   41.3699989      -2.41054519E-08
   41.4300003      -2.36535662E-08
   41.4900017      -2.30275941E-08
   41.5499992      -2.22634853E-08
   41.6100006      -2.14157598E-08
   41.6699982      -2.05431423E-08
   41.7299995      -1.96929122E-08
   41.7900009      -1.88890699E-08
   41.8499985      -1.81282704E-08
   41.9099998      -1.73849575E-08
   41.9700012      -1.66237530E-08
   42.0299988      -1.58145905E-08
   42.0900002      -1.49450301E-08
   42.1500015      -1.40255576E-08
   42.2099991      -1.30863356E-08
   42.2700005      -1.21672379E-08
   42.3300018      -1.13051675E-08
   42.3899994      -1.05232134E-08
   42.4500008      -9.82502968E-09
   42.5099983      -9.19574994E-09
   42.5699997      -8.60856986E-09
   42.6300011      -8.03468669E-09
   42.6899986      -7.45354800E-09
   42.7500000      -6.86051838E-09
   42.8100014      -6.26971142E-09
   42.8699989      -5.71097347E-09
   42.9300003      -5.22164800E-09
   42.9900017      -4.83546003E-09
   43.0499992      -4.57208760E-09
   43.1100006      -4.43106796E-09
   43.1699982      -4.39237402E-09
   43.2299995      -4.42359749E-09
   43.2900009      -4.49115189E-09
   43.3499985      -4.57135485E-09
   43.4099998      -4.65734029E-09
   43.4700012      -4.75945061E-09
   43.5299988      -4.89924723E-09
   43.5900002      -5.09952702E-09
   43.6500015      -5.37389155E-09
   43.7099991      -5.71927972E-09
   43.7700005      -6.11376194E-09
   43.8300018      -6.52027898E-09
   43.8899994      -6.89545443E-09
   43.9500008      -7.20127202E-09
   44.0099983      -7.41652295E-09
   44.0699997      -7.54462004E-09
   44.1300011      -7.61494245E-09
   44.1899986      -7.67642927E-09
   44.2500000      -7.78444331E-09
   44.3100014      -7.98434474E-09
   44.3699989      -8.29670910E-09
   44.4300003      -8.70907435E-09
   44.4900017      -9.17720566E-09
   44.5499992      -9.63582902E-09
   44.6100006      -1.00156390E-08
   44.6699982      -1.02613189E-08
   44.7299995      -1.03450306E-08
   44.7900009      -1.02713562E-08
   44.8499985      -1.00723634E-08
   44.9099998      -9.79453940E-09
   44.9700012      -9.48174428E-09
   45.0299988      -9.15954246E-09
   45.0900002      -8.82590179E-09
   45.1500015      -8.45134540E-09
   45.2099991      -7.98869682E-09
   45.2700005      -7.38934247E-09
   45.3300018      -6.62056898E-09
   45.3899994      -5.67785730E-09
   45.4500008      -4.58754856E-09
   45.5099983      -3.39861006E-09
   45.5699997      -2.16620855E-09
   45.6300011      -9.32878552E-10
   45.6899986       2.85927337E-10
   45.7500000       1.50668034E-09
   45.8100014       2.77126988E-09
   45.8699989       4.13146761E-09
   45.9300003       5.62979174E-09
   45.9900017       7.28328020E-09
   46.0499992       9.07552700E-09
   46.1100006       1.09594680E-08
   46.1699982       1.28698963E-08
   46.2299995       1.47416674E-08
   46.2900009       1.65278689E-08
   46.3499985       1.82122637E-08
   46.4099998       1.98121111E-08
   46.4700012       2.13704467E-08
   46.5299988       2.29402701E-08
   46.5900002       2.45658107E-08
   46.6500015       2.62672373E-08
   46.7099991       2.80340640E-08
   46.7700005       2.98297209E-08
   46.8300018       3.16057047E-08
   46.8899994       3.33202408E-08
   46.9500008       3.49546987E-08
   47.0099983       3.65216444E-08
   47.0699997       3.80615219E-08
   47.1300011       3.96290289E-08
   47.1899986       4.12740064E-08
   47.2500000       4.30235012E-08
   47.3100014       4.48712925E-08
   47.3699989       4.67782684E-08
   47.4300003       4.86834928E-08
   47.4900017       5.05220541E-08
   47.5499992       5.22437169E-08
   47.6100006       5.38262590E-08
   47.6699982       5.52792550E-08
   47.7299995       5.66373650E-08
   47.7900009       5.79456128E-08
   47.8499985       5.92417457E-08
   47.9099998       6.05417370E-08
   47.9700012       6.18331839E-08
   48.0299988       6.30787298E-08
   48.0900002       6.42279900E-08
   48.1500015       6.52336496E-08
   48.2099991       6.60659865E-08
   48.2700005       6.67207374E-08
   48.3300018       6.72176768E-08
   48.3899994       6.75907259E-08
   48.4500008       6.78730459E-08
   48.5099983       6.80825849E-08
   48.5699997       6.82130761E-08
   48.6300011       6.82335184E-08
   48.6899986       6.80962913E-08
   48.7500000       6.77511096E-08
   48.8100014       6.71600304E-08
   48.8699989       6.63085231E-08
   48.9300003       6.52088232E-08
   48.9900017       6.38947384E-08
   49.0499992       6.24095691E-08
   49.1100006       6.07915638E-08
   49.1699982       5.90617759E-08
   49.2299995       5.72184788E-08
   49.2900009       5.52397097E-08
   49.3499985       5.30929221E-08
   49.4099998       5.07481452E-08
   49.4700012       4.81901665E-08
   49.5299988       4.54258640E-08
   49.5900002       4.24846647E-08
   49.6500015       3.94126047E-08
   49.7099991       3.62624242E-08
   49.7700005       3.30831718E-08
   49.8300018       2.99125702E-08
   49.8899994       2.67740301E-08
   49.9500008       2.36785738E-08
   50.0099983       2.06301234E-08
   50.0699997       1.76318267E-08
   50.1300011       1.46908699E-08
   50.1899986       1.18201866E-08
   50.2500000       9.03675890E-09
   50.3100014       6.35761221E-09
   50.3699989       3.79546217E-09
   50.4300003       1.35604517E-09
   50.4900017      -9.61678626E-10
   50.5499992      -3.16249560E-09
   50.6100006      -5.25040278E-09