 -0.750000000       0.00000000    
 -0.689999998       0.00000000    
 -0.629999995       0.00000000    
 -0.569999993       0.00000000    
 -0.509999990       0.00000000    
 -0.449999988       0.00000000    
 -0.389999986       0.00000000    
 -0.330000013       0.00000000    
 -0.270000011       5.42017761E-26
 -0.209999993       4.33079707E-25
 -0.150000006       1.37202702E-24
  -9.00000036E-02   1.33835824E-24
  -2.99999993E-02  -3.22309022E-24
   2.99999993E-02  -7.87057914E-25
   9.00000036E-02   9.25572330E-23
  0.150000006       5.05580576E-22
  0.209999993       1.53093925E-21
  0.270000011       2.97473616E-21
  0.330000013       2.99233617E-21
  0.389999986      -2.96719601E-21
  0.449999988      -2.09911378E-20
  0.509999990      -5.26186713E-20
  0.569999993      -8.36535056E-20
  0.629999995      -7.43796929E-20
  0.689999998       3.44930244E-20
  0.750000000       2.85283530E-19
  0.810000002       6.37395808E-19
  0.870000005       9.05971324E-19
  0.930000007       7.70075217E-19
  0.990000010      -8.97624218E-20
   1.04999995      -1.73292270E-18
   1.11000001      -3.70360359E-18
   1.16999996      -4.99408351E-18
   1.23000002      -4.40095076E-18
   1.28999996      -1.22546322E-18
   1.35000002       4.05129365E-18
   1.40999997       9.67072074E-18
   1.47000003       1.34192320E-17
   1.52999997       1.40673743E-17
   1.59000003       1.23795520E-17
   1.64999998       1.04540310E-17
   1.71000004       9.03891026E-18
   1.76999998       4.29283866E-18
   1.83000004      -1.28797563E-17
   1.88999999      -5.19313882E-17
   1.95000005      -1.12222813E-16
   2.00999999      -1.72096012E-16
   2.06999993      -1.86654218E-16
   2.13000011      -1.02626016E-16
   2.19000006       1.09267727E-16
   2.25000000       4.16971450E-16
   2.30999994       7.08173648E-16
   2.36999989       8.13015734E-16
   2.43000007       5.75219651E-16
   2.49000001      -5.02368227E-17
   2.54999995      -9.21549400E-16
   2.60999990      -1.71167243E-15
   2.67000008      -2.01613810E-15
   2.73000002      -1.54256473E-15
   2.78999996      -3.00138078E-16
   2.84999990       1.31927023E-15
   2.91000009       2.64694048E-15
   2.97000003       3.02362196E-15
   3.02999997       2.15411299E-15
   3.08999991       3.47813777E-16
   3.15000010      -1.52122257E-15
   3.21000004      -2.38621908E-15
   3.26999998      -1.56875902E-15
   3.32999992       7.04714789E-16
   3.39000010       3.16325195E-15
   3.45000005       3.91834519E-15
   3.50999999       1.39003559E-15
   3.56999993      -4.62460889E-15
   3.63000011      -1.22766084E-14
   3.69000006      -1.78704097E-14
   3.75000000      -1.71258847E-14
   3.80999994      -7.19038392E-15
   3.86999989       1.13702891E-14
   3.93000007       3.35900233E-14
   3.99000001       5.09185149E-14
   4.05000019       5.39923466E-14
   4.11000013       3.66360283E-14
   4.17000008      -4.16393853E-16
   4.23000002      -4.78781104E-14
   4.28999996      -8.96660201E-14
   4.34999990      -1.08150278E-13
   4.40999985      -9.13925172E-14
   4.46999979      -3.95628388E-14
   4.53000021       3.25862791E-14
   4.59000015       9.92259592E-14
   4.65000010       1.32663018E-13
   4.71000004       1.15265572E-13
   4.76999998       4.91938643E-14
   4.82999992      -4.09778209E-14
   4.88999987      -1.15342740E-13
   4.94999981      -1.34032813E-13
   5.01000023      -7.53621205E-14
   5.07000017       5.10179938E-14
   5.13000011       2.02691135E-13
   5.19000006       3.17170606E-13
   5.25000000       3.35006410E-13
   5.30999994       2.24389246E-13
   5.36999989      -3.34907086E-15
   5.42999983      -2.94845664E-13
   5.48999977      -5.72969569E-13
   5.55000019      -7.64871727E-13
   5.61000013      -8.27347414E-13
   5.67000008      -7.57535582E-13
   5.73000002      -5.83451581E-13
   5.78999996      -3.38748832E-13
   5.84999990      -3.49060719E-14
   5.90999985       3.52790036E-13
   5.96999979       8.73833883E-13
   6.03000021       1.56540720E-12
   6.09000015       2.40274814E-12
   6.15000010       3.25945434E-12
   6.21000004       3.90056910E-12
   6.26999998       4.02144897E-12
   6.32999992       3.32852561E-12
   6.38999987       1.64065625E-12
   6.44999981      -1.02094169E-12
   6.51000023      -4.38547245E-12
   6.57000017      -7.94706401E-12
   6.63000011      -1.10407759E-11
   6.69000006      -1.29612033E-11
   6.75000000      -1.30936425E-11
   6.80999994      -1.10279390E-11
   6.86999989      -6.63521538E-12
   6.92999983      -1.02366622E-13
   6.98999977       8.06831251E-12
   7.05000019       1.70819157E-11
   7.11000013       2.58867615E-11
   7.17000008       3.32220119E-11
   7.23000002       3.76830615E-11
   7.28999996       3.78121562E-11
   7.34999990       3.22157093E-11
   7.40999985       1.96989508E-11
   7.46999979      -6.01288604E-13
   7.53000021      -2.91084275E-11
   7.59000015      -6.57397123E-11
   7.65000010      -1.09885677E-10
   7.71000004      -1.60424993E-10
   7.76999998      -2.15754872E-10
   7.82999992      -2.73817191E-10
   7.88999987      -3.32111283E-10
   7.94999981      -3.87699539E-10
   8.01000023      -4.37226977E-10
   8.06999969      -4.76981454E-10
   8.13000011      -5.03016406E-10
   8.18999958      -5.11342968E-10
   8.25000000      -4.98181052E-10
   8.31000042      -4.60244731E-10
   8.36999989      -3.95034117E-10
   8.43000031      -3.01112302E-10
   8.48999977      -1.78355164E-10
   8.55000019      -2.81692933E-11
   8.60999966       1.46332932E-10
   8.67000008       3.40230455E-10
   8.72999954       5.46815038E-10
   8.78999996       7.57800045E-10
   8.85000038       9.63765512E-10
   8.90999985       1.15484156E-09
   8.97000027       1.32156042E-09
   9.02999973       1.45574153E-09
   9.09000015       1.55123836E-09
   9.14999962       1.60439761E-09
   9.21000004       1.61416380E-09
   9.27000046       1.58187330E-09
   9.32999992       1.51087720E-09
   9.39000034       1.40616352E-09
   9.44999981       1.27410282E-09
   9.51000023       1.12232157E-09
   9.56999969       9.59578084E-10
   9.63000011       7.95452204E-10
   9.68999958       6.39685083E-10
   9.75000000       5.01153119E-10
   9.81000042       3.86648186E-10
   9.86999989       2.99794328E-10
   9.93000031       2.40467812E-10
   9.98999977       2.04966183E-10
   10.0500002       1.86931401E-10
   10.1099997       1.78759577E-10
   10.1700001       1.73049269E-10
   10.2299995       1.63632954E-10
   10.2900000       1.45917112E-10
   10.3500004       1.16554127E-10
   10.4099998       7.27573557E-11
   10.4700003       1.17195342E-11
   10.5299997      -6.94649546E-11
   10.5900002      -1.73219883E-10
   10.6499996      -3.00424630E-10
   10.7100000      -4.49307702E-10
   10.7700005      -6.14809648E-10
   10.8299999      -7.88777654E-10
   10.8900003      -9.61032365E-10
   10.9499998      -1.12099607E-09
   11.0100002      -1.25934208E-09
   11.0699997      -1.36912193E-09
   11.1300001      -1.44605072E-09
   11.1899996      -1.48798740E-09
   11.2500000      -1.49398072E-09
   11.3100004      -1.46341184E-09
   11.3699999      -1.39568834E-09
   11.4300003      -1.29066002E-09
   11.4899998      -1.14956111E-09
   11.5500002      -9.76004721E-10
   11.6099997      -7.76482822E-10
   11.6700001      -5.59993940E-10
   11.7299995      -3.36775718E-10
   11.7900000      -1.16492913E-10
   11.8500004       9.35156050E-11
   11.9099998       2.89318403E-10
   11.9700003       4.70428363E-10
   12.0299997       6.38819608E-10
   12.0900002       7.97348521E-10
   12.1499996       9.48235157E-10
   12.2100000       1.09223319E-09
   12.2700005       1.22881627E-09
   12.3299999       1.35726486E-09
   12.3900003       1.47811907E-09
   12.4499998       1.59425295E-09
   12.5100002       1.71094250E-09
   12.5699997       1.83470084E-09
   12.6300001       1.97120475E-09
   12.6899996       2.12309770E-09
   12.7500000       2.28861463E-09
   12.8100004       2.46173415E-09
   12.8699999       2.63399191E-09
   12.9300003       2.79741075E-09
   12.9899998       2.94750291E-09
   13.0500002       3.08521253E-09
   13.1099997       3.21705840E-09
   13.1700001       3.35343553E-09
   13.2299995       3.50577745E-09
   13.2900000       3.68370978E-09
   13.3500004       3.89327237E-09
   13.4099998       4.13675716E-09
   13.4700003       4.41396120E-09
   13.5299997       4.72400341E-09
   13.5900002       5.06663955E-09
   13.6499996       5.44226308E-09
   13.7100000       5.85046500E-09
   13.7700005       6.28771968E-09
   13.8299999       6.74526790E-09
   13.8900003       7.20824733E-09
   13.9499998       7.65666730E-09
   14.0100002       8.06808842E-09
   14.0699997       8.42121395E-09
   14.1300001       8.69923511E-09
   14.1899996       8.89190943E-09
   14.2500000       8.99582275E-09
   14.3100004       9.01300901E-09
   14.3699999       8.94864893E-09
   14.4300003       8.80882656E-09
   14.4899998       8.59920490E-09
   14.5500002       8.32497093E-09
   14.6099997       7.99184541E-09
   14.6700001       7.60743735E-09
   14.7299995       7.18210424E-09
   14.7900000       6.72868472E-09
   14.8500004       6.26098418E-09
   14.9099998       5.79149040E-09
   14.9700003       5.32919886E-09
   15.0299997       4.87846386E-09
   15.0900002       4.43942705E-09
   15.1499996       4.00995637E-09
   15.2100000       3.58841046E-09
   15.2700005       3.17618776E-09
   15.3299999       2.77907719E-09
   15.3900003       2.40689579E-09
   15.4499998       2.07151696E-09
   15.5100002       1.78398196E-09
   15.5699997       1.55167790E-09
   15.6300001       1.37648315E-09
   15.6899996       1.25441213E-09
   15.7500000       1.17677512E-09
   15.8100004       1.13240117E-09
   15.8699999       1.11019327E-09
   15.9300003       1.10123577E-09
   15.9899998       1.09987752E-09
   16.0499992       1.10356857E-09
   16.1100006       1.11165988E-09
   16.1700001       1.12373066E-09
   16.2299995       1.13817544E-09
   16.2900009       1.15166710E-09
   16.3500004       1.15973708E-09
   16.4099998       1.15821963E-09
   16.4699993       1.14490561E-09
   16.5300007       1.12064369E-09
   16.5900002       1.08938791E-09
   16.6499996       1.05719666E-09
   16.7099991       1.03068454E-09
   16.7700005       1.01565323E-09
   16.8299999       1.01645270E-09
   16.8899994       1.03616449E-09
   16.9500008       1.07721609E-09
   17.0100002       1.14181808E-09
   17.0699997       1.23178445E-09
   17.1299992       1.34773703E-09
   17.1900005       1.48813195E-09
   17.2500000       1.64870451E-09
   17.3099995       1.82271209E-09
   17.3700008       2.00190353E-09
   17.4300003       2.17773755E-09
   17.4899998       2.34226660E-09
   17.5499992       2.48834575E-09
   17.6100006       2.60926192E-09
   17.6700001       2.69823941E-09
   17.7299995       2.74832446E-09
   17.7900009       2.75291323E-09
   17.8500004       2.70679412E-09
   17.9099998       2.60728750E-09
   17.9699993       2.45504150E-09
   18.0300007       2.25425056E-09
   18.0900002       2.01233941E-09
   18.1499996       1.73933012E-09
   18.2099991       1.44709367E-09
   18.2700005       1.14854415E-09
   18.3299999       8.56725191E-10
   18.3899994       5.83758375E-10
   18.4500008       3.39772710E-10
   18.5100002       1.32094641E-10
   18.5699997      -3.50030248E-11
   18.6299992      -1.59857849E-10
   18.6900005      -2.42434767E-10
   18.7500000      -2.83195994E-10
   18.8099995      -2.82267765E-10
   18.8700008      -2.39171155E-10
   18.9300003      -1.53083116E-10
   18.9899998      -2.33352660E-11
   19.0499992       1.50209012E-10
   19.1100006       3.67118586E-10
   19.1700001       6.26648289E-10
   19.2299995       9.28010280E-10
   19.2900009       1.27033095E-09
   19.3500004       1.65210812E-09
   19.4099998       2.07026307E-09
   19.4699993       2.51914378E-09
   19.5300007       2.98995606E-09
   19.5900002       3.47099860E-09
   19.6499996       3.94879773E-09
   19.7099991       4.40987291E-09
   19.7700005       4.84259477E-09
   19.8299999       5.23851496E-09
   19.8899994       5.59274271E-09
   19.9500008       5.90329030E-09
   20.0100002       6.16971008E-09
   20.0699997       6.39160591E-09
   20.1299992       6.56759358E-09
   20.1900005       6.69503208E-09
   20.2500000       6.77049394E-09
   20.3099995       6.79060186E-09
   20.3700008       6.75278988E-09
   20.4300003       6.65562538E-09
   20.4899998       6.49863940E-09
   20.5499992       6.28184171E-09
   20.6100006       6.00525185E-09
   20.6700001       5.66873259E-09
   20.7299995       5.27225863E-09
   20.7900009       4.81659068E-09
   20.8500004       4.30418057E-09
   20.9099998       3.74006959E-09
   20.9699993       3.13248782E-09
   21.0300007       2.49287924E-09
   21.0900002       1.83513627E-09
   21.1499996       1.17403598E-09
   21.2099991       5.23158905E-10
   21.2700005      -1.07110550E-10
   21.3299999      -7.10768444E-10
   21.3899994      -1.28598077E-09
   21.4500008      -1.83337823E-09
   21.5100002      -2.35337860E-09
   21.5699997      -2.84354074E-09
   21.6299992      -3.29704686E-09
   21.6900005      -3.70301345E-09
   21.7500000      -4.04861167E-09
   21.8099995      -4.32225278E-09
   21.8700008      -4.51667859E-09
   21.9300003      -4.63087613E-09
   21.9899998      -4.67026107E-09
   22.0499992      -4.64524152E-09
   22.1100006      -4.56888349E-09
   22.1700001      -4.45461357E-09
   22.2299995      -4.31477787E-09
   22.2900009      -4.16041779E-09
   22.3500004      -4.00212397E-09
   22.4099998      -3.85137877E-09
   22.4699993      -3.72159414E-09
   22.5300007      -3.62815800E-09
   22.5900002      -3.58715724E-09
   22.6499996      -3.61295549E-09
   22.7099991      -3.71532005E-09
   22.7700005      -3.89705246E-09
   22.8299999      -4.15298640E-09
   22.8899994      -4.47078330E-09
   22.9500008      -4.83330576E-09
   23.0100002      -5.22177457E-09
   23.0699997      -5.61868951E-09
   23.1299992      -6.00968697E-09
   23.1900005      -6.38404041E-09
   23.2500000      -6.73409550E-09
   23.3099995      -7.05432157E-09
   23.3700008      -7.34063432E-09
   23.4300003      -7.59035412E-09
   23.4899998      -7.80267140E-09
   23.5499992      -7.97922883E-09
   23.6100006      -8.12433232E-09
   23.6700001      -8.24454638E-09
   23.7299995      -8.34774827E-09
   23.7900009      -8.44193426E-09
   23.8500004      -8.53414850E-09
   23.9099998      -8.62982752E-09
   23.9699993      -8.73266526E-09
   24.0300007      -8.84489815E-09
   24.0900002      -8.96783448E-09
   24.1499996      -9.10240505E-09
   24.2099991      -9.24952737E-09
   24.2700005      -9.41011802E-09
   24.3299999      -9.58474899E-09
   24.3899994      -9.77305969E-09
   24.4500008      -9.97319116E-09
   24.5100002      -1.01815445E-08
   24.5699997      -1.03930935E-08
   24.6299992      -1.06022346E-08
   24.6900005      -1.08038885E-08
   24.7500000      -1.09944054E-08
   24.8099995      -1.11718386E-08
   24.8700008      -1.13354268E-08
   24.9300003      -1.14844809E-08
   24.9899998      -1.16171703E-08
   25.0499992      -1.17297860E-08
   25.1100006      -1.18168542E-08
   25.1700001      -1.18721051E-08
   25.2299995      -1.18899157E-08
   25.2900009      -1.18666810E-08
   25.3500004      -1.18016033E-08
   25.4099998      -1.16967147E-08
   25.4699993      -1.15563079E-08
   25.5300007      -1.13861773E-08
   25.5900002      -1.11930962E-08
   25.6499996      -1.09847216E-08
   25.7099991      -1.07697824E-08
   25.7700005      -1.05581703E-08
   25.8299999      -1.03604698E-08
   25.8899994      -1.01867252E-08
   25.9500008      -1.00446345E-08
   26.0100002      -9.93768268E-09
   26.0699997      -9.86396120E-09
   26.1299992      -9.81617099E-09
   26.1900005      -9.78291936E-09
   26.2500000      -9.75090941E-09
   26.3099995      -9.70723413E-09
   26.3700008      -9.64102398E-09
   26.4300003      -9.54401447E-09
   26.4899998      -9.41015799E-09
   26.5499992      -9.23483157E-09
   26.6100006      -9.01437502E-09
   26.6700001      -8.74645156E-09
   26.7299995      -8.43126280E-09
   26.7900009      -8.07310041E-09
   26.8500004      -7.68146169E-09
   26.9099998      -7.27100380E-09
   26.9699993      -6.85999124E-09
   27.0300007      -6.46742748E-09
   27.0900002      -6.10955109E-09
   27.1499996      -5.79659920E-09
   27.2099991      -5.53073232E-09
   27.2700005      -5.30567856E-09
   27.3299999      -5.10819609E-09
   27.3899994      -4.92091434E-09
   27.4500008      -4.72572736E-09
   27.5100002      -4.50673587E-09
   27.5699997      -4.25192059E-09
   27.6299992      -3.95323196E-09
   27.6900005      -3.60543617E-09
   27.7500000      -3.20462101E-09
   27.8099995      -2.74743539E-09
   27.8700008      -2.23176877E-09
   27.9300003      -1.65881864E-09
   27.9899998      -1.03566011E-09
   28.0499992      -3.76963322E-10
   28.1100006       2.95294567E-10
   28.1700001       9.54475055E-10
   28.2299995       1.57357050E-09
   28.2900009       2.12965334E-09
   28.3500004       2.60690647E-09
   28.4099998       2.99731706E-09
   28.4699993       3.29919292E-09
   28.5300007       3.51460328E-09
   28.5900002       3.64719077E-09
   28.6499996       3.70139164E-09
   28.7099991       3.68320729E-09
   28.7700005       3.60176555E-09
   28.8299999       3.47048101E-09
   28.8899994       3.30684347E-09
   28.9500008       3.13059179E-09
   29.0100002       2.96083469E-09
   29.0699997       2.81318768E-09
   29.1299992       2.69795097E-09
   29.1900005       2.61984079E-09
   29.2500000       2.57910471E-09
   29.3099995       2.57329380E-09
   29.3700008       2.59880051E-09
   29.4300003       2.65151123E-09
   29.4899998       2.72641554E-09
   29.5499992       2.81653811E-09
   29.6100006       2.91186253E-09
   29.6700001       2.99893355E-09
   29.7299995       3.06151215E-09
   29.7900009       3.08222092E-09
   29.8500004       3.04471048E-09
   29.9099998       2.93566771E-09
   29.9699993       2.74605783E-09
   30.0300007       2.47130250E-09
   30.0900002       2.11048623E-09
   30.1499996       1.66500658E-09
   30.2099991       1.13722753E-09
   30.2700005       5.29627175E-10
   30.3299999      -1.55293056E-10
   30.3899994      -9.14343989E-10
   30.4500008      -1.74249837E-09
   30.5100002      -2.63170952E-09
   30.5699997      -3.57022656E-09
   30.6299992      -4.54285320E-09
   30.6900005      -5.53233592E-09
   30.7500000      -6.52163834E-09
   30.8099995      -7.49643370E-09
   30.8700008      -8.44688053E-09
   30.9300003      -9.36790734E-09
   30.9899998      -1.02577582E-08
   31.0499992      -1.11153726E-08
   31.1100006      -1.19377548E-08
   31.1700001      -1.27186306E-08
   31.2299995      -1.34490588E-08
   31.2900009      -1.41197596E-08
   31.3500004      -1.47239447E-08
   31.4099998      -1.52592037E-08
   31.4699993      -1.57274034E-08
   31.5300007      -1.61326632E-08
   31.5900002      -1.64784311E-08
   31.6499996      -1.67651102E-08
   31.7099991      -1.69893628E-08
   31.7700005      -1.71452026E-08
   31.8299999      -1.72260819E-08
   31.8899994      -1.72267285E-08
   31.9500008      -1.71438526E-08
   32.0099983      -1.69755303E-08
   32.0699997      -1.67199641E-08
   32.1300011      -1.63744946E-08
   32.1899986      -1.59355356E-08
   32.2500000      -1.53994950E-08
   32.3100014      -1.47641224E-08
   32.3699989      -1.40296539E-08
   32.4300003      -1.31992977E-08
   32.4900017      -1.22790169E-08
   32.5499992      -1.12769030E-08
   32.6100006      -1.02024531E-08
   32.6699982      -9.06593556E-09
   32.7299995      -7.87784593E-09
   32.7900009      -6.64842448E-09
   32.8499985      -5.38726619E-09
   32.9099998      -4.10314405E-09
   32.9700012      -2.80413004E-09
   33.0299988      -1.49795731E-09
   33.0900002      -1.92398111E-10
   33.1500015       1.10458676E-09
   33.2099991       2.38502529E-09
   33.2700005       3.64129016E-09
   33.3300018       4.86633178E-09
   33.3899994       6.05353101E-09
   33.4500008       7.19617477E-09
   33.5099983       8.28682456E-09
   33.5699997       9.31696409E-09
   33.6300011       1.02772235E-08
   33.6899986       1.11581766E-08
   33.7500000       1.19514691E-08
   33.8100014       1.26508990E-08
   33.8699989       1.32531719E-08
   33.9300003       1.37582044E-08
   33.9900017       1.41689300E-08
   34.0499992       1.44906629E-08
   34.1100006       1.47300083E-08
   34.1699982       1.48934038E-08
   34.2299995       1.49855541E-08
   34.2900009       1.50081956E-08
   34.3499985       1.49596531E-08
   34.4099998       1.48354582E-08
   34.4700012       1.46298120E-08
   34.5299988       1.43373109E-08
   34.5900002       1.39541472E-08
   34.6500015       1.34783260E-08
   34.7099991       1.29089832E-08
   34.7700005       1.22454518E-08
   34.8300018       1.14868923E-08
   34.8899994       1.06329674E-08
   34.9500008       9.68538494E-09
   35.0099983       8.64950511E-09
   35.0699997       7.53507479E-09
   35.1300011       6.35557740E-09
   35.1899986       5.12647880E-09
   35.2500000       3.86329368E-09
   35.3100014       2.58051980E-09
   35.3699989       1.29194255E-09
   35.4300003       1.19096070E-11
   35.4900017      -1.24350175E-09
   35.5499992      -2.45654586E-09
   35.6100006      -3.60952335E-09
   35.6699982      -4.68754591E-09
   35.7299995      -5.68100633E-09
   35.7900009      -6.58642696E-09
   35.8499985      -7.40520134E-09
   35.9099998      -8.14089862E-09
   35.9700012      -8.79661943E-09
   36.0299988      -9.37379241E-09
   36.0900002      -9.87291493E-09
   36.1500015      -1.02954951E-08
   36.2099991      -1.06456870E-08
   36.2700005      -1.09302762E-08
   36.3300018      -1.11567031E-08
   36.3899994      -1.13300249E-08
   36.4500008      -1.14504592E-08
   36.5099983      -1.15128191E-08
   36.5699997      -1.15081171E-08
   36.6300011      -1.14264029E-08
   36.6899986      -1.12592931E-08
   36.7500000      -1.10010321E-08
   36.8100014      -1.06479199E-08
   36.8699989      -1.01969668E-08
   36.9300003      -9.64497282E-09
   36.9900017      -8.98881858E-09
   37.0499992      -8.22682633E-09
   37.1100006      -7.36034700E-09
   37.1699982      -6.39466524E-09
   37.2299995      -5.33885158E-09
   37.2900009      -4.20491109E-09
   37.3499985      -3.00695335E-09
   37.4099998      -1.76085824E-09
   37.4700012      -4.84323248E-10
   37.5299988       8.03330069E-10
   37.5900002       2.08216466E-09
   37.6500015       3.33349548E-09
   37.7099991       4.54196769E-09
   37.7700005       5.69688607E-09
   37.8300018       6.79213219E-09
   37.8899994       7.82474707E-09
   37.9500008       8.79293083E-09
   38.0099983       9.69445146E-09
   38.0699997       1.05260929E-08
   38.1300011       1.12840830E-08
   38.1899986       1.19650050E-08
   38.2500000       1.25665167E-08
   38.3100014       1.30875870E-08
   38.3699989       1.35282736E-08
   38.4300003       1.38892986E-08
   38.4900017       1.41715564E-08
   38.5499992       1.43755239E-08
   38.6100006       1.45005439E-08
   38.6699982       1.45441383E-08
   38.7299995       1.45018282E-08
   38.7900009       1.43679291E-08
   38.8499985       1.41373917E-08
   38.9099998       1.38081608E-08
   38.9700012       1.33829889E-08
   39.0299988       1.28697302E-08
   39.0900002       1.22797923E-08
   39.1500015       1.16253824E-08
   39.2099991       1.09168523E-08
   39.2700005       1.01614148E-08
   39.3300018       9.36381017E-09
   39.3899994       8.52848370E-09
   39.4500008       7.66209940E-09
   39.5099983       6.77509959E-09
   39.5699997       5.88157789E-09
   39.6300011       4.99751440E-09
   39.6899986       4.13806989E-09
   39.7500000       3.31491679E-09
   39.8100014       2.53442400E-09
   39.8699989       1.79720561E-09
   39.9300003       1.09916465E-09
   39.9900017       4.33829694E-10
   40.0499992      -2.04571332E-10
   40.1100006      -8.18183687E-10
   40.1699982      -1.40376855E-09
   40.2299995      -1.95291494E-09
   40.2900009      -2.45434317E-09
   40.3499985      -2.89752533E-09
   40.4099998      -3.27614025E-09
   40.4700012      -3.58982088E-09
   40.5299988      -3.84336429E-09
   40.5900002      -4.04376488E-09
   40.6500015      -4.19651069E-09
   40.7099991      -4.30293445E-09
   40.7700005      -4.35988268E-09
   40.8300018      -4.36177272E-09
   40.8899994      -4.30392744E-09
   40.9500008      -4.18551904E-09
   41.0099983      -4.01073130E-09
   41.0699997      -3.78773857E-09
   41.1300011      -3.52614737E-09
   41.1899986      -3.23419580E-09
   41.2500000      -2.91697355E-09
   41.3100014      -2.57626742E-09
   41.3699989      -2.21182761E-09
   41.4300003      -1.82326176E-09
   41.4900017      -1.41163670E-09
   41.5499992      -9.80237003E-10
   41.6100006      -5.34457090E-10
   41.6699982      -8.12651474E-11
   41.7299995       3.71216335E-10
   41.7900009       8.13719592E-10
   41.8499985       1.23558985E-09
   41.9099998       1.62481517E-09
   41.9700012       1.96889216E-09
   42.0299988       2.25670171E-09
   42.0900002       2.48093612E-09
   42.1500015       2.64005529E-09
   42.2099991       2.73865797E-09
   42.2700005       2.78565837E-09
   42.3300018       2.79065770E-09
   42.3899994       2.75986678E-09
   42.4500008       2.69338662E-09
   42.5099983       2.58524291E-09
   42.5699997       2.42639553E-09
   42.6300011       2.20957097E-09
   42.6899986       1.93383953E-09
   42.7500000       1.60690228E-09
   42.8100014       1.24404598E-09
   42.8699989       8.64201488E-10
   42.9300003       4.84764506E-10
   42.9900017       1.17259008E-10
   43.0499992      -2.34627318E-10
   43.1100006      -5.74253756E-10
   43.1699982      -9.09263276E-10
   43.2299995      -1.24825117E-09
   43.2900009      -1.59817204E-09
   43.3499985      -1.96315320E-09
   43.4099998      -2.34461783E-09
   43.4700012      -2.74211587E-09
   43.5299988      -3.15418891E-09
   43.5900002      -3.57884766E-09
   43.6500015      -4.01359523E-09
   43.7099991      -4.45518245E-09
   43.7700005      -4.89933027E-09
   43.8300018      -5.34057021E-09
   43.8899994      -5.77224002E-09
   43.9500008      -6.18662943E-09
   44.0099983      -6.57525856E-09
   44.0699997      -6.92931357E-09
   44.1300011      -7.24024041E-09
   44.1899986      -7.50046691E-09
   44.2500000      -7.70415998E-09
   44.3100014      -7.84789034E-09
   44.3699989      -7.93109045E-09
   44.4300003      -7.95619037E-09
   44.4900017      -7.92838772E-09
   44.5499992      -7.85499754E-09
   44.6100006      -7.74447884E-09
   44.6699982      -7.60526309E-09
   44.7299995      -7.44470130E-09
   44.7900009      -7.26843785E-09
   44.8499985      -7.08043579E-09
   44.9099998      -6.88365542E-09
   44.9700012      -6.68109967E-09
   45.0299988      -6.47677023E-09
   45.0900002      -6.27608765E-09
   45.1500015      -6.08557782E-09
   45.2099991      -5.91196780E-09
   45.2700005      -5.76107206E-09
   45.3300018      -5.63690339E-09
   45.3899994      -5.54125412E-09
   45.4500008      -5.47374368E-09
   45.5099983      -5.43216139E-09
   45.5699997      -5.41296474E-09
   45.6300011      -5.41192691E-09
   45.6899986      -5.42503331E-09
   45.7500000      -5.44962253E-09
   45.8100014      -5.48549384E-09
   45.8699989      -5.53543034E-09
   45.9300003      -5.60459856E-09
   45.9900017      -5.69869218E-09
   46.0499992      -5.82134163E-09
   46.1100006      -5.97190075E-09
   46.1699982      -6.14479490E-09
   46.2299995      -6.33105346E-09
   46.2900009      -6.52160326E-09
   46.3499985      -6.71097444E-09
   46.4099998      -6.89965818E-09
   46.4700012      -7.09386416E-09
   46.5299988      -7.30254524E-09
   46.5900002      -7.53282592E-09
   46.6500015      -7.78572140E-09
   46.7099991      -8.05393530E-09
   46.7700005      -8.32268565E-09
   46.8300018      -8.57327986E-09
   46.8899994      -8.78815243E-09
   46.9500008      -8.95563268E-09
   47.0099983      -9.07292019E-09
   47.0699997      -9.14644716E-09
   47.1300011      -9.18964904E-09
   47.1899986      -9.21895804E-09
   47.2500000      -9.24933286E-09
   47.3100014      -9.29072286E-09
   47.3699989      -9.34659994E-09
   47.4300003      -9.41496303E-09
   47.4900017      -9.49136236E-09
   47.5499992      -9.57263424E-09
   47.6100006      -9.65973879E-09
   47.6699982      -9.75832926E-09
   47.7299995      -9.87668347E-09
   47.7900009      -1.00217923E-08
   47.8499985      -1.01952660E-08
   47.9099998      -1.03908766E-08
   47.9700012      -1.05948761E-08
   48.0299988      -1.07889866E-08
   48.0900002      -1.09548619E-08
   48.1500015      -1.10782432E-08
   48.2099991      -1.11513092E-08
   48.2700005      -1.11726193E-08
   48.3300018      -1.11450698E-08
   48.3899994      -1.10730598E-08
   48.4500008      -1.09601519E-08
   48.5099983      -1.08081020E-08
   48.5699997      -1.06174376E-08
   48.6300011      -1.03890745E-08
   48.6899986      -1.01260857E-08
   48.7500000      -9.83475879E-09
   48.8100014      -9.52437240E-09
   48.8699989      -9.20567444E-09
   48.9300003      -8.88851837E-09
   48.9900017      -8.57953797E-09
   49.0499992      -8.28077429E-09
   49.1100006      -7.98991540E-09
   49.1699982      -7.70218556E-09
   49.2299995      -7.41326556E-09
   49.2900009      -7.12203718E-09
   49.3499985      -6.83192969E-09
   49.4099998      -6.55011068E-09
   49.4700012      -6.28465724E-09
   49.5299988      -6.04081141E-09
   49.5900002      -5.81796256E-09
   49.6500015      -5.60883207E-09
   49.7099991      -5.40148060E-09
   49.7700005      -5.18352961E-09
   49.8300018      -4.94697705E-09
   49.8899994      -4.69164130E-09
   49.9500008      -4.42581083E-09
   50.0099983      -4.16387813E-09
   50.0699997      -3.92201782E-09
   50.1300011      -3.71374598E-09
   50.1899986      -3.54713880E-09
   50.2500000      -3.42459261E-09
   50.3100014      -3.34482175E-09
   50.3699989      -3.30585070E-09
   50.4300003      -3.30748318E-09
   50.4900017      -3.35221917E-09
   50.5499992      -3.44442919E-09
   50.6100006      -3.58837715E-09