 -0.750000000       0.00000000    
 -0.689999998       0.00000000    
 -0.629999995       0.00000000    
 -0.569999993       0.00000000    
 -0.509999990       0.00000000    
 -0.449999988       0.00000000    
 -0.389999986       0.00000000    
 -0.330000013       0.00000000    
 -0.270000011       1.01003393E-26
 -0.209999993       1.34401351E-25
 -0.150000006       9.22948524E-25
  -9.00000036E-02   4.26982680E-24
  -2.99999993E-02   1.45607315E-23
   2.99999993E-02   3.74247793E-23
   9.00000036E-02   6.92767297E-23
  0.150000006       6.96157821E-23
  0.209999993      -7.81731559E-23
  0.270000011      -5.71274640E-22
  0.330000013      -1.55682833E-21
  0.389999986      -2.76551298E-21
  0.449999988      -2.97445889E-21
  0.509999990       2.44754736E-22
  0.569999993       9.60049326E-21
  0.629999995       2.51401579E-20
  0.689999998       3.96964558E-20
  0.750000000       3.57013350E-20
  0.810000002      -1.10376275E-20
  0.870000005      -1.15340333E-19
  0.930000007      -2.55617653E-19
  0.990000010      -3.49463362E-19
   1.04999995      -2.57592599E-19
   1.11000001       1.58800686E-19
   1.16999996       9.26207780E-19
   1.23000002       1.83602642E-18
   1.28999996       2.39563024E-18
   1.35000002       1.93857821E-18
   1.40999997      -8.58891745E-20
   1.47000003      -3.73632850E-18
   1.52999997      -8.29834539E-18
   1.59000003      -1.22689563E-17
   1.64999998      -1.36356042E-17
   1.71000004      -1.03047348E-17
   1.76999998      -4.98370322E-19
   1.83000004       1.68474754E-17
   1.88999999       4.12985108E-17
   1.95000005       6.92731139E-17
   2.00999999       9.16524589E-17
   2.06999993       9.21251562E-17
   2.13000011       4.91241225E-17
   2.19000006      -5.57638384E-17
   2.25000000      -2.22646554E-16
   2.30999994      -4.16343666E-16
   2.36999989      -5.57979725E-16
   2.43000007      -5.37364107E-16
   2.49000001      -2.52789519E-16
   2.54999995       3.28543381E-16
   2.60999990       1.11278403E-15
   2.67000008       1.85817874E-15
   2.73000002       2.21930510E-15
   2.78999996       1.86224196E-15
   2.84999990       6.20493615E-16
   2.91000009      -1.37010205E-15
   2.97000003      -3.62805895E-15
   3.02999997      -5.42002068E-15
   3.08999991      -5.98300325E-15
   3.15000010      -4.80499429E-15
   3.21000004      -1.85491724E-15
   3.26999998       2.33983323E-15
   3.32999992       6.81356394E-15
   3.39000010       1.04413209E-14
   3.45000005       1.22652022E-14
   3.50999999       1.17331139E-14
   3.56999993       8.75873741E-15
   3.63000011       3.60677175E-15
   3.69000006      -3.29088224E-15
   3.75000000      -1.14308994E-14
   3.80999994      -2.01286114E-14
   3.86999989      -2.82147030E-14
   3.93000007      -3.37200327E-14
   3.99000001      -3.38492831E-14
   4.05000019      -2.55237014E-14
   4.11000013      -6.57027660E-15
   4.17000008       2.27065613E-14
   4.23000002       5.81795151E-14
   4.28999996       9.15530537E-14
   4.34999990       1.11625986E-13
   4.40999985       1.07247869E-13
   4.46999979       7.13229050E-14
   4.53000021       4.56536783E-15
   4.59000015      -8.25309669E-14
   4.65000010      -1.70677844E-13
   4.71000004      -2.35964948E-13
   4.76999998      -2.56266281E-13
   4.82999992      -2.17966216E-13
   4.88999987      -1.20790978E-13
   4.94999981       2.09255932E-14
   5.01000023       1.81001522E-13
   5.07000017       3.27254743E-13
   5.13000011       4.28506677E-13
   5.19000006       4.60635761E-13
   5.25000000       4.10285927E-13
   5.30999994       2.76073652E-13
   5.36999989       6.82773879E-14
   5.42999983      -1.91585788E-13
   5.48999977      -4.70495225E-13
   5.55000019      -7.23589699E-13
   5.61000013      -8.95886284E-13
   5.67000008      -9.28809655E-13
   5.73000002      -7.73244695E-13
   5.78999996      -4.07992054E-13
   5.84999990       1.41277411E-13
   5.90999985       7.90536636E-13
   5.96999979       1.40177583E-12
   6.03000021       1.80815378E-12
   6.09000015       1.85777153E-12
   6.15000010       1.46539833E-12
   6.21000004       6.55035867E-13
   6.26999998      -4.24693456E-13
   6.32999992      -1.52392118E-12
   6.38999987      -2.35274040E-12
   6.44999981      -2.66486789E-12
   6.51000023      -2.33777299E-12
   6.57000017      -1.42141735E-12
   6.63000011      -1.36359172E-13
   6.69000006       1.18152309E-12
   6.75000000       2.17407299E-12
   6.80999994       2.56294855E-12
   6.86999989       2.22925281E-12
   6.92999983       1.24755067E-12
   6.98999977      -1.33097404E-13
   7.05000019      -1.55176468E-12
   7.11000013      -2.62132178E-12
   7.17000008      -3.01408941E-12
   7.23000002      -2.53010308E-12
   7.28999996      -1.14023829E-12
   7.34999990       9.95304100E-13
   7.40999985       3.52948985E-12
   7.46999979       5.95076679E-12
   7.53000021       7.62917247E-12
   7.59000015       7.89330840E-12
   7.65000010       6.14196888E-12
   7.71000004       1.98334556E-12
   7.76999998      -4.62101191E-12
   7.82999992      -1.32447378E-11
   7.88999987      -2.29603107E-11
   7.94999981      -3.24113479E-11
   8.01000023      -4.00025360E-11
   8.06999969      -4.41818838E-11
   8.13000011      -4.37569495E-11
   8.18999958      -3.81674553E-11
   8.25000000      -2.76407803E-11
   8.31000042      -1.31851335E-11
   8.36999989       3.58040811E-12
   8.43000031       2.07152281E-11
   8.48999977       3.62934023E-11
   8.55000019       4.87119477E-11
   8.60999966       5.69178663E-11
   8.67000008       6.05344386E-11
   8.72999954       5.98950264E-11
   8.78999996       5.60019947E-11
   8.85000038       5.04177186E-11
   8.90999985       4.50764391E-11
   8.97000027       4.19980543E-11
   9.02999973       4.29033961E-11
   9.09000015       4.87743214E-11
   9.14999962       5.94545108E-11
   9.21000004       7.34201033E-11
   9.27000046       8.78378828E-11
   9.32999992       9.89647114E-11
   9.39000034       1.02841839E-10
   9.44999981       9.61367722E-11
   9.51000023       7.69246750E-11
   9.56999969       4.52070117E-11
   9.63000011       3.03772307E-12
   9.68999958      -4.57602775E-11
   9.75000000      -9.61957250E-11
   9.81000042      -1.42865594E-10
   9.86999989      -1.80699497E-10
   9.93000031      -2.05569839E-10
   9.98999977      -2.14716925E-10
   10.0500002      -2.07001000E-10
   10.1099997      -1.83019808E-10
   10.1700001      -1.45118459E-10
   10.2299995      -9.72800590E-11
   10.2900000      -4.48508626E-11
   10.3500004       5.95441968E-12
   10.4099998       4.87863083E-11
   10.4700003       7.80801604E-11
   10.5299997       9.00205535E-11
   10.5900002       8.33400779E-11
   10.6499996       5.97236427E-11
   10.7100000       2.36447043E-11
   10.7700005      -1.84134739E-11
   10.8299999      -5.92282542E-11
   10.8900003      -9.23143159E-11
   10.9499998      -1.13226921E-10
   11.0100002      -1.20331856E-10
   11.0699997      -1.14825732E-10
   11.1300001      -1.00020957E-10
   11.1899996      -8.01490471E-11
   11.2500000      -5.90940491E-11
   11.3100004      -3.94756693E-11
   11.3699999      -2.23515095E-11
   11.4300003      -7.55389414E-12
   11.4899998       5.57465489E-12
   11.5500002       1.74258680E-11
   11.6099997       2.77002414E-11
   11.6700001       3.54773919E-11
   11.7299995       3.96956461E-11
   11.7900000       3.97534089E-11
   11.8500004       3.58916369E-11
   11.9099998       2.91346704E-11
   11.9700003       2.07972216E-11
   12.0299997       1.17936667E-11
   12.0900002       2.09954450E-12
   12.1499996      -9.34197251E-12
   12.2100000      -2.41764733E-11
   12.2700005      -4.38142161E-11
   12.3299999      -6.85624751E-11
   12.3900003      -9.70832165E-11
   12.4499998      -1.26419195E-10
   12.5100002      -1.52610244E-10
   12.5699997      -1.71702430E-10
   12.6300001      -1.80823023E-10
   12.6899996      -1.78992363E-10
   12.7500000      -1.67451067E-10
   12.8100004      -1.49440016E-10
   12.8699999      -1.29518035E-10
   12.9300003      -1.12598667E-10
   12.9899998      -1.02921331E-10
   13.0500002      -1.03160078E-10
   13.1099997      -1.13833616E-10
   13.1700001      -1.33124706E-10
   13.2299995      -1.57148100E-10
   13.2900000      -1.80623586E-10
   13.3500004      -1.97826644E-10
   13.4099998      -2.03624631E-10
   13.4700003      -1.94388630E-10
   13.5299997      -1.68611583E-10
   13.5900002      -1.27149971E-10
   13.6499996      -7.31028710E-11
   13.7100000      -1.14072501E-11
   13.7700005       5.17632499E-11
   13.8299999       1.09746739E-10
   13.8900003       1.56278962E-10
   13.9499998       1.86499968E-10
   14.0100002       1.97982394E-10
   14.0699997       1.91558616E-10
   14.1300001       1.71628337E-10
   14.1899996       1.45655640E-10
   14.2500000       1.22756152E-10
   14.3100004       1.11597787E-10
   14.3699999       1.18161106E-10
   14.4300003       1.44072171E-10
   14.4899998       1.86109933E-10
   14.5500002       2.37104725E-10
   14.6099997       2.87923602E-10
   14.6700001       3.29809152E-10
   14.7299995       3.56205926E-10
   14.7900000       3.63452823E-10
   14.8500004       3.50240337E-10
   14.9099998       3.16289939E-10
   14.9700003       2.61042549E-10
   15.0299997       1.83091084E-10
   15.0900002       8.06825232E-11
   15.1499996      -4.69405972E-11
   15.2100000      -1.98025915E-10
   15.2700005      -3.67395697E-10
   15.3299999      -5.46639289E-10
   15.3900003      -7.25429605E-10
   15.4499998      -8.93494612E-10
   15.5100002      -1.04251652E-09
   15.5699997      -1.16729926E-09
   15.6300001      -1.26588073E-09
   15.6899996      -1.33870426E-09
   15.7500000      -1.38731304E-09
   15.8100004      -1.41314505E-09
   15.8699999      -1.41688150E-09
   15.9300003      -1.39849077E-09
   15.9899998      -1.35777911E-09
   16.0499992      -1.29504230E-09
   16.1100006      -1.21140098E-09
   16.1700001      -1.10860798E-09
   16.2299995      -9.88434112E-10
   16.2900009      -8.52023507E-10
   16.3500004      -6.99701852E-10
   16.4099998      -5.31552580E-10
   16.4699993      -3.48682028E-10
   16.5300007      -1.54670693E-10
   16.5900002       4.35410562E-11
   16.6499996       2.35981124E-10
   16.7099991       4.11382456E-10
   16.7700005       5.59897184E-10
   16.8299999       6.75845158E-10
   16.8899994       7.59416974E-10
   16.9500008       8.16578916E-10
   17.0100002       8.57096671E-10
   17.0699997       8.91310747E-10
   17.1299992       9.26758281E-10
   17.1900005       9.65760694E-10
   17.2500000       1.00470876E-09
   17.3099995       1.03517062E-09
   17.3700008       1.04637055E-09
   17.4300003       1.02823206E-09
   17.4899998       9.74113346E-10
   17.5499992       8.82536821E-10
   17.6100006       7.57533258E-10
   17.6700001       6.07593365E-10
   17.7299995       4.43566711E-10
   17.7900009       2.76123346E-10
   17.8500004       1.13516911E-10
   17.9099998      -3.96908513E-11
   17.9699993      -1.82583934E-10
   18.0300007      -3.16605825E-10
   18.0900002      -4.43546422E-10
   18.1499996      -5.63562308E-10
   18.2099991      -6.73950284E-10
   18.2700005      -7.69090736E-10
   18.3299999      -8.41552661E-10
   18.3899994      -8.83986218E-10
   18.4500008      -8.91243190E-10
   18.5100002      -8.62176941E-10
   18.5699997      -8.00703281E-10
   18.6299992      -7.15862980E-10
   18.6900005      -6.20783425E-10
   18.7500000      -5.30611222E-10
   18.8099995      -4.59727145E-10
   18.8700008      -4.18819479E-10
   18.9300003      -4.12585743E-10
   18.9899998      -4.38794195E-10
   19.0499992      -4.89091434E-10
   19.1100006      -5.51372836E-10
   19.1700001      -6.12956019E-10
   19.2299995      -6.63494815E-10
   19.2900009      -6.96707303E-10
   19.3500004      -7.10519032E-10
   19.4099998      -7.05897063E-10
   19.4699993      -6.85148327E-10
   19.5300007      -6.50554943E-10
   19.5900002      -6.03902928E-10
   19.6499996      -5.46923284E-10
   19.7099991      -4.82190343E-10
   19.7700005      -4.13826584E-10
   19.8299999      -3.47505719E-10
   19.8899994      -2.89611973E-10
   19.9500008      -2.45811316E-10
   20.0100002      -2.19552612E-10
   20.0699997      -2.11060655E-10
   20.1299992      -2.17224447E-10
   20.1900005      -2.32494274E-10
   20.2500000      -2.50565013E-10
   20.3099995      -2.66334760E-10
   20.3700008      -2.77478873E-10
   20.4300003      -2.85046459E-10
   20.4899998      -2.92798813E-10
   20.5499992      -3.05489689E-10
   20.6100006      -3.26756983E-10
   20.6700001      -3.57524982E-10
   20.7299995      -3.95650512E-10
   20.7900009      -4.37007930E-10
   20.8500004      -4.77521411E-10
   20.9099998      -5.15159415E-10
   20.9699993      -5.50874568E-10
   21.0300007      -5.87957072E-10
   21.0900002      -6.30043795E-10
   21.1499996      -6.78703760E-10
   21.2099991      -7.31762095E-10
   21.2700005      -7.83194620E-10
   21.3299999      -8.24713908E-10
   21.3899994      -8.48416892E-10
   21.4500008      -8.49440629E-10
   21.5100002      -8.27628410E-10
   21.5699997      -7.87667820E-10
   21.6299992      -7.37753081E-10
   21.6900005      -6.87296497E-10
   21.7500000      -6.44415799E-10
   21.8099995      -6.13881002E-10
   21.8700008      -5.96014793E-10
   21.9300003      -5.86809767E-10
   21.9899998      -5.79261750E-10
   22.0499992      -5.65626768E-10
   22.1100006      -5.39998490E-10
   22.1700001      -5.00388508E-10
   22.2299995      -4.49527054E-10
   22.2900009      -3.93974492E-10
   22.3500004      -3.41770973E-10
   22.4099998      -2.99493208E-10
   22.4699993      -2.69910788E-10
   22.5300007      -2.51229287E-10
   22.5900002      -2.38224218E-10
   22.6499996      -2.24723781E-10
   22.7099991      -2.06301878E-10
   22.7700005      -1.81997056E-10
   22.8299999      -1.54387184E-10
   22.8899994      -1.28142788E-10
   22.9500008      -1.07846537E-10
   23.0100002      -9.60935706E-11
   23.0699997      -9.26232632E-11
   23.1299992      -9.46801873E-11
   23.1900005      -9.82713286E-11
   23.2500000      -9.97181573E-11
   23.3099995      -9.69379021E-11
   23.3700008      -9.01120706E-11
   23.4300003      -8.16375786E-11
   23.4899998      -7.54111704E-11
   23.5499992      -7.55854060E-11
   23.6100006      -8.50283940E-11
   23.6700001      -1.03851219E-10
   23.7299995      -1.28478436E-10
   23.7900009      -1.51705717E-10
   23.8500004      -1.63939820E-10
   23.9099998      -1.55395100E-10
   23.9699993      -1.18604959E-10
   24.0300007      -5.04076017E-11
   24.0900002       4.72966701E-11
   24.1499996       1.68290326E-10
   24.2099991       3.04027442E-10
   24.2700005       4.46198356E-10
   24.3299999       5.89056415E-10
   24.3899994       7.30821792E-10
   24.4500008       8.73786821E-10
   24.5100002       1.02312070E-09
   24.5699997       1.18471555E-09
   24.6299992       1.36269540E-09
   24.6900005       1.55735613E-09
   24.7500000       1.76426274E-09
   24.8099995       1.97493111E-09
   24.8700008       2.17899054E-09
   24.9300003       2.36712627E-09
   24.9899998       2.53369770E-09
   25.0499992       2.67796851E-09
   25.1100006       2.80340373E-09
   25.1700001       2.91531155E-09
   25.2299995       3.01783909E-09
   25.2900009       3.11160475E-09
   25.3500004       3.19292015E-09
   25.4099998       3.25480798E-09
   25.4699993       3.28923355E-09
   25.5300007       3.28953376E-09
   25.5900002       3.25211080E-09
   25.6499996       3.17694937E-09
   25.7099991       3.06708103E-09
   25.7700005       2.92746716E-09
   25.8299999       2.76381074E-09
   25.8899994       2.58159960E-09
   25.9500008       2.38547249E-09
   26.0100002       2.17889862E-09
   26.0699997       1.96417416E-09
   26.1299992       1.74274306E-09
   26.1900005       1.51576307E-09
   26.2500000       1.28467581E-09
   26.3099995       1.05145037E-09
   26.3700008       8.18284163E-10
   26.4300003       5.86864668E-10
   26.4899998       3.57638946E-10
   26.5499992       1.29662683E-10
   26.6100006      -9.86355511E-11
   26.6700001      -3.27952526E-10
   26.7299995      -5.56548252E-10
   26.7900009      -7.79468212E-10
   26.8500004      -9.89095250E-10
   26.9099998      -1.17694843E-09
   26.9699993      -1.33603995E-09
   27.0300007      -1.46283829E-09
   27.0900002      -1.55810553E-09
   27.1499996      -1.62641400E-09
   27.2099991      -1.67469527E-09
   27.2700005      -1.71045778E-09
   27.3299999      -1.74025305E-09
   27.3899994      -1.76870230E-09
   27.4500008      -1.79813053E-09
   27.5100002      -1.82872328E-09
   27.5699997      -1.85909899E-09
   27.6299992      -1.88718130E-09
   27.6900005      -1.91115967E-09
   27.7500000      -1.93021021E-09
   27.8099995      -1.94462935E-09
   27.8700008      -1.95524064E-09
   27.9300003      -1.96229943E-09
   27.9899998      -1.96447902E-09
   28.0499992      -1.95857885E-09
   28.1100006      -1.94028993E-09
   28.1700001      -1.90578575E-09
   28.2299995      -1.85340154E-09
   28.2900009      -1.78453485E-09
   28.3500004      -1.70324888E-09
   28.4099998      -1.61470526E-09
   28.4699993      -1.52314950E-09
   28.5300007      -1.43037304E-09
   28.5900002      -1.33531031E-09
   28.6499996      -1.23485300E-09
   28.7099991      -1.12540466E-09
   28.7700005      -1.00444542E-09
   28.8299999      -8.71487160E-10
   28.8899994      -7.28166694E-10
   28.9500008      -5.77601689E-10
   29.0100002      -4.23374780E-10
   29.0699997      -2.68550099E-10
   29.1299992      -1.15040637E-10
   29.1900005       3.64929927E-11
   29.2500000       1.86176990E-10
   29.3099995       3.34021311E-10
   29.3700008       4.78880935E-10
   29.4300003       6.17708884E-10
   29.4899998       7.45507656E-10
   29.5499992       8.56168525E-10
   29.6100006       9.44026635E-10
   29.6700001       1.00561925E-09
   29.7299995       1.04099773E-09
   29.7900009       1.05410380E-09
   29.8500004       1.05209041E-09
   29.9099998       1.04386477E-09
   29.9699993       1.03834341E-09
   30.0300007       1.04287479E-09
   30.0900002       1.06209685E-09
   30.1499996       1.09730347E-09
   30.2099991       1.14633991E-09
   30.2700005       1.20408783E-09
   30.3299999       1.26361366E-09
   30.3899994       1.31792510E-09
   30.4500008       1.36197931E-09
   30.5100002       1.39431366E-09
   30.5699997       1.41760503E-09
   30.6299992       1.43776069E-09
   30.6900005       1.46170731E-09
   30.7500000       1.49461921E-09
   30.8099995       1.53761304E-09
   30.8700008       1.58676816E-09
   30.9300003       1.63379266E-09
   30.9899998       1.66801184E-09
   31.0499992       1.67890768E-09
   31.1100006       1.65836112E-09
   31.1700001       1.60201719E-09
   31.2299995       1.50959545E-09
   31.2900009       1.38432399E-09
   31.3500004       1.23182997E-09
   31.4099998       1.05882136E-09
   31.4699993       8.71809958E-10
   31.5300007       6.76057821E-10
   31.5900002       4.74899065E-10
   31.6499996       2.69552158E-10
   31.7099991       5.94527830E-11
   31.7700005      -1.56997540E-10
   31.8299999      -3.81508214E-10
   31.8899994      -6.15097029E-10
   31.9500008      -8.57641791E-10
   32.0099983      -1.10785903E-09
   32.0699997      -1.36360068E-09
   32.1300011      -1.62224434E-09
   32.1899986      -1.88095561E-09
   32.2500000      -2.13671636E-09
   32.3100014      -2.38617615E-09
   32.3699989      -2.62551181E-09
   32.4300003      -2.85050872E-09
   32.4900017      -3.05697756E-09
   32.5499992      -3.24144334E-09
   32.6100006      -3.40187345E-09
   32.6699982      -3.53811980E-09
   32.7299995      -3.65183350E-09
   32.7900009      -3.74580811E-09
   32.8499985      -3.82294596E-09
   32.9099998      -3.88519394E-09
   32.9700012      -3.93280430E-09
   33.0299988      -3.96410149E-09
   33.0900002      -3.97576638E-09
   33.1500015      -3.96349886E-09
   33.2099991      -3.92291533E-09
   33.2700005      -3.85061361E-09
   33.3300018      -3.74534359E-09
   33.3899994      -3.60913566E-09
   33.4500008      -3.44802653E-09
   33.5099983      -3.27190386E-09
   33.5699997      -3.09311909E-09
   33.6300011      -2.92393154E-09
   33.6899986      -2.77344170E-09
   33.7500000      -2.64509192E-09
   33.8100014      -2.53578802E-09
   33.8699989      -2.43713516E-09
   33.9300003      -2.33841124E-09
   33.9900017      -2.23013763E-09
   34.0499992      -2.10686246E-09
   34.1100006      -1.96816896E-09
   34.1699982      -1.81776305E-09
   34.2299995      -1.66133096E-09
   34.2900009      -1.50428314E-09
   34.3499985      -1.35034395E-09
   34.4099998      -1.20136989E-09
   34.4700012      -1.05812303E-09
   34.5299988      -9.21331567E-10
   34.5900002      -7.92371280E-10
   34.6500015      -6.73213763E-10
   34.7099991      -5.65692271E-10
   34.7700005      -4.70445960E-10
   34.8300018      -3.86025600E-10
   34.8899994      -3.08590875E-10
   34.9500008      -2.32450559E-10
   35.0099983      -1.51431243E-10
   35.0699997      -6.07515496E-11
   35.1300011       4.11915224E-11
   35.1899986       1.51816865E-10
   35.2500000       2.64646194E-10
   35.3100014       3.70939474E-10
   35.3699989       4.62171162E-10
   35.4300003       5.32451250E-10
   35.4900017       5.80003379E-10
   35.5499992       6.07242923E-10
   35.6100006       6.19624130E-10
   35.6699982       6.23908258E-10
   35.7299995       6.26592556E-10
   35.7900009       6.32936537E-10
   35.8499985       6.46571185E-10
   35.9099998       6.69395706E-10
   35.9700012       7.01510294E-10
   36.0299988       7.41207040E-10
   36.0900002       7.85270293E-10
   36.1500015       8.29783520E-10
   36.2099991       8.71314187E-10
   36.2700005       9.07981412E-10
   36.3300018       9.39819000E-10
   36.3899994       9.68169434E-10
   36.4500008       9.94416993E-10
   36.5099983       1.01881870E-09
   36.5699997       1.04019826E-09
   36.6300011       1.05677356E-09
   36.6899986       1.06769060E-09
   36.7500000       1.07436482E-09
   36.8100014       1.08079634E-09
   36.8699989       1.09259102E-09
   36.9300003       1.11512855E-09
   36.9900017       1.15175314E-09
   37.0499992       1.20277710E-09
   37.1100006       1.26560007E-09
   37.1699982       1.33568256E-09
   37.2299995       1.40782153E-09
   37.2900009       1.47725365E-09
   37.3499985       1.54041480E-09
   37.4099998       1.59542735E-09
   37.4700012       1.64241010E-09
   37.5299988       1.68353098E-09
   37.5900002       1.72259451E-09
   37.6500015       1.76402670E-09
   37.7099991       1.81143300E-09
   37.7700005       1.86623250E-09
   37.8300018       1.92698724E-09
   37.8899994       1.98978878E-09
   37.9500008       2.04958139E-09
   38.0099983       2.10183582E-09
   38.0699997       2.14383844E-09
   38.1300011       2.17508878E-09
   38.1899986       2.19676988E-09
   38.2500000       2.21067786E-09
   38.3100014       2.21817276E-09
   38.3699989       2.21956942E-09
   38.4300003       2.21409802E-09
   38.4900017       2.20029017E-09
   38.5499992       2.17652940E-09
   38.6100006       2.14156026E-09
   38.6699982       2.09483164E-09
   38.7299995       2.03664463E-09
   38.7900009       1.96808836E-09
   38.8499985       1.89077687E-09
   38.9099998       1.80644899E-09
   38.9700012       1.71656933E-09
   39.0299988       1.62210068E-09
   39.0900002       1.52355228E-09
   39.1500015       1.42126555E-09
   39.2099991       1.31574518E-09
   39.2700005       1.20779842E-09
   39.3300018       1.09834286E-09
   39.3899994       9.87934290E-10
   39.4500008       8.76247908E-10
   39.5099983       7.61791852E-10
   39.5699997       6.42045306E-10
   39.6300011       5.14023490E-10
   39.6899986       3.75106252E-10
   39.7500000       2.23876459E-10
   39.8100014       6.07255704E-11
   39.8699989      -1.11951899E-10
   39.9300003      -2.90058783E-10
   39.9900017      -4.68562023E-10
   40.0499992      -6.42560449E-10
   40.1100006      -8.08351386E-10
   40.1699982      -9.64120783E-10
   40.2299995      -1.10995646E-09
   40.2900009      -1.24712696E-09
   40.3499985      -1.37690226E-09
   40.4099998      -1.49944823E-09
   40.4700012      -1.61333769E-09
   40.5299988      -1.71595027E-09
   40.5900002      -1.80459114E-09
   40.6500015      -1.87778304E-09
   40.7099991      -1.93609262E-09
   40.7700005      -1.98208894E-09
   40.8300018      -2.01946615E-09
   40.8899994      -2.05175854E-09
   40.9500008      -2.08120254E-09
   41.0099983      -2.10815188E-09
   41.0699997      -2.13111306E-09
   41.1300011      -2.14721019E-09
   41.1899986      -2.15278906E-09
   41.2500000      -2.14399454E-09
   41.3100014      -2.11731810E-09
   41.3699989      -2.07019535E-09
   41.4300003      -2.00165862E-09
   41.4900017      -1.91288962E-09
   41.5499992      -1.80742288E-09
   41.6100006      -1.69080783E-09
   41.6699982      -1.56974478E-09
   41.7299995      -1.45094237E-09
   41.7900009      -1.34005518E-09
   41.8499985      -1.24098309E-09
   41.9099998      -1.15561172E-09
   41.9700012      -1.08388176E-09
   42.0299988      -1.02400544E-09
   42.0900002      -9.72737557E-10
   42.1500015      -9.25749533E-10
   42.2099991      -8.78227768E-10
   42.2700005      -8.25737589E-10
   42.3300018      -7.65202735E-10
   42.3899994      -6.95667357E-10
   42.4500008      -6.18485096E-10
   42.5099983      -5.36759859E-10
   42.5699997      -4.54182775E-10
   42.6300011      -3.73703540E-10
   42.6899986      -2.96580538E-10
   42.7500000      -2.22206073E-10
   42.8100014      -1.48765070E-10
   42.8699989      -7.44204212E-11
   42.9300003       1.49913599E-12
   42.9900017       7.78071080E-11
   43.0499992       1.51515925E-10
   43.1100006       2.18559157E-10
   43.1699982       2.74831713E-10
   43.2299995       3.17119331E-10
   43.2900009       3.43608864E-10
   43.3499985       3.53907209E-10
   43.4099998       3.48723689E-10
   43.4700012       3.29478084E-10
   43.5299988       2.98052777E-10
   43.5900002       2.56758892E-10
   43.6500015       2.08430800E-10
   43.7099991       1.56481147E-10
   43.7700005       1.04776222E-10
   43.8300018       5.72854958E-11
   43.8899994       1.75635236E-11
   43.9500008      -1.18235482E-11
   44.0099983      -2.98089331E-11
   44.0699997      -3.71688791E-11
   44.1300011      -3.65922119E-11
   44.1899986      -3.23566104E-11
   44.2500000      -2.95201467E-11
   44.3100014      -3.26573803E-11
   44.3699989      -4.43858388E-11
   44.4300003      -6.41509970E-11
   44.4900017      -8.78259410E-11
   44.5499992      -1.08508563E-10
   44.6100006      -1.18472301E-10
   44.6699982      -1.11704007E-10
   44.7299995      -8.61030691E-11
   44.7900009      -4.44403923E-11
   44.8499985       6.37257261E-12
   44.9099998       5.74575075E-11
   44.9700012       1.00728897E-10
   45.0299988       1.31164773E-10
   45.0900002       1.47792195E-10
   45.1500015       1.53215607E-10
   45.2099991       1.52152971E-10
   45.2700005       1.49778176E-10
   45.3300018       1.50565740E-10
   45.3899994       1.57907826E-10
   45.4500008       1.74306319E-10
   45.5099983       2.01691996E-10
   45.5699997       2.41491521E-10
   45.6300011       2.94348185E-10
   45.6899986       3.59692415E-10
   45.7500000       4.35478820E-10
   45.8100014       5.18315724E-10
   45.8699989       6.04008232E-10
   45.9300003       6.88356316E-10
   45.9900017       7.67978903E-10
   46.0499992       8.40962022E-10
   46.1100006       9.07185327E-10
   46.1699982       9.68227276E-10
   46.2299995       1.02679543E-09
   46.2900009       1.08573817E-09
   46.3499985       1.14686394E-09
   46.4099998       1.20996568E-09
   46.4700012       1.27247468E-09
   46.5299988       1.32997358E-09
   46.5900002       1.37743084E-09
   46.6500015       1.41065859E-09
   46.7099991       1.42737122E-09
   46.7700005       1.42743040E-09
   46.8300018       1.41229528E-09
   46.8899994       1.38410472E-09
   46.9500008       1.34494571E-09
   47.0099983       1.29663680E-09
   47.0699997       1.24095401E-09
   47.1300011       1.17991295E-09
   47.1899986       1.11572673E-09
   47.2500000       1.05035924E-09
   47.3100014       9.84954895E-10
   47.3699989       9.19582854E-10
   47.4300003       8.53548343E-10
   47.4900017       7.86126053E-10
   47.5499992       7.17254034E-10
   47.6100006       6.47710385E-10
   47.6699982       5.78627368E-10
   47.7299995       5.10628595E-10
   47.7900009       4.43131698E-10
   47.8499985       3.74253128E-10
   47.9099998       3.01381448E-10
   47.9700012       2.22103183E-10
   48.0299988       1.35021341E-10
   48.0900002       4.01608920E-11
   48.1500015      -6.10583736E-11
   48.2099991      -1.66116371E-10
   48.2700005      -2.71815154E-10
   48.3300018      -3.74844183E-10
   48.3899994      -4.72569817E-10
   48.4500008      -5.63979696E-10
   48.5099983      -6.50426879E-10
   48.5699997      -7.35645822E-10
   48.6300011      -8.24698365E-10
   48.6899986      -9.22037502E-10
   48.7500000      -1.02946285E-09
   48.8100014      -1.14498244E-09
   48.8699989      -1.26325039E-09
   48.9300003      -1.37746636E-09
   48.9900017      -1.48184653E-09
   49.0499992      -1.57349112E-09
   49.1100006      -1.65284464E-09
   49.1699982      -1.72275094E-09
   49.2299995      -1.78681392E-09
   49.2900009      -1.84797766E-09
   49.3499985      -1.90785610E-09
   49.4099998      -1.96671879E-09
   49.4700012      -2.02364370E-09
   49.5299988      -2.07643147E-09
   49.5900002      -2.12133844E-09
   49.6500015      -2.15307838E-09
   49.7099991      -2.16556617E-09
   49.7700005      -2.15340257E-09
   49.8300018      -2.11353113E-09
   49.8899994      -2.04622430E-09
   49.9500008      -1.95484051E-09
   50.0099983      -1.84447846E-09
   50.0699997      -1.72026537E-09
   50.1300011      -1.58616043E-09
   50.1899986      -1.44472956E-09
   50.2500000      -1.29768207E-09
   50.3100014      -1.14651355E-09
   50.3699989      -9.92677496E-10
   50.4300003      -8.37210135E-10
   50.4900017      -6.80253742E-10
   50.5499992      -5.21068799E-10
   50.6100006      -3.58777563E-10