  -2.400000      0.0000000E+00
  -2.340000      0.0000000E+00
  -2.280000      0.0000000E+00
  -2.220000      0.0000000E+00
  -2.160000      0.0000000E+00
  -2.100000      0.0000000E+00
  -2.040000      0.0000000E+00
  -1.980000      0.0000000E+00
  -1.920000      7.6110989E-26
  -1.860000      8.3402428E-25
  -1.800000      4.5255751E-24
  -1.740000      1.5883097E-23
  -1.680000      3.8839188E-23
  -1.620000      6.2200982E-23
  -1.560000      2.7217970E-23
  -1.500000     -2.2170849E-22
  -1.440000     -9.7243795E-22
  -1.380000     -2.5658743E-21
  -1.320000     -5.0005891E-21
  -1.260000     -7.0060195E-21
  -1.200000     -4.7055773E-21
  -1.140000      9.0903652E-21
  -1.080000      4.2687515E-20
  -1.020000      9.7798624E-20
 -0.9600000      1.5616768E-19
 -0.9000000      1.6661177E-19
 -0.8400000      4.6382731E-20
 -0.7800000     -2.8631060E-19
 -0.7200000     -8.4179746E-19
 -0.6600000     -1.4697207E-18
 -0.6000000     -1.8037199E-18
 -0.5400000     -1.3118009E-18
 -0.4800000      4.9545710E-19
 -0.4200000      3.7156341E-18
 -0.3600000      7.6816789E-18
 -0.3000000      1.0770980E-17
 -0.2400000      1.0622549E-17
 -0.1800000      4.9036148E-18
 -0.1200000     -7.4308579E-18
 -5.9999999E-02 -2.4723218E-17
  0.0000000E+00 -4.1674954E-17
  5.9999999E-02 -4.9700872E-17
  0.1200000     -3.9275389E-17
  0.1800000     -4.3553007E-18
  0.2400000      5.2206515E-17
  0.3000000      1.1475193E-16
  0.3600000      1.5575291E-16
  0.4200000      1.4414107E-16
  0.4800000      6.0492751E-17
  0.5400000     -8.6243353E-17
  0.6000000     -2.4991792E-16
  0.6600000     -3.5582480E-16
  0.7200000     -3.3009332E-16
  0.7800000     -1.4130979E-16
  0.8400000      1.6603231E-16
  0.9000000      4.7037169E-16
  0.9600000      6.1751693E-16
   1.020000      4.9967268E-16
   1.080000      1.3124918E-16
   1.140000     -3.2823562E-16
   1.200000     -6.3678142E-16
   1.260000     -6.0523919E-16
   1.320000     -2.3913072E-16
   1.380000      2.0720790E-16
   1.440000      3.3275128E-16
   1.500000     -1.6404242E-16
   1.560000     -1.2085482E-15
   1.620000     -2.2183439E-15
   1.680000     -2.2615549E-15
   1.740000     -5.1656903E-16
   1.800000      3.1397864E-15
   1.860000      7.7248363E-15
   1.920000      1.1224675E-14
   1.980000      1.1265892E-14
   2.040000      6.1988954E-15
   2.100000     -3.8624580E-15
   2.160000     -1.6580883E-14
   2.220000     -2.7861226E-14
   2.280000     -3.3182692E-14
   2.340000     -2.9304264E-14
   2.400000     -1.5614056E-14
   2.460000      5.4923611E-15
   2.520000      2.9379927E-14
   2.580000      5.0704808E-14
   2.640000      6.4944496E-14
   2.700000      6.9191750E-14
   2.760000      6.1937258E-14
   2.820000      4.2232084E-14
   2.880000      9.1166046E-15
   2.940000     -3.7811236E-14
   3.000000     -9.6433698E-14
   3.060000     -1.5948316E-13
   3.120000     -2.1280910E-13
   3.180000     -2.3627443E-13
   3.240000     -2.0823762E-13
   3.300000     -1.1304481E-13
   3.360000      5.0705506E-14
   3.420000      2.6434426E-13
   3.480000      4.8866559E-13
   3.540000      6.7005462E-13
   3.600000      7.5203298E-13
   3.660000      6.8891995E-13
   3.720000      4.5748258E-13
   3.780000      6.3393016E-14
   3.840000     -4.5837444E-13
   3.900000     -1.0475191E-12
   3.960000     -1.6236552E-12
   4.020000     -2.0903277E-12
   4.080000     -2.3378378E-12
   4.140000     -2.2481264E-12
   4.200000     -1.7069818E-12
   4.260000     -6.2803397E-13
   4.320000      1.0111719E-12
   4.380000      3.1272014E-12
   4.440000      5.4954001E-12
   4.500000      7.7371408E-12
   4.560000      9.3438148E-12
   4.620000      9.7443529E-12
   4.680000      8.4116611E-12
   4.740000      4.9912509E-12
   4.800000     -5.7373789E-13
   4.860000     -7.9499124E-12
   4.920000     -1.6377996E-11
   4.980000     -2.4708438E-11
   5.040000     -3.1508931E-11
   5.100000     -3.5231460E-11
   5.160000     -3.4417171E-11
   5.220000     -2.7913916E-11
   5.280000     -1.5083376E-11
   5.340000      4.0190394E-12
   5.400000      2.8501163E-11
   5.460000      5.6531977E-11
   5.520000      8.5283350E-11
   5.580000      1.1092185E-10
   5.640000      1.2866437E-10
   5.700000      1.3291941E-10
   5.760000      1.1754066E-10
   5.820000      7.6217255E-11
   5.880000      3.0107687E-12
   5.940000     -1.0697582E-10
   6.000000     -2.5684632E-10
   6.060000     -4.4716184E-10
   6.120000     -6.7530737E-10
   6.180000     -9.3509855E-10
   6.240000     -1.2167396E-09
   6.300000     -1.5071996E-09
   6.360000     -1.7910163E-09
   6.420000     -2.0514590E-09
   6.480000     -2.2719244E-09
   6.540000     -2.4373921E-09
   6.600000     -2.5357612E-09
   6.660000     -2.5589160E-09
   6.720000     -2.5034175E-09
   6.780000     -2.3707849E-09
   6.840000     -2.1673847E-09
   6.900000     -1.9039861E-09
   6.960000     -1.5950509E-09
   7.020000     -1.2578238E-09
   7.080000     -9.1126179E-10
   7.140000     -5.7483479E-10
   7.200000     -2.6723049E-10
   7.260000     -5.0148648E-12
   7.320000      1.9865810E-10
   7.380000      3.3515682E-10
   7.440000      4.0114448E-10
   7.500000      3.9886211E-10
   7.560000      3.3581579E-10
   7.620000      2.2384654E-10
   7.680000      7.7671786E-11
   7.740000     -8.6904810E-11
   7.800000     -2.5484032E-10
   7.860000     -4.1345982E-10
   7.920000     -5.5357852E-10
   7.980000     -6.7000305E-10
   8.040000     -7.6142243E-10
   8.100000     -8.2983281E-10
   8.160000     -8.7972257E-10
   8.220000     -9.1724595E-10
   8.280000     -9.4953934E-10
   8.340000     -9.8420883E-10
   8.400000     -1.0289034E-09
   8.460000     -1.0908180E-09
   8.520000     -1.1759991E-09
   8.580000     -1.2884221E-09
   8.640000     -1.4289632E-09
   8.700000     -1.5945206E-09
   8.760000     -1.7776060E-09
   8.820000     -1.9666764E-09
   8.880000     -2.1473343E-09
   8.940000     -2.3042861E-09
   9.000000     -2.4237361E-09
   9.060000     -2.4957063E-09
   9.120000     -2.5157461E-09
   9.180000     -2.4855855E-09
   9.240000     -2.4125286E-09
   9.300000     -2.3076954E-09
   9.360000     -2.1835256E-09
   9.420000     -2.0511683E-09
   9.480000     -1.9184108E-09
   9.540000     -1.7886469E-09
   9.600000     -1.6610709E-09
   9.660000     -1.5319059E-09
   9.720000     -1.3961668E-09
   9.780000     -1.2493236E-09
   9.840000     -1.0883245E-09
   9.900000     -9.1173102E-10
   9.960000     -7.1909445E-10
   10.02000     -5.1002624E-10
   10.08000     -2.8354047E-10
   10.14000     -3.8125371E-11
   10.20000      2.2732112E-10
   10.26000      5.1196103E-10
   10.32000      8.1147411E-10
   10.38000      1.1171859E-09
   10.44000      1.4163880E-09
   10.50000      1.6940066E-09
   10.56000      1.9353394E-09
   10.62000      2.1292166E-09
   10.68000      2.2707689E-09
   10.74000      2.3630460E-09
   10.80000      2.4169837E-09
   10.86000      2.4496061E-09
   10.92000      2.4807540E-09
   10.98000      2.5290006E-09
   11.04000      2.6076366E-09
   11.10000      2.7216807E-09
   11.16000      2.8666995E-09
   11.22000      3.0298510E-09
   11.28000      3.1930125E-09
   11.34000      3.3372733E-09
   11.40000      3.4476111E-09
   11.46000      3.5164269E-09
   11.52000      3.5448928E-09
   11.58000      3.5416980E-09
   11.64000      3.5196277E-09
   11.70000      3.4911301E-09
   11.76000      3.4643921E-09
   11.82000      3.4412562E-09
   11.88000      3.4176291E-09
   11.94000      3.3861045E-09
   12.00000      3.3396743E-09
   12.06000      3.2749783E-09
   12.12000      3.1937215E-09
   12.18000      3.1015857E-09
   12.24000      3.0049572E-09
   12.30000      2.9066842E-09
   12.36000      2.8025304E-09
   12.42000      2.6798466E-09
   12.48000      2.5192552E-09
   12.54000      2.2991034E-09
   12.60000      2.0014583E-09
   12.66000      1.6178220E-09
   12.72000      1.1527383E-09
   12.78000      6.2407540E-10
   12.84000      5.9742954E-11
   12.90000     -5.0833110E-10
   12.96000     -1.0513385E-09
   13.02000     -1.5499158E-09
   13.08000     -1.9979833E-09
   13.14000     -2.4031537E-09
   13.20000     -2.7837332E-09
   13.26000     -3.1632752E-09
   13.32000     -3.5642820E-09
   13.38000     -4.0028194E-09
   13.44000     -4.4854689E-09
   13.50000     -5.0092845E-09
   13.56000     -5.5644689E-09
   13.62000     -6.1386398E-09
   13.68000     -6.7210801E-09
   13.74000     -7.3054482E-09
   13.80000     -7.8900602E-09
   13.86000     -8.4757987E-09
   13.92000     -9.0626653E-09
   13.98000     -9.6465591E-09
   14.04000     -1.0217811E-08
   14.10000     -1.0762354E-08
   14.16000     -1.1265386E-08
   14.22000     -1.1716307E-08
   14.28000     -1.2113143E-08
   14.34000     -1.2464692E-08
   14.40000     -1.2789305E-08
   14.46000     -1.3110357E-08
   14.52000     -1.3449597E-08
   14.58000     -1.3820341E-08
   14.64000     -1.4222678E-08
   14.70000     -1.4642273E-08
   14.76000     -1.5053338E-08
   14.82000     -1.5425035E-08
   14.88000     -1.5729494E-08
   14.94000     -1.5949112E-08
   15.00000     -1.6080945E-08
   15.06000     -1.6136923E-08
   15.12000     -1.6139937E-08
   15.18000     -1.6117104E-08
   15.24000     -1.6092446E-08
   15.30000     -1.6081231E-08
   15.36000     -1.6087615E-08
   15.42000     -1.6106016E-08
   15.48000     -1.6125314E-08
   15.54000     -1.6134210E-08
   15.60000     -1.6125782E-08
   15.66000     -1.6099820E-08
   15.72000     -1.6062483E-08
   15.78000     -1.6023728E-08
   15.84000     -1.5993763E-08
   15.90000     -1.5979838E-08
   15.96000     -1.5984460E-08
   16.02000     -1.6005474E-08
   16.08000     -1.6037758E-08
   16.14000     -1.6075809E-08
   16.20000     -1.6116211E-08
   16.26000     -1.6159138E-08
   16.32000     -1.6208356E-08
   16.38000     -1.6269668E-08
   16.44000     -1.6348389E-08
   16.50000     -1.6446656E-08
   16.56000     -1.6561591E-08
   16.62000     -1.6685068E-08
   16.68000     -1.6805275E-08
   16.74000     -1.6909752E-08
   16.80000     -1.6988912E-08
   16.86000     -1.7039042E-08
   16.92000     -1.7063790E-08
   16.98000     -1.7073729E-08
   17.04000     -1.7084158E-08
   17.10000     -1.7111766E-08
   17.16000     -1.7171010E-08
   17.22000     -1.7270990E-08
   17.28000     -1.7413422E-08
   17.34000     -1.7591937E-08
   17.40000     -1.7792821E-08
   17.46000     -1.7996999E-08
   17.52000     -1.8182995E-08
   17.58000     -1.8330384E-08
   17.64000     -1.8423107E-08
   17.70000     -1.8451912E-08
   17.76000     -1.8415356E-08
   17.82000     -1.8319064E-08
   17.88000     -1.8173393E-08
   17.94000     -1.7990155E-08
   18.00000     -1.7779232E-08
   18.06000     -1.7545974E-08
   18.12000     -1.7290066E-08
   18.18000     -1.7006080E-08
   18.24000     -1.6685513E-08
   18.30000     -1.6319735E-08
   18.36000     -1.5903051E-08
   18.42000     -1.5435049E-08
   18.48000     -1.4921582E-08
   18.54000     -1.4374129E-08
   18.60000     -1.3807714E-08
   18.66000     -1.3237977E-08
   18.72000     -1.2678267E-08
   18.78000     -1.2137547E-08
   18.84000     -1.1619540E-08
   18.90000     -1.1123156E-08
   18.96000     -1.0643776E-08
   19.02000     -1.0174872E-08
   19.08000     -9.7095025E-09
   19.14000     -9.2415462E-09
   19.20000     -8.7666239E-09
   19.26000     -8.2827833E-09
   19.32000     -7.7907840E-09
   19.38000     -7.2937310E-09
   19.44000     -6.7958554E-09
   19.50000     -6.3005450E-09
   19.56000     -5.8081921E-09
   19.62000     -5.3147438E-09
   19.68000     -4.8117421E-09
   19.74000     -4.2881765E-09
   19.80000     -3.7336991E-09
   19.86000     -3.1421183E-09
   19.92000     -2.5138693E-09
   19.98000     -1.8564940E-09
   20.04000     -1.1828708E-09
   20.10000     -5.0777005E-10
   20.16000      1.5614456E-10
   20.22000      8.0157858E-10
   20.28000      1.4281359E-09
   20.34000      2.0416637E-09
   20.40000      2.6516191E-09
   20.46000      3.2672436E-09
   20.52000      3.8937125E-09
   20.58000      4.5295030E-09
   20.64000      5.1659330E-09
   20.70000      5.7891714E-09
   20.76000      6.3841807E-09
   20.82000      6.9392958E-09
   20.88000      7.4498141E-09
   20.94000      7.9192342E-09
   21.00000      8.3576071E-09
   21.06000      8.7775334E-09
   21.12000      9.1891676E-09
   21.18000      9.5959747E-09
   21.24000      9.9926210E-09
   21.30000      1.0365713E-08
   21.36000      1.0697169E-08
   21.42000      1.0969352E-08
   21.48000      1.1170637E-08
   21.54000      1.1300007E-08
   21.60000      1.1369347E-08
   21.66000      1.1402524E-08
   21.72000      1.1431021E-08
   21.78000      1.1486827E-08
   21.84000      1.1594324E-08
   21.90000      1.1763505E-08
   21.96000      1.1986894E-08
   22.02000      1.2241451E-08
   22.08000      1.2495202E-08
   22.14000      1.2716568E-08
   22.20000      1.2883278E-08
   22.26000      1.2987860E-08
   22.32000      1.3037867E-08
   22.38000      1.3050941E-08
   22.44000      1.3046656E-08
   22.50000      1.3038195E-08
   22.56000      1.3026847E-08
   22.62000      1.3001294E-08
   22.68000      1.2941818E-08
   22.74000      1.2827940E-08
   22.80000      1.2646702E-08
   22.86000      1.2398649E-08
   22.92000      1.2099204E-08
   22.98000      1.1774818E-08
   23.04000      1.1454972E-08
   23.10000      1.1162728E-08
   23.16000      1.0906994E-08
   23.22000      1.0679209E-08
   23.28000      1.0455503E-08
   23.34000      1.0203554E-08
   23.40000      9.8916866E-09
   23.46000      9.4972510E-09
   23.52000      9.0117496E-09
   23.58000      8.4415852E-09
   23.64000      7.8048332E-09
   23.70000      7.1256614E-09
   23.76000      6.4284138E-09
   23.82000      5.7331317E-09
   23.88000      5.0534634E-09
   23.94000      4.3970529E-09
   24.00000      3.7677106E-09
   24.06000      3.1682299E-09
   24.12000      2.6025895E-09
   24.18000      2.0765627E-09
   24.24000      1.5963310E-09
   24.30000      1.1654897E-09
   24.36000      7.8154183E-10
   24.42000      4.3332349E-10
   24.48000      1.0058693E-10
   24.54000     -2.4377914E-10
   24.60000     -6.2937944E-10
   24.66000     -1.0830494E-09
   24.72000     -1.6241869E-09
   24.78000     -2.2618081E-09
   24.84000     -2.9937386E-09
   24.90000     -3.8076680E-09
   24.96000     -4.6834185E-09
   25.02000     -5.5957998E-09
   25.08000     -6.5176260E-09
   25.14000     -7.4226603E-09
   25.20000     -8.2882714E-09
   25.26000     -9.0974908E-09
   25.32000     -9.8401314E-09
   25.38000     -1.0512803E-08
   25.44000     -1.1117980E-08
   25.50000     -1.1662590E-08
   25.56000     -1.2156672E-08
   25.62000     -1.2612444E-08
   25.68000     -1.3043710E-08
   25.74000     -1.3465234E-08
   25.80000     -1.3891634E-08
   25.86000     -1.4335622E-08
   25.92000     -1.4805865E-08
   25.98000     -1.5305007E-08
   26.04000     -1.5828499E-08
   26.10000     -1.6364583E-08
   26.16000     -1.6895436E-08
   26.22000     -1.7399040E-08
   26.28000     -1.7851304E-08
   26.34000     -1.8227979E-08
   26.40000     -1.8506189E-08
   26.46000     -1.8665643E-08
   26.52000     -1.8689752E-08
   26.58000     -1.8566880E-08
   26.64000     -1.8291823E-08
   26.70000     -1.7867324E-08
   26.76000     -1.7305142E-08
   26.82000     -1.6626052E-08
   26.88000     -1.5858081E-08
   26.94000     -1.5032773E-08
   27.00000     -1.4179813E-08
   27.06000     -1.3321124E-08
   27.12000     -1.2466098E-08
   27.18000     -1.1609614E-08
   27.24000     -1.0733956E-08
   27.30000     -9.8146344E-09
   27.36000     -8.8287395E-09
   27.42000     -7.7635480E-09
   27.48000     -6.6226997E-09
   27.54000     -5.4279012E-09
   27.60000     -4.2154173E-09
   27.66000     -3.0283063E-09
   27.72000     -1.9067758E-09
   27.78000     -8.7971791E-10
   27.84000      3.9927065E-11
   27.90000      8.5465474E-10
   27.96000      1.5772535E-09
   28.02000      2.2232045E-09
   28.08000      2.8036224E-09
   28.14000      3.3214143E-09
   28.20000      3.7719601E-09
   28.26000      4.1477808E-09
   28.32000      4.4450292E-09
   28.38000      4.6689279E-09
   28.44000      4.8356936E-09
   28.50000      4.9698805E-09
   28.56000      5.0978497E-09
   28.62000      5.2395666E-09
   28.68000      5.4015961E-09
   28.74000      5.5737983E-09
   28.80000      5.7309615E-09
   28.86000      5.8389982E-09
   28.92000      5.8637935E-09
   28.98000      5.7799658E-09
   29.04000      5.5768568E-09
   29.10000      5.2600027E-09
   29.16000      4.8478412E-09
   29.22000      4.3649417E-09
   29.28000      3.8340957E-09
   29.34000      3.2698677E-09
   29.40000      2.6755376E-09
   29.46000      2.0441326E-09
   29.52000      1.3628543E-09
   29.58000      6.1912248E-10
   29.64000     -1.9392203E-10
   29.70000     -1.0743098E-09
   29.76000     -2.0114852E-09
   29.82000     -2.9897320E-09
   29.88000     -3.9935903E-09
   29.94000     -5.0134488E-09
   30.00000     -6.0494552E-09
   30.06000     -7.1124089E-09
   30.12000     -8.2212885E-09
   30.18000     -9.3981587E-09
   30.24000     -1.0662052E-08
   30.30000     -1.2023730E-08
   30.36000     -1.3482834E-08
   30.42000     -1.5028034E-08
   30.48000     -1.6639806E-08
   30.54000     -1.8294653E-08
   30.60000     -1.9969356E-08
   30.66000     -2.1644176E-08
   30.72000     -2.3304359E-08
   30.78000     -2.4939904E-08
   30.84000     -2.6543866E-08
   30.90000     -2.8109696E-08
   30.96000     -2.9628213E-08
   31.02000     -3.1085051E-08
   31.08000     -3.2459429E-08
   31.14000     -3.3725044E-08
   31.20000     -3.4853215E-08
   31.26000     -3.5817639E-08
   31.32000     -3.6599374E-08
   31.38000     -3.7190322E-08
   31.44000     -3.7593782E-08
   31.50000     -3.7821859E-08
   31.56000     -3.7890398E-08
   31.62000     -3.7813269E-08
   31.68000     -3.7597715E-08
   31.74000     -3.7242206E-08
   31.80000     -3.6737184E-08
   31.86000     -3.6068183E-08
   31.92000     -3.5220189E-08
   31.98000     -3.4181838E-08
   32.04000     -3.2948229E-08
   32.10000     -3.1521612E-08
   32.16000     -2.9909785E-08
   32.22000     -2.8122892E-08
   32.28000     -2.6169838E-08
   32.34000     -2.4055824E-08
   32.40000     -2.1782178E-08
   32.46000     -1.9348811E-08
   32.52000     -1.6758513E-08
   32.58000     -1.4021453E-08
   32.64000     -1.1158089E-08
   32.70000     -8.1992901E-09
   32.76000     -5.1836122E-09
   32.82000     -2.1527142E-09
   32.88000      8.5346896E-10
   32.94000      3.8003658E-09
   33.00000      6.6604429E-09
   33.06000      9.4129309E-09
   33.12000      1.2042207E-08
   33.18000      1.4535635E-08
   33.24000      1.6881588E-08
   33.30000      1.9068180E-08
   33.36000      2.1083007E-08
   33.42000      2.2913953E-08
   33.48000      2.4550722E-08
   33.54000      2.5986514E-08
   33.60000      2.7218944E-08
   33.66000      2.8249589E-08
   33.72000      2.9082036E-08
   33.78000      2.9719054E-08
   33.84000      3.0160049E-08
   33.90000      3.0399917E-08
   33.96000      3.0429842E-08
   34.02000      3.0239637E-08
   34.08000      2.9820743E-08
   34.14000      2.9168676E-08
   34.20000      2.8284340E-08
   34.26000      2.7174231E-08
   34.32000      2.5850156E-08
   34.38000      2.4329029E-08
   34.44000      2.2632943E-08
   34.50000      2.0789152E-08
   34.56000      1.8829347E-08
   34.62000      1.6787679E-08
   34.68000      1.4697672E-08
   34.74000      1.2588700E-08
   34.80000      1.0483098E-08
   34.86000      8.3949301E-09
   34.92000      6.3309620E-09
   34.98000      4.2936370E-09
   35.04000      2.2851951E-09
   35.10000      3.1159605E-10
   35.16000     -1.6151361E-09
   35.22000     -3.4771193E-09
   35.28000     -5.2535105E-09
   35.34000     -6.9252550E-09
   35.40000     -8.4800167E-09
   35.46000     -9.9153397E-09
   35.52000     -1.1238572E-08
   35.58000     -1.2463196E-08
   35.64000     -1.3602670E-08
   35.70000     -1.4663949E-08
   35.76000     -1.5643188E-08
   35.82000     -1.6525505E-08
   35.88000     -1.7289178E-08
   35.94000     -1.7913008E-08
   36.00000     -1.8384261E-08
   36.06000     -1.8704256E-08
   36.12000     -1.8889303E-08
   36.18000     -1.8966315E-08
   36.24000     -1.8964377E-08
   36.30000     -1.8905062E-08
   36.36000     -1.8795120E-08
   36.42000     -1.8624357E-08
   36.48000     -1.8369901E-08
   36.54000     -1.8005627E-08
   36.60000     -1.7513511E-08
   36.66000     -1.6892871E-08
   36.72000     -1.6164043E-08
   36.78000     -1.5365089E-08
   36.84000     -1.4542639E-08
   36.90000     -1.3740058E-08
   36.96000     -1.2986963E-08
   37.02000     -1.2293569E-08
   37.08000     -1.1651510E-08
   37.14000     -1.1040640E-08
   37.20000     -1.0439342E-08
   37.26000     -9.8348547E-09
   37.32000     -9.2301145E-09
   37.38000     -8.6447436E-09
   37.44000     -8.1097031E-09
   37.50000     -7.6572828E-09
   37.56000     -7.3099571E-09
   37.62000     -7.0723170E-09
   37.68000     -6.9295187E-09
   37.74000     -6.8534374E-09
   37.80000     -6.8146835E-09
   37.86000     -6.7961179E-09
   37.92000     -6.8025288E-09
   37.98000     -6.8623076E-09
   38.04000     -7.0199340E-09
   38.10000     -7.3216273E-09
   38.16000     -7.7991889E-09
   38.22000     -8.4578264E-09
   38.28000     -9.2722754E-09
   38.34000     -1.0192576E-08
   38.40000     -1.1157558E-08
   38.46000     -1.2111567E-08
   38.52000     -1.3019009E-08
   38.58000     -1.3872099E-08
   38.64000     -1.4689364E-08
   38.70000     -1.5505400E-08
   38.76000     -1.6355219E-08
   38.82000     -1.7258419E-08
   38.88000     -1.8208620E-08
   38.94000     -1.9172044E-08
   39.00000     -2.0095897E-08
   39.06000     -2.0923723E-08
   39.12000     -2.1612200E-08
   39.18000     -2.2143274E-08
   39.24000     -2.2527290E-08
   39.30000     -2.2796181E-08
   39.36000     -2.2989477E-08
   39.42000     -2.3138439E-08
   39.48000     -2.3253937E-08
   39.54000     -2.3322121E-08
   39.60000     -2.3308989E-08
   39.66000     -2.3172015E-08
   39.72000     -2.2874884E-08
   39.78000     -2.2400616E-08
   39.84000     -2.1759023E-08
   39.90000     -2.0986150E-08
   39.96000     -2.0135699E-08
   40.02000     -1.9264975E-08
   40.08000     -1.8419680E-08
   40.14000     -1.7622531E-08
   40.20000     -1.6869540E-08
   40.26000     -1.6135242E-08
   40.32000     -1.5384950E-08
   40.38000     -1.4589504E-08
   40.44000     -1.3737168E-08
   40.50000     -1.2838560E-08
   40.56000     -1.1923303E-08
   40.62000     -1.1030209E-08
   40.68000     -1.0194964E-08
   40.74000     -9.4397059E-09
   40.80000     -8.7677270E-09
   40.86000     -8.1644744E-09
   40.92000     -7.6039912E-09
   40.98000     -7.0585089E-09
   41.04000     -6.5082744E-09
   41.10000     -5.9488547E-09
   41.16000     -5.3937930E-09
   41.22000     -4.8716911E-09
   41.28000     -4.4183448E-09
   41.34000     -4.0661550E-09
   41.40000     -3.8341943E-09
   41.46000     -3.7223638E-09
   41.52000     -3.7118404E-09
   41.58000     -3.7717847E-09
   41.64000     -3.8699177E-09
   41.70000     -3.9831036E-09
   41.76000     -4.1041206E-09
   41.82000     -4.2423229E-09
   41.88000     -4.4181934E-09
   41.94000     -4.6538959E-09
   42.00000     -4.9631215E-09
   42.06000     -5.3435429E-09
   42.12000     -5.7742251E-09
   42.18000     -6.2189067E-09
   42.24000     -6.6344810E-09
   42.30000     -6.9825945E-09
   42.36000     -7.2412591E-09
   42.42000     -7.4129622E-09
   42.48000     -7.5263200E-09
   42.54000     -7.6298896E-09
   42.60000     -7.7791453E-09
   42.66000     -8.0200255E-09
   42.72000     -8.3740197E-09
   42.78000     -8.8296552E-09
   42.84000     -9.3434496E-09
   42.90000     -9.8503188E-09
   42.96000     -1.0280390E-08
   43.02000     -1.0577063E-08
   43.08000     -1.0710798E-08
   43.14000     -1.0684565E-08
   43.20000     -1.0529429E-08
   43.26000     -1.0291845E-08
   43.32000     -1.0016637E-08
   43.38000     -9.7309956E-09
   43.44000     -9.4345909E-09
   43.50000     -9.0990824E-09
   43.56000     -8.6774099E-09
   43.62000     -8.1199838E-09
   43.68000     -7.3923569E-09
   43.74000     -6.4881815E-09
   43.80000     -5.4326033E-09
   43.86000     -4.2745394E-09
   43.92000     -3.0703080E-09
   43.98000     -1.8643438E-09
   44.04000     -6.7392447E-10
   44.10000      5.1653354E-10
   44.16000      1.7495194E-09
   44.22000      3.0788756E-09
   44.28000      4.5500612E-09
   44.34000      6.1829697E-09
   44.40000      7.9630151E-09
   44.46000      9.8433324E-09
   44.52000      1.1757258E-08
   44.58000      1.3637055E-08
   44.64000      1.5432887E-08
   44.70000      1.7126132E-08
   44.76000      1.8732823E-08
   44.82000      2.0296167E-08
   44.88000      2.1870550E-08
   44.94000      2.3502318E-08
   45.00000      2.5213749E-08
   45.06000      2.6995801E-08
   45.12000      2.8812202E-08
   45.18000      3.0613514E-08
   45.24000      3.2356184E-08
   45.30000      3.4019639E-08
   45.36000      3.5615134E-08
   45.42000      3.7182975E-08
   45.48000      3.8778971E-08
   45.54000      4.0454843E-08
   45.60000      4.2239499E-08
   45.66000      4.4127678E-08
   45.72000      4.6079830E-08
   45.78000      4.8033236E-08
   45.84000      4.9920395E-08
   45.90000      5.1688559E-08
   45.96000      5.3313869E-08
   46.02000      5.4805668E-08
   46.08000      5.6199777E-08
   46.14000      5.7543318E-08
   46.20000      5.8876349E-08
   46.26000      6.0216543E-08
   46.32000      6.1552051E-08
   46.38000      6.2844705E-08
   46.44000      6.4042290E-08
   46.50000      6.5095243E-08
   46.56000      6.5972038E-08
   46.62000      6.6667710E-08
   46.68000      6.7202713E-08
   46.74000      6.7612781E-08
   46.80000      6.7933385E-08
   46.86000      6.8184420E-08
   46.92000      6.8360478E-08
   46.98000      6.8429983E-08
   47.04000      6.8343525E-08
   47.10000      6.8048337E-08
   47.16000      6.7504097E-08
   47.22000      6.6694660E-08
   47.28000      6.5631916E-08
   47.34000      6.4350502E-08
   47.40000      6.2895488E-08
   47.46000      6.1307233E-08
   47.52000      5.9608539E-08
   47.58000      5.7798481E-08
   47.64000      5.5854692E-08
   47.70000      5.3743076E-08
   47.76000      5.1431428E-08
   47.82000      4.8902340E-08
   47.88000      4.6161166E-08
   47.94000      4.3236934E-08
   48.00000      4.0176399E-08
   48.06000      3.7033779E-08
   48.12000      3.3859767E-08
   48.18000      3.0693371E-08
   48.24000      2.7558618E-08
   48.30000      2.4466464E-08
   48.36000      2.1420293E-08
   48.42000      1.8422512E-08
   48.48000      1.5479593E-08
   48.54000      1.2603853E-08
   48.60000      9.8117487E-09
   48.66000      7.1198007E-09
   48.72000      4.5402366E-09
   48.78000      2.0783619E-09
   48.84000     -2.6711475E-10
   48.90000     -2.5009339E-09
   48.96000     -4.6266648E-09
   49.02000     -6.6426344E-09
   49.08000     -8.5402228E-09
   49.14000     -1.0305386E-08
   49.20000     -1.1922944E-08
   49.26000     -1.3382033E-08
   49.32000     -1.4680565E-08
   49.38000     -1.5826876E-08
   49.44000     -1.6837697E-08
   49.50000     -1.7732996E-08
   49.56000     -1.8529425E-08
   49.62000     -1.9234744E-08
   49.68000     -1.9845373E-08
   49.74000     -2.0348141E-08
   49.80000     -2.0725782E-08
   49.86000     -2.0964229E-08
   49.92000     -2.1058998E-08
   49.98000     -2.1018179E-08
   50.04000     -2.0860828E-08
   50.10000     -2.0611317E-08
   50.16000     -2.0291832E-08
   50.22000     -1.9915893E-08
   50.28000     -1.9485382E-08
   50.34000     -1.8992182E-08
   50.40000     -1.8423751E-08
   50.46000     -1.7770562E-08
   50.52000     -1.7032686E-08
   50.58000     -1.6223240E-08
   50.64000     -1.5367409E-08
   50.70000     -1.4497220E-08
   50.76000     -1.3643556E-08
   50.82000     -1.2827762E-08
   50.88000     -1.2055499E-08
   50.94000     -1.1314992E-08
   51.00000     -1.0580687E-08
   51.06000     -9.8216599E-09
   51.12000     -9.0124734E-09
   51.18000     -8.1431031E-09
   51.24000     -7.2245547E-09
   51.30000     -6.2880430E-09
   51.36000     -5.3777418E-09
   51.42000     -4.5393915E-09
   51.48000     -3.8085353E-09
   51.54000     -3.2023388E-09
   51.60000     -2.7176592E-09
   51.66000     -2.3358699E-09
   51.72000     -2.0326383E-09
   51.78000     -1.7892471E-09
   51.84000     -1.6016054E-09
   51.90000     -1.4838853E-09
   51.96000     -1.4654842E-09
   52.02000     -1.5821715E-09
   52.08000     -1.8642463E-09
   52.14000     -2.3256628E-09
   52.20000     -2.9579841E-09
   52.26000     -3.7315950E-09
   52.32000     -4.6042108E-09
   52.38000     -5.5341527E-09
   52.44000     -6.4940702E-09
   52.50000     -7.4805042E-09
   52.56000     -8.5161167E-09
   52.62000     -9.6439665E-09
   52.68000     -1.0915961E-08
   52.74000     -1.2379391E-08
   52.80000     -1.4065855E-08
   52.86000     -1.5985623E-08
   52.92000     -1.8128601E-08
   52.98000     -2.0470928E-08
   53.04000     -2.2984864E-08
   53.10000     -2.5648948E-08
   53.16000     -2.8455773E-08
   53.22000     -3.1415393E-08
   53.28000     -3.4553704E-08
   53.34000     -3.7906542E-08
   53.40000     -4.1511417E-08
   53.46000     -4.5399695E-08
   53.52000     -4.9591897E-08
   53.58000     -5.4097651E-08
   53.64000     -5.8920243E-08
   53.70000     -6.4063755E-08
   53.76000     -6.9539844E-08
   53.82000     -7.5371403E-08
   53.88000     -8.1591601E-08
   53.94000     -8.8238671E-08
   54.00000     -9.5348192E-08
   54.06000     -1.0294550E-07
   54.12000     -1.1104037E-07
   54.18000     -1.1962511E-07
   54.24000     -1.2867619E-07
   54.30000     -1.3815807E-07
   54.36000     -1.4802818E-07
   54.42000     -1.5824054E-07
   54.48000     -1.6874741E-07
   54.54000     -1.7949756E-07
   54.60000     -1.9043172E-07
   54.66000     -2.0147630E-07
   54.72000     -2.1253723E-07
   54.78000     -2.2349589E-07
   54.84000     -2.3420782E-07
   54.90000     -2.4450435E-07
   54.96000     -2.5419547E-07
   55.02000     -2.6307254E-07
   55.08000     -2.7090940E-07
   55.14000     -2.7746191E-07
   55.20000     -2.8246620E-07
   55.26000     -2.8563738E-07
   55.32000     -2.8666906E-07
   55.38000     -2.8523456E-07
   55.44000     -2.8098884E-07
   55.50000     -2.7357135E-07
   55.56000     -2.6260878E-07