  -2.400000      0.0000000E+00
  -2.340000      0.0000000E+00
  -2.280000      0.0000000E+00
  -2.220000      0.0000000E+00
  -2.160000      0.0000000E+00
  -2.100000      0.0000000E+00
  -2.040000      0.0000000E+00
  -1.980000      0.0000000E+00
  -1.920000      9.5622969E-27
  -1.860000      1.2719858E-25
  -1.800000      8.7894941E-25
  -1.740000      4.1184882E-24
  -1.680000      1.4318632E-23
  -1.620000      3.7828073E-23
  -1.560000      7.3139264E-23
  -1.500000      8.2502658E-23
  -1.440000     -5.3324725E-23
  -1.380000     -5.5459870E-22
  -1.320000     -1.6294989E-21
  -1.260000     -3.0961746E-21
  -1.200000     -3.7466863E-21
  -1.140000     -8.6751799E-22
  -1.080000      9.1033803E-21
  -1.020000      2.7600910E-20
 -0.9600000      4.8463921E-20
 -0.9000000      5.2559292E-20
 -0.8400000      8.7577448E-21
 -0.7800000     -1.1088518E-19
 -0.7200000     -2.9868137E-19
 -0.6600000     -4.7213293E-19
 -0.6000000     -4.5699526E-19
 -0.5400000     -3.2153363E-20
 -0.4800000      9.3844974E-19
 -0.4200000      2.3103918E-18
 -0.3600000      3.4941519E-18
 -0.3000000      3.4684035E-18
 -0.2400000      1.1006280E-18
 -0.1800000     -4.2151825E-18
 -0.1200000     -1.1790667E-17
 -5.9999999E-02 -1.9116174E-17
  0.0000000E+00 -2.1999960E-17
  5.9999999E-02 -1.5646778E-17
  0.1200000      3.3850911E-18
  0.1800000      3.4804213E-17
  0.2400000      7.2547134E-17
  0.3000000      1.0398043E-16
  0.3600000      1.1121405E-16
  0.4200000      7.5210186E-17
  0.4800000     -1.7086660E-17
  0.5400000     -1.6335971E-16
  0.6000000     -3.3671534E-16
  0.6600000     -4.8115580E-16
  0.7200000     -5.1749377E-16
  0.7800000     -3.6427343E-16
  0.8400000      2.6717299E-17
  0.9000000      6.2906924E-16
  0.9600000      1.3118348E-15
   1.020000      1.8421728E-15
   1.080000      1.9357924E-15
   1.140000      1.3535887E-15
   1.200000      1.9618052E-17
   1.260000     -1.8841611E-15
   1.320000     -3.8956684E-15
   1.380000     -5.3550427E-15
   1.440000     -5.5869145E-15
   1.500000     -4.1348735E-15
   1.560000     -9.6959353E-16
   1.620000      3.4105240E-15
   1.680000      8.0367613E-15
   1.740000      1.1682465E-14
   1.800000      1.3171787E-14
   1.860000      1.1692323E-14
   1.920000      7.0214428E-15
   1.980000     -3.8710269E-16
   2.040000     -9.4562911E-15
   2.100000     -1.8635128E-14
   2.160000     -2.6088942E-14
   2.220000     -2.9901845E-14
   2.280000     -2.8310572E-14
   2.340000     -2.0024348E-14
   2.400000     -4.6718674E-15
   2.460000      1.6664279E-14
   2.520000      4.0993189E-14
   2.580000      6.3322035E-14
   2.640000      7.7220253E-14
   2.700000      7.6192802E-14
   2.760000      5.5707565E-14
   2.820000      1.5348513E-14
   2.880000     -3.9706499E-14
   2.940000     -9.8681093E-14
   3.000000     -1.4709688E-13
   3.060000     -1.7033566E-13
   3.120000     -1.5791369E-13
   3.180000     -1.0706570E-13
   3.240000     -2.4317059E-14
   3.300000      7.5624829E-14
   3.360000      1.7333132E-13
   3.420000      2.4923230E-13
   3.480000      2.8770370E-13
   3.540000      2.7942245E-13
   3.600000      2.2171386E-13
   3.660000      1.1769029E-13
   3.720000     -2.4436418E-14
   3.780000     -1.9080074E-13
   3.840000     -3.6017830E-13
   3.900000     -5.0267294E-13
   3.960000     -5.8123981E-13
   4.020000     -5.5810640E-13
   4.080000     -4.0628828E-13
   4.140000     -1.2359590E-13
   4.200000      2.5601580E-13
   4.260000      6.5983184E-13
   4.320000      9.8695195E-13
   4.380000      1.1323970E-12
   4.440000      1.0196699E-12
   4.500000      6.3200877E-13
   4.560000      3.0729193E-14
   4.620000     -6.4862335E-13
   4.680000     -1.2253018E-12
   4.740000     -1.5220977E-12
   4.800000     -1.4206289E-12
   4.860000     -9.0600541E-13
   4.920000     -8.5237759E-14
   4.980000      8.2929144E-13
   5.040000      1.5696684E-12
   5.100000      1.8836857E-12
   5.160000      1.6086271E-12
   5.220000      7.2735871E-13
   5.280000     -6.0916241E-13
   5.340000     -2.1003407E-12
   5.400000     -3.3527647E-12
   5.460000     -3.9640999E-12
   5.520000     -3.6171530E-12
   5.580000     -2.1654211E-12
   5.640000      3.0696173E-13
   5.700000      3.4637202E-12
   5.760000      6.7403518E-12
   5.820000      9.4136435E-12
   5.880000      1.0709947E-11
   5.940000      9.9387044E-12
   6.000000      6.6322781E-12
   6.060000      6.6958890E-13
   6.120000     -7.6397300E-12
   6.180000     -1.7531494E-11
   6.240000     -2.7837973E-11
   6.300000     -3.7118097E-11
   6.360000     -4.3857289E-11
   6.420000     -4.6711621E-11
   6.480000     -4.4756386E-11
   6.540000     -3.7690247E-11
   6.600000     -2.5947194E-11
   6.660000     -1.0681945E-11
   6.720000      6.3812510E-12
   6.780000      2.3216739E-11
   6.840000      3.7836144E-11
   6.900000      4.8635030E-11
   6.960000      5.4683459E-11
   7.020000      5.5908278E-11
   7.080000      5.3134646E-11
   7.140000      4.7975904E-11
   7.200000      4.2579884E-11
   7.260000      3.9257177E-11
   7.320000      4.0034764E-11
   7.380000      4.6198823E-11
   7.440000      5.7909344E-11
   7.500000      7.3977387E-11
   7.560000      9.1882994E-11
   7.620000      1.0807174E-10
   7.680000      1.1850558E-10
   7.740000      1.1937640E-10
   7.800000      1.0784010E-10
   7.860000      8.2615505E-11
   7.920000      4.4322688E-11
   7.980000     -4.5014439E-12
   8.040000     -5.9697428E-11
   8.100000     -1.1601348E-10
   8.160000     -1.6776720E-10
   8.220000     -2.0953606E-10
   8.280000     -2.3679583E-10
   8.340000     -2.4645289E-10
   8.400000     -2.3723218E-10
   8.460000     -2.0988773E-10
   8.520000     -1.6720168E-10
   8.580000     -1.1374370E-10
   8.640000     -5.5382698E-11
   8.700000      1.4216060E-12
   8.760000      5.0475599E-11
   8.820000      8.6743342E-11
   8.880000      1.0712974E-10
   8.940000      1.1100459E-10
   9.000000      1.0033754E-10
   9.060000      7.9367256E-11
   9.120000      5.3814113E-11
   9.180000      2.9753353E-11
   9.240000      1.2371131E-11
   9.300000      4.8935374E-12
   9.360000      7.9727709E-12
   9.420000      1.9716190E-11
   9.480000      3.6367711E-11
   9.540000      5.3448156E-11
   9.600000      6.7006053E-11
   9.660000      7.4589522E-11
   9.720000      7.5651166E-11
   9.780000      7.1309937E-11
   9.840000      6.3633890E-11
   9.900000      5.4775039E-11
   9.960000      4.6309748E-11
   10.02000      3.9007110E-11
   10.08000      3.3026509E-11
   10.14000      2.8340181E-11
   10.20000      2.5085182E-11
   10.26000      2.3613493E-11
   10.32000      2.4193347E-11
   10.38000      2.6523972E-11
   10.44000      2.9352513E-11
   10.50000      3.0461651E-11
   10.56000      2.7137202E-11
   10.62000      1.7003851E-11
   10.68000     -1.0623680E-12
   10.74000     -2.6292489E-11
   10.80000     -5.5914523E-11
   10.86000     -8.5648287E-11
   10.92000     -1.1067255E-10
   10.98000     -1.2678623E-10
   11.04000     -1.3144207E-10
   11.10000     -1.2438742E-10
   11.16000     -1.0776489E-10
   11.22000     -8.5662720E-11
   11.28000     -6.3223884E-11
   11.34000     -4.5511487E-11
   11.40000     -3.6374924E-11
   11.46000     -3.7566374E-11
   11.52000     -4.8309714E-11
   11.58000     -6.5426560E-11
   11.64000     -8.3990224E-11
   11.70000     -9.8343930E-11
   11.76000     -1.0322988E-10
   11.82000     -9.4766306E-11
   11.88000     -7.1083334E-11
   11.94000     -3.2553793E-11
   12.00000      1.8327492E-11
   12.06000      7.7305405E-11
   12.12000      1.3887831E-10
   12.18000      1.9694582E-10
   12.24000      2.4562752E-10
   12.30000      2.8026911E-10
   12.36000      2.9853311E-10
   12.42000      3.0130723E-10
   12.48000      2.9304933E-10
   12.54000      2.8123043E-10
   12.60000      2.7477556E-10
   12.66000      2.8178138E-10
   12.72000      3.0715153E-10
   12.78000      3.5095371E-10
   12.84000      4.0814377E-10
   12.90000      4.6983539E-10
   12.96000      5.2569959E-10
   13.02000      5.6660743E-10
   13.08000      5.8652205E-10
   13.14000      5.8297395E-10
   13.20000      5.5608407E-10
   13.26000      5.0675864E-10
   13.32000      4.3504012E-10
   13.38000      3.3950120E-10
   13.44000      2.1803502E-10
   13.50000      6.9695021E-11
   13.56000     -1.0330522E-10
   13.62000     -2.9444386E-10
   13.68000     -4.9325227E-10
   13.74000     -6.8718692E-10
   13.80000     -8.6435648E-10
   13.86000     -1.0160878E-09
   13.92000     -1.1383937E-09
   13.98000     -1.2318743E-09
   14.04000     -1.3002108E-09
   14.10000     -1.3479449E-09
   14.16000     -1.3784394E-09
   14.22000     -1.3927627E-09
   14.28000     -1.3897838E-09
   14.34000     -1.3672394E-09
   14.40000     -1.3231451E-09
   14.46000     -1.2568332E-09
   14.52000     -1.1691397E-09
   14.58000     -1.0617266E-09
   14.64000     -9.3599906E-10
   14.70000     -7.9232360E-10
   14.76000     -6.3015432E-10
   14.82000     -4.4921611E-10
   14.88000     -2.5130989E-10
   14.94000     -4.1856706E-11
   15.00000      1.6974820E-10
   15.06000      3.7147430E-10
   15.12000      5.5145216E-10
   15.18000      7.0127237E-10
   15.24000      8.1848489E-10
   15.30000      9.0721136E-10
   15.36000      9.7649433E-10
   15.42000      1.0369027E-09
   15.48000      1.0966080E-09
   15.54000      1.1583378E-09
   15.60000      1.2182465E-09
   15.66000      1.2670122E-09
   15.72000      1.2926663E-09
   15.78000      1.2841360E-09
   15.84000      1.2343450E-09
   15.90000      1.1419915E-09
   15.96000      1.0116222E-09
   16.02000      8.5216723E-10
   16.08000      6.7452671E-10
   16.14000      4.8900967E-10
   16.20000      3.0339212E-10
   16.26000      1.2211374E-10
   16.32000     -5.3256871E-11
   16.38000     -2.2258147E-10
   16.44000     -3.8534234E-10
   16.50000     -5.3916899E-10
   16.56000     -6.7924821E-10
   16.62000     -7.9881862E-10
   16.68000     -8.9055741E-10
   16.74000     -9.4839347E-10
   16.80000     -9.6921038E-10
   16.86000     -9.5401742E-10
   16.92000     -9.0837038E-10
   16.98000     -8.4199253E-10
   17.04000     -7.6764917E-10
   17.10000     -6.9937861E-10
   17.16000     -6.5027800E-10
   17.22000     -6.3019168E-10
   17.28000     -6.4381683E-10
   17.34000     -6.8978473E-10
   17.40000     -7.6109824E-10
   17.46000     -8.4690183E-10
   17.52000     -9.3508234E-10
   17.58000     -1.0148645E-09
   17.64000     -1.0785715E-09
   17.70000     -1.1220845E-09
   17.76000     -1.1441006E-09
   17.82000     -1.1447830E-09
   17.88000     -1.1245856E-09
   17.94000     -1.0838358E-09
   18.00000     -1.0231975E-09
   18.06000     -9.4465458E-10
   18.12000     -8.5238333E-10
   18.18000     -7.5293283E-10
   18.24000     -6.5445144E-10
   18.30000     -5.6512378E-10
   18.36000     -4.9132187E-10
   18.42000     -4.3610912E-10
   18.48000     -3.9863668E-10
   18.54000     -3.7468101E-10
   18.60000     -3.5819300E-10
   18.66000     -3.4337153E-10
   18.72000     -3.2655575E-10
   18.78000     -3.0724639E-10
   18.84000     -2.8785399E-10
   18.90000     -2.7226252E-10
   18.96000     -2.6381403E-10
   19.02000     -2.6362512E-10
   19.08000     -2.7005637E-10
   19.14000     -2.7965380E-10
   19.20000     -2.8916700E-10
   19.26000     -2.9766536E-10
   19.32000     -3.0763797E-10
   19.38000     -3.2438566E-10
   19.44000     -3.5382014E-10
   19.50000     -3.9958117E-10
   19.56000     -4.6076523E-10
   19.62000     -5.3132904E-10
   19.68000     -6.0150118E-10
   19.74000     -6.6066841E-10
   19.80000     -7.0061679E-10
   19.86000     -7.1793671E-10
   19.92000     -7.1482525E-10
   19.98000     -6.9816847E-10
   20.04000     -6.7736167E-10
   20.10000     -6.6161604E-10
   20.16000     -6.5750377E-10
   20.22000     -6.6731909E-10
   20.28000     -6.8860700E-10
   20.34000     -7.1497780E-10
   20.40000     -7.3805173E-10
   20.46000     -7.5005935E-10
   20.52000     -7.4632467E-10
   20.58000     -7.2675921E-10
   20.64000     -6.9573880E-10
   20.70000     -6.6031802E-10
   20.76000     -6.2744582E-10
   20.82000     -6.0133093E-10
   20.88000     -5.8208333E-10
   20.94000     -5.6618960E-10
   21.00000     -5.4852822E-10
   21.06000     -5.2491972E-10
   21.12000     -4.9401400E-10
   21.18000     -4.5771373E-10
   21.24000     -4.2009171E-10
   21.30000     -3.8546671E-10
   21.36000     -3.5659717E-10
   21.42000     -3.3375044E-10
   21.48000     -3.1488614E-10
   21.54000     -2.9667535E-10
   21.60000     -2.7582348E-10
   21.66000     -2.5021299E-10
   21.72000     -2.1960313E-10
   21.78000     -1.8581679E-10
   21.84000     -1.5241933E-10
   21.90000     -1.2388932E-10
   21.96000     -1.0432743E-10
   22.02000     -9.5916573E-11
   22.08000     -9.7573394E-11
   22.14000     -1.0435273E-10
   22.20000     -1.0803191E-10
   22.26000     -9.8896884E-11
   22.32000     -6.8245867E-11
   22.38000     -1.0765725E-11
   22.44000      7.4080332E-11
   22.50000      1.8216498E-10
   22.56000      3.0626465E-10
   22.62000      4.3851872E-10
   22.68000      5.7293126E-10
   22.74000      7.0709438E-10
   22.80000      8.4259366E-10
   22.86000      9.8397546E-10
   22.92000      1.1365964E-09
   22.98000      1.3040334E-09
   23.04000      1.4859252E-09
   23.10000      1.6770590E-09
   23.16000      1.8681594E-09
   23.22000      2.0482465E-09
   23.28000      2.2077939E-09
   23.34000      2.3415152E-09
   23.40000      2.4496583E-09
   23.46000      2.5372580E-09
   23.52000      2.6116214E-09
   23.58000      2.6790716E-09
   23.64000      2.7422564E-09
   23.70000      2.7990259E-09
   23.76000      2.8431650E-09
   23.82000      2.8664899E-09
   23.88000      2.8613678E-09
   23.94000      2.8227238E-09
   24.00000      2.7490041E-09
   24.06000      2.6420517E-09
   24.12000      2.5062155E-09
   24.18000      2.3471118E-09
   24.24000      2.1703943E-09
   24.30000      1.9807695E-09
   24.36000      1.7814351E-09
   24.42000      1.5740552E-09
   24.48000      1.3592902E-09
   24.54000      1.1376915E-09
   24.60000      9.1056995E-10
   24.66000      6.8039019E-10
   24.72000      4.5042714E-10
   24.78000      2.2381644E-10
   24.84000      2.5124837E-12
   24.90000     -2.1320277E-10
   24.96000     -4.2425952E-10
   25.02000     -6.3150218E-10
   25.08000     -8.3416557E-10
   25.14000     -1.0289287E-09
   25.20000     -1.2101071E-09
   25.26000     -1.3709969E-09
   25.32000     -1.5058377E-09
   25.38000     -1.6115890E-09
   25.44000     -1.6888471E-09
   25.50000     -1.7416456E-09
   25.56000     -1.7763302E-09
   25.62000     -1.7999826E-09
   25.68000     -1.8189009E-09
   25.74000     -1.8374974E-09
   25.80000     -1.8578028E-09
   25.86000     -1.8796160E-09
   25.92000     -1.9012327E-09
   25.98000     -1.9205535E-09
   26.04000     -1.9362223E-09
   26.10000     -1.9483535E-09
   26.16000     -1.9584847E-09
   26.22000     -1.9686852E-09
   26.28000     -1.9801734E-09
   26.34000     -1.9921036E-09
   26.40000     -2.0012016E-09
   26.46000     -2.0025572E-09
   26.52000     -1.9913053E-09
   26.58000     -1.9644428E-09
   26.64000     -1.9219026E-09
   26.70000     -1.8663517E-09
   26.76000     -1.8017930E-09
   26.82000     -1.7316304E-09
   26.88000     -1.6570956E-09
   26.94000     -1.5767156E-09
   27.00000     -1.4869864E-09
   27.06000     -1.3838667E-09
   27.12000     -1.2644003E-09
   27.18000     -1.1278184E-09
   27.24000     -9.7577690E-10
   27.30000     -8.1177642E-10
   27.36000     -6.4010341E-10
   27.42000     -4.6473511E-10
   27.48000     -2.8859531E-10
   27.54000     -1.1338330E-10
   27.60000      5.9996910E-11
   27.66000      2.3057883E-10
   27.72000      3.9638082E-10
   27.78000      5.5377286E-10
   27.84000      6.9752010E-10
   27.90000      8.2164181E-10
   27.96000      9.2090263E-10
   28.02000      9.9245545E-10
   28.08000      1.0370340E-09
   28.14000      1.0592264E-09
   28.20000      1.0666995E-09
   28.26000      1.0686299E-09
   28.32000      1.0738480E-09
   28.38000      1.0892165E-09
   28.44000      1.1185799E-09
   28.50000      1.1623840E-09
   28.56000      1.2178960E-09
   28.62000      1.2799338E-09
   28.68000      1.3420371E-09
   28.74000      1.3979969E-09
   28.80000      1.4435128E-09
   28.86000      1.4775430E-09
   28.92000      1.5028105E-09
   28.98000      1.5250642E-09
   29.04000      1.5511147E-09
   29.10000      1.5861933E-09
   29.16000      1.6315624E-09
   29.22000      1.6833096E-09
   29.28000      1.7328354E-09
   29.34000      1.7688786E-09
   29.40000      1.7803241E-09
   29.46000      1.7587864E-09
   29.52000      1.7001573E-09
   29.58000      1.6048105E-09
   29.64000      1.4766971E-09
   29.70000      1.3218903E-09
   29.76000      1.1471430E-09
   29.82000      9.5879304E-10
   29.88000      7.6207840E-10
   29.94000      5.6076915E-10
   30.00000      3.5702863E-10
   30.06000      1.5150263E-10
   30.12000     -5.6322780E-11
   30.18000     -2.6752084E-10
   30.24000     -4.8303955E-10
   30.30000     -7.0317807E-10
   30.36000     -9.2741531E-10
   30.42000     -1.1545962E-09
   30.48000     -1.3832714E-09
   30.54000     -1.6118995E-09
   30.60000     -1.8387257E-09
   30.66000     -2.0613973E-09
   30.72000     -2.2766085E-09
   30.78000     -2.4801201E-09
   30.84000     -2.6673284E-09
   30.90000     -2.8342406E-09
   30.96000     -2.9784559E-09
   31.02000     -3.0996863E-09
   31.08000     -3.1995582E-09
   31.14000     -3.2807641E-09
   31.20000     -3.3459209E-09
   31.26000     -3.3965706E-09
   31.32000     -3.4326268E-09
   31.38000     -3.4523260E-09
   31.44000     -3.4525613E-09
   31.50000     -3.4294565E-09
   31.56000     -3.3791192E-09
   31.62000     -3.2986176E-09
   31.68000     -3.1871494E-09
   31.74000     -3.0471858E-09
   31.80000     -2.8851390E-09
   31.86000     -2.7110485E-09
   31.92000     -2.5370228E-09
   31.98000     -2.3746698E-09
   32.04000     -2.2322661E-09
   32.10000     -2.1126774E-09
   32.16000     -2.0128648E-09
   32.22000     -1.9252266E-09
   32.28000     -1.8402848E-09
   32.34000     -1.7497046E-09
   32.40000     -1.6485361E-09
   32.46000     -1.5359719E-09
   32.52000     -1.4145766E-09
   32.58000     -1.2885647E-09
   32.64000     -1.1620001E-09
   32.70000     -1.0376718E-09
   32.76000     -9.1696900E-10
   32.82000     -8.0057172E-10
   32.88000     -6.8941725E-10
   32.94000     -5.8533134E-10
   33.00000     -4.9092225E-10
   33.06000     -4.0870607E-10
   33.12000     -3.3981160E-10
   33.18000     -2.8284608E-10
   33.24000     -2.3350824E-10
   33.30000     -1.8528880E-10
   33.36000     -1.3118409E-10
   33.42000     -6.5908515E-11
   33.48000      1.2186436E-11
   33.54000      1.0024947E-10
   33.60000      1.9152686E-10
   33.66000      2.7725994E-10
   33.72000      3.4920153E-10
   33.78000      4.0183690E-10
   33.84000      4.3356188E-10
   33.90000      4.4655404E-10
   33.96000      4.4562237E-10
   34.02000      4.3666254E-10
   34.08000      4.2533288E-10
   34.14000      4.1626977E-10
   34.20000      4.1279749E-10
   34.26000      4.1688530E-10
   34.32000      4.2915502E-10
   34.38000      4.4894546E-10
   34.44000      4.7459031E-10
   34.50000      5.0401550E-10
   34.56000      5.3552635E-10
   34.62000      5.6841903E-10
   34.68000      6.0302369E-10
   34.74000      6.4005801E-10
   34.80000      6.7959527E-10
   34.86000      7.2026807E-10
   34.92000      7.5928980E-10
   34.98000      7.9346557E-10
   35.04000      8.2078622E-10
   35.10000      8.4181184E-10
   35.16000      8.6008389E-10
   35.22000      8.8127233E-10
   35.28000      9.1139102E-10
   35.34000      9.5485464E-10
   35.40000      1.0131767E-09
   35.46000      1.0847346E-09
   35.52000      1.1655186E-09
   35.58000      1.2504068E-09
   35.64000      1.3344642E-09
   35.70000      1.4139371E-09
   35.76000      1.4868690E-09
   35.82000      1.5533644E-09
   35.88000      1.6154927E-09
   35.94000      1.6767379E-09
   36.00000      1.7409545E-09
   36.06000      1.8110073E-09
   36.12000      1.8875395E-09
   36.18000      1.9684230E-09
   36.24000      2.0492466E-09
   36.30000      2.1247357E-09
   36.36000      2.1905235E-09
   36.42000      2.2444824E-09
   36.48000      2.2870148E-09
   36.54000      2.3202282E-09
   36.60000      2.3464608E-09
   36.66000      2.3669104E-09
   36.72000      2.3809918E-09
   36.78000      2.3866127E-09
   36.84000      2.3810918E-09
   36.90000      2.3621873E-09
   36.96000      2.3287758E-09
   37.02000      2.2810034E-09
   37.08000      2.2200306E-09
   37.14000      2.1476261E-09
   37.20000      2.0658084E-09
   37.26000      1.9765873E-09
   37.32000      1.8817445E-09
   37.38000      1.7826199E-09
   37.44000      1.6799471E-09
   37.50000      1.5738484E-09
   37.56000      1.4640507E-09
   37.62000      1.3502405E-09
   37.68000      1.2323501E-09
   37.74000      1.1105639E-09
   37.80000      9.8498076E-10
   37.86000      8.5510460E-10
   37.92000      7.1949280E-10
   37.98000      5.7587335E-10
   38.04000      4.2182449E-10
   38.10000      2.5580657E-10
   38.16000      7.8115667E-11
   38.22000     -1.0868955E-10
   38.28000     -3.0012820E-10
   38.34000     -4.9081494E-10
   38.40000     -6.7577183E-10
   38.46000     -8.5152724E-10
   38.52000     -1.0165950E-09
   38.58000     -1.1711928E-09
   38.64000     -1.3163737E-09
   38.70000     -1.4529737E-09
   38.76000     -1.5808345E-09
   38.82000     -1.6986190E-09
   38.88000     -1.8042827E-09
   38.94000     -1.8959678E-09
   39.00000     -1.9729192E-09
   39.06000     -2.0360065E-09
   39.12000     -2.0876143E-09
   39.18000     -2.1309343E-09
   39.24000     -2.1689435E-09
   39.30000     -2.2034612E-09
   39.36000     -2.2346138E-09
   39.42000     -2.2608353E-09
   39.48000     -2.2793090E-09
   39.54000     -2.2866202E-09
   39.60000     -2.2794056E-09
   39.66000     -2.2548732E-09
   39.72000     -2.2112130E-09
   39.78000     -2.1479398E-09
   39.84000     -2.0661817E-09
   39.90000     -1.9688275E-09
   39.96000     -1.8604022E-09
   40.02000     -1.7465769E-09
   40.08000     -1.6333663E-09
   40.14000     -1.5261931E-09
   40.20000     -1.4290665E-09
   40.26000     -1.3440707E-09
   40.32000     -1.2712215E-09
   40.38000     -1.2086303E-09
   40.44000     -1.1528725E-09
   40.50000     -1.0994931E-09
   40.56000     -1.0436620E-09
   40.62000     -9.8098840E-10
   40.68000     -9.0841729E-10
   40.74000     -8.2498780E-10
   40.80000     -7.3213779E-10
   40.86000     -6.3331279E-10
   40.92000     -5.3288124E-10
   40.98000     -4.3468296E-10
   41.04000     -3.4076642E-10
   41.10000     -2.5086463E-10
   41.16000     -1.6287335E-10
   41.22000     -7.4156965E-11
   41.28000      1.6875881E-11
   41.34000      1.0961610E-10
   41.40000      2.0101258E-10
   41.46000      2.8631617E-10
   41.52000      3.6044043E-10
   41.58000      4.1933046E-10
   41.64000      4.6079701E-10
   41.70000      4.8458887E-10
   41.76000      4.9185722E-10
   41.82000      4.8441717E-10
   41.88000      4.6421583E-10
   41.94000      4.3321399E-10
   42.00000      3.9360942E-10
   42.06000      3.4814174E-10
   42.12000      3.0020222E-10
   42.18000      2.5360614E-10
   42.24000      2.1206602E-10
   42.30000      1.7853083E-10
   42.36000      1.5458199E-10
   42.42000      1.4003873E-10
   42.48000      1.3287922E-10
   42.54000      1.2956256E-10
   42.60000      1.2580545E-10
   42.66000      1.1776868E-10
   42.72000      1.0341985E-10
   42.78000      8.3631796E-11
   42.84000      6.2488931E-11
   42.90000      4.6439713E-11
   42.96000      4.2357291E-11
   43.02000      5.5093000E-11
   43.08000      8.5459612E-11
   43.14000      1.2953219E-10
   43.20000      1.7966283E-10
   43.26000      2.2687317E-10
   43.32000      2.6367458E-10
   43.38000      2.8618935E-10
   43.44000      2.9480476E-10
   43.50000      2.9329592E-10
   43.56000      2.8703023E-10
   43.62000      2.8117822E-10
   43.68000      2.7966751E-10
   43.74000      2.8509498E-10
   43.80000      2.9926739E-10
   43.86000      3.2377737E-10
   43.92000      3.6013606E-10
   43.98000      4.0935350E-10
   44.04000      4.7123577E-10
   44.10000      5.4384203E-10
   44.16000      6.2346062E-10
   44.22000      7.0521372E-10
   44.28000      7.8413681E-10
   44.34000      8.5641311E-10
   44.40000      9.2039559E-10
   44.46000      9.7709241E-10
   44.52000      1.0298957E-09
   44.58000      1.0835144E-09
   44.64000      1.1423275E-09
   44.70000      1.2086459E-09
   44.76000      1.2815299E-09
   44.82000      1.3567040E-09
   44.88000      1.4277166E-09
   44.94000      1.4879420E-09
   45.00000      1.5325994E-09
   45.06000      1.5599307E-09
   45.12000      1.5710780E-09
   45.18000      1.5688624E-09
   45.24000      1.5561920E-09
   45.30000      1.5349434E-09
   45.36000      1.5057866E-09
   45.42000      1.4688236E-09
   45.48000      1.4244553E-09
   45.54000      1.3738413E-09
   45.60000      1.3186962E-09
   45.66000      1.2606499E-09
   45.72000      1.2006948E-09
   45.78000      1.1391251E-09
   45.84000      1.0759802E-09
   45.90000      1.0116182E-09
   45.96000      9.4694785E-10
   46.02000      8.8309743E-10
   46.08000      8.2070445E-10
   46.14000      7.5927697E-10
   46.20000      6.9703010E-10
   46.26000      6.3129824E-10
   46.32000      5.5929328E-10
   46.38000      4.7884635E-10
   46.44000      3.8888764E-10
   46.50000      2.8964173E-10
   46.56000      1.8263836E-10
   46.62000      7.0576871E-11
   46.68000     -4.3070329E-11
   46.74000     -1.5485296E-10
   46.80000     -2.6247093E-10
   46.86000     -3.6582909E-10
   46.92000     -4.6740856E-10
   46.98000     -5.7151450E-10
   47.04000     -6.8249811E-10
   47.10000     -8.0267487E-10
   47.16000     -9.3095376E-10
   47.22000     -1.0629196E-09
   47.28000     -1.1923822E-09
   47.34000     -1.3136403E-09
   47.40000     -1.4233698E-09
   47.46000     -1.5213234E-09
   47.52000     -1.6097310E-09
   47.58000     -1.6919438E-09
   47.64000     -1.7710992E-09
   47.70000     -1.8493020E-09
   47.76000     -1.9273190E-09
   47.82000     -2.0044519E-09
   47.88000     -2.0783351E-09
   47.94000     -2.1447621E-09
   48.00000     -2.1979347E-09
   48.06000     -2.2314497E-09
   48.12000     -2.2398909E-09
   48.18000     -2.2203928E-09
   48.24000     -2.1733735E-09
   48.30000     -2.1020234E-09
   48.36000     -2.0108091E-09
   48.42000     -1.9038291E-09
   48.48000     -1.7838895E-09
   48.54000     -1.6526606E-09
   48.60000     -1.5115497E-09
   48.66000     -1.3624933E-09
   48.72000     -1.2080253E-09
   48.78000     -1.0505695E-09
   48.84000     -8.9152946E-10
   48.90000     -7.3093176E-10
   48.96000     -5.6800625E-10
   49.02000     -4.0243728E-10
   49.08000     -2.3554969E-10
   49.14000     -7.0729200E-11
   49.20000      8.7122899E-11
   49.26000      2.3271676E-10
   49.32000      3.6143244E-10
   49.38000      4.6986304E-10
   49.44000      5.5586391E-10
   49.50000      6.1847188E-10
   49.56000      6.5801437E-10
   49.62000      6.7636163E-10
   49.68000      6.7692513E-10
   49.74000      6.6400807E-10
   49.80000      6.4153904E-10
   49.86000      6.1176936E-10
   49.92000      5.7475918E-10
   49.98000      5.2915333E-10
   50.04000      4.7399340E-10
   50.10000      4.1059642E-10
   50.16000      3.4335210E-10
   50.22000      2.7881333E-10
   50.28000      2.2340850E-10
   50.34000      1.8091471E-10
   50.40000      1.5101038E-10
   50.46000      1.2966994E-10
   50.52000      1.1120495E-10
   50.58000      9.0947458E-11
   50.64000      6.7334055E-11
   50.70000      4.2542594E-11
   50.76000      2.1566984E-11
   50.82000      1.0267232E-11
   50.88000      1.3216331E-11
   50.94000      3.2060077E-11
   51.00000      6.4789181E-11
   51.06000      1.0600686E-10
   51.12000      1.4805984E-10
   51.18000      1.8275763E-10
   51.24000      2.0327902E-10
   51.30000      2.0575576E-10
   51.36000      1.9003257E-10
   51.42000      1.5931161E-10
   51.48000      1.1878643E-10
   51.54000      7.3789808E-11
   51.60000      2.8196676E-11
   51.66000     -1.6307360E-11
   51.72000     -5.9910389E-11
   51.78000     -1.0363561E-10
   51.84000     -1.4821251E-10
   51.90000     -1.9344684E-10
   51.96000     -2.3833219E-10
   52.02000     -2.8171321E-10
   52.08000     -3.2303579E-10
   52.14000     -3.6273051E-10
   52.20000     -4.0202813E-10
   52.26000     -4.4232223E-10
   52.32000     -4.8439636E-10
   52.38000     -5.2784188E-10
   52.44000     -5.7085470E-10
   52.50000     -6.1042527E-10
   52.56000     -6.4283656E-10
   52.62000     -6.6436434E-10
   52.68000     -6.7208505E-10
   52.74000     -6.6466543E-10
   52.80000     -6.4293848E-10
   52.86000     -6.1001304E-10
   52.92000     -5.7073485E-10
   52.98000     -5.3053251E-10
   53.04000     -4.9398269E-10
   53.10000     -4.6363419E-10
   53.16000     -4.3959586E-10
   53.22000     -4.2008155E-10
   53.28000     -4.0264586E-10
   53.34000     -3.8550058E-10
   53.40000     -3.6826703E-10
   53.46000     -3.5184355E-10
   53.52000     -3.3756914E-10
   53.58000     -3.2622052E-10
   53.64000     -3.1744082E-10
   53.70000     -3.0986061E-10
   53.76000     -3.0173675E-10
   53.82000     -2.9165395E-10
   53.88000     -2.7885003E-10
   53.94000     -2.6306174E-10
   54.00000     -2.4410471E-10
   54.06000     -2.2156717E-10
   54.12000     -1.9482035E-10
   54.18000     -1.6332806E-10
   54.24000     -1.2698456E-10
   54.30000     -8.6236025E-11
   54.36000     -4.1893943E-11
   54.42000      5.2364818E-12
   54.48000      5.4794190E-11
   54.54000      1.0724007E-10
   54.60000      1.6424950E-10
   54.66000      2.2906375E-10
   54.72000      3.0669806E-10
   54.78000      4.0374415E-10
   54.84000      5.2765226E-10
   54.90000      6.8558875E-10
   54.96000      8.8335611E-10
   55.02000      1.1249087E-09
   55.08000      1.4127244E-09
   55.14000      1.7488481E-09
   55.20000      2.1359956E-09
   55.26000      2.5781566E-09
   55.32000      3.0804144E-09
   55.38000      3.6482746E-09
   55.44000      4.2869912E-09
   55.50000      5.0012336E-09
   55.56000      5.7951377E-09