 -0.750000000       0.00000000    
 -0.689999998       0.00000000    
 -0.629999995       0.00000000    
 -0.569999993       0.00000000    
 -0.509999990       0.00000000    
 -0.449999988       0.00000000    
 -0.389999986       0.00000000    
 -0.330000013       0.00000000    
 -0.270000011      -5.95190006E-27
 -0.209999993      -9.36200586E-26
 -0.150000006      -6.90385574E-25
  -9.00000036E-02  -3.15987544E-24
  -2.99999993E-02  -9.77838688E-24
   2.99999993E-02  -1.98174970E-23
   9.00000036E-02  -1.67728963E-23
  0.150000006       5.29940726E-23
  0.209999993       2.90922536E-22
  0.270000011       7.96527623E-22
  0.330000013       1.48814235E-21
  0.389999986       1.76130542E-21
  0.449999988       9.99747280E-23
  0.509999990      -5.94945980E-21
  0.569999993      -1.86541345E-20
  0.629999995      -3.68849593E-20
  0.689999998      -5.06513902E-20
  0.750000000      -3.57343156E-20
  0.810000002       4.49285121E-20
  0.870000005       2.22837830E-19
  0.930000007       4.81210305E-19
  0.990000010       6.97123884E-19
   1.04999995       6.08220735E-19
   1.11000001      -1.27485063E-19
   1.16999996      -1.71735734E-18
   1.23000002      -3.88403649E-18
   1.28999996      -5.55154534E-18
   1.35000002      -4.89180469E-18
   1.40999997      -5.65252644E-20
   1.47000003       9.37792610E-18
   1.52999997       2.08173319E-17
   1.59000003       2.80794532E-17
   1.64999998       2.31173837E-17
   1.71000004       4.20481393E-19
   1.76999998      -3.73676559E-17
   1.83000004      -7.60160917E-17
   1.88999999      -9.23798551E-17
   1.95000005      -6.48898971E-17
   2.00999999       1.12621095E-17
   2.06999993       1.12547756E-16
   2.13000011       1.89172897E-16
   2.19000006       1.86004107E-16
   2.25000000       7.65304062E-17
   2.30999994      -1.07924035E-16
   2.36999989      -2.76012383E-16
   2.43000007      -3.13923777E-16
   2.49000001      -1.52806425E-16
   2.54999995       1.68510482E-16
   2.60999990       4.90020842E-16
   2.67000008       5.93428265E-16
   2.73000002       3.26138893E-16
   2.78999996      -2.75653214E-16
   2.84999990      -9.47036939E-16
   2.91000009      -1.29111295E-15
   2.97000003      -9.92194595E-16
   3.02999997      -4.24545288E-17
   3.08999991       1.16069782E-15
   3.15000010       1.94746406E-15
   3.21000004       1.72132574E-15
   3.26999998       3.60737065E-16
   3.32999992      -1.55779216E-15
   3.39000010      -2.90287720E-15
   3.45000005      -2.51312812E-15
   3.50999999       1.02966960E-16
   3.56999993       4.25113597E-15
   3.63000011       8.05923050E-15
   3.69000006       9.13667589E-15
   3.75000000       5.68980872E-15
   3.80999994      -2.38243432E-15
   3.86999989      -1.29712923E-14
   3.93000007      -2.21924411E-14
   3.99000001      -2.57445314E-14
   4.05000019      -2.07163252E-14
   4.11000013      -7.08053137E-15
   4.17000008       1.18532359E-14
   4.23000002       3.03708407E-14
   4.28999996       4.24164488E-14
   4.34999990       4.39698733E-14
   4.40999985       3.46768919E-14
   4.46999979       1.79121837E-14
   4.53000021      -8.59928600E-16
   4.59000015      -1.67095409E-14
   4.65000010      -2.75370564E-14
   4.71000004      -3.47577361E-14
   4.76999998      -4.18428990E-14
   4.82999992      -5.13623059E-14
   4.88999987      -6.21683626E-14
   4.94999981      -6.85555603E-14
   5.01000023      -6.23491127E-14
   5.07000017      -3.72541116E-14
   5.13000011       6.72149189E-15
   5.19000006       6.14224790E-14
   5.25000000       1.12868780E-13
   5.30999994       1.47117480E-13
   5.36999989       1.56825128E-13
   5.42999983       1.44808482E-13
   5.48999977       1.22123327E-13
   5.55000019       1.01062571E-13
   5.61000013       8.65257708E-14
   5.67000008       7.06392207E-14
   5.73000002       3.42728030E-14
   5.78999996      -4.43683481E-14
   5.84999990      -1.77805538E-13
   5.90999985      -3.59862124E-13
   5.96999979      -5.63620223E-13
   6.03000021      -7.47882875E-13
   6.09000015      -8.68784970E-13
   6.15000010      -8.90516502E-13
   6.21000004      -7.89890234E-13
   6.26999998      -5.53404653E-13
   6.32999992      -1.70420725E-13
   6.38999987       3.70754453E-13
   6.44999981       1.07765554E-12
   6.51000023       1.93743329E-12
   6.57000017       2.89384770E-12
   6.63000011       3.82667726E-12
   6.69000006       4.54418534E-12
   6.75000000       4.79649567E-12
   6.80999994       4.31192712E-12
   6.86999989       2.85187260E-12
   6.92999983       2.75049054E-13
   6.98999977      -3.39992726E-12
   7.05000019      -7.94366309E-12
   7.11000013      -1.28840896E-11
   7.17000008      -1.74977723E-11
   7.23000002      -2.08260596E-11
   7.28999996      -2.17159467E-11
   7.34999990      -1.88840488E-11
   7.40999985      -1.10007004E-11
   7.46999979       3.21081248E-12
   7.53000021       2.48666157E-11
   7.59000015       5.48144724E-11
   7.65000010       9.35348049E-11
   7.71000004       1.41058776E-10
   7.76999998       1.96910835E-10
   7.82999992       2.60081678E-10
   7.88999987       3.29036520E-10
   7.94999981       4.01762928E-10
   8.01000023       4.75860018E-10
   8.06999969       5.48667667E-10
   8.13000011       6.17428386E-10
   8.18999958       6.79466705E-10
   8.25000000       7.32366445E-10
   8.31000042       7.74121989E-10
   8.36999989       8.03245193E-10
   8.43000031       8.18816848E-10
   8.48999977       8.20482904E-10
   8.55000019       8.08405343E-10
   8.60999966       7.83184850E-10
   8.67000008       7.45770612E-10
   8.72999954       6.97372493E-10
   8.78999996       6.39384545E-10
   8.85000038       5.73327941E-10
   8.90999985       5.00814834E-10
   8.97000027       4.23532209E-10
   9.02999973       3.43235301E-10
   9.09000015       2.61733413E-10
   9.14999962       1.80847171E-10
   9.21000004       1.02321665E-10
   9.27000046       2.76953339E-11
   9.32999992      -4.18555884E-11
   9.39000034      -1.05659231E-10
   9.44999981      -1.63635105E-10
   9.51000023      -2.16295690E-10
   9.56999969      -2.64655936E-10
   9.63000011      -3.10069304E-10
   9.68999958      -3.54024893E-10
   9.75000000      -3.97939792E-10
   9.81000042      -4.42969689E-10
   9.86999989      -4.89847385E-10
   9.93000031      -5.38753597E-10
   9.98999977      -5.89230498E-10
   10.0500002      -6.40160813E-10
   10.1099997      -6.89836688E-10
   10.1700001      -7.36134209E-10
   10.2299995      -7.76779419E-10
   10.2900000      -8.09660117E-10
   10.3500004      -8.33119462E-10
   10.4099998      -8.46170523E-10
   10.4700003      -8.48602077E-10
   10.5299997      -8.40984671E-10
   10.5900002      -8.24613267E-10
   10.6499996      -8.01426703E-10
   10.7100000      -7.73918041E-10
   10.7700005      -7.45012385E-10
   10.8299999      -7.17866655E-10
   10.8900003      -6.95551894E-10
   10.9499998      -6.80627665E-10
   11.0100002      -6.74679368E-10
   11.0699997      -6.77947198E-10
   11.1300001      -6.89183766E-10
   11.1899996      -7.05833503E-10
   11.2500000      -7.24531879E-10
   11.3100004      -7.41813222E-10
   11.3699999      -7.54837304E-10
   11.4300003      -7.61930519E-10
   11.4899998      -7.62797991E-10
   11.5500002      -7.58376195E-10
   11.6099997      -7.50417950E-10
   11.6700001      -7.40978612E-10
   11.7299995      -7.31976590E-10
   11.7900000      -7.24936278E-10
   11.8500004      -7.20918603E-10
   11.9099998      -7.20560556E-10
   11.9700003      -7.24117932E-10
   12.0299997      -7.31440686E-10
   12.0900002      -7.41888828E-10
   12.1499996      -7.54263374E-10
   12.2100000      -7.66848085E-10
   12.2700005      -7.77617748E-10
   12.3299999      -7.84588949E-10
   12.3900003      -7.86218701E-10
   12.4499998      -7.81722909E-10
   12.5100002      -7.71215591E-10
   12.5699997      -7.55633001E-10
   12.6300001      -7.36479988E-10
   12.6899996      -7.15485282E-10
   12.7500000      -6.94261038E-10
   12.8100004      -6.74047818E-10
   12.8699999      -6.55596910E-10
   12.9300003      -6.39209630E-10
   12.9899998      -6.24923613E-10
   13.0500002      -6.12799200E-10
   13.1099997      -6.03223027E-10
   13.1700001      -5.97125016E-10
   13.2299995      -5.96019567E-10
   13.2900000      -6.01838246E-10
   13.3500004      -6.16602880E-10
   13.4099998      -6.42056519E-10
   13.4700003      -6.79383549E-10
   13.5299997      -7.29096450E-10
   13.5900002      -7.91074484E-10
   13.6499996      -8.64653571E-10
   13.7100000      -9.48649492E-10
   13.7700005      -1.04125686E-09
   13.8299999      -1.13987508E-09
   13.8900003      -1.24100374E-09
   13.9499998      -1.34036782E-09
   14.0100002      -1.43335377E-09
   14.0699997      -1.51569979E-09
   14.1300001      -1.58425306E-09
   14.1899996      -1.63755365E-09
   14.2500000      -1.67604497E-09
   14.3100004      -1.70183767E-09
   14.3699999      -1.71809134E-09
   14.4300003      -1.72819103E-09
   14.4899998      -1.73493342E-09
   14.5500002      -1.73990644E-09
   14.6099997      -1.74317860E-09
   14.6700001      -1.74331860E-09
   14.7299995      -1.73768955E-09
   14.7900000      -1.72290249E-09
   14.8500004      -1.69530290E-09
   14.9099998      -1.65138614E-09
   14.9700003      -1.58810731E-09
   15.0299997      -1.50312507E-09
   15.0900002      -1.39506695E-09
   15.1499996      -1.26388267E-09
   15.2100000      -1.11126830E-09
   15.2700005      -9.41023703E-10
   15.3299999      -7.59124763E-10
   15.3900003      -5.73310843E-10
   15.4499998      -3.92128191E-10
   15.5100002      -2.23581459E-10
   15.5699997      -7.37413047E-11
   15.6300001       5.42692627E-11
   15.6899996       1.60575761E-10
   15.7500000       2.48037563E-10
   15.8100004       3.21089405E-10
   15.8699999       3.84321630E-10
   15.9300003       4.41243542E-10
   15.9899998       4.93576735E-10
   16.0499992       5.41219403E-10
   16.1100006       5.82796811E-10
   16.1700001       6.16545592E-10
   16.2299995       6.41212528E-10
   16.2900009       6.56686205E-10
   16.3500004       6.64185928E-10
   16.4099998       6.65975053E-10
   16.4699993       6.64702182E-10
   16.5300007       6.62580157E-10
   16.5900002       6.60666466E-10
   16.6499996       6.58490318E-10
   16.7099991       6.54178600E-10
   16.7700005       6.45079490E-10
   16.8299999       6.28710806E-10
   16.8899994       6.03729511E-10
   16.9500008       5.70587078E-10
   17.0100002       5.31626354E-10
   17.0699997       4.90569529E-10
   17.1299992       4.51578414E-10
   17.1900005       4.18236390E-10
   17.2500000       3.92833155E-10
   17.3099995       3.76207066E-10
   17.3700008       3.68155839E-10
   17.4300003       3.68174047E-10
   17.4899998       3.76126880E-10
   17.5499992       3.92499894E-10
   17.6100006       4.18064916E-10
   17.6700001       4.53086790E-10
   17.7299995       4.96432895E-10
   17.7900009       5.45026357E-10
   17.8500004       5.93963434E-10
   17.9099998       6.37351227E-10
   17.9699993       6.69627020E-10
   18.0300007       6.86921908E-10
   18.0900002       6.88010870E-10
   18.1499996       6.74542422E-10
   18.2099991       6.50499876E-10
   18.2700005       6.21099117E-10
   18.3299999       5.91491633E-10
   18.3899994       5.65662517E-10
   18.4500008       5.45799794E-10
   18.5100002       5.32228039E-10
   18.5699997       5.23799226E-10
   18.6299992       5.18509735E-10
   18.6900005       5.14082221E-10
   18.7500000       5.08335651E-10
   18.8099995       4.99310704E-10
   18.8700008       4.85259943E-10
   18.9300003       4.64677880E-10
   18.9899998       4.36506803E-10
   19.0499992       4.00528888E-10
   19.1100006       3.57810531E-10
   19.1700001       3.10987514E-10
   19.2299995       2.64211680E-10
   19.2900009       2.22706617E-10
   19.3500004       1.92033542E-10
   19.4099998       1.77266438E-10
   19.4699993       1.82275278E-10
   19.5300007       2.09239515E-10
   19.5900002       2.58418648E-10
   19.6499996       3.28153782E-10
   19.7099991       4.15072476E-10
   19.7700005       5.14480458E-10
   19.8299999       6.20903606E-10
   19.8899994       7.28680061E-10
   19.9500008       8.32444225E-10
   20.0100002       9.27365407E-10
   20.0699997       1.00913145E-09
   20.1299992       1.07384923E-09
   20.1900005       1.11814413E-09
   20.2500000       1.13966381E-09
   20.3099995       1.13792253E-09
   20.3700008       1.11509724E-09
   20.4300003       1.07621834E-09
   20.4899998       1.02836062E-09
   20.5499992       9.78891967E-10
   20.6100006       9.33385591E-10
   20.6700001       8.94102403E-10
   20.7299995       8.59790739E-10
   20.7900009       8.26968549E-10
   20.8500004       7.92126198E-10
   20.9099998       7.53821838E-10
   20.9699993       7.13702764E-10
   21.0300007       6.76051715E-10
   21.0900002       6.46204812E-10
   21.1499996       6.28703867E-10
   21.2099991       6.26050156E-10
   21.2700005       6.38452791E-10
   21.3299999       6.64341859E-10
   21.3899994       7.01019298E-10
   21.4500008       7.44886930E-10
   21.5100002       7.91136989E-10
   21.5699997       8.33290714E-10
   21.6299992       8.63198457E-10
   21.6900005       8.71910932E-10
   21.7500000       8.51330451E-10
   21.8099995       7.96079591E-10
   21.8700008       7.04850844E-10
   21.9300003       5.80724913E-10
   21.9899998       4.30397412E-10
   22.0499992       2.62666583E-10
   22.1100006       8.67081199E-11
   22.1700001      -8.94280344E-11
   22.2299995      -2.59873179E-10
   22.2900009      -4.21483043E-10
   22.3500004      -5.73845527E-10
   22.4099998      -7.18718141E-10
   22.4699993      -8.58916882E-10
   22.5300007      -9.96857819E-10
   22.5900002      -1.13316390E-09
   22.6499996      -1.26583422E-09
   22.7099991      -1.39032030E-09
   22.7700005      -1.50048851E-09
   22.8299999      -1.59007985E-09
   22.8899994      -1.65410774E-09
   22.9500008      -1.68975123E-09
   23.0100002      -1.69661163E-09
   23.0699997      -1.67648051E-09
   23.1299992      -1.63284342E-09
   23.1900005      -1.57022062E-09
   23.2500000      -1.49330570E-09
   23.3099995      -1.40586964E-09
   23.3700008      -1.30963429E-09
   23.4300003      -1.20358146E-09
   23.4899998      -1.08421694E-09
   23.5499992      -9.46978274E-10
   23.6100006      -7.88382415E-10
   23.6700001      -6.08004869E-10
   23.7299995      -4.09325657E-10
   23.7900009      -1.98993599E-10
   23.8500004       1.51089436E-11
   23.9099998       2.25968230E-10
   23.9699993       4.28623081E-10
   24.0300007       6.19952201E-10
   24.0900002       7.97486355E-10
   24.1499996       9.58284452E-10
   24.2099991       1.09884801E-09
   24.2700005       1.21632637E-09
   24.3299999       1.31035216E-09
   24.3899994       1.38433098E-09
   24.4500008       1.44523105E-09
   24.5100002       1.50175095E-09
   24.5699997       1.56165958E-09
   24.6299992       1.62955860E-09
   24.6900005       1.70604431E-09
   24.7500000       1.78846349E-09
   24.8099995       1.87264271E-09
   24.8700008       1.95461713E-09
   24.9300003       2.03160710E-09
   24.9899998       2.10209206E-09
   25.0499992       2.16536788E-09
   25.1100006       2.22113772E-09
   25.1700001       2.26946906E-09
   25.2299995       2.31103603E-09
   25.2900009       2.34731767E-09
   25.3500004       2.38044540E-09
   25.4099998       2.41266296E-09
   25.4699993       2.44564990E-09
   25.5300007       2.48006704E-09
   25.5900002       2.51557686E-09
   25.6499996       2.55133714E-09
   25.7099991       2.58675237E-09
   25.7700005       2.62215227E-09
   25.8299999       2.65912181E-09
   25.8899994       2.70033906E-09
   25.9500008       2.74895062E-09
   26.0100002       2.80767987E-09
   26.0699997       2.87797697E-09
   26.1299992       2.95952796E-09
   26.1900005       3.05030912E-09
   26.2500000       3.14710680E-09
   26.3099995       3.24617067E-09
   26.3700008       3.34356920E-09
   26.4300003       3.43499496E-09
   26.4899998       3.51516638E-09
   26.5499992       3.57735419E-09
   26.6100006       3.61365826E-09
   26.6700001       3.61633079E-09
   26.7299995       3.57984264E-09
   26.7900009       3.50284579E-09
   26.8500004       3.38909079E-09
   26.9099998       3.24677130E-09
   26.9699993       3.08652615E-09
   27.0300007       2.91894930E-09
   27.0900002       2.75260481E-09
   27.1499996       2.59315525E-09
   27.2099991       2.44357090E-09
   27.2700005       2.30489716E-09
   27.3299999       2.17701701E-09
   27.3899994       2.05915951E-09
   27.4500008       1.95028904E-09
   27.5100002       1.84962712E-09
   27.5699997       1.75733417E-09
   27.6299992       1.67502545E-09
   27.6900005       1.60566482E-09
   27.7500000       1.55263802E-09
   27.8099995       1.51833779E-09
   27.8700008       1.50301438E-09
   27.9300003       1.50461654E-09
   27.9899998       1.51981572E-09
   28.0499992       1.54569268E-09
   28.1100006       1.58112279E-09
   28.1700001       1.62703218E-09
   28.2299995       1.68536241E-09
   28.2900009       1.75733861E-09
   28.3500004       1.84203075E-09
   28.4099998       1.93598315E-09
   28.4699993       2.03403716E-09
   28.5300007       2.13079843E-09
   28.5900002       2.22192043E-09
   28.6499996       2.30461894E-09
   28.7099991       2.37737874E-09
   28.7700005       2.43929610E-09
   28.8299999       2.48962584E-09
   28.8899994       2.52784993E-09
   28.9500008       2.55416777E-09
   29.0100002       2.57002641E-09
   29.0699997       2.57830379E-09
   29.1299992       2.58299870E-09
   29.1900005       2.58855537E-09
   29.2500000       2.59908028E-09
   29.3099995       2.61766187E-09
   29.3700008       2.64583733E-09
   29.4300003       2.68315747E-09
   29.4899998       2.72683676E-09
   29.5499992       2.77162426E-09
   29.6100006       2.81014390E-09
   29.6700001       2.83392998E-09
   29.7299995       2.83513479E-09
   29.7900009       2.80854140E-09
   29.8500004       2.75321499E-09
   29.9099998       2.67308642E-09
   29.9699993       2.57604893E-09
   30.0300007       2.47171594E-09
   30.0900002       2.36858311E-09
   30.1499996       2.27167907E-09
   30.2099991       2.18165574E-09
   30.2700005       2.09568340E-09
   30.3299999       2.00968819E-09
   30.3899994       1.92086969E-09
   30.4500008       1.82932514E-09
   30.5100002       1.73811088E-09
   30.5699997       1.65188585E-09
   30.6299992       1.57496738E-09
   30.6900005       1.50980173E-09
   30.7500000       1.45646450E-09
   30.8099995       1.41312906E-09
   30.8700008       1.37693723E-09
   30.9300003       1.34467348E-09
   30.9899998       1.31302569E-09
   31.0499992       1.27867006E-09
   31.1100006       1.23856847E-09
   31.1700001       1.19059185E-09
   31.2299995       1.13412701E-09
   31.2900009       1.07010012E-09
   31.3500004       1.00011832E-09
   31.4099998       9.25067689E-10
   31.4699993       8.44042891E-10
   31.5300007       7.54476703E-10
   31.5900002       6.53669507E-10
   31.6499996       5.40987366E-10
   31.7099991       4.19428242E-10
   31.7700005       2.95492492E-10
   31.8299999       1.77251214E-10
   31.8899994       7.15884782E-11
   31.9500008      -1.79052745E-11
   32.0099983      -9.13380552E-11
   32.0699997      -1.51230306E-10
   32.1300011      -2.00551672E-10
   32.1899986      -2.41371811E-10
   32.2500000      -2.74816891E-10
   32.3100014      -3.02015857E-10
   32.3699989      -3.25022093E-10
   32.4300003      -3.46795537E-10
   32.4900017      -3.70127068E-10
   32.5499992      -3.96292305E-10
   32.6100006      -4.24558555E-10
   32.6699982      -4.53183185E-10
   32.7299995      -4.81538476E-10
   32.7900009      -5.12169362E-10
   32.8499985      -5.51480195E-10
   32.9099998      -6.08439799E-10
   32.9700012      -6.91746105E-10
   33.0299988      -8.06680445E-10
   33.0900002      -9.52986245E-10
   33.1500015      -1.12455156E-09
   33.2099991      -1.31086109E-09
   33.2700005      -1.49955082E-09
   33.3300018      -1.67918646E-09
   33.3899994      -1.84153615E-09
   33.4500008      -1.98288874E-09
   33.5099983      -2.10424078E-09
   33.5699997      -2.21037433E-09
   33.6300011      -2.30809305E-09
   33.6899986      -2.40410647E-09
   33.7500000      -2.50323007E-09
   33.8100014      -2.60745492E-09
   33.8699989      -2.71608758E-09
   33.9300003      -2.82665757E-09
   33.9900017      -2.93597124E-09
   34.0499992      -3.04073522E-09
   34.1100006      -3.13757487E-09
   34.1699982      -3.22275140E-09
   34.2299995      -3.29210725E-09
   34.2900009      -3.34159012E-09
   34.3499985      -3.36825456E-09
   34.4099998      -3.37124284E-09
   34.4700012      -3.35216721E-09
   34.5299988      -3.31463834E-09
   34.5900002      -3.26314908E-09
   34.6500015      -3.20184479E-09
   34.7099991      -3.13368664E-09
   34.7700005      -3.06021142E-09
   34.8300018      -2.98175218E-09
   34.8899994      -2.89781865E-09
   34.9500008      -2.80743029E-09
   35.0099983      -2.70939093E-09
   35.0699997      -2.60261745E-09
   35.1300011      -2.48657694E-09
   35.1899986      -2.36171016E-09
   35.2500000      -2.22959229E-09
   35.3100014      -2.09264517E-09
   35.3699989      -1.95341587E-09
   35.4300003      -1.81371440E-09
   35.4900017      -1.67399850E-09
   35.5499992      -1.53331359E-09
   35.6100006      -1.38983847E-09
   35.6699982      -1.24181720E-09
   35.7299995      -1.08849263E-09
   35.7900009      -9.30663879E-10
   35.8499985      -7.70651598E-10
   35.9099998      -6.11696138E-10
   35.9700012      -4.57045124E-10
   36.0299988      -3.09120812E-10
   36.0900002      -1.69123882E-10
   36.1500015      -3.72193699E-11
   36.2099991       8.68528097E-11
   36.2700005       2.03143710E-10
   36.3300018       3.11256743E-10
   36.3899994       4.10672413E-10
   36.4500008       5.01415354E-10
   36.5099983       5.84564508E-10
   36.5699997       6.62159494E-10
   36.6300011       7.36440409E-10
   36.6899986       8.08837775E-10
   36.7500000       8.79355422E-10
   36.8100014       9.46772216E-10
   36.8699989       1.00953479E-09
   36.9300003       1.06671005E-09
   36.9900017       1.11828924E-09
   37.0499992       1.16458465E-09
   37.1100006       1.20513732E-09
   37.1699982       1.23798127E-09
   37.2299995       1.25993116E-09
   37.2900009       1.26788224E-09
   37.3499985       1.26037480E-09
   37.4099998       1.23843602E-09
   37.4700012       1.20514521E-09
   37.5299988       1.16419618E-09
   37.5900002       1.11835774E-09
   37.6500015       1.06874254E-09
   37.7099991       1.01516195E-09
   37.7700005       9.57094182E-10
   37.8300018       8.94445074E-10
   37.8899994       8.27598268E-10
   37.9500008       7.56936014E-10
   38.0099983       6.82503609E-10
   38.0699997       6.04370720E-10
   38.1300011       5.23601051E-10
   38.1899986       4.43096171E-10
   38.2500000       3.67488873E-10
   38.3100014       3.01859537E-10
   38.3699989       2.49925081E-10
   38.4300003       2.12828616E-10
   38.4900017       1.89323640E-10
   38.5499992       1.77206305E-10
   38.6100006       1.74960615E-10
   38.6699982       1.82437440E-10
   38.7299995       2.00114911E-10
   38.7900009       2.27577013E-10
   38.8499985       2.62484118E-10
   38.9099998       3.00998587E-10
   38.9700012       3.39552775E-10
   39.0299988       3.76795234E-10
   39.0900002       4.14290463E-10
   39.1500015       4.55319338E-10
   39.2099991       5.02395958E-10
   39.2700005       5.55003821E-10
   39.3300018       6.08934014E-10
   39.3899994       6.57576271E-10
   39.4500008       6.94297231E-10
   39.5099983       7.14464266E-10
   39.5699997       7.16084581E-10
   39.6300011       6.99058977E-10
   39.6899986       6.63932742E-10
   39.7500000       6.11169781E-10
   39.8100014       5.41363621E-10
   39.8699989       4.55974730E-10
   39.9300003       3.57781860E-10
   39.9900017       2.50532095E-10
   40.0499992       1.37968040E-10
   40.1100006       2.29301075E-11
   40.1699982      -9.28241789E-11
   40.2299995      -2.08013037E-10
   40.2900009      -3.20977300E-10
   40.3499985      -4.29308672E-10
   40.4099998      -5.30305355E-10
   40.4700012      -6.21977692E-10
   40.5299988      -7.03923753E-10
   40.5900002      -7.77493847E-10
   40.6500015      -8.45148118E-10
   40.7099991      -9.09388453E-10
   40.7700005      -9.71795422E-10
   40.8300018      -1.03248965E-09
   40.8899994      -1.09002396E-09
   40.9500008      -1.14157495E-09
   41.0099983      -1.18340815E-09
   41.0699997      -1.21173327E-09
   41.1300011      -1.22398325E-09
   41.1899986      -1.22020893E-09
   41.2500000      -1.20391608E-09
   41.3100014      -1.18166499E-09
   41.3699989      -1.16125332E-09
   41.4300003      -1.14909171E-09
   41.4900017      -1.14795684E-09
   41.5499992      -1.15624088E-09
   41.6100006      -1.16909460E-09
   41.6699982      -1.18089605E-09
   41.7299995      -1.18784904E-09
   41.7900009      -1.18957877E-09
   41.8499985      -1.18922305E-09
   41.9099998      -1.19227450E-09
   41.9700012      -1.20484123E-09
   42.0299988      -1.23193700E-09
   42.0900002      -1.27609834E-09
   42.1500015      -1.33640587E-09
   42.2099991      -1.40802936E-09
   42.2700005      -1.48257795E-09
   42.3300018      -1.54952506E-09
   42.3899994      -1.59861624E-09
   42.4500008      -1.62261671E-09
   42.5099983      -1.61937552E-09
   42.5699997      -1.59230973E-09
   42.6300011      -1.54904445E-09
   42.6899986      -1.49873647E-09
   42.7500000      -1.44913237E-09
   42.8100014      -1.40439449E-09
   42.8699989      -1.36428546E-09
   42.9300003      -1.32473155E-09
   42.9900017      -1.27940114E-09
   43.0499992      -1.22178923E-09
   43.1100006      -1.14728227E-09
   43.1699982      -1.05465459E-09
   43.2299995      -9.46469569E-10
   43.2900009      -8.28083546E-10
   43.3499985      -7.05466630E-10
   43.4099998      -5.82703219E-10
   43.4700012      -4.60398025E-10
   43.5299988      -3.35937722E-10
   43.5900002      -2.05650205E-10
   43.6500015      -6.78236564E-11
   43.7099991       7.50315574E-11
   43.7700005       2.15953491E-10
   43.8300018       3.45509898E-10
   43.8899994       4.54964344E-10
   43.9500008       5.39035538E-10
   44.0099983       5.97036254E-10
   44.0699997       6.32178754E-10
   44.1300011       6.49764853E-10
   44.1899986       6.55279886E-10
   44.2500000       6.53033794E-10
   44.3100014       6.45394183E-10
   44.3699989       6.32367658E-10
   44.4300003       6.11486750E-10
   44.4900017       5.78331327E-10
   44.5499992       5.28048216E-10
   44.6100006       4.57708760E-10
   44.6699982       3.68552244E-10
   44.7299995       2.66778988E-10
   44.7900009       1.62048583E-10
   44.8499985       6.40753006E-11
   44.9099998      -2.10506022E-11
   44.9700012      -9.28353019E-11
   45.0299988      -1.55523969E-10
   45.0900002      -2.14900389E-10
   45.1500015      -2.74574335E-10
   45.2099991      -3.33800959E-10
   45.2700005      -3.87857635E-10
   45.3300018      -4.30448566E-10
   45.3899994      -4.56539334E-10
   45.4500008      -4.64075278E-10
   45.5099983      -4.54027593E-10
   45.5699997      -4.29347141E-10
   45.6300011      -3.93886007E-10
   45.6899986      -3.51941143E-10
   45.7500000      -3.08245429E-10
   45.8100014      -2.67710215E-10
   45.8699989      -2.34446990E-10
   45.9300003      -2.10347281E-10
   45.9900017      -1.94136263E-10
   46.0499992      -1.81758608E-10
   46.1100006      -1.68187422E-10
   46.1699982      -1.49797272E-10
   46.2299995      -1.26008717E-10
   46.2900009      -9.93133423E-11
   46.3499985      -7.37427411E-11
   46.4099998      -5.26968191E-11
   46.4700012      -3.72541165E-11
   46.5299988      -2.56044509E-11
   46.5900002      -1.35117039E-11
   46.6500015       4.72899107E-12
   46.7099991       3.52978619E-11
   46.7700005       8.39032385E-11
   46.8300018       1.54721125E-10
   46.8899994       2.49212373E-10
   46.9500008       3.65207697E-10
   47.0099983       4.96881147E-10
   47.0699997       6.35979991E-10
   47.1300011       7.74014297E-10
   47.1899986       9.04483877E-10
   47.2500000       1.02411057E-09
   47.3100014       1.13258758E-09
   47.3699989       1.23121047E-09
   47.4300003       1.32134759E-09
   47.4900017       1.40364720E-09
   47.5499992       1.47825607E-09
   47.6100006       1.54560631E-09
   47.6699982       1.60702551E-09
   47.7299995       1.66470138E-09
   47.7900009       1.72111225E-09
   47.8499985       1.77844250E-09
   47.9099998       1.83843640E-09
   47.9700012       1.90270355E-09
   48.0299988       1.97306016E-09
   48.0900002       2.05143502E-09
   48.1500015       2.13922013E-09
   48.2099991       2.23642149E-09
   48.2700005       2.34117459E-09
   48.3300018       2.44996601E-09
   48.3899994       2.55844013E-09
   48.4500008       2.66231193E-09
   48.5099983       2.75792345E-09
   48.5699997       2.84233304E-09
   48.6300011       2.91318059E-09
   48.6899986       2.96868885E-09
   48.7500000       3.00791836E-09
   48.8100014       3.03107184E-09
   48.8699989       3.03949688E-09
   48.9300003       3.03521497E-09
   48.9900017       3.02017078E-09
   49.0499992       2.99562264E-09
   49.1100006       2.96202440E-09
   49.1699982       2.91941027E-09
   49.2299995       2.86797253E-09
   49.2900009       2.80846191E-09
   49.3499985       2.74226908E-09
   49.4099998       2.67133782E-09
   49.4700012       2.59815147E-09
   49.5299988       2.52584131E-09
   49.5900002       2.45815523E-09
   49.6500015       2.39891751E-09
   49.7099991       2.35087705E-09
   49.7700005       2.31433295E-09
   49.8300018       2.28630559E-09
   49.8899994       2.26093944E-09
   49.9500008       2.23124030E-09
   50.0099983       2.19150231E-09
   50.0699997       2.13932760E-09
   50.1300011       2.07628825E-09
   50.1899986       2.00696393E-09
   50.2500000       1.93690042E-09
   50.3100014       1.87050686E-09
   50.3699989       1.80982107E-09
   50.4300003       1.75451509E-09
   50.4900017       1.70287284E-09
   50.5499992       1.65308134E-09
   50.6100006       1.60418601E-09