  -2.400000      0.0000000E+00
  -2.340000      0.0000000E+00
  -2.280000      0.0000000E+00
  -2.220000      0.0000000E+00
  -2.160000      0.0000000E+00
  -2.100000      0.0000000E+00
  -2.040000      0.0000000E+00
  -1.980000      0.0000000E+00
  -1.920000      7.9825316E-26
  -1.860000      8.4496923E-25
  -1.800000      4.1752483E-24
  -1.740000      1.1709662E-23
  -1.680000      1.4450928E-23
  -1.620000     -2.9815446E-23
  -1.560000     -2.0783658E-22
  -1.500000     -5.7782145E-22
  -1.440000     -9.2483791E-22
  -1.380000     -4.0092658E-22
  -1.320000      2.5206663E-21
  -1.260000      8.9552068E-21
  -1.200000      1.6788031E-20
  -1.140000      1.7144997E-20
  -1.080000     -5.9522358E-21
  -1.020000     -6.6808089E-20
 -0.9600000     -1.5700002E-19
 -0.9000000     -2.1963070E-19
 -0.8400000     -1.4240581E-19
 -0.7800000      1.9795597E-19
 -0.7200000      8.2347469E-19
 -0.6600000      1.5094391E-18
 -0.6000000      1.7102888E-18
 -0.5400000      6.9951040E-19
 -0.4800000     -1.9928983E-18
 -0.4200000     -5.9478902E-18
 -0.3600000     -9.3838338E-18
 -0.3000000     -9.3479135E-18
 -0.2400000     -2.9325730E-18
 -0.1800000      1.0651095E-17
 -0.1200000      2.8052520E-17
 -5.9999999E-02  4.1242107E-17
  0.0000000E+00  3.9672237E-17
  5.9999999E-02  1.5194017E-17
  0.1200000     -3.1974425E-17
  0.1800000     -8.9347100E-17
  0.2400000     -1.3344213E-16
  0.3000000     -1.3737977E-16
  0.3600000     -8.2690500E-17
  0.4200000      2.9682506E-17
  0.4800000      1.7482768E-16
  0.5400000      3.0888533E-16
  0.6000000      3.8214286E-16
  0.6600000      3.5459367E-16
  0.7200000      2.0748424E-16
  0.7800000     -5.2370466E-17
  0.8400000     -3.9339326E-16
  0.9000000     -7.5973821E-16
  0.9600000     -1.0681726E-15
   1.020000     -1.2055221E-15
   1.080000     -1.0388589E-15
   1.140000     -4.5180970E-16
   1.200000      5.9040531E-16
   1.260000      1.9654574E-15
   1.320000      3.3469732E-15
   1.380000      4.2313700E-15
   1.440000      4.0644266E-15
   1.500000      2.4504269E-15
   1.560000     -6.2360932E-16
   1.620000     -4.6472624E-15
   1.680000     -8.6172380E-15
   1.740000     -1.1268263E-14
   1.800000     -1.1447834E-14
   1.860000     -8.5051264E-15
   1.920000     -2.5448501E-15
   1.980000      5.5506332E-15
   2.040000      1.4322561E-14
   2.100000      2.2048778E-14
   2.160000      2.7018274E-14
   2.220000      2.7676866E-14
   2.280000      2.2687688E-14
   2.340000      1.1076351E-14
   2.400000     -7.3525704E-15
   2.460000     -3.1292267E-14
   2.520000     -5.7148730E-14
   2.580000     -7.8706132E-14
   2.640000     -8.7817916E-14
   2.700000     -7.6426204E-14
   2.760000     -3.9631509E-14
   2.820000      2.1134189E-14
   2.880000      9.6195980E-14
   2.940000      1.6822252E-13
   3.000000      2.1579525E-13
   3.060000      2.1930039E-13
   3.120000      1.6741721E-13
   3.180000      6.1992864E-14
   3.240000     -8.0529035E-14
   3.300000     -2.3182655E-13
   3.360000     -3.5784884E-13
   3.420000     -4.2658764E-13
   3.480000     -4.1532852E-13
   3.540000     -3.1572057E-13
   3.600000     -1.3594533E-13
   3.660000      9.9866750E-14
   3.720000      3.5443867E-13
   3.780000      5.8197354E-13
   3.840000      7.3453841E-13
   3.900000      7.7017001E-13
   3.960000      6.6210823E-13
   4.020000      4.0753444E-13
   4.080000      3.3255994E-14
   4.140000     -4.0438920E-13
   4.200000     -8.2708054E-13
   4.260000     -1.1490475E-12
   4.320000     -1.2956169E-12
   4.380000     -1.2209689E-12
   4.440000     -9.2002642E-13
   4.500000     -4.3097110E-13
   4.560000      1.7220630E-13
   4.620000      7.9457025E-13
   4.680000      1.3378893E-12
   4.740000      1.7162648E-12
   4.800000      1.8666913E-12
   4.860000      1.7542870E-12
   4.920000      1.3743096E-12
   4.980000      7.5375004E-13
   5.040000     -4.6212142E-14
   5.100000     -9.2856278E-13
   5.160000     -1.7639857E-12
   5.220000     -2.4044614E-12
   5.280000     -2.7090908E-12
   5.340000     -2.5788618E-12
   5.400000     -1.9911399E-12
   5.460000     -1.0212113E-12
   5.520000      1.6038248E-13
   5.580000      1.3193625E-12
   5.640000      2.2129314E-12
   5.700000      2.6543969E-12
   5.760000      2.5682735E-12
   5.820000      2.0188627E-12
   5.880000      1.2032034E-12
   5.940000      4.1000488E-13
   6.000000     -4.4306860E-14
   6.060000      1.1387913E-13
   6.120000      1.0543320E-12
   6.180000      2.8031577E-12
   6.240000      5.2296453E-12
   6.300000      8.0594151E-12
   6.360000      1.0909246E-11
   6.420000      1.3336347E-11
   6.480000      1.4893579E-11
   6.540000      1.5181748E-11
   6.600000      1.3890977E-11
   6.660000      1.0825074E-11
   6.720000      5.9060196E-12
   6.780000     -8.4071573E-13
   6.840000     -9.3155102E-12
   6.900000     -1.9380775E-11
   6.960000     -3.0893295E-11
   7.020000     -4.3720513E-11
   7.080000     -5.7729873E-11
   7.140000     -7.2746427E-11
   7.200000     -8.8486059E-11
   7.260000     -1.0448698E-10
   7.320000     -1.2007489E-10
   7.380000     -1.3439858E-10
   7.440000     -1.4655693E-10
   7.500000     -1.5580663E-10
   7.560000     -1.6180185E-10
   7.620000     -1.6479103E-10
   7.680000     -1.6569533E-10
   7.740000     -1.6602446E-10
   7.800000     -1.6763899E-10
   7.860000     -1.7242156E-10
   7.920000     -1.8194847E-10
   7.980000     -1.9724523E-10
   8.040000     -2.1866756E-10
   8.100000     -2.4589433E-10
   8.160000     -2.7797833E-10
   8.220000     -3.1339281E-10
   8.280000     -3.5003891E-10
   8.340000     -3.8522502E-10
   8.400000     -4.1567108E-10
   8.460000     -4.3760615E-10
   8.520000     -4.4701384E-10
   8.580000     -4.4004178E-10
   8.640000     -4.1354617E-10
   8.700000     -3.6570269E-10
   8.760000     -2.9658664E-10
   8.820000     -2.0861232E-10
   8.880000     -1.0671933E-10
   8.940000      1.7854881E-12
   9.000000      1.0777887E-10
   9.060000      2.0124118E-10
   9.120000      2.7243649E-10
   9.180000      3.1316699E-10
   9.240000      3.1788050E-10
   9.300000      2.8443223E-10
   9.360000      2.1438316E-10
   9.420000      1.1282640E-10
   9.480000     -1.2167113E-11
   9.540000     -1.5033791E-10
   9.600000     -2.9012243E-10
   9.660000     -4.1954076E-10
   9.720000     -5.2705906E-10
   9.780000     -6.0243582E-10
   9.840000     -6.3756045E-10
   9.900000     -6.2725269E-10
   9.960000     -5.6993932E-10
   10.02000     -4.6808291E-10
   10.08000     -3.2823250E-10
   10.14000     -1.6060157E-10
   10.20000      2.1848570E-11
   10.26000      2.0475402E-10
   10.32000      3.7396367E-10
   10.38000      5.1719534E-10
   10.44000      6.2546923E-10
   10.50000      6.9406836E-10
   10.56000      7.2285100E-10
   10.62000      7.1586126E-10
   10.68000      6.8033412E-10
   10.74000      6.2533012E-10
   10.80000      5.6031979E-10
   10.86000      4.9403448E-10
   10.92000      4.3380582E-10
   10.98000      3.8544437E-10
   11.04000      3.5352193E-10
   11.10000      3.4177949E-10
   11.16000      3.5334222E-10
   11.22000      3.9050876E-10
   11.28000      4.5407178E-10
   11.34000      5.4235333E-10
   11.40000      6.5031991E-10
   11.46000      7.6919299E-10
   11.52000      8.8686353E-10
   11.58000      9.8917208E-10
   11.64000      1.0618231E-09
   11.70000      1.0924613E-09
   11.76000      1.0723583E-09
   11.82000      9.9725816E-10
   11.88000      8.6719798E-10
   11.94000      6.8543138E-10
   12.00000      4.5685464E-10
   12.06000      1.8645073E-10
   12.12000     -1.2177992E-10
   12.18000     -4.6512877E-10
   12.24000     -8.4171414E-10
   12.30000     -1.2494749E-09
   12.36000     -1.6850259E-09
   12.42000     -2.1428410E-09
   12.48000     -2.6151592E-09
   12.54000     -3.0928373E-09
   12.60000     -3.5670815E-09
   12.66000     -4.0316808E-09
   12.72000     -4.4850883E-09
   12.78000     -4.9315654E-09
   12.84000     -5.3807581E-09
   12.90000     -5.8454677E-09
   12.96000     -6.3379724E-09
   13.02000     -6.8658550E-09
   13.08000     -7.4286075E-09
   13.14000     -8.0162064E-09
   13.20000     -8.6102760E-09
   13.26000     -9.1876249E-09
   13.32000     -9.7250874E-09
   13.38000     -1.0204143E-08
   13.44000     -1.0613855E-08
   13.50000     -1.0951293E-08
   13.56000     -1.1219560E-08
   13.62000     -1.1424367E-08
   13.68000     -1.1570609E-08
   13.74000     -1.1660199E-08
   13.80000     -1.1691884E-08
   13.86000     -1.1662892E-08
   13.92000     -1.1571571E-08
   13.98000     -1.1419861E-08
   14.04000     -1.1214637E-08
   14.10000     -1.0967464E-08
   14.16000     -1.0692933E-08
   14.22000     -1.0406268E-08
   14.28000     -1.0121046E-08
   14.34000     -9.8477235E-09
   14.40000     -9.5933013E-09
   14.46000     -9.3620409E-09
   14.52000     -9.1568193E-09
   14.58000     -8.9806091E-09
   14.64000     -8.8375991E-09
   14.70000     -8.7336636E-09
   14.76000     -8.6760767E-09
   14.82000     -8.6725604E-09
   14.88000     -8.7298666E-09
   14.94000     -8.8521706E-09
   15.00000     -9.0395851E-09
   15.06000     -9.2870600E-09
   15.12000     -9.5839132E-09
   15.18000     -9.9141300E-09
   15.24000     -1.0257470E-08
   15.30000     -1.0591345E-08
   15.36000     -1.0893296E-08
   15.42000     -1.1143857E-08
   15.48000     -1.1329381E-08
   15.54000     -1.1444353E-08
   15.60000     -1.1492577E-08
   15.66000     -1.1486704E-08
   15.72000     -1.1445849E-08
   15.78000     -1.1391556E-08
   15.84000     -1.1342959E-08
   15.90000     -1.1312432E-08
   15.96000     -1.1303075E-08
   16.02000     -1.1308915E-08
   16.08000     -1.1317870E-08
   16.14000     -1.1316533E-08
   16.20000     -1.1295213E-08
   16.26000     -1.1251567E-08
   16.32000     -1.1191706E-08
   16.38000     -1.1128599E-08
   16.44000     -1.1078479E-08
   16.50000     -1.1056549E-08
   16.56000     -1.1073308E-08
   16.62000     -1.1132400E-08
   16.68000     -1.1230334E-08
   16.74000     -1.1357813E-08
   16.80000     -1.1502089E-08
   16.86000     -1.1649575E-08
   16.92000     -1.1787977E-08
   16.98000     -1.1907309E-08
   17.04000     -1.1999477E-08
   17.10000     -1.2056518E-08
   17.16000     -1.2068136E-08
   17.22000     -1.2019551E-08
   17.28000     -1.1890866E-08
   17.34000     -1.1658737E-08
   17.40000     -1.1300412E-08
   17.46000     -1.0799282E-08
   17.52000     -1.0150350E-08
   17.58000     -9.3638066E-09
   17.64000     -8.4653076E-09
   17.70000     -7.4924413E-09
   17.76000     -6.4880159E-09
   17.82000     -5.4917728E-09
   17.88000     -4.5327253E-09
   17.94000     -3.6243009E-09
   18.00000     -2.7637705E-09
   18.06000     -1.9362416E-09
   18.12000     -1.1220384E-09
   18.18000     -3.0507419E-10
   18.24000      5.2066929E-10
   18.30000      1.3488820E-09
   18.36000      2.1636828E-09
   18.42000      2.9462131E-09
   18.48000      3.6822789E-09
   18.54000      4.3677848E-09
   18.60000      5.0096185E-09
   18.66000      5.6216365E-09
   18.72000      6.2175394E-09
   18.78000      6.8037664E-09
   18.84000      7.3754878E-09
   18.90000      7.9173832E-09
   18.96000      8.4088985E-09
   19.02000      8.8318908E-09
   19.08000      9.1777403E-09
   19.14000      9.4513650E-09
   19.20000      9.6707389E-09
   19.26000      9.8620703E-09
   19.32000      1.0052156E-08
   19.38000      1.0260271E-08
   19.44000      1.0492124E-08
   19.50000      1.0737889E-08
   19.56000      1.0975159E-08
   19.62000      1.1176130E-08
   19.68000      1.1316832E-08
   19.74000      1.1385324E-08
   19.80000      1.1385935E-08
   19.86000      1.1337944E-08
   19.92000      1.1269144E-08
   19.98000      1.1206645E-08
   20.04000      1.1168321E-08
   20.10000      1.1157873E-08
   20.16000      1.1164958E-08
   20.22000      1.1169823E-08
   20.28000      1.1150274E-08
   20.34000      1.1088236E-08
   20.40000      1.0973674E-08
   20.46000      1.0804880E-08
   20.52000      1.0585457E-08
   20.58000      1.0319411E-08
   20.64000      1.0006226E-08
   20.70000      9.6377804E-09
   20.76000      9.1983443E-09
   20.82000      8.6680254E-09
   20.88000      8.0288043E-09
   20.94000      7.2713022E-09
   21.00000      6.3998860E-09
   21.06000      5.4340790E-09
   21.12000      4.4054675E-09
   21.18000      3.3509828E-09
   21.24000      2.3048325E-09
   21.30000      1.2918271E-09
   21.36000      3.2414527E-10
   21.42000     -5.9792360E-10
   21.48000     -1.4822964E-09
   21.54000     -2.3404183E-09
   21.60000     -3.1834462E-09
   21.66000     -4.0202943E-09
   21.72000     -4.8574704E-09
   21.78000     -5.6999072E-09
   21.84000     -6.5518595E-09
   21.90000     -7.4172477E-09
   21.96000     -8.2993106E-09
   22.02000     -9.1997485E-09
   22.08000     -1.0117712E-08
   22.14000     -1.1048965E-08
   22.20000     -1.1985593E-08
   22.26000     -1.2916521E-08
   22.32000     -1.3828991E-08
   22.38000     -1.4710768E-08
   22.44000     -1.5552542E-08
   22.50000     -1.6349752E-08
   22.56000     -1.7103241E-08
   22.62000     -1.7818575E-08
   22.68000     -1.8504371E-08
   22.74000     -1.9170288E-08
   22.80000     -1.9825185E-08
   22.86000     -2.0475628E-08
   22.92000     -2.1124618E-08
   22.98000     -2.1770333E-08
   23.04000     -2.2405004E-08
   23.10000     -2.3014339E-08
   23.16000     -2.3578064E-08
   23.22000     -2.4071790E-08
   23.28000     -2.4469985E-08
   23.34000     -2.4749331E-08
   23.40000     -2.4891680E-08
   23.46000     -2.4886173E-08
   23.52000     -2.4730419E-08
   23.58000     -2.4430852E-08
   23.64000     -2.4002306E-08
   23.70000     -2.3466564E-08
   23.76000     -2.2849662E-08
   23.82000     -2.2178002E-08
   23.88000     -2.1474010E-08
   23.94000     -2.0752585E-08
   24.00000     -2.0019456E-08
   24.06000     -1.9272019E-08
   24.12000     -1.8502089E-08
   24.18000     -1.7699396E-08
   24.24000     -1.6854511E-08
   24.30000     -1.5960476E-08
   24.36000     -1.5013338E-08
   24.42000     -1.4012221E-08
   24.48000     -1.2959569E-08
   24.54000     -1.1861606E-08
   24.60000     -1.0728479E-08
   24.66000     -9.5735038E-09
   24.72000     -8.4112566E-09
   24.78000     -7.2550508E-09
   24.84000     -6.1146981E-09
   24.90000     -4.9953761E-09
   24.96000     -3.8978314E-09
   25.02000     -2.8195026E-09
   25.08000     -1.7558582E-09
   25.14000     -7.0144474E-10
   25.20000      3.4934680E-10
   25.26000      1.4014458E-09
   25.32000      2.4578874E-09
   25.38000      3.5183250E-09
   25.44000      4.5777941E-09
   25.50000      5.6263350E-09
   25.56000      6.6497003E-09
   25.62000      7.6307902E-09
   25.68000      8.5510869E-09
   25.74000      9.3914680E-09
   25.80000      1.0132330E-08
   25.86000      1.0753554E-08
   25.92000      1.1235127E-08
   25.98000      1.1558829E-08
   26.04000      1.1710778E-08
   26.10000      1.1683882E-08
   26.16000      1.1479077E-08
   26.22000      1.1104652E-08
   26.28000      1.0573725E-08
   26.34000      9.9006732E-09
   26.40000      9.0977101E-09
   26.46000      8.1725906E-09
   26.52000      7.1279103E-09
   26.58000      5.9618768E-09
   26.64000      4.6700261E-09
   26.70000      3.2472491E-09
   26.76000      1.6896197E-09
   26.82000     -4.2797385E-12
   26.88000     -1.8326186E-09
   26.94000     -3.7900909E-09
   27.00000     -5.8679981E-09
   27.06000     -8.0543821E-09
   27.12000     -1.0333949E-08
   27.18000     -1.2687647E-08
   27.24000     -1.5091988E-08
   27.30000     -1.7518433E-08
   27.36000     -1.9933326E-08
   27.42000     -2.2298858E-08
   27.48000     -2.4575295E-08
   27.54000     -2.6724273E-08
   27.60000     -2.8712542E-08
   27.66000     -3.0515157E-08
   27.72000     -3.2117118E-08
   27.78000     -3.3512741E-08
   27.84000     -3.4702769E-08
   27.90000     -3.5689983E-08
   27.96000     -3.6474717E-08
   28.02000     -3.7051873E-08
   28.08000     -3.7410501E-08
   28.14000     -3.7536154E-08
   28.20000     -3.7414999E-08
   28.26000     -3.7038152E-08
   28.32000     -3.6404384E-08
   28.38000     -3.5520273E-08
   28.44000     -3.4397740E-08
   28.50000     -3.3050117E-08
   28.56000     -3.1488241E-08
   28.62000     -2.9718084E-08
   28.68000     -2.7740613E-08
   28.74000     -2.5553730E-08
   28.80000     -2.3155426E-08
   28.86000     -2.0547089E-08
   28.92000     -1.7735937E-08
   28.98000     -1.4736038E-08
   29.04000     -1.1567794E-08
   29.10000     -8.2562099E-09
   29.16000     -4.8285300E-09
   29.22000     -1.3119444E-09
   29.28000      2.2679205E-09
   29.34000      5.8873031E-09
   29.40000      9.5233625E-09
   29.46000      1.3152463E-08
   29.52000      1.6748507E-08
   29.58000      2.0282219E-08
   29.64000      2.3721933E-08
   29.70000      2.7035822E-08
   29.76000      3.0194844E-08
   29.82000      3.3175297E-08
   29.88000      3.5959971E-08
   29.94000      3.8537305E-08
   30.00000      4.0898811E-08
   30.06000      4.3035669E-08
   30.12000      4.4935678E-08
   30.18000      4.6581711E-08
   30.24000      4.7952234E-08
   30.30000      4.9023647E-08
   30.36000      4.9773693E-08
   30.42000      5.0184656E-08
   30.48000      5.0245411E-08
   30.54000      4.9951669E-08
   30.60000      4.9304592E-08
   30.66000      4.8308518E-08
   30.72000      4.6968772E-08
   30.78000      4.5290520E-08
   30.84000      4.3279144E-08
   30.90000      4.0941874E-08
   30.96000      3.8290157E-08
   31.02000      3.5341706E-08
   31.08000      3.2121580E-08
   31.14000      2.8661747E-08
   31.20000      2.4999244E-08
   31.26000      2.1173307E-08
   31.32000      1.7222170E-08
   31.38000      1.3180313E-08
   31.44000      9.0768557E-09
   31.50000      4.9355728E-09
   31.56000      7.7659401E-10
   31.62000     -3.3806467E-09
   31.68000     -7.5141422E-09
   31.74000     -1.1596902E-08
   31.80000     -1.5596399E-08
   31.86000     -1.9476253E-08
   31.92000     -2.3199700E-08
   31.98000     -2.6733566E-08
   32.04000     -3.0051289E-08
   32.10000     -3.3133841E-08
   32.16000     -3.5968370E-08
   32.22000     -3.8545359E-08
   32.28000     -4.0855692E-08
   32.34000     -4.2888992E-08
   32.40000     -4.4633769E-08
   32.46000     -4.6079204E-08
   32.52000     -4.7217455E-08
   32.58000     -4.8045472E-08
   32.64000     -4.8565663E-08
   32.70000     -4.8785509E-08
   32.76000     -4.8716544E-08
   32.82000     -4.8373426E-08
   32.88000     -4.7773188E-08
   32.94000     -4.6934492E-08
   33.00000     -4.5876508E-08
   33.06000     -4.4617288E-08
   33.12000     -4.3171898E-08
   33.18000     -4.1551193E-08
   33.24000     -3.9761872E-08
   33.30000     -3.7808316E-08
   33.36000     -3.5695766E-08
   33.42000     -3.3433878E-08
   33.48000     -3.1039480E-08
   33.54000     -2.8537483E-08
   33.60000     -2.5959524E-08
   33.66000     -2.3340645E-08
   33.72000     -2.0714811E-08
   33.78000     -1.8110477E-08
   33.84000     -1.5547441E-08
   33.90000     -1.3036011E-08
   33.96000     -1.0578946E-08
   34.02000     -8.1758529E-09
   34.08000     -5.8288632E-09
   34.14000     -3.5477001E-09
   34.20000     -1.3522063E-09
   34.26000      7.2894696E-10
   34.32000      2.6633242E-09
   34.38000      4.4220339E-09
   34.44000      5.9867169E-09
   34.50000      7.3535760E-09
   34.56000      8.5327825E-09
   34.62000      9.5432773E-09
   34.68000      1.0404687E-08
   34.74000      1.1129162E-08
   34.80000      1.1716013E-08
   34.86000      1.2151106E-08
   34.92000      1.2411379E-08
   34.98000      1.2473197E-08
   35.04000      1.2321888E-08
   35.10000      1.1959294E-08
   35.16000      1.1406566E-08
   35.22000      1.0700811E-08
   35.28000      9.8861417E-09
   35.34000      9.0017824E-09
   35.40000      8.0712086E-09
   35.46000      7.0963617E-09
   35.52000      6.0594627E-09
   35.58000      4.9322786E-09
   35.64000      3.6898411E-09
   35.70000      2.3237050E-09
   35.76000      8.4974944E-10
   35.82000     -6.9264117E-10
   35.88000     -2.2500608E-09
   35.94000     -3.7701295E-09
   36.00000     -5.2169842E-09
   36.06000     -6.5819203E-09
   36.12000     -7.8855491E-09
   36.18000     -9.1706429E-09
   36.24000     -1.0487837E-08
   36.30000     -1.1878623E-08
   36.36000     -1.3360989E-08
   36.42000     -1.4922367E-08
   36.48000     -1.6522439E-08
   36.54000     -1.8105313E-08
   36.60000     -1.9617532E-08
   36.66000     -2.1026072E-08
   36.72000     -2.2330154E-08
   36.78000     -2.3562341E-08
   36.84000     -2.4777899E-08
   36.90000     -2.6035581E-08
   36.96000     -2.7376304E-08
   37.02000     -2.8807259E-08
   37.08000     -3.0297343E-08
   37.14000     -3.1785845E-08
   37.20000     -3.3201552E-08
   37.26000     -3.4485652E-08
   37.32000     -3.5610380E-08
   37.38000     -3.6586719E-08
   37.44000     -3.7458374E-08
   37.50000     -3.8283925E-08
   37.56000     -3.9113150E-08
   37.62000     -3.9965624E-08
   37.68000     -4.0819010E-08
   37.74000     -4.1611344E-08
   37.80000     -4.2256936E-08
   37.86000     -4.2670930E-08
   37.92000     -4.2794436E-08
   37.98000     -4.2611802E-08
   38.04000     -4.2153939E-08
   38.10000     -4.1486416E-08
   38.16000     -4.0686086E-08
   38.22000     -3.9814143E-08
   38.28000     -3.8894697E-08
   38.34000     -3.7906201E-08
   38.40000     -3.6788649E-08
   38.46000     -3.5463984E-08
   38.52000     -3.3862868E-08
   38.58000     -3.1948598E-08
   38.64000     -2.9730213E-08
   38.70000     -2.7260283E-08
   38.76000     -2.4618108E-08
   38.82000     -2.1883951E-08
   38.88000     -1.9112967E-08
   38.94000     -1.6317824E-08
   39.00000     -1.3466240E-08
   39.06000     -1.0494790E-08
   39.12000     -7.3347284E-09
   39.18000     -3.9412500E-09
   39.24000     -3.1606939E-10
   39.30000      3.4848413E-09
   39.36000      7.3616033E-09
   39.42000      1.1195842E-08
   39.48000      1.4882792E-08
   39.54000      1.8359236E-08
   39.60000      2.1617765E-08
   39.66000      2.4702587E-08
   39.72000      2.7688460E-08
   39.78000      3.0650202E-08
   39.84000      3.3633277E-08
   39.90000      3.6635452E-08
   39.96000      3.9605521E-08
   40.02000      4.2459181E-08
   40.08000      4.5106198E-08
   40.14000      4.7479315E-08
   40.20000      4.9554945E-08
   40.26000      5.1358477E-08
   40.32000      5.2952657E-08
   40.38000      5.4413185E-08
   40.44000      5.5800175E-08
   40.50000      5.7135527E-08
   40.56000      5.8393994E-08
   40.62000      5.9511017E-08
   40.68000      6.0404396E-08
   40.74000      6.1002332E-08
   40.80000      6.1268189E-08
   40.86000      6.1213818E-08
   40.92000      6.0897186E-08
   40.98000      6.0405561E-08
   41.04000      5.9829858E-08
   41.10000      5.9238708E-08
   41.16000      5.8660401E-08
   41.22000      5.8078189E-08
   41.28000      5.7440094E-08
   41.34000      5.6679745E-08
   41.40000      5.5741278E-08
   41.46000      5.4600182E-08
   41.52000      5.3273183E-08
   41.58000      5.1814148E-08
   41.64000      5.0297452E-08
   41.70000      4.8794831E-08
   41.76000      4.7353808E-08
   41.82000      4.5985182E-08
   41.88000      4.4663782E-08
   41.94000      4.3341704E-08
   42.00000      4.1968871E-08
   42.06000      4.0513317E-08
   42.12000      3.8973916E-08
   42.18000      3.7381536E-08
   42.24000      3.5788698E-08
   42.30000      3.4251944E-08
   42.36000      3.2813197E-08
   42.42000      3.1486429E-08
   42.48000      3.0253648E-08
   42.54000      2.9071154E-08
   42.60000      2.7883658E-08
   42.66000      2.6641514E-08
   42.72000      2.5315678E-08
   42.78000      2.3905761E-08
   42.84000      2.2438856E-08
   42.90000      2.0959815E-08
   42.96000      1.9516303E-08
   43.02000      1.8143760E-08
   43.08000      1.6855294E-08
   43.14000      1.5639749E-08
   43.20000      1.4468330E-08
   43.26000      1.3307035E-08
   43.32000      1.2130288E-08
   43.38000      1.0930887E-08
   43.44000      9.7230100E-09
   43.50000      8.5376728E-09
   43.56000      7.4127451E-09
   43.62000      6.3813004E-09
   43.68000      5.4623595E-09
   43.74000      4.6568567E-09
   43.80000      3.9496881E-09
   43.86000      3.3166527E-09
   43.92000      2.7336373E-09
   43.98000      2.1849667E-09
   44.04000      1.6683372E-09
   44.10000      1.1950307E-09
   44.16000      7.8564300E-10
   44.22000      4.6296031E-10
   44.28000      2.4441371E-10
   44.34000      1.3653889E-10
   44.40000      1.3307079E-10
   44.46000      2.1699362E-10
   44.52000      3.6552325E-10
   44.58000      5.5609733E-10
   44.64000      7.7131068E-10
   44.70000      1.0013507E-09
   44.76000      1.2435557E-09
   44.82000      1.4997685E-09
   44.88000      1.7727702E-09
   44.94000      2.0630833E-09
   45.00000      2.3669604E-09
   45.06000      2.6757310E-09
   45.12000      2.9762379E-09
   45.18000      3.2519747E-09
   45.24000      3.4847127E-09
   45.30000      3.6565895E-09
   45.36000      3.7526324E-09
   45.42000      3.7634336E-09
   45.48000      3.6873009E-09
   45.54000      3.5310364E-09
   45.60000      3.3086753E-09
   45.66000      3.0381728E-09
   45.72000      2.7368057E-09
   45.78000      2.4166955E-09
   45.84000      2.0819444E-09
   45.90000      1.7283827E-09
   45.96000      1.3460266E-09
   46.02000      9.2343544E-10
   46.08000      4.5254198E-10
   46.14000     -6.7516638E-11
   46.20000     -6.2866828E-10
   46.26000     -1.2146993E-09
   46.32000     -1.8043048E-09
   46.38000     -2.3755560E-09
   46.44000     -2.9106075E-09
   46.50000     -3.3993759E-09
   46.56000     -3.8411474E-09
   46.62000     -4.2436032E-09
   46.68000     -4.6194870E-09
   46.74000     -4.9819238E-09
   46.80000     -5.3398934E-09
   46.86000     -5.6953553E-09
   46.92000     -6.0429795E-09
   46.98000     -6.3725203E-09
   47.04000     -6.6729751E-09
   47.10000     -6.9370873E-09
   47.16000     -7.1647408E-09
   47.22000     -7.3641995E-09
   47.28000     -7.5508391E-09
   47.34000     -7.7437532E-09
   47.40000     -7.9611295E-09
   47.46000     -8.2157072E-09
   47.52000     -8.5116012E-09
   47.58000     -8.8435357E-09
   47.64000     -9.1988372E-09
   47.70000     -9.5616430E-09
   47.76000     -9.9179536E-09
   47.82000     -1.0259765E-08
   47.88000     -1.0586791E-08
   47.94000     -1.0905237E-08
   48.00000     -1.1224268E-08
   48.06000     -1.1551655E-08
   48.12000     -1.1890286E-08
   48.18000     -1.2236691E-08
   48.24000     -1.2581765E-08
   48.30000     -1.2913175E-08
   48.36000     -1.3218462E-08
   48.42000     -1.3488005E-08
   48.48000     -1.3717191E-08
   48.54000     -1.3907354E-08
   48.60000     -1.4065188E-08
   48.66000     -1.4200489E-08
   48.72000     -1.4322609E-08
   48.78000     -1.4436595E-08
   48.84000     -1.4540433E-08
   48.90000     -1.4624651E-08
   48.96000     -1.4674668E-08
   49.02000     -1.4675018E-08
   49.08000     -1.4613644E-08
   49.14000     -1.4484396E-08
   49.20000     -1.4286783E-08
   49.26000     -1.4023448E-08
   49.32000     -1.3696908E-08
   49.38000     -1.3307332E-08
   49.44000     -1.2852313E-08
   49.50000     -1.2328464E-08
   49.56000     -1.1733752E-08
   49.62000     -1.1069360E-08
   49.68000     -1.0340393E-08
   49.74000     -9.5554560E-09
   49.80000     -8.7255811E-09
   49.86000     -7.8629583E-09
   49.92000     -6.9796653E-09
   49.98000     -6.0863807E-09
   50.04000     -5.1911768E-09
   50.10000     -4.2987267E-09
   50.16000     -3.4103358E-09
   50.22000     -2.5249962E-09
   50.28000     -1.6411370E-09
   50.34000     -7.5835010E-10
   50.40000      1.2169374E-10
   50.46000      9.9550845E-10
   50.52000      1.8590128E-09
   50.58000      2.7090472E-09
   50.64000      3.5444838E-09
   50.70000      4.3665431E-09
   50.76000      5.1783493E-09
   50.82000      5.9840506E-09
   50.88000      6.7879102E-09
   50.94000      7.5937185E-09
   51.00000      8.4048306E-09
   51.06000      9.2250048E-09
   51.12000      1.0060056E-08
   51.18000      1.0919926E-08
   51.24000      1.1820409E-08
   51.30000      1.2783588E-08
   51.36000      1.3836360E-08
   51.42000      1.5007233E-08
   51.48000      1.6322437E-08
   51.54000      1.7802924E-08
   51.60000      1.9463537E-08
   51.66000      2.1314763E-08
   51.72000      2.3366345E-08
   51.78000      2.5631241E-08
   51.84000      2.8128410E-08
   51.90000      3.0883395E-08
   51.96000      3.3926582E-08
   52.02000      3.7289670E-08
   52.08000      4.1001449E-08
   52.14000      4.5083965E-08
   52.20000      4.9550167E-08
   52.26000      5.4403714E-08
   52.32000      5.9641096E-08
   52.38000      6.5255350E-08
   52.44000      7.1239860E-08
   52.50000      7.7590570E-08
   52.56000      8.4305228E-08
   52.62000      9.1379690E-08
   52.68000      9.8802580E-08
   52.74000      1.0655039E-07
   52.80000      1.1458487E-07
   52.86000      1.2285351E-07
   52.92000      1.3129210E-07
   52.98000      1.3982824E-07
   53.04000      1.4838359E-07
   53.10000      1.5687465E-07
   53.16000      1.6521182E-07
   53.22000      1.7329782E-07
   53.28000      1.8102590E-07
   53.34000      1.8827848E-07
   53.40000      1.9492656E-07
   53.46000      2.0082993E-07
   53.52000      2.0583863E-07
   53.58000      2.0979580E-07
   53.64000      2.1254122E-07
   53.70000      2.1391453E-07
   53.76000      2.1375691E-07
   53.82000      2.1191079E-07
   53.88000      2.0821834E-07
   53.94000      2.0252045E-07
   54.00000      1.9465793E-07
   54.06000      1.8447571E-07
   54.12000      1.7182894E-07
   54.18000      1.5658912E-07
   54.24000      1.3864823E-07
   54.30000      1.1791992E-07
   54.36000      9.4338375E-08
   54.42000      6.7856583E-08
   54.48000      3.8445314E-08
   54.54000      6.0935088E-09
   54.60000     -2.9190298E-08
   54.66000     -6.7376263E-08
   54.72000     -1.0841168E-07
   54.78000     -1.5221963E-07
   54.84000     -1.9869779E-07
   54.90000     -2.4771742E-07
   54.96000     -2.9912275E-07
   55.02000     -3.5273169E-07
   55.08000     -4.0833743E-07
   55.14000     -4.6571074E-07
   55.20000     -5.2460200E-07
   55.26000     -5.8474183E-07
   55.32000     -6.4584117E-07
   55.38000     -7.0759177E-07
   55.44000     -7.6966751E-07
   55.50000     -8.3172802E-07
   55.56000     -8.9342410E-07