 -0.750000000       0.00000000    
 -0.689999998       0.00000000    
 -0.629999995       0.00000000    
 -0.569999993       0.00000000    
 -0.509999990       0.00000000    
 -0.449999988       0.00000000    
 -0.389999986       0.00000000    
 -0.330000013       0.00000000    
 -0.270000011       7.66655025E-26
 -0.209999993       8.06843285E-25
 -0.150000006       3.95484568E-24
  -9.00000036E-02   1.09367439E-23
  -2.99999993E-02   1.28367462E-23
   2.99999993E-02  -3.06403768E-23
   9.00000036E-02  -1.99828249E-22
  0.150000006      -5.41186904E-22
  0.209999993      -8.31263403E-22
  0.270000011      -2.43731413E-22
  0.330000013       2.65302026E-21
  0.389999986       8.77689117E-21
  0.449999988       1.57692807E-20
  0.509999990       1.46913933E-20
  0.569999993      -9.89598495E-21
  0.629999995      -7.06801535E-20
  0.689999998      -1.56460269E-19
  0.750000000      -2.07425361E-19
  0.810000002      -1.11028835E-19
  0.870000005       2.49234456E-19
  0.930000007       8.77808305E-19
  0.990000010       1.52314422E-18
   1.04999995       1.61625674E-18
   1.11000001       4.36693202E-19
   1.16999996      -2.41882356E-18
   1.23000002      -6.39095334E-18
   1.28999996      -9.52231379E-18
   1.35000002      -8.75861929E-18
   1.40999997      -1.32289403E-18
   1.47000003       1.30945727E-17
   1.52999997       3.03754221E-17
   1.59000003       4.17730808E-17
   1.64999998       3.66478301E-17
   1.71000004       7.92248693E-18
   1.76999998      -4.18846113E-17
   1.83000004      -9.75412106E-17
   1.88999999      -1.33970847E-16
   1.95000005      -1.25599687E-16
   2.00999999      -5.89018175E-17
   2.06999993       5.79369212E-17
   2.13000011       1.94001713E-16
   2.19000006       3.05027973E-16
   2.25000000       3.49080753E-16
   2.30999994       3.00427816E-16
   2.36999989       1.54552954E-16
   2.43000007      -7.63824732E-17
   2.49000001      -3.70463359E-16
   2.54999995      -6.94902442E-16
   2.60999990      -9.92137420E-16
   2.67000008      -1.16160373E-15
   2.73000002      -1.05827238E-15
   2.78999996      -5.30183915E-16
   2.84999990       4.99618096E-16
   2.91000009       1.93186150E-15
   2.97000003       3.42400893E-15
   3.02999997       4.41688803E-15
   3.08999991       4.28561444E-15
   3.15000010       2.58751307E-15
   3.21000004      -6.81737591E-16
   3.26999998      -4.94301196E-15
   3.32999992      -9.09368982E-15
   3.39000010      -1.17875002E-14
   3.45000005      -1.18490990E-14
   3.50999999      -8.66792447E-15
   3.56999993      -2.41735940E-15
   3.63000011       5.97452064E-15
   3.69000006       1.50550094E-14
   3.75000000       2.31356004E-14
   3.80999994       2.84922673E-14
   3.86999989       2.94302241E-14
   3.93000007       2.43224003E-14
   3.99000001       1.18419229E-14
   4.05000019      -8.42714180E-15
   4.11000013      -3.50351665E-14
   4.17000008      -6.37316060E-14
   4.23000002      -8.71771527E-14
   4.28999996      -9.59332575E-14
   4.34999990      -8.09827533E-14
   4.40999985      -3.73467702E-14
   4.46999979       3.23703297E-14
   4.53000021       1.16081691E-13
   4.59000015       1.93308070E-13
   4.65000010       2.39680454E-13
   4.71000004       2.33949091E-13
   4.76999998       1.65396817E-13
   4.82999992       3.90606059E-14
   4.88999987      -1.23316193E-13
   4.94999981      -2.87280589E-13
   5.01000023      -4.13577701E-13
   5.07000017      -4.67620571E-13
   5.13000011      -4.27814576E-13
   5.19000006      -2.90704499E-13
   5.25000000      -7.21937362E-14
   5.30999994       1.94705160E-13
   5.36999989       4.64556670E-13
   5.42999983       6.85771915E-13
   5.48999977       8.08147006E-13
   5.55000019       7.91626367E-13
   5.61000013       6.15788887E-13
   5.67000008       2.88432527E-13
   5.73000002      -1.49517592E-13
   5.78999996      -6.25850391E-13
   5.84999990      -1.04754942E-12
   5.90999985      -1.31921947E-12
   5.96999979      -1.36565065E-12
   6.03000021      -1.15239730E-12
   6.09000015      -6.97923869E-13
   6.15000010      -7.29623068E-14
   6.21000004       6.13372905E-13
   6.26999998       1.23690316E-12
   6.32999992       1.68439514E-12
   6.38999987       1.87510771E-12
   6.44999981       1.77295234E-12
   6.51000023       1.38818297E-12
   6.57000017       7.71231874E-13
   6.63000011       3.17380090E-15
   6.69000006      -8.13467783E-13
   6.75000000      -1.56268737E-12
   6.80999994      -2.12404660E-12
   6.86999989      -2.38655883E-12
   6.92999983      -2.26951747E-12
   6.98999977      -1.74791041E-12
   7.05000019      -8.74780175E-13
   7.11000013       2.10268895E-13
   7.17000008       1.29580439E-12
   7.23000002       2.13944292E-12
   7.28999996       2.52819553E-12
   7.34999990       2.34273581E-12
   7.40999985       1.60586258E-12
   7.46999979       4.98132189E-13
   7.53000021      -6.67387695E-13
   7.59000015      -1.50732877E-12
   7.65000010      -1.65261663E-12
   7.71000004      -8.35064168E-13
   7.76999998       1.04415044E-12
   7.82999992       3.87881307E-12
   7.88999987       7.36141096E-12
   7.94999981       1.10244695E-11
   8.01000023       1.43106577E-11
   8.06999969       1.66578210E-11
   8.13000011       1.75826315E-11
   8.18999958       1.67468071E-11
   8.25000000       1.39933906E-11
   8.31000042       9.34693122E-12
   8.36999989       2.97927438E-12
   8.43000031      -4.84991908E-12
   8.48999977      -1.38638996E-11
   8.55000019      -2.38349340E-11
   8.60999966      -3.46305797E-11
   8.67000008      -4.62274836E-11
   8.72999954      -5.86842588E-11
   8.78999996      -7.20721122E-11
   8.85000038      -8.63736721E-11
   8.90999985      -1.01374964E-10
   8.97000027      -1.16588988E-10
   9.02999973      -1.31252439E-10
   9.09000015      -1.44424195E-10
   9.14999962      -1.55183436E-10
   9.21000004      -1.62885844E-10
   9.27000046      -1.67404507E-10
   9.32999992      -1.69274011E-10
   9.39000034      -1.69680825E-10
   9.44999981      -1.70291670E-10
   9.51000023      -1.72966960E-10
   9.56999969      -1.79441503E-10
   9.63000011      -1.91055588E-10
   9.68999958      -2.08585746E-10
   9.75000000      -2.32174391E-10
   9.81000042      -2.61316829E-10
   9.86999989      -2.94851976E-10
   9.93000031      -3.30925481E-10
   9.98999977      -3.66936287E-10
   10.0500002      -3.99519029E-10
   10.1099997      -4.24634050E-10
   10.1700001      -4.37825193E-10
   10.2299995      -4.34669273E-10
   10.2900000      -4.11391338E-10
   10.3500004      -3.65571656E-10
   10.4099998      -2.96831892E-10
   10.4700003      -2.07366471E-10
   10.5299997      -1.02184011E-10
   10.5900002       1.10499266E-11
   10.6499996       1.22619831E-10
   10.7100000       2.21781954E-10
   10.7700005       2.98068126E-10
   10.8299999       3.42658651E-10
   10.8900003       3.49577700E-10
   10.9499998       3.16497079E-10
   11.0100002       2.45025528E-10
   11.0699997       1.40482057E-10
   11.1300001       1.12617962E-11
   11.1899996      -1.32038311E-10
   11.2500000      -2.77571077E-10
   11.3100004      -4.13159701E-10
   11.3699999      -5.27153210E-10
   11.4300003      -6.09236050E-10
   11.4899998      -6.51219301E-10
   11.5500002      -6.47808140E-10
   11.6099997      -5.97276451E-10
   11.6700001      -5.01926389E-10
   11.7299995      -3.68186981E-10
   11.7900000      -2.06234071E-10
   11.8500004      -2.90868284E-11
   11.9099998       1.48761226E-10
   11.9700003       3.13009368E-10
   12.0299997       4.51265414E-10
   12.0900002       5.54523483E-10
   12.1499996       6.18141094E-10
   12.2100000       6.42139619E-10
   12.2700005       6.30784813E-10
   12.3299999       5.91556748E-10
   12.3900003       5.33753153E-10
   12.4499998       4.67048733E-10
   12.5100002       4.00327299E-10
   12.5699997       3.41007944E-10
   12.6300001       2.94920338E-10
   12.6899996       2.66596162E-10
   12.7500000       2.59697347E-10
   12.8100004       2.77254580E-10
   12.8699999       3.21470295E-10
   12.9300003       3.93034411E-10
   12.9899998       4.90138152E-10
   13.0500002       6.07564887E-10
   13.1099997       7.36293859E-10
   13.1700001       8.63939031E-10
   13.2299995       9.76082548E-10
   13.2900000       1.05825038E-09
   13.3500004       1.09803167E-09
   13.4099998       1.08676290E-09
   13.4700003       1.02032660E-09
   13.5299997       8.98891128E-10
   13.5900002       7.25755733E-10
   13.6499996       5.05724851E-10
   13.7100000       2.43544795E-10
   13.7700005      -5.71356538E-11
   13.8299999      -3.94023036E-10
   13.8900003      -7.65660146E-10
   13.9499998      -1.17037302E-09
   14.0100002      -1.60508884E-09
   14.0699997      -2.06447859E-09
   14.1300001      -2.54082666E-09
   14.1899996      -3.02484171E-09
   14.2500000      -3.50736973E-09
   14.3100004      -3.98163724E-09
   14.3699999      -4.44537429E-09
   14.4300003      -4.90204588E-09
   14.4899998      -5.36052358E-09
   14.5500002      -5.83295279E-09
   14.6099997      -6.33115516E-09
   14.6700001      -6.86250212E-09
   14.7299995      -7.42653894E-09
   14.7900000      -8.01354627E-09
   14.8500004      -8.60567084E-09
   14.9099998      -9.18040488E-09
   14.9700003      -9.71536540E-09
   15.0299997      -1.01928368E-08
   15.0900002      -1.06026317E-08
   15.1499996      -1.09424461E-08
   15.2100000      -1.12158087E-08
   15.2700005      -1.14286118E-08
   15.3299999      -1.15856285E-08
   15.3900003      -1.16883552E-08
   15.4499998      -1.17348531E-08
   15.5100002      -1.17214700E-08
   15.5699997      -1.16455894E-08
   15.6300001      -1.15082299E-08
   15.6899996      -1.13154961E-08
   15.7500000      -1.10784049E-08
   15.8100004      -1.08112479E-08
   15.8699999      -1.05291855E-08
   15.9300003      -1.02459365E-08
   15.9899998      -9.97227101E-09
   16.0499992      -9.71564695E-09
   16.1100006      -9.48087386E-09
   16.1700001      -9.27139787E-09
   16.2299995      -9.09067843E-09
   16.2900009      -8.94319641E-09
   16.3500004      -8.83483953E-09
   16.4099998      -8.77259332E-09
   16.4699993      -8.76364403E-09
   16.5300007      -8.81406770E-09
   16.5900002      -8.92735841E-09
   16.6499996      -9.10303388E-09
   16.7099991      -9.33560518E-09
   16.7700005      -9.61413704E-09
   16.8299999      -9.92256677E-09
   16.8899994      -1.02408517E-08
   16.9500008      -1.05468851E-08
   17.0100002      -1.08190070E-08
   17.0699997      -1.10388338E-08
   17.1299992      -1.11940102E-08
   17.1900005      -1.12803900E-08
   17.2500000      -1.13030900E-08
   17.3099995      -1.12759055E-08
   17.3700008      -1.12188703E-08
   17.4300003      -1.11541603E-08
   17.4899998      -1.11012177E-08
   17.5499992      -1.10723439E-08
   17.6100006      -1.10701466E-08
   17.6700001      -1.10877822E-08
   17.7299995      -1.11120366E-08
   17.7900009      -1.11283205E-08
   17.8500004      -1.11259242E-08
   17.9099998      -1.11017924E-08
   17.9699993      -1.10616334E-08
   18.0300007      -1.10181677E-08
   18.0900002      -1.09873266E-08
   18.1499996      -1.09837757E-08
   18.2099991      -1.10171969E-08
   18.2700005      -1.10902816E-08
   18.3299999      -1.11986900E-08
   18.3899994      -1.13326504E-08
   18.4500008      -1.14794627E-08
   18.5100002      -1.16260983E-08
   18.5699997      -1.17611192E-08
   18.6299992      -1.18753896E-08
   18.6900005      -1.19613484E-08
   18.7500000      -1.20110677E-08
   18.8099995      -1.20137820E-08
   18.8700008      -1.19539640E-08
   18.9300003      -1.18110330E-08
   18.9899998      -1.15613998E-08
   19.0499992      -1.11827818E-08
   19.1100006      -1.06597957E-08
   19.1700001      -9.98922189E-09
   19.2299995      -9.18319376E-09
   19.2900009      -8.26903346E-09
   19.3500004      -7.28539629E-09
   19.4099998      -6.27543750E-09
   19.4699993      -5.27864330E-09
   19.5300007      -4.32344249E-09
   19.5900002      -3.42264972E-09
   19.6499996      -2.57310662E-09
   19.7099991      -1.75974413E-09
   19.7700005      -9.62901536E-10
   19.8299999      -1.66564332E-10
   19.8899994       6.35296649E-10
   19.9500008       1.43656953E-09
   20.0100002       2.22180963E-09
   20.0699997       2.97282621E-09
   20.1299992       3.67626107E-09
   20.1900005       4.32890124E-09
   20.2500000       4.93840258E-09
   20.3099995       5.51912693E-09
   20.3700008       6.08493700E-09
   20.4300003       6.64212507E-09
   20.4899998       7.18555526E-09
   20.5499992       7.69965958E-09
   20.6100006       8.16386958E-09
   20.6700001       8.56032578E-09
   20.7299995       8.88093243E-09
   20.7900009       9.13121045E-09
   20.8500004       9.32967303E-09
   20.9099998       9.50294243E-09
   20.9699993       9.67814717E-09
   21.0300007       9.87493642E-09
   21.0900002       1.00995354E-08
   21.1499996       1.03427844E-08
   21.2099991       1.05829754E-08
   21.2700005       1.07928360E-08
   21.3299999       1.09485212E-08
   21.3899994       1.10376783E-08
   21.4500008       1.10636815E-08
   21.5100002       1.10444995E-08
   21.5699997       1.10065734E-08
   21.6299992       1.09759943E-08
   21.6900005       1.09702132E-08
   21.7500000       1.09932010E-08
   21.8099995       1.10354073E-08
   21.8700008       1.10780132E-08
   21.9300003       1.10994316E-08
   21.9899998       1.10815046E-08
   22.0499992       1.10133094E-08
   22.1100006       1.08916289E-08
   22.1700001       1.07183471E-08
   22.2299995       1.04960085E-08
   22.2900009       1.02232240E-08
   22.3500004       9.89166882E-09
   22.4099998       9.48592316E-09
   22.4699993       8.98662478E-09
   22.5300007       8.37621528E-09
   22.5900002       7.64554908E-09
   22.6499996       6.79897072E-09
   22.7099991       5.85582516E-09
   22.7700005       4.84748108E-09
   22.8299999       3.81071441E-09
   22.8899994       2.77968071E-09
   22.9500008       1.77922133E-09
   23.0100002       8.21570201E-10
   23.0699997      -9.29908095E-11
   23.1299992      -9.72536385E-10
   23.1900005      -1.82887150E-09
   23.2500000      -2.67369460E-09
   23.3099995      -3.51652729E-09
   23.3700008      -4.36436309E-09
   23.4300003      -5.22229682E-09
   23.4899998      -6.09429041E-09
   23.5499992      -6.98350933E-09
   23.6100006      -7.89209675E-09
   23.6700001      -8.82051587E-09
   23.7299995      -9.76672965E-09
   23.7900009      -1.07254996E-08
   23.8500004      -1.16881500E-08
   23.9099998      -1.26431283E-08
   23.9699993      -1.35774911E-08
   24.0300007      -1.44791503E-08
   24.0900002      -1.53392499E-08
   24.1499996      -1.61539369E-08
   24.2099991      -1.69248544E-08
   24.2700005      -1.76582677E-08
   24.3299999      -1.83632611E-08
   24.3899994      -1.90496952E-08
   24.4500008      -1.97264427E-08
   24.5100002      -2.04000674E-08
   24.5699997      -2.10736761E-08
   24.6299992      -2.17456808E-08
   24.6900005      -2.24085746E-08
   24.7500000      -2.30481678E-08
   24.8099995      -2.36439277E-08
   24.8700008      -2.41707738E-08
   24.9300003      -2.46020946E-08
   24.9899998      -2.49132803E-08
   25.0499992      -2.50849705E-08
   25.1100006      -2.51054129E-08
   25.1700001      -2.49718184E-08
   25.2299995      -2.46907508E-08
   25.2900009      -2.42775631E-08
   25.3500004      -2.37547155E-08
   25.4099998      -2.31488038E-08
   25.4699993      -2.24864873E-08
   25.5300007      -2.17901501E-08
   25.5900002      -2.10744737E-08
   25.6499996      -2.03450892E-08
   25.7099991      -1.95996055E-08
   25.7700005      -1.88304519E-08
   25.8299999      -1.80282296E-08
   25.8899994      -1.71843286E-08
   25.9500008      -1.62922458E-08
   26.0100002      -1.53478652E-08
   26.0699997      -1.43495251E-08
   26.1299992      -1.32984521E-08
   26.1900005      -1.21995658E-08
   26.2500000      -1.10619895E-08
   26.3099995      -9.89856197E-09
   26.3700008      -8.72406503E-09
   26.4300003      -7.55263230E-09
   26.4899998      -6.39531095E-09
   26.5499992      -5.25863131E-09
   26.6100006      -4.14451273E-09
   26.6700001      -3.05116621E-09
   26.7299995      -1.97436312E-09
   26.7900009      -9.08583764E-10
   26.8500004       1.51995583E-10
   26.9099998       1.21242627E-09
   26.9699993       2.27563302E-09
   27.0300007       3.34096817E-09
   27.0900002       4.40319248E-09
   27.1499996       5.45239365E-09
   27.2099991       6.47491749E-09
   27.2700005       7.45483675E-09
   27.3299999       8.37517167E-09
   27.3899994       9.21829901E-09
   27.4500008       9.96563454E-09
   27.5100002       1.05972831E-08
   27.5699997       1.10925757E-08
   27.6299992       1.14319683E-08
   27.6900005       1.15999921E-08
   27.7500000       1.15881766E-08
   27.8099995       1.13966498E-08
   27.8700008       1.10335909E-08
   27.9300003       1.05125482E-08
   27.9899998       9.84853354E-09
   28.0499992       9.05420450E-09
   28.1100006       8.13729972E-09
   28.1700001       7.09990999E-09
   28.2299995       5.93945781E-09
   28.2900009       4.65076244E-09
   28.3500004       3.22839044E-09
   28.4099998       1.66865255E-09
   28.4699993      -2.91211916E-11
   28.5300007      -1.86207372E-09
   28.5900002      -3.82390741E-09
   28.6499996      -5.90526694E-09
   28.7099991      -8.09407741E-09
   28.7700005      -1.03755511E-08
   28.8299999      -1.27317046E-08
   28.8899994      -1.51404649E-08
   28.9500008      -1.75747061E-08
   29.0100002      -2.00017514E-08
   29.0699997      -2.23839454E-08
   29.1299992      -2.46806895E-08
   29.1900005      -2.68518932E-08
   29.2500000      -2.88621749E-08
   29.3099995      -3.06847241E-08
   29.3700008      -3.23035252E-08
   29.4300003      -3.37129968E-08
   29.4899998      -3.49149474E-08
   29.5499992      -3.59136330E-08
   29.6100006      -3.67106523E-08
   29.6700001      -3.73014117E-08
   29.7299995      -3.76745923E-08
   29.7900009      -3.78146154E-08
   29.8500004      -3.77062435E-08
   29.9099998      -3.73393334E-08
   29.9699993      -3.67119490E-08
   30.0300007      -3.58306558E-08
   30.0900002      -3.47080338E-08
   30.1499996      -3.33585319E-08
   30.2099991      -3.17942401E-08
   30.2700005      -3.00221679E-08
   30.3299999      -2.80437575E-08
   30.3899994      -2.58566786E-08
   30.4500008      -2.34580764E-08
   30.5100002      -2.08482298E-08
   30.5699997      -1.80334840E-08
   30.6299992      -1.50277391E-08
   30.6900005      -1.18521308E-08
   30.7500000      -8.53311377E-09
   30.8099995      -5.09960296E-09
   30.8700008      -1.58004587E-09
   30.9300003       1.99960204E-09
   30.9899998       5.61636426E-09
   31.0499992       9.24909394E-09
   31.1100006       1.28762485E-08
   31.1700001       1.64736047E-08
   31.2299995       2.00130170E-08
   31.2900009       2.34629649E-08
   31.3500004       2.67908433E-08
   31.4099998       2.99662801E-08
   31.4699993       3.29642376E-08
   31.5300007       3.57666110E-08
   31.5900002       3.83616836E-08
   31.6499996       4.07414866E-08
   31.7099991       4.28979732E-08
   31.7700005       4.48194513E-08
   31.8299999       4.64885233E-08
   31.8899994       4.78824695E-08
   31.9500008       4.89758349E-08
   32.0099983       4.97444397E-08
   32.0699997       5.01693407E-08
   32.1300011       5.02393718E-08
   32.1899986       4.99514918E-08
   32.2500000       4.93090120E-08
   32.3100014       4.83185936E-08
   32.3699989       4.69873314E-08
   32.4300003       4.53210980E-08
   32.4900017       4.33247820E-08
   32.5499992       4.10042240E-08
   32.6100006       3.83690804E-08
   32.6699982       3.54354874E-08
   32.7299995       3.22275895E-08
   32.7900009       2.87773556E-08
   32.8499985       2.51226968E-08
   32.9099998       2.13043059E-08
   32.9700012       1.73619945E-08
   33.0299988       1.33314293E-08
   33.0900002       9.24209775E-09
   33.1500015       5.11711473E-09
   33.2099991       9.75049375E-10
   33.2700005      -3.16672044E-09
   33.3300018      -7.28813720E-09
   33.3899994      -1.13634533E-08
   33.4500008      -1.53602766E-08
   33.5099983      -1.92412077E-08
   33.5699997      -2.29675940E-08
   33.6300011      -2.65040949E-08
   33.6899986      -2.98223206E-08
   33.7500000      -3.29022569E-08
   33.8100014      -3.57310661E-08
   33.8699989      -3.83000867E-08
   33.9300003      -4.06013996E-08
   33.9900017      -4.26255795E-08
   34.0499992      -4.43613963E-08
   34.1100006      -4.57974103E-08
   34.1699982      -4.69244732E-08
   34.2299995      -4.77380553E-08
   34.2900009      -4.82395173E-08
   34.3499985      -4.84361919E-08
   34.4099998      -4.83405920E-08
   34.4700012      -4.79692588E-08
   34.5299988      -4.73415795E-08
   34.5900002      -4.64784691E-08
   34.6500015      -4.54007605E-08
   34.7099991      -4.41273365E-08
   34.7700005      -4.26732960E-08
   34.8300018      -4.10488781E-08
   34.8899994      -3.92599304E-08
   34.9500008      -3.73099880E-08
   35.0099983      -3.52037084E-08
   35.0699997      -3.29505596E-08
   35.1300011      -3.05675592E-08
   35.1899986      -2.80800716E-08
   35.2500000      -2.55202686E-08
   35.3100014      -2.29235599E-08
   35.3699989      -2.03239292E-08
   35.4300003      -1.77493860E-08
   35.4900017      -1.52188875E-08
   35.5499992      -1.27416655E-08
   35.6100006      -1.03194289E-08
   35.6699982      -7.95097943E-09
   35.7299995      -5.63799585E-09
   35.7900009      -3.39005424E-09
   35.8499985      -1.22700028E-09
   35.9099998       8.22537483E-10
   35.9700012       2.72634604E-09
   36.0299988       4.45594717E-09
   36.0900002       5.99348038E-09
   36.1500015       7.33555572E-09
   36.2099991       8.49250714E-09
   36.2700005       9.48311829E-09
   36.3300018       1.03265796E-08
   36.3899994       1.10344613E-08
   36.4500008       1.16055299E-08
   36.5099983       1.20252839E-08
   36.5699997       1.22705526E-08
   36.6300011       1.23178223E-08
   36.6899986       1.21526824E-08
   36.7500000       1.17772716E-08
   36.8100014       1.12129896E-08
   36.8699989       1.04971258E-08
   36.9300003       9.67395408E-09
   36.9900017       8.78290773E-09
   37.0499992       7.84776422E-09
   37.1100006       6.87083634E-09
   37.1699982       5.83469761E-09
   37.2299995       4.71132955E-09
   37.2900009       3.47574658E-09
   37.3499985       2.11922813E-09
   37.4099998       6.57176313E-10
   37.4700012      -8.71586636E-10
   37.5299988      -2.41417086E-09
   37.5900002      -3.91856103E-09
   37.6500015      -5.34903721E-09
   37.7099991      -6.69679423E-09
   37.7700005      -7.98211364E-09
   37.8300018      -9.24728205E-09
   37.8899994      -1.05424212E-08
   37.9500008      -1.19086891E-08
   38.0099983      -1.33641347E-08
   38.0699997      -1.48967869E-08
   38.1300011      -1.64674709E-08
   38.1899986      -1.80218116E-08
   38.2500000      -1.95078869E-08
   38.3100014      -2.08939142E-08
   38.3699989      -2.21798313E-08
   38.4300003      -2.33983624E-08
   38.4900017      -2.46045513E-08
   38.5499992      -2.58568207E-08
   38.6100006      -2.71958687E-08
   38.6699982      -2.86289037E-08
   38.7299995      -3.01250438E-08
   38.7900009      -3.16238911E-08
   38.8499985      -3.30545404E-08
   38.9099998      -3.43583721E-08
   38.9700012      -3.55076182E-08
   39.0299988      -3.65129509E-08
   39.0900002      -3.74173830E-08
   39.1500015      -3.82783334E-08
   39.2099991      -3.91440587E-08
   39.2700005      -4.00324680E-08
   39.3300018      -4.09197796E-08
   39.3899994      -4.17430783E-08
   39.4500008      -4.24163780E-08
   39.5099983      -4.28549995E-08
   39.5699997      -4.30003588E-08
   39.6300011      -4.28368168E-08
   39.6899986      -4.23947668E-08
   39.7500000      -4.17387156E-08
   39.8100014      -4.09442364E-08
   39.8699989      -4.00714590E-08
   39.9300003      -3.91440729E-08
   39.9900017      -3.81409748E-08
   40.0499992      -3.70034066E-08
   40.1100006      -3.56550984E-08
   40.1699982      -3.40286022E-08
   40.2299995      -3.20888631E-08
   40.2900009      -2.98460101E-08
   40.3499985      -2.73530745E-08
   40.4099998      -2.46892586E-08
   40.4700012      -2.19343690E-08
   40.5299988      -1.91429699E-08
   40.5900002      -1.63272027E-08
   40.6500015      -1.34544447E-08
   40.7099991      -1.04611475E-08
   40.7700005      -7.27865590E-09
   40.8300018      -3.86244148E-09
   40.8899994      -2.14636697E-10
   40.9500008       3.60833030E-09
   41.0099983       7.50623741E-09
   41.0699997       1.13606662E-08
   41.1300011       1.50672221E-08
   41.1899986       1.85634104E-08
   41.2500000       2.18426095E-08
   41.3100014       2.49494185E-08
   41.3699989       2.79582082E-08
   41.4300003       3.09424948E-08
   41.4900017       3.39457777E-08
   41.5499992       3.69638187E-08
   41.6100006       3.99440694E-08
   41.6699982       4.28019789E-08
   41.7299995       4.54482034E-08
   41.7900009       4.78171387E-08
   41.8499985       4.98869390E-08
   41.9099998       5.16843137E-08
   41.9700012       5.32726609E-08
   42.0299988       5.47277921E-08
   42.0900002       5.61097195E-08
   42.1500015       5.74403600E-08
   42.2099991       5.86947806E-08
   42.2700005       5.98090040E-08
   42.3300018       6.07015522E-08
   42.3899994       6.13013214E-08
   42.4500008       6.15722655E-08
   42.5099983       6.15265563E-08
   42.5699997       6.12221598E-08
   42.6300011       6.07458546E-08
   42.6899986       6.01876025E-08
   42.7500000       5.96147274E-08
   42.8100014       5.90540878E-08
   42.8699989       5.84876858E-08
   42.9300003       5.78627173E-08
   42.9900017       5.71124161E-08
   43.0499992       5.61808164E-08
   43.1100006       5.50432944E-08
   43.1699982       5.37162421E-08
   43.2299995       5.22528829E-08
   43.2900009       5.07267615E-08
   43.3499985       4.92088077E-08
   43.4099998       4.77459956E-08
   43.4700012       4.63490117E-08
   43.5299988       4.49930582E-08
   43.5900002       4.36310366E-08
   43.6500015       4.22139834E-08
   43.7099991       4.07111216E-08
   43.7700005       3.91223907E-08
   43.8300018       3.74793956E-08
   43.8899994       3.58350576E-08
   43.9500008       3.42460993E-08
   44.0099983       3.27546950E-08
   44.0699997       3.13754178E-08
   44.1300011       3.00913605E-08
   44.1899986       2.88602635E-08
   44.2500000       2.76282446E-08
   44.3100014       2.63466386E-08
   44.3699989       2.49866527E-08
   44.4300003       2.35474218E-08
   44.4900017       2.20550920E-08
   44.5499992       2.05534416E-08
   44.6100006       1.90892404E-08
   44.6699982       1.76973369E-08
   44.7299995       1.63905156E-08
   44.7900009       1.51575108E-08
   44.8499985       1.39695571E-08
   44.9099998       1.27928468E-08
   44.9700012       1.16021290E-08
   45.0299988       1.03905675E-08
   45.0900002       9.17256404E-09
   45.1500015       7.97905120E-09
   45.2099991       6.84744217E-09
   45.2700005       5.81011905E-09
   45.3300018       4.88542229E-09
   45.3899994       4.07387279E-09
   45.4500008       3.36033223E-09
   45.5099983       2.72087064E-09
   45.5699997       2.13175366E-09
   45.6300011       1.57758973E-09
   45.6899986       1.05617215E-09
   45.7500000       5.78732617E-10
   45.8100014       1.65799416E-10
   45.8699989      -1.59784214E-10
   45.9300003      -3.80299015E-10
   45.9900017      -4.88629026E-10
   46.0499992      -4.90147589E-10
   46.1100006      -4.00715683E-10
   46.1699982      -2.41866555E-10
   46.2299995      -3.51306796E-11
   46.2900009       2.02481434E-10
   46.3499985       4.60536526E-10
   46.4099998       7.34583561E-10
   46.4700012       1.02370823E-09
   46.5299988       1.32750932E-09
   46.5900002       1.64362268E-09
   46.6500015       1.96636840E-09
   46.7099991       2.28649211E-09
   46.7700005       2.59164334E-09
   46.8300018       2.86725710E-09
   46.8899994       3.09772408E-09
   46.9500008       3.26794591E-09
   47.0099983       3.36532580E-09
   47.0699997       3.38197714E-09
   47.1300011       3.31657324E-09
   47.1899986       3.17508908E-09
   47.2500000       2.96984592E-09
   47.3100014       2.71677836E-09
   47.3699989       2.43151255E-09
   47.4300003       2.12537210E-09
   47.4900017       1.80260962E-09
   47.5499992       1.45982892E-09
   47.6100006       1.08789777E-09
   47.6699982       6.75833167E-10
   47.7299995       2.15486351E-10
   47.7900009      -2.94421487E-10
   47.8499985      -8.46178738E-10
   47.9099998      -1.42357715E-09
   47.9700012      -2.00493822E-09
   48.0299988      -2.56783284E-09
   48.0900002      -3.09413051E-09
   48.1500015      -3.57389163E-09
   48.2099991      -4.00693745E-09
   48.2700005      -4.40163461E-09
   48.3300018      -4.77129314E-09
   48.3899994      -5.12935516E-09
   48.4500008      -5.48491430E-09
   48.5099983      -5.83998849E-09
   48.5699997      -6.18936147E-09
   48.6300011      -6.52292753E-09
   48.6899986      -6.82970436E-09
   48.7500000      -7.10217041E-09
   48.8100014      -7.33958627E-09
   48.8699989      -7.54929275E-09
   48.9300003      -7.74562015E-09
   48.9900017      -7.94669130E-09
   49.0499992      -8.17000601E-09
   49.1100006      -8.42804670E-09
   49.1699982      -8.72520189E-09
   49.2299995      -9.05696584E-09
   49.2900009      -9.41174605E-09
   49.3499985      -9.77470727E-09
   49.4099998      -1.01323847E-08
   49.4700012      -1.04764828E-08
   49.5299988      -1.08055778E-08
   49.5900002      -1.11242384E-08
   49.6500015      -1.14400915E-08
   49.7099991      -1.17600409E-08
   49.7700005      -1.20870558E-08
   49.8300018      -1.24185355E-08
   49.8899994      -1.27465931E-08
   49.9500008      -1.30599567E-08
   50.0099983      -1.33468063E-08
   50.0699997      -1.35977523E-08
   50.1300011      -1.38082257E-08
   50.1899986      -1.39796219E-08
   50.2500000      -1.41187355E-08
   50.3100014      -1.42354049E-08
   50.3699989      -1.43388528E-08
   50.4300003      -1.44338603E-08
   50.4900017      -1.45182026E-08
   50.5499992      -1.45824739E-08
   50.6100006      -1.46125085E-08