 -0.750000000       0.00000000    
 -0.689999998       0.00000000    
 -0.629999995       0.00000000    
 -0.569999993       0.00000000    
 -0.509999990       0.00000000    
 -0.449999988       0.00000000    
 -0.389999986       0.00000000    
 -0.330000013       0.00000000    
 -0.270000011       6.04007006E-26
 -0.209999993       8.20060896E-25
 -0.150000006       5.34927763E-24
  -9.00000036E-02   2.15107160E-23
  -2.99999993E-02   5.49280756E-23
   2.99999993E-02   6.67264497E-23
   9.00000036E-02  -1.25211234E-22
  0.150000006      -9.34722271E-22
  0.209999993      -2.81154752E-21
  0.270000011      -5.31129561E-21
  0.330000013      -5.29532513E-21
  0.389999986       4.54712734E-21
  0.449999988       3.35660975E-20
  0.509999990       8.32629729E-20
  0.569999993       1.29419179E-19
  0.629999995       1.06813832E-19
  0.689999998      -7.96063823E-20
  0.750000000      -4.91255121E-19
  0.810000002      -1.04093597E-18
  0.870000005      -1.38613333E-18
  0.930000007      -9.51930202E-19
  0.990000010       7.95046662E-19
   1.04999995       3.82415192E-18
   1.11000001       7.01244101E-18
   1.16999996       8.07822766E-18
   1.23000002       4.42646556E-18
   1.28999996      -5.08109919E-18
   1.35000002      -1.81946035E-17
   1.40999997      -2.86183118E-17
   1.47000003      -2.79753707E-17
   1.52999997      -1.04921781E-17
   1.59000003       2.15786276E-17
   1.64999998       5.54490564E-17
   1.71000004       7.15429504E-17
   1.76999998       5.37675835E-17
   1.83000004       1.79881033E-18
   1.88999999      -6.26822182E-17
   1.95000005      -1.02869736E-16
   2.00999999      -8.71351594E-17
   2.06999993      -1.32431045E-17
   2.13000011       7.96902890E-17
   2.19000006       1.24934250E-16
   2.25000000       6.73226750E-17
   2.30999994      -9.09759774E-17
   2.36999989      -2.68618262E-16
   2.43000007      -3.31597014E-16
   2.49000001      -1.67070883E-16
   2.54999995       2.29617874E-16
   2.60999990       7.08951119E-16
   2.67000008       1.00596894E-15
   2.73000002       8.64851715E-16
   2.78999996       1.95657265E-16
   2.84999990      -8.24702618E-16
   2.91000009      -1.78188839E-15
   2.97000003      -2.19589226E-15
   3.02999997      -1.76412568E-15
   3.08999991      -5.49083444E-16
   3.15000010       1.00588233E-15
   3.21000004       2.26810245E-15
   3.26999998       2.73518289E-15
   3.32999992       2.31727907E-15
   3.39000010       1.41288823E-15
   3.45000005       7.00920081E-16
   3.50999999       7.21293024E-16
   3.56999993       1.44966205E-15
   3.63000011       2.11611065E-15
   3.69000006       1.43702877E-15
   3.75000000      -1.75400480E-15
   3.80999994      -7.70337248E-15
   3.86999989      -1.51349660E-14
   3.93000007      -2.12175824E-14
   3.99000001      -2.22921470E-14
   4.05000019      -1.52381668E-14
   4.11000013       9.68060509E-16
   4.17000008       2.41453823E-14
   4.23000002       4.88317442E-14
   4.28999996       6.74815496E-14
   4.34999990       7.26637243E-14
   4.40999985       5.95206257E-14
   4.46999979       2.75662570E-14
   4.53000021      -1.88632391E-14
   4.59000015      -7.16204778E-14
   4.65000010      -1.20696991E-13
   4.71000004      -1.56237829E-13
   4.76999998      -1.69894738E-13
   4.82999992      -1.55372527E-13
   4.88999987      -1.08685826E-13
   4.94999981      -2.89359364E-14
   5.01000023       7.99320123E-14
   5.07000017       2.06807526E-13
   5.13000011       3.31858374E-13
   5.19000006       4.27409871E-13
   5.25000000       4.62337146E-13
   5.30999994       4.09657741E-13
   5.36999989       2.55447925E-13
   5.42999983       6.24009977E-15
   5.48999977      -3.07795889E-13
   5.55000019      -6.35377330E-13
   5.61000013      -9.12114243E-13
   5.67000008      -1.07228462E-12
   5.73000002      -1.06190295E-12
   5.78999996      -8.50602846E-13
   5.84999990      -4.40277724E-13
   5.90999985       1.31072873E-13
   5.96999979       7.91367839E-13
   6.03000021       1.44274816E-12
   6.09000015       1.97547230E-12
   6.15000010       2.28527375E-12
   6.21000004       2.29081381E-12
   6.26999998       1.94759703E-12
   6.32999992       1.25586173E-12
   6.38999987       2.62167349E-13
   6.44999981      -9.43467960E-13
   6.51000023      -2.23232305E-12
   6.57000017      -3.44247916E-12
   6.63000011      -4.38682294E-12
   6.69000006      -4.86781665E-12
   6.75000000      -4.70330806E-12
   6.80999994      -3.76402945E-12
   6.86999989      -2.01708832E-12
   6.92999983       4.36533378E-13
   6.98999977       3.34504234E-12
   7.05000019       6.32059292E-12
   7.11000013       8.88756169E-12
   7.17000008       1.05542545E-11
   7.23000002       1.08884559E-11
   7.28999996       9.57465617E-12
   7.34999990       6.43700761E-12
   7.40999985       1.42490035E-12
   7.46999979      -5.42767177E-12
   7.53000021      -1.40482643E-11
   7.59000015      -2.43565463E-11
   7.65000010      -3.62670553E-11
   7.71000004      -4.96661080E-11
   7.76999998      -6.43776352E-11
   7.82999992      -8.01380212E-11
   7.88999987      -9.65952873E-11
   7.94999981      -1.13334918E-10
   8.01000023      -1.29920574E-10
   8.06999969      -1.45928283E-10
   8.13000011      -1.60954985E-10
   8.18999958      -1.74593395E-10
   8.25000000      -1.86382007E-10
   8.31000042      -1.95752581E-10
   8.36999989      -2.02001527E-10
   8.43000031      -2.04303977E-10
   8.48999977      -2.01774097E-10
   8.55000019      -1.93559155E-10
   8.60999966      -1.78945192E-10
   8.67000008      -1.57452731E-10
   8.72999954      -1.28908328E-10
   8.78999996      -9.34870237E-11
   8.85000038      -5.17268867E-11
   8.90999985      -4.51542232E-12
   8.97000027       4.69554222E-11
   9.02999973       1.01271096E-10
   9.09000015       1.56913149E-10
   9.14999962       2.12403387E-10
   9.21000004       2.66449640E-10
   9.27000046       3.18062965E-10
   9.32999992       3.66621705E-10
   9.39000034       4.11873258E-10
   9.44999981       4.53883486E-10
   9.51000023       4.92955343E-10
   9.56999969       5.29537136E-10
   9.63000011       5.64130520E-10
   9.68999958       5.97193350E-10
   9.75000000       6.29027053E-10
   9.81000042       6.59651056E-10
   9.86999989       6.88682833E-10
   9.93000031       7.15268511E-10
   9.98999977       7.38108408E-10
   10.0500002       7.55606910E-10
   10.1099997       7.66136321E-10
   10.1700001       7.68363984E-10
   10.2299995       7.61563257E-10
   10.2900000       7.45836171E-10
   10.3500004       7.22200688E-10
   10.4099998       6.92544966E-10
   10.4700003       6.59483135E-10
   10.5299997       6.26156182E-10
   10.5900002       5.96001248E-10
   10.6499996       5.72479675E-10
   10.7100000       5.58730007E-10
   10.7700005       5.57123625E-10
   10.8299999       5.68743885E-10
   10.8900003       5.92877247E-10
   10.9499998       6.26650898E-10
   11.0100002       6.64956701E-10
   11.0699997       7.00743574E-10
   11.1300001       7.25660254E-10
   11.1899996       7.30927596E-10
   11.2500000       7.08258563E-10
   11.3100004       6.50652643E-10
   11.3699999       5.52968282E-10
   11.4300003       4.12275492E-10
   11.4899998       2.28067093E-10
   11.5500002       2.41680656E-12
   11.6099997      -2.59885391E-10
   11.6700001      -5.51283075E-10
   11.7299995      -8.61620941E-10
   11.7900000      -1.17866406E-09
   11.8500004      -1.48902723E-09
   11.9099998      -1.77944337E-09
   11.9700003      -2.03818207E-09
   12.0299997      -2.25635777E-09
   12.0900002      -2.42888998E-09
   12.1499996      -2.55495824E-09
   12.2100000      -2.63791056E-09
   12.2700005      -2.68469025E-09
   12.3299999      -2.70492162E-09
   12.3900003      -2.70982348E-09
   12.4499998      -2.71113243E-09
   12.5100002      -2.72017942E-09
   12.5699997      -2.74721601E-09
   12.6300001      -2.80099166E-09
   12.6899996      -2.88849056E-09
   12.7500000      -3.01466607E-09
   12.8100004      -3.18201820E-09
   12.8699999      -3.38995987E-09
   12.9300003      -3.63408770E-09
   12.9899998      -3.90563004E-09
   13.0500002      -4.19141655E-09
   13.1099997      -4.47461268E-09
   13.1700001      -4.73624384E-09
   13.2299995      -4.95723640E-09
   13.2900000      -5.12050358E-09
   13.3500004      -5.21255883E-09
   13.4099998      -5.22432542E-09
   13.4700003      -5.15108889E-09
   13.5299997      -4.99185582E-09
   13.5900002      -4.74854911E-09
   13.6499996      -4.42544623E-09
   13.7100000      -4.02907663E-09
   13.7700005      -3.56850038E-09
   13.8299999      -3.05567749E-09
   13.8900003      -2.50553356E-09
   13.9499998      -1.93541694E-09
   14.0100002      -1.36386835E-09
   14.0699997      -8.08890899E-10
   14.1300001      -2.86113910E-10
   14.1899996       1.92674279E-10
   14.2500000       6.20257956E-10
   14.3100004       9.93845339E-10
   14.3699999       1.31417277E-09
   14.4300003       1.58419866E-09
   14.4899998       1.80779947E-09
   14.5500002       1.98878003E-09
   14.6099997       2.13031992E-09
   14.6700001       2.23477903E-09
   14.7299995       2.30367636E-09
   14.7900000       2.33768271E-09
   14.8500004       2.33658470E-09
   14.9099998       2.29929742E-09
   14.9700003       2.22404006E-09
   15.0299997       2.10873119E-09
   15.0900002       1.95154404E-09
   15.1499996       1.75147219E-09
   15.2100000       1.50876267E-09
   15.2700005       1.22516997E-09
   15.3299999       9.04081032E-10
   15.3900003       5.50603341E-10
   15.4499998       1.71630807E-10
   15.5100002      -2.24212648E-10
   15.5699997      -6.26924013E-10
   15.6300001      -1.02587028E-09
   15.6899996      -1.41084189E-09
   15.7500000      -1.77309722E-09
   15.8100004      -2.10599160E-09
   15.8699999      -2.40491649E-09
   15.9300003      -2.66658362E-09
   15.9899998      -2.88802537E-09
   16.0499992      -3.06584869E-09
   16.1100006      -3.19615046E-09
   16.1700001      -3.27516414E-09
   16.2299995      -3.30030092E-09
   16.2900009      -3.27103922E-09
   16.3500004      -3.18920246E-09
   16.4099998      -3.05850900E-09
   16.4699993      -2.88367730E-09
   16.5300007      -2.66961253E-09
   16.5900002      -2.42114306E-09
   16.6499996      -2.14347651E-09
   16.7099991      -1.84315407E-09
   16.7700005      -1.52903157E-09
   16.8299999      -1.21280619E-09
   16.8899994      -9.08821962E-10
   16.9500008      -6.33192554E-10
   17.0100002      -4.02519573E-10
   17.0699997      -2.32541680E-10
   17.1299992      -1.36959888E-10
   17.1900005      -1.26517505E-10
   17.2500000      -2.08293882E-10
   17.3099995      -3.85155186E-10
   17.3700008      -6.55378529E-10
   17.4300003      -1.01255826E-09
   17.4899998      -1.44593304E-09
   17.5499992      -1.94119809E-09
   17.6100006      -2.48170928E-09
   17.6700001      -3.04981462E-09
   17.7299995      -3.62795949E-09
   17.7900009      -4.19926938E-09
   17.8500004      -4.74751172E-09
   17.9099998      -5.25662358E-09
   17.9699993      -5.71022252E-09
   18.0300007      -6.09160189E-09
   18.0900002      -6.38454578E-09
   18.1499996      -6.57495480E-09
   18.2099991      -6.65287248E-09
   18.2700005      -6.61421584E-09
   18.3299999      -6.46151888E-09
   18.3899994      -6.20330542E-09
   18.4500008      -5.85221427E-09
   18.5100002      -5.42250600E-09
   18.5699997      -4.92783059E-09
   18.6299992      -4.38003989E-09
   18.6900005      -3.78939902E-09
   18.7500000      -3.16597926E-09
   18.8099995      -2.52153387E-09
   18.8700008      -1.87095694E-09
   18.9300003      -1.23257515E-09
   18.9899998      -6.26946384E-10
   19.0499992      -7.43742845E-11
   19.1100006       4.08199058E-10
   19.1700001       8.10018830E-10
   19.2299995       1.12819232E-09
   19.2900009       1.36763878E-09
   19.3500004       1.53921953E-09
   19.4099998       1.65649006E-09
   19.4699993       1.73198544E-09
   19.5300007       1.77417459E-09
   19.5900002       1.78611326E-09
   19.6499996       1.76633119E-09
   19.7099991       1.71173720E-09
   19.7700005       1.62154279E-09
   19.8299999       1.50069535E-09
   19.8899994       1.36134570E-09
   19.9500008       1.22151655E-09
   20.0100002       1.10120557E-09
   20.0699997       1.01724917E-09
   20.1299992       9.78910064E-10
   20.1900005       9.85995063E-10
   20.2500000       1.03035647E-09
   20.3099995       1.10024323E-09
   20.3700008       1.18574095E-09
   20.4300003       1.28304534E-09
   20.4899998       1.39581957E-09
   20.5499992       1.53317348E-09
   20.6100006       1.70529701E-09
   20.6700001       1.91877714E-09
   20.7299995       2.17365947E-09
   20.7900009       2.46339815E-09
   20.8500004       2.77744561E-09
   20.9099998       3.10506376E-09
   20.9699993       3.43853235E-09
   21.0300007       3.77443632E-09
   21.0900002       4.11277501E-09
   21.1499996       4.45469261E-09
   21.2099991       4.80014029E-09
   21.2700005       5.14658538E-09
   21.3299999       5.48920909E-09
   21.3899994       5.82226178E-09
   21.4500008       6.14081053E-09
   21.5100002       6.44212728E-09
   21.5699997       6.72628220E-09
   21.6299992       6.99590830E-09
   21.6900005       7.25533011E-09
   21.7500000       7.50933360E-09
   21.8099995       7.76182052E-09
   21.8700008       8.01461564E-09
   21.9300003       8.26671176E-09
   21.9899998       8.51422222E-09
   22.0499992       8.75115802E-09
   22.1100006       8.97081964E-09
   22.1700001       9.16734155E-09
   22.2299995       9.33678823E-09
   22.2900009       9.47743306E-09
   22.3500004       9.58925472E-09
   22.4099998       9.67305436E-09
   22.4699993       9.72973613E-09
   22.5300007       9.76014736E-09
   22.5900002       9.76544889E-09
   22.6499996       9.74767911E-09
   22.7099991       9.71009317E-09
   22.7700005       9.65702185E-09
   22.8299999       9.59328705E-09
   22.8899994       9.52343271E-09
   22.9500008       9.45102041E-09
   23.0100002       9.37811251E-09
   23.0699997       9.30488753E-09
   23.1299992       9.22934085E-09
   23.1900005       9.14709730E-09
   23.2500000       9.05150177E-09
   23.3099995       8.93414143E-09
   23.3700008       8.78579076E-09
   23.4300003       8.59756355E-09
   23.4899998       8.36190672E-09
   23.5499992       8.07321587E-09
   23.6100006       7.72804398E-09
   23.6700001       7.32510452E-09
   23.7299995       6.86532653E-09
   23.7900009       6.35198205E-09
   23.8500004       5.79069948E-09
   23.9099998       5.18902787E-09
   23.9699993       4.55538540E-09
   24.0300007       3.89757426E-09
   24.0900002       3.22135985E-09
   24.1499996       2.52968801E-09
   24.2099991       1.82284310E-09
   24.2700005       1.09938514E-09
   24.3299999       3.57334384E-10
   24.3899994      -4.04989209E-10
   24.4500008      -1.18877663E-09
   24.5100002      -1.99504302E-09
   24.5699997      -2.82495582E-09
   24.6299992      -3.67967834E-09
   24.6900005      -4.55951721E-09
   24.7500000      -5.46260370E-09
   24.8099995      -6.38363140E-09
   24.8700008      -7.31322469E-09
   24.9300003      -8.23823498E-09
   24.9899998      -9.14289444E-09
   25.0499992      -1.00104431E-08
   25.1100006      -1.08247198E-08
   25.1700001      -1.15713448E-08
   25.2299995      -1.22383392E-08
   25.2900009      -1.28163089E-08
   25.3500004      -1.32984441E-08
   25.4099998      -1.36805758E-08
   25.4699993      -1.39613405E-08
   25.5300007      -1.41423007E-08
   25.5900002      -1.42277656E-08
   25.6499996      -1.42241250E-08
   25.7099991      -1.41387906E-08
   25.7700005      -1.39791796E-08
   25.8299999      -1.37522873E-08
   25.8899994      -1.34652680E-08
   25.9500008      -1.31268809E-08
   26.0100002      -1.27490676E-08
   26.0699997      -1.23475852E-08
   26.1299992      -1.19408607E-08
   26.1900005      -1.15470176E-08
   26.2500000      -1.11800285E-08
   26.3099995      -1.08465263E-08
   26.3700008      -1.05447366E-08
   26.4300003      -1.02660094E-08
   26.4899998      -9.99819250E-09
   26.5499992      -9.72920677E-09
   26.6100006      -9.44910017E-09
   26.6700001      -9.14974851E-09
   26.7299995      -8.82270967E-09
   26.7900009      -8.45669934E-09
   26.8500004      -8.03641598E-09
   26.9099998      -7.54364660E-09
   26.9699993      -6.96043534E-09
   27.0300007      -6.27307273E-09
   27.0900002      -5.47537082E-09
   27.1499996      -4.57014915E-09
   27.2099991      -3.56874308E-09
   27.2700005      -2.48911958E-09
   27.3299999      -1.35348943E-09
   27.3899994      -1.86155438E-10
   27.4500008       9.88067517E-10
   27.5100002       2.14483209E-09
   27.5699997       3.26070815E-09
   27.6299992       4.31314673E-09
   27.6900005       5.28002797E-09
   27.7500000       6.13906881E-09
   27.8099995       6.86760782E-09
   27.8700008       7.44338369E-09
   27.9300003       7.84660337E-09
   27.9899998       8.06301426E-09
   28.0499992       8.08701728E-09
   28.1100006       7.92357113E-09
   28.1700001       7.58796048E-09
   28.2299995       7.10333703E-09
   28.2900009       6.49685106E-09
   28.3500004       5.79581094E-09
   28.4099998       5.02512609E-09
   28.4699993       4.20655022E-09
   28.5300007       3.35926598E-09
   28.5900002       2.50071852E-09
   28.6499996       1.64666814E-09
   28.7099991       8.10100098E-10
   28.7700005      -4.83677389E-13
   28.8299999      -7.82312826E-10
   28.8899994      -1.53820079E-09
   28.9500008      -2.27479280E-09
   29.0100002      -2.99990544E-09
   29.0699997      -3.72015463E-09
   29.1299992      -4.43988224E-09
   29.1900005      -5.16158183E-09
   29.2500000      -5.88712989E-09
   29.3099995      -6.61867849E-09
   29.3700008      -7.35833572E-09
   29.4300003      -8.10662737E-09
   29.4899998      -8.86060558E-09
   29.5499992      -9.61280122E-09
   29.6100006      -1.03518216E-08
   29.6700001      -1.10644311E-08
   29.7299995      -1.17380887E-08
   29.7900009      -1.23626336E-08
   29.8500004      -1.29303039E-08
   29.9099998      -1.34342484E-08
   29.9699993      -1.38664902E-08
   30.0300007      -1.42165808E-08
   30.0900002      -1.44717101E-08
   30.1499996      -1.46182524E-08
   30.2099991      -1.46440220E-08
   30.2700005      -1.45403458E-08
   30.3299999      -1.43033194E-08
   30.3899994      -1.39340832E-08
   30.4500008      -1.34382478E-08
   30.5100002      -1.28247217E-08
   30.5699997      -1.21040840E-08
   30.6299992      -1.12867369E-08
   30.6900005      -1.03812328E-08
   30.7500000      -9.39340072E-09
   30.8099995      -8.32678815E-09
   30.8700008      -7.18447302E-09
   30.9300003      -5.97152239E-09
   30.9899998      -4.69693218E-09
   31.0499992      -3.37395156E-09
   31.1100006      -2.01849004E-09
   31.1700001      -6.46346698E-10
   31.2299995       7.29320548E-10
   31.2900009       2.09898032E-09
   31.3500004       3.45575746E-09
   31.4099998       4.79321294E-09
   31.4699993       6.10325124E-09
   31.5300007       7.37538031E-09
   31.5900002       8.59766303E-09
   31.6499996       9.75875647E-09
   31.7099991       1.08498686E-08
   31.7700005       1.18657004E-08
   31.8299999       1.28041133E-08
   31.8899994       1.36649376E-08
   31.9500008       1.44485908E-08
   32.0099983       1.51550026E-08
   32.0699997       1.57829696E-08
   32.1300011       1.63298530E-08
   32.1899986       1.67915690E-08
   32.2500000       1.71629608E-08
   32.3100014       1.74386194E-08
   32.3699989       1.76139032E-08
   32.4300003       1.76856911E-08
   32.4900017       1.76522779E-08
   32.5499992       1.75124359E-08
   32.6100006       1.72642167E-08
   32.6699982       1.69045382E-08
   32.7299995       1.64303628E-08
   32.7900009       1.58413158E-08
   32.8499985       1.51425716E-08
   32.9099998       1.43464280E-08
   32.9700012       1.34714373E-08
   33.0299988       1.25392958E-08
   33.0900002       1.15708225E-08
   33.1500015       1.05828182E-08
   33.2099991       9.58690727E-09
   33.2700005       8.59025828E-09
   33.3300018       7.59706875E-09
   33.3899994       6.60967192E-09
   33.4500008       5.62884539E-09
   33.5099983       4.65393368E-09
   33.5699997       3.68369824E-09
   33.6300011       2.71825118E-09
   33.6899986       1.76134041E-09
   33.7500000       8.21532176E-10
   33.8100014      -8.88210200E-11
   33.8699989      -9.56652424E-10
   33.9300003      -1.77171255E-09
   33.9900017      -2.52849142E-09
   34.0499992      -3.22534865E-09
   34.1100006      -3.86147381E-09
   34.1699982      -4.43379689E-09
   34.2299995      -4.93616481E-09
   34.2900009      -5.36170708E-09
   34.3499985      -5.70721870E-09
   34.4099998      -5.97692162E-09
   34.4700012      -6.18311313E-09
   34.5299988      -6.34293196E-09
   34.5900002      -6.47269172E-09
   34.6500015      -6.58260513E-09
   34.7099991      -6.67442146E-09
   34.7700005      -6.74282141E-09
   34.8300018      -6.77942902E-09
   34.8899994      -6.77721124E-09
   34.9500008      -6.73330058E-09
   35.0099983      -6.64954580E-09
   35.0699997      -6.53135945E-09
   35.1300011      -6.38597264E-09
   35.1899986      -6.22088558E-09
   35.2500000      -6.04263617E-09
   35.3100014      -5.85569238E-09
   35.3699989      -5.66150105E-09
   35.4300003      -5.45823653E-09
   35.4900017      -5.24193577E-09
   35.5499992      -5.00915709E-09
   35.6100006      -4.76028772E-09
   35.6699982      -4.50186199E-09
   35.7299995      -4.24637658E-09
   35.7900009      -4.00922362E-09
   35.8499985      -3.80388077E-09
   35.9099998      -3.63751296E-09
   35.9700012      -3.50900797E-09
   36.0299988      -3.41028583E-09
   36.0900002      -3.33014105E-09
   36.1500015      -3.25885630E-09
   36.2099991      -3.19175242E-09
   36.2700005      -3.13062820E-09
   36.3300018      -3.08302894E-09
   36.3899994      -3.05995140E-09
   36.4500008      -3.07271764E-09
   36.5099983      -3.12962478E-09
   36.5699997      -3.23295324E-09
   36.6300011      -3.37709016E-09
   36.6899986      -3.54865426E-09
   36.7500000      -3.72918985E-09
   36.8100014      -3.90008781E-09
   36.8699989      -4.04823997E-09
   36.9300003      -4.17020773E-09
   36.9900017      -4.27297664E-09
   37.0499992      -4.37070957E-09
   37.1100006      -4.47869386E-09
   37.1699982      -4.60699301E-09
   37.2299995      -4.75646411E-09
   37.2900009      -4.91867747E-09
   37.3499985      -5.07956432E-09
   37.4099998      -5.22506571E-09
   37.4700012      -5.34646327E-09
   37.5299988      -5.44345680E-09
   37.5900002      -5.52411050E-09
   37.6500015      -5.60192648E-09
   37.7099991      -5.69112846E-09
   37.7700005      -5.80158899E-09
   37.8300018      -5.93482152E-09
   37.8899994      -6.08221118E-09
   37.9500008      -6.22612673E-09
   38.0099983      -6.34384545E-09
   38.0699997      -6.41335340E-09
   38.1300011      -6.41934150E-09
   38.1899986      -6.35746167E-09
   38.2500000      -6.23533136E-09
   38.3100014      -6.06982331E-09
   38.3699989      -5.88147531E-09
   38.4300003      -5.68787728E-09
   38.4900017      -5.49830359E-09
   38.5499992      -5.31143884E-09
   38.6100006      -5.11704012E-09
   38.6699982      -4.90105601E-09
   38.7299995      -4.65252414E-09
   38.7900009      -4.36984271E-09
   38.8499985      -4.06404510E-09
   38.9099998      -3.75759912E-09
   38.9700012      -3.47880813E-09
   39.0299988      -3.25364602E-09
   39.0900002      -3.09802650E-09
   39.1500015      -3.01354941E-09
   39.2099991      -2.98843905E-09
   39.2700005      -3.00324010E-09
   39.3300018      -3.03877368E-09
   39.3899994      -3.08296033E-09
   39.4500008      -3.13374504E-09
   39.5099983      -3.19726312E-09
   39.5699997      -3.28250205E-09
   39.6300011      -3.39505890E-09
   39.6899986      -3.53259488E-09
   39.7500000      -3.68349284E-09
   39.8100014      -3.82877285E-09
   39.8699989      -3.94628019E-09
   39.9300003      -4.01581746E-09
   39.9900017      -4.02403133E-09
   40.0499992      -3.96807032E-09
   40.1100006      -3.85707777E-09
   40.1699982      -3.71070130E-09
   40.2299995      -3.55434282E-09
   40.2900009      -3.41200890E-09
   40.3499985      -3.29895244E-09
   40.4099998      -3.21702132E-09
   40.4700012      -3.15505666E-09
   40.5299988      -3.09475090E-09
   40.5900002      -3.01988834E-09
   40.6500015      -2.92510016E-09
   40.7099991      -2.82019230E-09
   40.7700005      -2.72790901E-09
   40.8300018      -2.67582934E-09
   40.8899994      -2.68560485E-09
   40.9500008      -2.76379231E-09
   41.0099983      -2.89774293E-09
   41.0699997      -3.05793257E-09
   41.1300011      -3.20571303E-09
   41.1899986      -3.30372241E-09
   41.2500000      -3.32554917E-09
   41.3100014      -3.26170024E-09
   41.3699989      -3.12017590E-09
   41.4300003      -2.92159541E-09
   41.4900017      -2.69048694E-09
   41.5499992      -2.44563525E-09
   41.6100006      -2.19281615E-09
   41.6699982      -1.92256056E-09
   41.7299995      -1.61382396E-09
   41.7900009      -1.24218213E-09
   41.8499985      -7.89363297E-10
   41.9099998      -2.50379967E-10
   41.9700012       3.64447833E-10
   42.0299988       1.03315845E-09
   42.0900002       1.72983838E-09
   42.1500015       2.43326448E-09
   42.2099991       3.13337423E-09
   42.2700005       3.83352594E-09
   42.3300018       4.54812987E-09
   42.3899994       5.29669641E-09
   42.4500008       6.09628525E-09
   42.5099983       6.95465241E-09
   42.5699997       7.86618770E-09
   42.6300011       8.81200091E-09
   42.6899986       9.76435111E-09
   42.7500000       1.06941327E-08
   42.8100014       1.15788827E-08
   42.8699989       1.24082895E-08
   42.9300003       1.31850113E-08
   42.9900017       1.39204701E-08
   43.0499992       1.46275543E-08
   43.1100006       1.53135087E-08
   43.1699982       1.59762230E-08
   43.2299995       1.66053997E-08
   43.2900009       1.71877552E-08
   43.3499985       1.77136563E-08
   43.4099998       1.81821616E-08
   43.4700012       1.86025151E-08
   43.5299988       1.89919103E-08
   43.5900002       1.93708125E-08
   43.6500015       1.97576941E-08
   43.7099991       2.01647143E-08
   43.7700005       2.05951967E-08
   43.8300018       2.10431210E-08
   43.8899994       2.14946123E-08
   43.9500008       2.19311769E-08
   44.0099983       2.23341452E-08
   44.0699997       2.26892283E-08
   44.1300011       2.29897186E-08
   44.1899986       2.32370656E-08
   44.2500000       2.34384423E-08
   44.3100014       2.36021762E-08
   44.3699989       2.37329267E-08
   44.4300003       2.38286475E-08
   44.4900017       2.38804887E-08
   44.5499992       2.38755273E-08
   44.6100006       2.38009950E-08
   44.6699982       2.36482851E-08
   44.7299995       2.34153141E-08
   44.7900009       2.31067165E-08
   44.8499985       2.27320829E-08
   44.9099998       2.23029808E-08
   44.9700012       2.18296705E-08
   45.0299988       2.13183800E-08
   45.0900002       2.07698800E-08
   45.1500015       2.01798720E-08
   45.2099991       1.95411491E-08
   45.2700005       1.88469311E-08
   45.3300018       1.80941413E-08
   45.3899994       1.72854264E-08
   45.4500008       1.64291407E-08
   45.5099983       1.55374789E-08
   45.5699997       1.46237014E-08
   45.6300011       1.36996059E-08
   45.6899986       1.27740591E-08
   45.7500000       1.18526584E-08
   45.8100014       1.09381002E-08
   45.8699989       1.00308482E-08
   45.9300003       9.13000076E-09
   45.9900017       8.23457835E-09
   46.0499992       7.34531147E-09
   46.1100006       6.46647580E-09
   46.1699982       5.60685143E-09
   46.2299995       4.77895279E-09
   46.2900009       3.99648181E-09
   46.3499985       3.27103500E-09
   46.4099998       2.60975908E-09
   46.4700012       2.01527883E-09
   46.5299988       1.48798684E-09
   46.5900002       1.02934805E-09
   46.6500015       6.44218401E-10
   46.7099991       3.40752149E-10
   46.7700005       1.27958005E-10
   46.8300018       1.24240869E-11
   46.8899994      -3.79921572E-12
   46.9500008       7.70242967E-11
   47.0099983       2.50518856E-10
   47.0699997       5.12759168E-10
   47.1300011       8.61413607E-10
   47.1899986       1.29468714E-09
   47.2500000       1.80875137E-09
   47.3100014       2.39530995E-09
   47.3699989       3.04084957E-09
   47.4300003       3.72809428E-09
   47.4900017       4.43895498E-09
   47.5499992       5.15758991E-09
   47.6100006       5.87235593E-09
   47.6699982       6.57619559E-09
   47.7299995       7.26571470E-09
   47.7900009       7.93956101E-09
   47.8499985       8.59658744E-09
   47.9099998       9.23410326E-09
   47.9700012       9.84647919E-09
   48.0299988       1.04245377E-08
   48.0900002       1.09561755E-08
   48.1500015       1.14283454E-08
   48.2099991       1.18298171E-08
   48.2700005       1.21535519E-08
   48.3300018       1.23974662E-08
   48.3899994       1.25631043E-08
   48.4500008       1.26528148E-08
   48.5099983       1.26669306E-08
   48.5699997       1.26024320E-08
   48.6300011       1.24537518E-08
   48.6899986       1.22151764E-08
   48.7500000       1.18834915E-08
   48.8100014       1.14596075E-08
   48.8699989       1.09486278E-08
   48.9300003       1.03587983E-08
   48.9900017       9.70018910E-09
   49.0499992       8.98375419E-09
   49.1100006       8.22082491E-09
   49.1699982       7.42265405E-09
   49.2299995       6.59971056E-09
   49.2900009       5.76087800E-09
   49.3499985       4.91312546E-09
   49.4099998       4.06214307E-09
   49.4700012       3.21388849E-09
   49.5299988       2.37631093E-09
   49.5900002       1.56022917E-09
   49.6500015       7.78709264E-10
   49.7099991       4.50636473E-11
   49.7700005      -6.29662156E-10
   49.8300018      -1.23864419E-09
   49.8899994      -1.77995962E-09
   49.9500008      -2.25593677E-09
   50.0099983      -2.67163180E-09
   50.0699997      -3.03303160E-09
   50.1300011      -3.34541950E-09
   50.1899986      -3.61213570E-09
   50.2500000      -3.83392962E-09
   50.3100014      -4.00913924E-09
   50.3699989      -4.13486712E-09
   50.4300003      -4.20898827E-09
   50.4900017      -4.23231450E-09
   50.5499992      -4.20992219E-09
   50.6100006      -4.15083257E-09