  -2.400000      0.0000000E+00
  -2.340000      0.0000000E+00
  -2.280000      0.0000000E+00
  -2.220000      0.0000000E+00
  -2.160000      0.0000000E+00
  -2.100000      0.0000000E+00
  -2.040000      0.0000000E+00
  -1.980000      0.0000000E+00
  -1.920000      6.7784192E-26
  -1.860000      9.0314920E-25
  -1.800000      5.7823575E-24
  -1.740000      2.2775694E-23
  -1.680000      5.6482801E-23
  -1.620000      6.2849173E-23
  -1.560000     -1.5120715E-22
  -1.500000     -1.0062617E-21
  -1.440000     -2.9203173E-21
  -1.380000     -5.3305429E-21
  -1.320000     -4.9002268E-21
  -1.260000      5.7730930E-21
  -1.200000      3.5601595E-20
  -1.140000      8.4700206E-20
  -1.080000      1.2679092E-19
  -1.020000      9.5717153E-20
 -0.9600000     -1.0011328E-19
 -0.9000000     -5.1166622E-19
 -0.8400000     -1.0367625E-18
 -0.7800000     -1.3247715E-18
 -0.7200000     -8.1799824E-19
 -0.6600000      9.6111584E-19
 -0.6000000      3.8998985E-18
 -0.5400000      6.8200946E-18
 -0.4800000      7.4931488E-18
 -0.4200000      3.5443618E-18
 -0.3600000     -5.8178185E-18
 -0.3000000     -1.8060389E-17
 -0.2400000     -2.6960984E-17
 -0.1800000     -2.4795278E-17
 -0.1200000     -6.9333063E-18
 -5.9999999E-02  2.3281933E-17
  0.0000000E+00  5.2890534E-17
  5.9999999E-02  6.3766857E-17
  0.1200000      4.2790946E-17
  0.1800000     -7.1499184E-18
  0.2400000     -6.3062635E-17
  0.3000000     -9.0571347E-17
  0.3600000     -6.4271973E-17
  0.4200000      1.0650529E-17
  0.4800000      9.1004254E-17
  0.5400000      1.1337109E-16
  0.6000000      3.3749531E-17
  0.6600000     -1.3150648E-16
  0.7200000     -2.9252598E-16
  0.7800000     -3.2020731E-16
  0.8400000     -1.2109216E-16
  0.9000000      2.8439129E-16
  0.9600000      7.3172243E-16
   1.020000      9.6512459E-16
   1.080000      7.6418677E-16
   1.140000      8.5229071E-17
   1.200000     -8.6557540E-16
   1.260000     -1.6870975E-15
   1.320000     -1.9605247E-15
   1.380000     -1.4687511E-15
   1.440000     -3.3847479E-16
   1.500000      9.8826532E-16
   1.560000      1.9608057E-15
   1.620000      2.2100762E-15
   1.680000      1.7660090E-15
   1.740000      1.0655334E-15
   1.800000      7.1380499E-16
   1.860000      1.0945216E-15
   1.920000      2.0251404E-15
   1.980000      2.6647805E-15
   2.040000      1.7911433E-15
   2.100000     -1.6005643E-15
   2.160000     -7.5938816E-15
   2.220000     -1.4863019E-14
   2.280000     -2.0701924E-14
   2.340000     -2.1714535E-14
   2.400000     -1.5050427E-14
   2.460000      2.0395263E-16
   2.520000      2.2036729E-14
   2.580000      4.5439303E-14
   2.640000      6.3476520E-14
   2.700000      6.9267183E-14
   2.760000      5.8214711E-14
   2.820000      2.9648450E-14
   2.880000     -1.2758701E-14
   2.940000     -6.1898735E-14
   3.000000     -1.0896323E-13
   3.060000     -1.4517029E-13
   3.120000     -1.6280556E-13
   3.180000     -1.5548855E-13
   3.240000     -1.1825153E-13
   3.300000     -4.8319669E-14
   3.360000      5.2882584E-14
   3.420000      1.7690101E-13
   3.480000      3.0599725E-13
   3.540000      4.1330128E-13
   3.600000      4.6666295E-13
   3.660000      4.3609579E-13
   3.720000      3.0305646E-13
   3.780000      6.8702415E-14
   3.840000     -2.4172708E-13
   3.900000     -5.8016124E-13
   3.960000     -8.8265642E-13
   4.020000     -1.0806212E-12
   4.080000     -1.1140081E-12
   4.140000     -9.4403521E-13
   4.200000     -5.6328401E-13
   4.260000     -1.3824661E-15
   4.320000      6.7513426E-13
   4.380000      1.3695729E-12
   4.440000      1.9680989E-12
   4.500000      2.3571342E-12
   4.560000      2.4418581E-12
   4.620000      2.1620952E-12
   4.680000      1.5028792E-12
   4.740000      4.9905430E-13
   4.800000     -7.6468795E-13
   4.860000     -2.1563320E-12
   4.920000     -3.5010829E-12
   4.980000     -4.5902331E-12
   5.040000     -5.1989203E-12
   5.100000     -5.1168735E-12
   5.160000     -4.1919974E-12
   5.220000     -2.3797026E-12
   5.280000      2.1559928E-13
   5.340000      3.3227442E-12
   5.400000      6.5214366E-12
   5.460000      9.2964768E-12
   5.520000      1.1117021E-11
   5.580000      1.1519415E-11
   5.640000      1.0170015E-11
   5.700000      6.8913542E-12
   5.760000      1.6487176E-12
   5.820000     -5.4912212E-12
   5.880000     -1.4408893E-11
   5.940000     -2.4966850E-11
   6.000000     -3.7019960E-11
   6.060000     -5.0403154E-11
   6.120000     -6.4910355E-11
   6.180000     -8.0281844E-11
   6.240000     -9.6211102E-11
   6.300000     -1.1236938E-10
   6.360000     -1.2843415E-10
   6.420000     -1.4410165E-10
   6.480000     -1.5906879E-10
   6.540000     -1.7298364E-10
   6.600000     -1.8538013E-10
   6.660000     -1.9562363E-10
   6.720000     -2.0289460E-10
   6.780000     -2.0622626E-10
   6.840000     -2.0459341E-10
   6.900000     -1.9703424E-10
   6.960000     -1.8277713E-10
   7.020000     -1.6134724E-10
   7.080000     -1.3263698E-10
   7.140000     -9.6936265E-11
   7.200000     -5.4924586E-11
   7.260000     -7.6282990E-12
   7.320000      4.3656162E-11
   7.380000      9.7472620E-11
   7.440000      1.5234292E-10
   7.500000      2.0691496E-10
   7.560000      2.6009453E-10
   7.620000      3.1113156E-10
   7.680000      3.5964193E-10
   7.740000      4.0556464E-10
   7.800000      4.4907378E-10
   7.860000      4.9047405E-10
   7.920000      5.3010418E-10
   7.980000      5.6825683E-10
   8.040000      6.0510535E-10
   8.100000      6.4062350E-10
   8.160000      6.7449529E-10
   8.220000      7.0603340E-10
   8.280000      7.3414685E-10
   8.340000      7.5740197E-10
   8.400000      7.7419748E-10
   8.460000      7.8303791E-10
   8.520000      7.8284551E-10
   8.580000      7.7323342E-10
   8.640000      7.5466999E-10
   8.700000      7.2850326E-10
   8.760000      6.9686118E-10
   8.820000      6.6247557E-10
   8.880000      6.2847905E-10
   8.940000      5.9819544E-10
   9.000000      5.7490540E-10
   9.060000      5.6154154E-10
   9.120000      5.6028177E-10
   9.180000      5.7205712E-10
   9.240000      5.9605948E-10
   9.300000      6.2938527E-10
   9.360000      6.6695371E-10
   9.420000      7.0178324E-10
   9.480000      7.2560946E-10
   9.540000      7.2972822E-10
   9.600000      7.0588940E-10
   9.660000      6.4707611E-10
   9.720000      5.4807808E-10
   9.780000      4.0586104E-10
   9.840000      2.1980634E-10
   9.900000     -8.1010884E-12
   9.960000     -2.7311389E-10
   10.02000     -5.6765959E-10
   10.08000     -8.8150598E-10
   10.14000     -1.2022854E-09
   10.20000     -1.5164315E-09
   10.26000     -1.8104587E-09
   10.32000     -2.0723947E-09
   10.38000     -2.2931135E-09
   10.44000     -2.4673266E-09
   10.50000     -2.5940725E-09
   10.56000     -2.6766509E-09
   10.62000     -2.7220499E-09
   10.68000     -2.7400056E-09
   10.74000     -2.7418654E-09
   10.80000     -2.7394527E-09
   10.86000     -2.7441025E-09
   10.92000     -2.7659783E-09
   10.98000     -2.8136795E-09
   11.04000     -2.8940346E-09
   11.10000     -3.0119003E-09
   11.16000     -3.1697884E-09
   11.22000     -3.3672556E-09
   11.28000     -3.6001642E-09
   11.34000     -3.8601047E-09
   11.40000     -4.1343218E-09
   11.46000     -4.4064081E-09
   11.52000     -4.6577791E-09
   11.58000     -4.8696740E-09
   11.64000     -5.0252043E-09
   11.70000     -5.1109539E-09
   11.76000     -5.1177902E-09
   11.82000     -5.0408557E-09
   11.88000     -4.8789692E-09
   11.94000     -4.6338631E-09
   12.00000     -4.3096473E-09
   12.06000     -3.9127146E-09
   12.12000     -3.4520258E-09
   12.18000     -2.9395031E-09
   12.24000     -2.3901352E-09
   12.30000     -1.8214834E-09
   12.36000     -1.2524631E-09
   12.42000     -7.0156647E-10
   12.48000     -1.8491149E-10
   12.54000      2.8538116E-10
   12.60000      7.0205758E-10
   12.66000      1.0626486E-09
   12.72000      1.3685386E-09
   12.78000      1.6235429E-09
   12.84000      1.8324510E-09
   12.90000      1.9999111E-09
   12.96000      2.1298083E-09
   13.02000      2.2250564E-09
   13.08000      2.2875912E-09
   13.14000      2.3183651E-09
   13.20000      2.3172824E-09
   13.26000      2.2831623E-09
   13.32000      2.2138720E-09
   13.38000      2.1067166E-09
   13.44000      1.9590383E-09
   13.50000      1.7688701E-09
   13.56000      1.5354898E-09
   13.62000      1.2597962E-09
   13.68000      9.4454777E-10
   13.74000      5.9453520E-10
   13.80000      2.1668474E-10
   13.86000     -1.8002019E-10
   13.92000     -5.8497590E-10
   13.98000     -9.8684028E-10
   14.04000     -1.3747312E-09
   14.10000     -1.7393847E-09
   14.16000     -2.0738411E-09
   14.22000     -2.3733793E-09
   14.28000     -2.6347575E-09
   14.34000     -2.8551654E-09
   14.40000     -3.0314380E-09
   14.46000     -3.1599494E-09
   14.52000     -3.2372314E-09
   14.58000     -3.2609770E-09
   14.64000     -3.2308851E-09
   14.70000     -3.1489120E-09
   14.76000     -3.0188325E-09
   14.82000     -2.8453939E-09
   14.88000     -2.6335629E-09
   14.94000     -2.3882936E-09
   15.00000     -2.1149611E-09
   15.06000     -1.8202524E-09
   15.12000     -1.5130782E-09
   15.18000     -1.2050688E-09
   15.24000     -9.1040242E-10
   15.30000     -6.4498434E-10
   15.36000     -4.2520229E-10
   15.42000     -2.6656116E-10
   15.48000     -1.8244500E-10
   15.54000     -1.8313460E-10
   15.60000     -2.7510189E-10
   15.66000     -4.6055709E-10
   15.72000     -7.3724277E-10
   15.78000     -1.0985114E-09
   15.84000     -1.5337450E-09
   15.90000     -2.0291417E-09
   15.96000     -2.5687892E-09
   16.02000     -3.1358349E-09
   16.08000     -3.7134655E-09
   16.14000     -4.2854351E-09
   16.20000     -4.8360311E-09
   16.26000     -5.3496083E-09
   16.32000     -5.8100769E-09
   16.38000     -6.2008256E-09
   16.44000     -6.5054606E-09
   16.50000     -6.7093966E-09
   16.56000     -6.8019199E-09
   16.62000     -6.7780248E-09
   16.68000     -6.6392980E-09
   16.74000     -6.3934125E-09
   16.80000     -6.0523160E-09
   16.86000     -5.6297424E-09
   16.92000     -5.1389244E-09
   16.98000     -4.5913411E-09
   17.04000     -3.9968713E-09
   17.10000     -3.3651750E-09
   17.16000     -2.7076077E-09
   17.22000     -2.0387678E-09
   17.28000     -1.3769008E-09
   17.34000     -7.4279216E-10
   17.40000     -1.5731433E-10
   17.46000      3.6173009E-10
   17.52000      8.0254908E-10
   17.58000      1.1611683E-09
   17.64000      1.4414693E-09
   17.70000      1.6533299E-09
   17.76000      1.8093205E-09
   17.82000      1.9209205E-09
   17.88000      1.9954616E-09
   17.94000      2.0348563E-09
   18.00000      2.0366344E-09
   18.06000      1.9970132E-09
   18.12000      1.9149271E-09
   18.18000      1.7954753E-09
   18.24000      1.6513229E-09
   18.30000      1.5012663E-09
   18.36000      1.3662508E-09
   18.42000      1.2641784E-09
   18.48000      1.2054594E-09
   18.54000      1.1910783E-09
   18.60000      1.2140178E-09
   18.66000      1.2635128E-09
   18.72000      1.3304151E-09
   18.78000      1.4114379E-09
   18.84000      1.5105386E-09
   18.90000      1.6369496E-09
   18.96000      1.8008570E-09
   19.02000      2.0087367E-09
   19.08000      2.2604203E-09
   19.14000      2.5490643E-09
   19.20000      2.8637952E-09
   19.26000      3.1936034E-09
   19.32000      3.5306220E-09
   19.38000      3.8714227E-09
   19.44000      4.2160457E-09
   19.50000      4.5655804E-09
   19.56000      4.9196691E-09
   19.62000      5.2751283E-09
   19.68000      5.6261711E-09
   19.74000      5.9659055E-09
   19.80000      6.2883085E-09
   19.86000      6.5898416E-09
   19.92000      6.8702022E-09
   19.98000      7.1321389E-09
   20.04000      7.3805100E-09
   20.10000      7.6209004E-09
   20.16000      7.8580955E-09
   20.22000      8.0947320E-09
   20.28000      8.3304492E-09
   20.34000      8.5618357E-09
   20.40000      8.7832417E-09
   20.46000      8.9882368E-09
   20.52000      9.1711687E-09
   20.58000      9.3282546E-09
   20.64000      9.4578168E-09
   20.70000      9.5597406E-09
   20.76000      9.6345865E-09
   20.82000      9.6829318E-09
   20.88000      9.7052784E-09
   20.94000      9.7024859E-09
   21.00000      9.6763619E-09
   21.06000      9.6299910E-09
   21.12000      9.5675601E-09
   21.18000      9.4937773E-09
   21.24000      9.4131369E-09
   21.30000      9.3292858E-09
   21.36000      9.2445509E-09
   21.42000      9.1595478E-09
   21.48000      9.0727905E-09
   21.54000      8.9803738E-09
   21.60000      8.8759178E-09
   21.66000      8.7510141E-09
   21.72000      8.5961638E-09
   21.78000      8.4020053E-09
   21.84000      8.1604306E-09
   21.90000      7.8653288E-09
   21.96000      7.5129023E-09
   22.02000      7.1017379E-09
   22.08000      6.6328796E-09
   22.14000      6.1099268E-09
   22.20000      5.5389564E-09
   22.26000      4.9279625E-09
   22.32000      4.2856612E-09
   22.38000      3.6198986E-09
   22.44000      2.9362064E-09
   22.50000      2.2371076E-09
   22.56000      1.5224537E-09
   22.62000      7.9057555E-10
   22.68000      3.9628568E-11
   22.74000     -7.3153100E-10
   22.80000     -1.5232700E-09
   22.86000     -2.3357154E-09
   22.92000     -3.1693341E-09
   22.98000     -4.0249453E-09
   23.04000     -4.9028928E-09
   23.10000     -5.8015983E-09
   23.16000     -6.7160943E-09
   23.22000     -7.6372100E-09
   23.28000     -8.5518153E-09
   23.34000     -9.4440837E-09
   23.40000     -1.0297341E-08
   23.46000     -1.1095882E-08
   23.52000     -1.1826234E-08
   23.58000     -1.2477657E-08
   23.64000     -1.3042016E-08
   23.70000     -1.3513403E-08
   23.76000     -1.3887894E-08
   23.82000     -1.4163636E-08
   23.88000     -1.4341137E-08
   23.94000     -1.4423428E-08
   24.00000     -1.4415749E-08
   24.06000     -1.4324745E-08
   24.12000     -1.4157457E-08
   24.18000     -1.3920784E-08
   24.24000     -1.3621839E-08
   24.30000     -1.3269255E-08
   24.36000     -1.2874746E-08
   24.42000     -1.2453850E-08
   24.48000     -1.2024964E-08
   24.54000     -1.1606524E-08
   24.60000     -1.1213179E-08
   24.66000     -1.0852546E-08
   24.72000     -1.0523967E-08
   24.78000     -1.0219875E-08
   24.84000     -9.9290300E-09
   24.90000     -9.6400115E-09
   24.96000     -9.3432515E-09
   25.02000     -9.0307530E-09
   25.08000     -8.6939780E-09
   25.14000     -8.3213791E-09
   25.20000     -7.8972677E-09
   25.26000     -7.4029756E-09
   25.32000     -6.8200494E-09
   25.38000     -6.1342322E-09
   25.44000     -5.3387073E-09
   25.50000     -4.4355697E-09
   25.56000     -3.4353769E-09
   25.62000     -2.3553950E-09
   25.68000     -1.2174195E-09
   25.74000     -4.5827842E-11
   25.80000      1.1339005E-09
   25.86000      2.2962534E-09
   25.92000      3.4164269E-09
   25.98000      4.4706914E-09
   26.04000      5.4363070E-09
   26.10000      6.2910974E-09
   26.16000      7.0131403E-09
   26.22000      7.5812148E-09
   26.28000      7.9764702E-09
   26.34000      8.1852018E-09
   26.40000      8.2018730E-09
   26.46000      8.0311686E-09
   26.52000      7.6880324E-09
   26.58000      7.1954385E-09
   26.64000      6.5806360E-09
   26.70000      5.8712417E-09
   26.76000      5.0925304E-09
   26.82000      4.2665422E-09
   26.88000      3.4126206E-09
   26.94000      2.5483140E-09
   27.00000      1.6895346E-09
   27.06000      8.4953733E-10
   27.12000      3.7180214E-11
   27.18000     -7.4445172E-10
   27.24000     -1.4980603E-09
   27.30000     -2.2304973E-09
   27.36000     -2.9501104E-09
   27.42000     -3.6642636E-09
   27.48000     -4.3780810E-09
   27.54000     -5.0946904E-09
   27.60000     -5.8163430E-09
   27.66000     -6.5452834E-09
   27.72000     -7.2835173E-09
   27.78000     -8.0313898E-09
   27.84000     -8.7857916E-09
   27.90000     -9.5391517E-09
   27.96000     -1.0279983E-08
   28.02000     -1.0994875E-08
   28.08000     -1.1670954E-08
   28.14000     -1.2297575E-08
   28.20000     -1.2866451E-08
   28.26000     -1.3370320E-08
   28.32000     -1.3801070E-08
   28.38000     -1.4148441E-08
   28.44000     -1.4400084E-08
   28.50000     -1.4542942E-08
   28.56000     -1.4565336E-08
   28.62000     -1.4458920E-08
   28.68000     -1.4219899E-08
   28.74000     -1.3849327E-08
   28.80000     -1.3352566E-08
   28.86000     -1.2738121E-08
   28.92000     -1.2015999E-08
   28.98000     -1.1195902E-08
   29.04000     -1.0285665E-08
   29.10000     -9.2905665E-09
   29.16000     -8.2139548E-09
   29.22000     -7.0591231E-09
   29.28000     -5.8316831E-09
   29.34000     -4.5412989E-09
   29.40000     -3.2017811E-09
   29.46000     -1.8294000E-09
   29.52000     -4.4019854E-10
   29.58000      9.5231889E-10
   29.64000      2.3379698E-09
   29.70000      3.7088870E-09
   29.76000      5.0575011E-09
   29.82000      6.3748247E-09
   29.88000      7.6500832E-09
   29.94000      8.8718668E-09
   30.00000      1.0030066E-08
   30.06000      1.1117483E-08
   30.12000      1.2130303E-08
   30.18000      1.3067342E-08
   30.24000      1.3928624E-08
   30.30000      1.4714024E-08
   30.36000      1.5422415E-08
   30.42000      1.6051382E-08
   30.48000      1.6597287E-08
   30.54000      1.7055511E-08
   30.60000      1.7420961E-08
   30.66000      1.7688773E-08
   30.72000      1.7855109E-08
   30.78000      1.7917554E-08
   30.84000      1.7874775E-08
   30.90000      1.7725480E-08
   30.96000      1.7467292E-08
   31.02000      1.7096585E-08
   31.08000      1.6609887E-08
   31.14000      1.6006606E-08
   31.20000      1.5291880E-08
   31.26000      1.4477994E-08
   31.32000      1.3583381E-08
   31.38000      1.2629501E-08
   31.44000      1.1636952E-08
   31.50000      1.0622533E-08
   31.56000      9.5982218E-09
   31.62000      8.5718694E-09
   31.68000      7.5485183E-09
   31.74000      6.5312604E-09
   31.80000      5.5213856E-09
   31.86000      4.5184496E-09
   31.92000      3.5212089E-09
   31.98000      2.5296736E-09
   32.04000      1.5474635E-09
   32.10000      5.8300026E-10
   32.16000     -3.5153427E-10
   32.22000     -1.2432231E-09
   32.28000     -2.0818167E-09
   32.34000     -2.8614935E-09
   32.40000     -3.5799077E-09
   32.46000     -4.2352277E-09
   32.52000     -4.8232947E-09
   32.58000     -5.3371019E-09
   32.64000     -5.7693681E-09
   32.70000     -6.1169358E-09
   32.76000     -6.3843548E-09
   32.82000     -6.5843002E-09
   32.88000     -6.7342074E-09
   32.94000     -6.8506667E-09
   33.00000     -6.9443531E-09
   33.06000     -7.0178654E-09
   33.12000     -7.0671433E-09
   33.18000     -7.0852657E-09
   33.24000     -7.0664594E-09
   33.30000     -7.0085493E-09
   33.36000     -6.9133357E-09
   33.42000     -6.7855583E-09
   33.48000     -6.6314816E-09
   33.54000     -6.4577259E-09
   33.60000     -6.2702963E-09
   33.66000     -6.0735212E-09
   33.72000     -5.8689831E-09
   33.78000     -5.6550951E-09
   33.84000     -5.4281273E-09
   33.90000     -5.1848636E-09
   33.96000     -4.9259667E-09
   34.02000     -4.6583399E-09
   34.08000     -4.3949053E-09
   34.14000     -4.1514245E-09
   34.20000     -3.9415613E-09
   34.26000     -3.7724077E-09
   34.32000     -3.6425329E-09
   34.38000     -3.5433652E-09
   34.44000     -3.4631293E-09
   34.50000     -3.3915295E-09
   34.56000     -3.3233467E-09
   34.62000     -3.2599305E-09
   34.68000     -3.2085588E-09
   34.74000     -3.1802523E-09
   34.80000     -3.1867300E-09
   34.86000     -3.2370435E-09
   34.92000     -3.3344254E-09
   34.98000     -3.4741505E-09
   35.04000     -3.6433709E-09
   35.10000     -3.8236139E-09
   35.16000     -3.9956838E-09
   35.22000     -4.1454871E-09
   35.28000     -4.2685033E-09
   35.34000     -4.3708708E-09
   35.40000     -4.4663793E-09
   35.46000     -4.5705018E-09
   35.52000     -4.6939492E-09
   35.58000     -4.8384572E-09
   35.64000     -4.9964388E-09
   35.70000     -5.1544204E-09
   35.76000     -5.2986326E-09
   35.82000     -5.4204450E-09
   35.88000     -5.5196523E-09
   35.94000     -5.6046141E-09
   36.00000     -5.6893734E-09
   36.06000     -5.7887548E-09
   36.12000     -5.9129270E-09
   36.18000     -6.0630061E-09
   36.24000     -6.2290662E-09
   36.30000     -6.3913541E-09
   36.36000     -6.5246462E-09
   36.42000     -6.6046533E-09
   36.48000     -6.6145591E-09
   36.54000     -6.5495418E-09
   36.60000     -6.4176851E-09
   36.66000     -6.2369132E-09
   36.72000     -6.0289622E-09
   36.78000     -5.8124652E-09
   36.84000     -5.5974900E-09
   36.90000     -5.3833649E-09
   36.96000     -5.1605005E-09
   37.02000     -4.9156088E-09
   37.08000     -4.6385966E-09
   37.14000     -4.3287463E-09
   37.20000     -3.9978931E-09
   37.26000     -3.6691630E-09
   37.32000     -3.3713545E-09
   37.38000     -3.1307550E-09
   37.44000     -2.9633742E-09
   37.50000     -2.8706408E-09
   37.56000     -2.8403393E-09
   37.62000     -2.8523857E-09
   37.68000     -2.8869576E-09
   37.74000     -2.9315050E-09
   37.80000     -2.9837961E-09
   37.86000     -3.0500595E-09
   37.92000     -3.1395009E-09
   37.98000     -3.2578629E-09
   38.04000     -3.4027505E-09
   38.10000     -3.5622949E-09
   38.16000     -3.7172128E-09
   38.22000     -3.8451993E-09
   38.28000     -3.9262260E-09
   38.34000     -3.9474739E-09
   38.40000     -3.9068948E-09
   38.46000     -3.8144998E-09
   38.52000     -3.6906280E-09
   38.58000     -3.5609828E-09
   38.64000     -3.4493641E-09
   38.70000     -3.3703125E-09
   38.76000     -3.3245859E-09
   38.82000     -3.2997702E-09
   38.88000     -3.2763667E-09
   38.94000     -3.2371927E-09
   39.00000     -3.1761735E-09
   39.06000     -3.1025866E-09
   39.12000     -3.0386984E-09
   39.18000     -3.0115836E-09
   39.24000     -3.0424068E-09
   39.30000     -3.1374043E-09
   39.36000     -3.2839231E-09
   39.42000     -3.4527814E-09
   39.48000     -3.6058729E-09
   39.54000     -3.7063050E-09
   39.60000     -3.7278149E-09
   39.66000     -3.6606749E-09
   39.72000     -3.5124346E-09
   39.78000     -3.3033716E-09
   39.84000     -3.0580711E-09
   39.90000     -2.7958584E-09
   39.96000     -2.5233671E-09
   40.02000     -2.2319899E-09
   40.08000     -1.9012809E-09
   40.14000     -1.5070831E-09
   40.20000     -1.0312167E-09
   40.26000     -4.6886228E-10
   40.32000      1.6924429E-10
   40.38000      8.6051072E-10
   40.44000      1.5783889E-09
   40.50000      2.3012781E-09
   40.56000      3.0191454E-09
   40.62000      3.7357535E-09
   40.68000      4.4661239E-09
   40.74000      5.2303917E-09
   40.80000      6.0461405E-09
   40.86000      6.9215198E-09
   40.92000      7.8511748E-09
   40.98000      8.8162704E-09
   41.04000      9.7887938E-09
   41.10000      1.0738942E-08
   41.16000      1.1643157E-08
   41.22000      1.2489870E-08
   41.28000      1.3280700E-08
   41.34000      1.4026626E-08
   41.40000      1.4740873E-08
   41.46000      1.5431731E-08
   41.52000      1.6098523E-08
   41.58000      1.6732358E-08
   41.64000      1.7320971E-08
   41.70000      1.7855161E-08
   41.76000      1.8333800E-08
   41.82000      1.8765473E-08
   41.88000      1.9166452E-08
   41.94000      1.9556291E-08
   42.00000      1.9952815E-08
   42.06000      2.0367988E-08
   42.12000      2.0805407E-08
   42.18000      2.1259607E-08
   42.24000      2.1717229E-08
   42.30000      2.2159922E-08
   42.36000      2.2568649E-08
   42.42000      2.2928383E-08
   42.48000      2.3231708E-08
   42.54000      2.3479858E-08
   42.60000      2.3680524E-08
   42.66000      2.3843194E-08
   42.72000      2.3973902E-08
   42.78000      2.4071619E-08
   42.84000      2.4127754E-08
   42.90000      2.4128786E-08
   42.96000      2.4060755E-08
   43.02000      2.3913730E-08
   43.08000      2.3684610E-08
   43.14000      2.3377599E-08
   43.20000      2.3002439E-08
   43.26000      2.2571257E-08
   43.32000      2.2094964E-08
   43.38000      2.1580224E-08
   43.44000      2.1027807E-08
   43.50000      2.0432887E-08
   43.56000      1.9787327E-08
   43.62000      1.9083298E-08
   43.68000      1.8316966E-08
   43.74000      1.7490823E-08
   43.80000      1.6613804E-08
   43.86000      1.5699216E-08
   43.92000      1.4761558E-08
   43.98000      1.3813564E-08
   44.04000      1.2864505E-08
   44.10000      1.1919944E-08
   44.16000      1.0982432E-08
   44.22000      1.0052513E-08
   44.28000      9.1297361E-09
   44.34000      8.2137683E-09
   44.40000      7.3058195E-09
   44.46000      6.4101564E-09
   44.52000      5.5349756E-09
   44.58000      4.6918691E-09
   44.64000      3.8936911E-09
   44.70000      3.1516476E-09
   44.76000      2.4730971E-09
   44.82000      1.8613711E-09
   44.88000      1.3177800E-09
   44.94000      8.4461999E-10
   45.00000      4.4729292E-10
   45.06000      1.3413194E-10
   45.12000     -8.6040945E-11
   45.18000     -2.0714341E-10
   45.24000     -2.2785648E-10
   45.30000     -1.5123998E-10
   45.36000      1.7685606E-11
   45.42000      2.7469457E-10
   45.48000      6.1756406E-10
   45.54000      1.0448946E-09
   45.60000      1.5532852E-09
   45.66000      2.1346704E-09
   45.72000      2.7755300E-09
   45.78000      3.4585401E-09
   45.84000      4.1658428E-09
   45.90000      4.8823163E-09
   45.96000      5.5974518E-09
   46.02000      6.3053531E-09
   46.08000      7.0033237E-09
   46.14000      7.6899180E-09
   46.20000      8.3631431E-09
   46.26000      9.0190992E-09
   46.32000      9.6510959E-09
   46.38000      1.0249388E-08
   46.44000      1.0801815E-08
   46.50000      1.1295522E-08
   46.56000      1.1719390E-08
   46.62000      1.2066208E-08
   46.68000      1.2333471E-08
   46.74000      1.2522201E-08
   46.80000      1.2634259E-08
   46.86000      1.2669540E-08
   46.92000      1.2624596E-08
   46.98000      1.2493458E-08
   47.04000      1.2270213E-08
   47.10000      1.1951901E-08
   47.16000      1.1540251E-08
   47.22000      1.1041610E-08
   47.28000      1.0465435E-08
   47.34000      9.8224548E-09
   47.40000      9.1234478E-09
   47.46000      8.3788372E-09
   47.52000      7.5986915E-09
   47.58000      6.7925221E-09
   47.64000      5.9687415E-09
   47.70000      5.1342317E-09
   47.76000      4.2946726E-09
   47.82000      3.4558327E-09
   47.88000      2.6252895E-09
   47.94000      1.8135162E-09
   48.00000      1.0334555E-09
   48.06000      2.9851216E-10
   48.12000     -3.8018261E-10
   48.18000     -9.9593978E-10
   48.24000     -1.5471523E-09
   48.30000     -2.0362927E-09
   48.36000     -2.4679505E-09
   48.42000     -2.8468694E-09
   48.48000     -3.1766376E-09
   48.54000     -3.4591372E-09
   48.60000     -3.6945247E-09
   48.66000     -3.8815569E-09
   48.72000     -4.0183243E-09
   48.78000     -4.1035229E-09
   48.84000     -4.1380894E-09
   48.90000     -4.1265529E-09
   48.96000     -4.0772017E-09
   49.02000     -4.0005346E-09
   49.08000     -3.9063082E-09
   49.14000     -3.8003733E-09
   49.20000     -3.6827390E-09
   49.26000     -3.5477459E-09
   49.32000     -3.3860978E-09
   49.38000     -3.1875629E-09
   49.44000     -2.9429679E-09
   49.50000     -2.6447651E-09
   49.56000     -2.2864677E-09
   49.62000     -1.8619097E-09
   49.68000     -1.3651584E-09
   49.74000     -7.9115159E-10
   49.80000     -1.3636441E-10
   49.86000      6.0138233E-10
   49.92000      1.4243309E-09
   49.98000      2.3369211E-09
   50.04000      3.3476344E-09
   50.10000      4.4697241E-09
   50.16000      5.7207372E-09
   50.22000      7.1214550E-09
   50.28000      8.6950340E-09
   50.34000      1.0466637E-08
   50.40000      1.2463176E-08
   50.46000      1.4712474E-08
   50.52000      1.7241545E-08
   50.58000      2.0074486E-08
   50.64000      2.3230927E-08
   50.70000      2.6725834E-08
   50.76000      3.0570497E-08
   50.82000      3.4773635E-08
   50.88000      3.9341291E-08
   50.94000      4.4274934E-08
   51.00000      4.9568378E-08
   51.06000      5.5205089E-08
   51.12000      6.1157088E-08
   51.18000      6.7385791E-08
   51.24000      7.3843587E-08
   51.30000      8.0474436E-08
   51.36000      8.7212435E-08
   51.42000      9.3978585E-08
   51.48000      1.0067713E-07
   51.54000      1.0719317E-07
   51.60000      1.1339226E-07
   51.66000      1.1912142E-07
   51.72000      1.2421036E-07
   51.78000      1.2847211E-07
   51.84000      1.3170269E-07
   51.90000      1.3368124E-07
   51.96000      1.3417088E-07
   52.02000      1.3292102E-07
   52.08000      1.2966986E-07
   52.14000      1.2414614E-07
   52.20000      1.1606967E-07
   52.26000      1.0515124E-07
   52.32000      9.1093348E-08
   52.38000      7.3592901E-08
   52.44000      5.2346046E-08
   52.50000      2.7054266E-08
   52.56000     -2.5694049E-09
   52.62000     -3.6794717E-08
   52.68000     -7.5868641E-08
   52.74000     -1.2000919E-07
   52.80000     -1.6939816E-07
   52.86000     -2.2417349E-07
   52.92000     -2.8442253E-07
   52.98000     -3.5017732E-07
   53.04000     -4.2141215E-07
   53.10000     -4.9804129E-07
   53.16000     -5.7991633E-07
   53.22000     -6.6682077E-07
   53.28000     -7.5846373E-07
   53.34000     -8.5447363E-07
   53.40000     -9.5439464E-07
   53.46000     -1.0576859E-06
   53.52000     -1.1637238E-06
   53.58000     -1.2718058E-06
   53.64000     -1.3811538E-06
   53.70000     -1.4909177E-06
   53.76000     -1.6001798E-06
   53.82000     -1.7079582E-06
   53.88000     -1.8132149E-06
   53.94000     -1.9148633E-06
   54.00000     -2.0117777E-06
   54.06000     -2.1028036E-06
   54.12000     -2.1867693E-06
   54.18000     -2.2624988E-06
   54.24000     -2.3288248E-06
   54.30000     -2.3846028E-06
   54.36000     -2.4287226E-06
   54.42000     -2.4601222E-06
   54.48000     -2.4777974E-06
   54.54000     -2.4808130E-06
   54.60000     -2.4683172E-06
   54.66000     -2.4395540E-06
   54.72000     -2.3938746E-06
   54.78000     -2.3307514E-06
   54.84000     -2.2497827E-06
   54.90000     -2.1507024E-06
   54.96000     -2.0333839E-06
   55.02000     -1.8978473E-06
   55.08000     -1.7442643E-06
   55.14000     -1.5729636E-06
   55.20000     -1.3844307E-06
   55.26000     -1.1793045E-06
   55.32000     -9.5837231E-07
   55.38000     -7.2256239E-07
   55.44000     -4.7293622E-07
   55.50000     -2.1068067E-07
   55.56000      6.2902068E-08