  -2.400000      0.0000000E+00
  -2.340000      0.0000000E+00
  -2.280000      0.0000000E+00
  -2.220000      0.0000000E+00
  -2.160000      0.0000000E+00
  -2.100000      0.0000000E+00
  -2.040000      0.0000000E+00
  -1.980000      0.0000000E+00
  -1.920000     -6.4616660E-27
  -1.860000     -1.0712035E-25
  -1.800000     -8.1439042E-25
  -1.740000     -3.7995048E-24
  -1.680000     -1.1913582E-23
  -1.620000     -2.4457481E-23
  -1.560000     -2.1785770E-23
  -1.500000      5.9497335E-23
  -1.440000      3.3531395E-22
  -1.380000      9.0645071E-22
  -1.320000      1.6415908E-21
  -1.260000      1.8033955E-21
  -1.200000     -3.0044211E-22
  -1.140000     -7.1558595E-21
  -1.080000     -2.0599059E-20
  -1.020000     -3.8382906E-20
 -0.9600000     -4.9030924E-20
 -0.9000000     -2.7736048E-20
 -0.8400000      6.0237334E-20
 -0.7800000      2.3971415E-19
 -0.7200000      4.8438637E-19
 -0.6600000      6.6536858E-19
 -0.6000000      5.2825346E-19
 -0.5400000     -2.3894945E-19
 -0.4800000     -1.7962295E-18
 -0.4200000     -3.8277957E-18
 -0.3600000     -5.2726680E-18
 -0.3000000     -4.4093264E-18
 -0.2400000      4.2240459E-19
 -0.1800000      9.4695496E-18
 -0.1200000      2.0137363E-17
 -5.9999999E-02  2.6567589E-17
  0.0000000E+00  2.1346731E-17
  5.9999999E-02 -3.9207061E-19
  0.1200000     -3.5896244E-17
  0.1800000     -7.1864505E-17
  0.2400000     -8.7111734E-17
  0.3000000     -6.2161379E-17
  0.3600000      7.2405377E-18
  0.4200000      1.0013502E-16
  0.4800000      1.7253729E-16
  0.5400000      1.7590799E-16
  0.6000000      8.6363731E-17
  0.6600000     -7.0856503E-17
  0.7200000     -2.2022070E-16
  0.7800000     -2.6769775E-16
  0.8400000     -1.5600963E-16
  0.9000000      8.5814212E-17
  0.9600000      3.3405357E-16
   1.020000      4.2238997E-16
   1.080000      2.3886334E-16
   1.140000     -1.8335947E-16
   1.200000     -6.4407554E-16
   1.260000     -8.5826349E-16
   1.320000     -6.1850213E-16
   1.380000      4.6428857E-17
   1.440000      8.2198899E-16
   1.500000      1.2307290E-15
   1.560000      8.9730319E-16
   1.620000     -1.7275000E-16
   1.680000     -1.4709782E-15
   1.740000     -2.1392533E-15
   1.800000     -1.3824608E-15
   1.860000      1.0290619E-15
   1.920000      4.4262799E-15
   1.980000      7.3009912E-15
   2.040000      7.8217589E-15
   2.100000      4.6509270E-15
   2.160000     -2.2687166E-15
   2.220000     -1.1332705E-14
   2.280000     -1.9550425E-14
   2.340000     -2.3475240E-14
   2.400000     -2.0499874E-14
   2.460000     -1.0026346E-14
   2.520000      5.9982871E-15
   2.580000      2.3487903E-14
   2.640000      3.7503485E-14
   2.700000      4.3958360E-14
   2.760000      4.1035446E-14
   2.820000      2.9670466E-14
   2.880000      1.2854460E-14
   2.940000     -5.9010113E-15
   3.000000     -2.4106351E-14
   3.060000     -4.0937804E-14
   3.120000     -5.6538690E-14
   3.180000     -7.0356400E-14
   3.240000     -7.9625142E-14
   3.300000     -7.9247257E-14
   3.360000     -6.3655319E-14
   3.420000     -3.0018499E-14
   3.480000      1.8924471E-14
   3.540000      7.4316394E-14
   3.600000      1.2381525E-13
   3.660000      1.5650069E-13
   3.720000      1.6755656E-13
   3.780000      1.5993039E-13
   3.840000      1.4158058E-13
   3.900000      1.1943620E-13
   3.960000      9.3406755E-14
   4.020000      5.4252938E-14
   4.080000     -1.2673689E-14
   4.140000     -1.1908214E-13
   4.200000     -2.6494581E-13
   4.260000     -4.3414138E-13
   4.320000     -5.9728264E-13
   4.380000     -7.2055778E-13
   4.440000     -7.7582895E-13
   4.500000     -7.4629566E-13
   4.560000     -6.2447860E-13
   4.620000     -4.0398725E-13
   4.680000     -7.0927625E-14
   4.740000      3.9770921E-13
   4.800000      1.0238819E-12
   4.860000      1.8073158E-12
   4.920000      2.6999978E-12
   4.980000      3.5865005E-12
   5.040000      4.2796912E-12
   5.100000      4.5371393E-12
   5.160000      4.0976814E-12
   5.220000      2.7326140E-12
   5.280000      3.0341788E-13
   5.340000     -3.1820258E-12
   5.400000     -7.5213238E-12
   5.460000     -1.2282645E-11
   5.520000     -1.6787412E-11
   5.580000     -2.0114965E-11
   5.640000     -2.1133076E-11
   5.700000     -1.8556342E-11
   5.760000     -1.1031063E-11
   5.820000      2.7592824E-12
   5.880000      2.3977556E-11
   5.940000      5.3517125E-11
   6.000000      9.1897656E-11
   6.060000      1.3918115E-10
   6.120000      1.9491408E-10
   6.180000      2.5809935E-10
   6.240000      3.2720227E-10
   6.300000      4.0019479E-10
   6.360000      4.7464299E-10
   6.420000      5.4783844E-10
   6.480000      6.1696770E-10
   6.540000      6.7930506E-10
   6.600000      7.3240491E-10
   6.660000      7.7426610E-10
   6.720000      8.0344398E-10
   6.780000      8.1909735E-10
   6.840000      8.2096924E-10
   6.900000      8.0931600E-10
   6.960000      7.8480505E-10
   7.020000      7.4840500E-10
   7.080000      7.0128814E-10
   7.140000      6.4475753E-10
   7.200000      5.8020488E-10
   7.260000      5.0909715E-10
   7.320000      4.3298137E-10
   7.380000      3.5349193E-10
   7.440000      2.7233893E-10
   7.500000      1.9126004E-10
   7.560000      1.1192715E-10
   7.620000      3.5816648E-11
   7.680000     -3.5931244E-11
   7.740000     -1.0262918E-10
   7.800000     -1.6410352E-10
   7.860000     -2.2068329E-10
   7.920000     -2.7312183E-10
   7.980000     -3.2247163E-10
   8.040000     -3.6993655E-10
   8.100000     -4.1671644E-10
   8.160000     -4.6384876E-10
   8.220000     -5.1204485E-10
   8.280000     -5.6152982E-10
   8.340000     -6.1191202E-10
   8.400000     -6.6212624E-10
   8.460000     -7.1049211E-10
   8.520000     -7.5490653E-10
   8.580000     -7.9314333E-10
   8.640000     -8.2319601E-10
   8.700000     -8.4357699E-10
   8.760000     -8.5350682E-10
   8.820000     -8.5296870E-10
   8.880000     -8.4265733E-10
   8.940000     -8.2388396E-10
   9.000000     -7.9849360E-10
   9.060000     -7.6881146E-10
   9.120000     -7.3758205E-10
   9.180000     -7.0783140E-10
   9.240000     -6.8258865E-10
   9.300000     -6.6446354E-10
   9.360000     -6.5515299E-10
   9.420000     -6.5502043E-10
   9.480000     -6.6290995E-10
   9.540000     -6.7630496E-10
   9.600000     -6.9183653E-10
   9.660000     -7.0602257E-10
   9.720000     -7.1602929E-10
   9.780000     -7.2023254E-10
   9.840000     -7.1842265E-10
   9.900000     -7.1162781E-10
   9.960000     -7.0165818E-10
   10.02000     -6.9055989E-10
   10.08000     -6.8016542E-10
   10.14000     -6.7185268E-10
   10.20000     -6.6651135E-10
   10.26000     -6.6462491E-10
   10.32000     -6.6634681E-10
   10.38000     -6.7149220E-10
   10.44000     -6.7944922E-10
   10.50000     -6.8908906E-10
   10.56000     -6.9877870E-10
   10.62000     -7.0656164E-10
   10.68000     -7.1049194E-10
   10.74000     -7.0903278E-10
   10.80000     -7.0139128E-10
   10.86000     -6.8768374E-10
   10.92000     -6.6888317E-10
   10.98000     -6.4657296E-10
   11.04000     -6.2258354E-10
   11.10000     -5.9861305E-10
   11.16000     -5.7592769E-10
   11.22000     -5.5521782E-10
   11.28000     -5.3664723E-10
   11.34000     -5.2008731E-10
   11.40000     -5.0546900E-10
   11.46000     -4.9313814E-10
   11.52000     -4.8408066E-10
   11.58000     -4.7992060E-10
   11.64000     -4.8267806E-10
   11.70000     -4.9437621E-10
   11.76000     -5.1665233E-10
   11.82000     -5.5052107E-10
   11.88000     -5.9635064E-10
   11.94000     -6.5399181E-10
   12.00000     -7.2291584E-10
   12.06000     -8.0222123E-10
   12.12000     -8.9046243E-10
   12.18000     -9.8539188E-10
   12.24000     -1.0838009E-09
   12.30000     -1.1816403E-09
   12.36000     -1.2744861E-09
   12.42000     -1.3582612E-09
   12.48000     -1.4299881E-09
   12.54000     -1.4883215E-09
   12.60000     -1.5336815E-09
   12.66000     -1.5679571E-09
   12.72000     -1.5938790E-09
   12.78000     -1.6142521E-09
   12.84000     -1.6312388E-09
   12.90000     -1.6458445E-09
   12.96000     -1.6576802E-09
   13.02000     -1.6650171E-09
   13.08000     -1.6650815E-09
   13.14000     -1.6545026E-09
   13.20000     -1.6297956E-09
   13.26000     -1.5877808E-09
   13.32000     -1.5258877E-09
   13.38000     -1.4423701E-09
   13.44000     -1.3365141E-09
   13.50000     -1.2089174E-09
   13.56000     -1.0618361E-09
   13.62000     -8.9947549E-10
   13.68000     -7.2801470E-10
   13.74000     -5.5516719E-10
   13.80000     -3.8922332E-10
   13.86000     -2.3773383E-10
   13.92000     -1.0618666E-10
   13.98000      2.9096326E-12
   14.04000      9.0226923E-11
   14.10000      1.5903211E-10
   14.16000      2.1401231E-10
   14.22000      2.5989039E-10
   14.28000      3.0024677E-10
   14.34000      3.3685346E-10
   14.40000      3.6963407E-10
   14.46000      3.9716996E-10
   14.52000      4.1753717E-10
   14.58000      4.2920303E-10
   14.64000      4.3172732E-10
   14.70000      4.2608184E-10
   14.76000      4.1450526E-10
   14.82000      3.9993425E-10
   14.88000      3.8517844E-10
   14.94000      3.7209788E-10
   15.00000      3.6106387E-10
   15.06000      3.5091088E-10
   15.12000      3.3942923E-10
   15.18000      3.2425665E-10
   15.24000      3.0387010E-10
   15.30000      2.7832484E-10
   15.36000      2.4946642E-10
   15.42000      2.2052901E-10
   15.48000      1.9526405E-10
   15.54000      1.7692534E-10
   15.60000      1.6749573E-10
   15.66000      1.6744209E-10
   15.72000      1.7606346E-10
   15.78000      1.9223978E-10
   15.84000      2.1520488E-10
   15.90000      2.4494790E-10
   15.96000      2.8201119E-10
   16.02000      3.2673700E-10
   16.08000      3.7829428E-10
   16.14000      4.3395790E-10
   16.20000      4.8904297E-10
   16.26000      5.3763932E-10
   16.32000      5.7395344E-10
   16.38000      5.9380867E-10
   16.44000      5.9577410E-10
   16.50000      5.8153488E-10
   16.56000      5.5539673E-10
   16.62000      5.2312088E-10
   16.68000      4.9049304E-10
   16.74000      4.6206886E-10
   16.80000      4.4042678E-10
   16.86000      4.2605305E-10
   16.92000      4.1776646E-10
   16.98000      4.1343734E-10
   17.04000      4.1070755E-10
   17.10000      4.0747880E-10
   17.16000      4.0207768E-10
   17.22000      3.9316980E-10
   17.28000      3.7961051E-10
   17.34000      3.6043937E-10
   17.40000      3.3513331E-10
   17.46000      3.0407202E-10
   17.52000      2.6902253E-10
   17.58000      2.3339042E-10
   17.64000      2.0205172E-10
   17.70000      1.8073550E-10
   17.76000      1.7509807E-10
   17.82000      1.8973038E-10
   17.88000      2.2734260E-10
   17.94000      2.8829067E-10
   18.00000      3.7050735E-10
   18.06000      4.6981707E-10
   18.12000      5.8055821E-10
   18.18000      6.9638495E-10
   18.24000      8.1107382E-10
   18.30000      9.1912916E-10
   18.36000      1.0160325E-09
   18.42000      1.0981276E-09
   18.48000      1.1623336E-09
   18.54000      1.2060075E-09
   18.60000      1.2272369E-09
   18.66000      1.2255758E-09
   18.72000      1.2028920E-09
   18.78000      1.1637624E-09
   18.84000      1.1149386E-09
   18.90000      1.0638237E-09
   18.96000      1.0164575E-09
   19.02000      9.7587483E-10
   19.08000      9.4164276E-10
   19.14000      9.1084928E-10
   19.20000      8.8010876E-10
   19.26000      8.4762836E-10
   19.32000      8.1436874E-10
   19.38000      7.8383317E-10
   19.44000      7.6073386E-10
   19.50000      7.4931172E-10
   19.56000      7.5212131E-10
   19.62000      7.6967371E-10
   19.68000      8.0075019E-10
   19.74000      8.4283963E-10
   19.80000      8.9222840E-10
   19.86000      9.4369024E-10
   19.92000      9.9016895E-10
   19.98000      1.0230043E-09
   20.04000      1.0330001E-09
   20.10000      1.0121501E-09
   20.16000      9.5542252E-10
   20.22000      8.6192475E-10
   20.28000      7.3505035E-10
   20.34000      5.8164512E-10
   20.40000      4.1057285E-10
   20.46000      2.3113320E-10
   20.52000      5.1650999E-11
   20.58000     -1.2162156E-10
   20.64000     -2.8521294E-10
   20.70000     -4.3862203E-10
   20.76000     -5.8382699E-10
   20.82000     -7.2407147E-10
   20.88000     -8.6217739E-10
   20.94000     -9.9893538E-10
   21.00000     -1.1322059E-09
   21.06000     -1.2571190E-09
   21.12000     -1.3672828E-09
   21.18000     -1.4564645E-09
   21.24000     -1.5200509E-09
   21.30000     -1.5558196E-09
   21.36000     -1.5639584E-09
   21.42000     -1.5466107E-09
   21.48000     -1.5072754E-09
   21.54000     -1.4501940E-09
   21.60000     -1.3796305E-09
   21.66000     -1.2989431E-09
   21.72000     -1.2095815E-09
   21.78000     -1.1104598E-09
   21.84000     -9.9822273E-10
   21.90000     -8.6860047E-10
   21.96000     -7.1844813E-10
   22.02000     -5.4757537E-10
   22.08000     -3.5944875E-10
   22.14000     -1.6038582E-10
   22.20000      4.2319499E-11
   22.26000      2.4230989E-10
   22.32000      4.3510928E-10
   22.38000      6.1774197E-10
   22.44000      7.8754014E-10
   22.50000      9.4118391E-10
   22.56000      1.0748555E-09
   22.62000      1.1856220E-09
   22.68000      1.2732876E-09
   22.74000      1.3415371E-09
   22.80000      1.3975060E-09
   22.86000      1.4497757E-09
   22.92000      1.5056731E-09
   22.98000      1.5691236E-09
   23.04000      1.6399776E-09
   23.10000      1.7149288E-09
   23.16000      1.7893572E-09
   23.22000      1.8591193E-09
   23.28000      1.9215387E-09
   23.34000      1.9754514E-09
   23.40000      2.0206792E-09
   23.46000      2.0575013E-09
   23.52000      2.0864939E-09
   23.58000      2.1087345E-09
   23.64000      2.1260833E-09
   23.70000      2.1412050E-09
   23.76000      2.1571829E-09
   23.82000      2.1768396E-09
   23.88000      2.2020565E-09
   23.94000      2.2334032E-09
   24.00000      2.2702602E-09
   24.06000      2.3114148E-09
   24.12000      2.3559132E-09
   24.18000      2.4038183E-09
   24.24000      2.4565354E-09
   24.30000      2.5165094E-09
   24.36000      2.5863687E-09
   24.42000      2.6678570E-09
   24.48000      2.7610345E-09
   24.54000      2.8640967E-09
   24.60000      2.9738205E-09
   24.66000      3.0862801E-09
   24.72000      3.1973102E-09
   24.78000      3.3023877E-09
   24.84000      3.3960643E-09
   24.90000      3.4715120E-09
   24.96000      3.5208363E-09
   25.02000      3.5364398E-09
   25.08000      3.5130692E-09
   25.14000      3.4496614E-09
   25.20000      3.3500618E-09
   25.26000      3.2221856E-09
   25.32000      3.0759684E-09
   25.38000      2.9210208E-09
   25.44000      2.7649425E-09
   25.50000      2.6127778E-09
   25.56000      2.4674225E-09
   25.62000      2.3303834E-09
   25.68000      2.2023354E-09
   25.74000      2.0833295E-09
   25.80000      1.9729147E-09
   25.86000      1.8705073E-09
   25.92000      1.7760731E-09
   25.98000      1.6907803E-09
   26.04000      1.6171174E-09
   26.10000      1.5582218E-09
   26.16000      1.5166732E-09
   26.22000      1.4934264E-09
   26.28000      1.4875459E-09
   26.34000      1.4969503E-09
   26.40000      1.5197338E-09
   26.46000      1.5552547E-09
   26.52000      1.6043080E-09
   26.58000      1.6682534E-09
   26.64000      1.7476082E-09
   26.70000      1.8409099E-09
   26.76000      1.9444699E-09
   26.82000      2.0530855E-09
   26.88000      2.1612570E-09
   26.94000      2.2642583E-09
   27.00000      2.3586062E-09
   27.06000      2.4419187E-09
   27.12000      2.5125053E-09
   27.18000      2.5691169E-09
   27.24000      2.6110789E-09
   27.30000      2.6387252E-09
   27.36000      2.6538287E-09
   27.42000      2.6597213E-09
   27.48000      2.6609601E-09
   27.54000      2.6625966E-09
   27.60000      2.6692548E-09
   27.66000      2.6842333E-09
   27.72000      2.7088001E-09
   27.78000      2.7417637E-09
   27.84000      2.7793787E-09
   27.90000      2.8156288E-09
   27.96000      2.8429357E-09
   28.02000      2.8533027E-09
   28.08000      2.8397960E-09
   28.14000      2.7981062E-09
   28.20000      2.7277716E-09
   28.26000      2.6325917E-09
   28.32000      2.5199052E-09
   28.38000      2.3987572E-09
   28.44000      2.2774718E-09
   28.50000      2.1614870E-09
   28.56000      2.0523345E-09
   28.62000      1.9482036E-09
   28.68000      1.8458236E-09
   28.74000      1.7427642E-09
   28.80000      1.6390498E-09
   28.86000      1.5373766E-09
   28.92000      1.4419813E-09
   28.98000      1.3569029E-09
   29.04000      1.2845979E-09
   29.10000      1.2255049E-09
   29.16000      1.1784892E-09
   29.22000      1.1415856E-09
   29.28000      1.1124518E-09
   29.34000      1.0883655E-09
   29.40000      1.0661056E-09
   29.46000      1.0422045E-09
   29.52000      1.0137189E-09
   29.58000      9.7910902E-10
   29.64000      9.3851804E-10
   29.70000      8.9302038E-10
   29.76000      8.4314361E-10
   29.82000      7.8762313E-10
   29.88000      7.2341400E-10
   29.94000      6.4727146E-10
   30.00000      5.5815991E-10
   30.06000      4.5905549E-10
   30.12000      3.5690301E-10
   30.18000      2.6052754E-10
   30.24000      1.7753513E-10
   30.30000      1.1185503E-10
   30.36000      6.3167034E-11
   30.42000      2.8281304E-11
   30.48000      3.3780955E-12
   30.54000     -1.4361890E-11
   30.60000     -2.6594307E-11
   30.66000     -3.4837095E-11
   30.72000     -4.1565574E-11
   30.78000     -5.0297908E-11
   30.84000     -6.4442070E-11
   30.90000     -8.5715206E-11
   30.96000     -1.1340133E-10
   31.02000     -1.4524969E-10
   31.08000     -1.7972675E-10
   31.14000     -2.1837063E-10
   31.20000     -2.6678773E-10
   31.26000     -3.3353079E-10
   31.32000     -4.2724616E-10
   31.38000     -5.5337607E-10
   31.44000     -7.1186318E-10
   31.50000     -8.9672703E-10
   31.56000     -1.0974941E-09
   31.62000     -1.3017675E-09
   31.68000     -1.4980091E-09
   31.74000     -1.6777970E-09
   31.80000     -1.8371541E-09
   31.86000     -1.9768034E-09
   31.92000     -2.1013742E-09
   31.98000     -2.2177393E-09
   32.04000     -2.3329045E-09
   32.10000     -2.4520685E-09
   32.16000     -2.5774818E-09
   32.22000     -2.7084204E-09
   32.28000     -2.8420915E-09
   32.34000     -2.9748612E-09
   32.40000     -3.1031391E-09
   32.46000     -3.2235916E-09
   32.52000     -3.3328738E-09
   32.58000     -3.4274030E-09
   32.64000     -3.5036267E-09
   32.70000     -3.5588124E-09
   32.76000     -3.5919359E-09
   32.82000     -3.6040952E-09
   32.88000     -3.5981229E-09
   32.94000     -3.5775560E-09
   33.00000     -3.5454966E-09
   33.06000     -3.5039043E-09
   33.12000     -3.4535441E-09
   33.18000     -3.3943952E-09
   33.24000     -3.3261047E-09
   33.30000     -3.2481848E-09
   33.36000     -3.1599598E-09
   33.42000     -3.0605309E-09
   33.48000     -2.9490237E-09
   33.54000     -2.8251446E-09
   33.60000     -2.6897575E-09
   33.66000     -2.5450724E-09
   33.72000     -2.3941951E-09
   33.78000     -2.2401545E-09
   33.84000     -2.0848516E-09
   33.90000     -1.9284752E-09
   33.96000     -1.7697134E-09
   34.02000     -1.6066958E-09
   34.08000     -1.4382191E-09
   34.14000     -1.2646657E-09
   34.20000     -1.0881778E-09
   34.26000     -9.1202262E-10
   34.32000     -7.3949602E-10
   34.38000     -5.7292543E-10
   34.44000     -4.1326892E-10
   34.50000     -2.6045652E-10
   34.56000     -1.1419704E-10
   34.62000      2.5293021E-11
   34.68000      1.5712388E-10
   34.74000      2.8024405E-10
   34.80000      3.9428427E-10
   34.86000      5.0013416E-10
   34.92000      5.9978805E-10
   34.98000      6.9546258E-10
   35.04000      7.8848789E-10
   35.10000      8.7865920E-10
   35.16000      9.6445685E-10
   35.22000      1.0439671E-09
   35.28000      1.1158502E-09
   35.34000      1.1796636E-09
   35.40000      1.2353099E-09
   35.46000      1.2820246E-09
   35.52000      1.3177024E-09
   35.58000      1.3391775E-09
   35.64000      1.3434379E-09
   35.70000      1.3290936E-09
   35.76000      1.2972105E-09
   35.82000      1.2510110E-09
   35.88000      1.1946626E-09
   35.94000      1.1319078E-09
   36.00000      1.0652876E-09
   36.06000      9.9619646E-10
   36.12000      9.2540164E-10
   36.18000      8.5342888E-10
   36.24000      7.8049878E-10
   36.30000      7.0624673E-10
   36.36000      6.2977357E-10
   36.42000      5.5037036E-10
   36.48000      4.6866927E-10
   36.54000      3.8746445E-10
   36.60000      3.1148190E-10
   36.66000      2.4599817E-10
   36.72000      1.9500349E-10
   36.78000      1.5997288E-10
   36.84000      1.3994396E-10
   36.90000      1.3272686E-10
   36.96000      1.3631786E-10
   37.02000      1.4951348E-10
   37.08000      1.7139382E-10
   37.14000      2.0026671E-10
   37.20000      2.3313207E-10
   37.26000      2.6636143E-10
   37.32000      2.9733321E-10
   37.38000      3.2592448E-10
   37.44000      3.5468806E-10
   37.50000      3.8733863E-10
   37.56000      4.2630730E-10
   37.62000      4.7079568E-10
   37.68000      5.1648807E-10
   37.74000      5.5704230E-10
   37.80000      5.8639271E-10
   37.86000      6.0049438E-10
   37.92000      5.9765154E-10
   37.98000      5.7759425E-10
   38.04000      5.4025623E-10
   38.10000      4.8524634E-10
   38.16000      4.1233195E-10
   38.22000      3.2243044E-10
   38.28000      2.1823054E-10
   38.34000      1.0388295E-10
   38.40000     -1.6085067E-11
   38.46000     -1.3792120E-10
   38.52000     -2.5915528E-10
   38.58000     -3.7826281E-10
   38.64000     -4.9388876E-10
   38.70000     -6.0428684E-10
   38.76000     -7.0738654E-10
   38.82000     -8.0139573E-10
   38.88000     -8.8547636E-10
   38.94000     -9.6003383E-10
   39.00000     -1.0264710E-09
   39.06000     -1.0865867E-09
   39.12000     -1.1419119E-09
   39.18000     -1.1931680E-09
   39.24000     -1.2398801E-09
   39.30000     -1.2801721E-09
   39.36000     -1.3109018E-09
   39.42000     -1.3283584E-09
   39.48000     -1.3295659E-09
   39.54000     -1.3138303E-09
   39.60000     -1.2838097E-09
   39.66000     -1.2454029E-09
   39.72000     -1.2062447E-09
   39.78000     -1.1733369E-09
   39.84000     -1.1508582E-09
   39.90000     -1.1391530E-09
   39.96000     -1.1352996E-09
   40.02000     -1.1348696E-09
   40.08000     -1.1339899E-09
   40.14000     -1.1308579E-09
   40.20000     -1.1262972E-09
   40.26000     -1.1234393E-09
   40.32000     -1.1268392E-09
   40.38000     -1.1412737E-09
   40.44000     -1.1703325E-09
   40.50000     -1.2149455E-09
   40.56000     -1.2722191E-09
   40.62000     -1.3351559E-09
   40.68000     -1.3937199E-09
   40.74000     -1.4372086E-09
   40.80000     -1.4572197E-09
   40.86000     -1.4500966E-09
   40.92000     -1.4178599E-09
   40.98000     -1.3672750E-09
   41.04000     -1.3074778E-09
   41.10000     -1.2470988E-09
   41.16000     -1.1918534E-09
   41.22000     -1.1432394E-09
   41.28000     -1.0985369E-09
   41.34000     -1.0519833E-09
   41.40000     -9.9678488E-10
   41.46000     -9.2744035E-10
   41.52000     -8.4166757E-10
   41.58000     -7.4117418E-10
   41.64000     -6.3080935E-10
   41.70000     -5.1631210E-10
   41.76000     -4.0164583E-10
   41.82000     -2.8729638E-10
   41.88000     -1.7054053E-10
   41.94000     -4.7663099E-11
   42.00000      8.3029424E-11
   42.06000      2.1906651E-10
   42.12000      3.5374811E-10
   42.18000      4.7817877E-10
   42.24000      5.8426425E-10
   42.30000      6.6711586E-10
   42.36000      7.2584061E-10
   42.42000      7.6273760E-10
   42.48000      7.8173673E-10
   42.54000      7.8700996E-10
   42.60000      7.8214074E-10
   42.66000      7.6962242E-10
   42.72000      7.5031609E-10
   42.78000      7.2291101E-10
   42.84000      6.8395706E-10
   42.90000      6.2906824E-10
   42.96000      5.5523169E-10
   43.02000      4.6320808E-10
   43.08000      3.5853520E-10
   43.14000      2.5017693E-10
   43.20000      1.4720024E-10
   43.26000      5.5173258E-11
   43.32000     -2.5679819E-11
   43.38000     -9.9471764E-11
   43.44000     -1.7138690E-10
   43.50000     -2.4408672E-10
   43.56000     -3.1583369E-10
   43.62000     -3.8123188E-10
   43.68000     -4.3386317E-10
   43.74000     -4.6908727E-10
   43.80000     -4.8547294E-10
   43.86000     -4.8446402E-10
   43.92000     -4.6906101E-10
   43.98000     -4.4271081E-10
   44.04000     -4.0903844E-10
   44.10000     -3.7210940E-10
   44.16000     -3.3637293E-10
   44.22000     -3.0573863E-10
   44.28000     -2.8210492E-10
   44.34000     -2.6435054E-10
   44.40000     -2.4871588E-10
   44.46000     -2.3064485E-10
   44.52000     -2.0714441E-10
   44.58000     -1.7829636E-10
   44.64000     -1.4704642E-10
   44.70000     -1.1745134E-10
   44.76000     -9.2449798E-11
   44.82000     -7.2358002E-11
   44.88000     -5.4669005E-11
   44.94000     -3.4879131E-11
   45.00000     -7.6001991E-12
   45.06000      3.2601793E-11
   45.12000      9.0651833E-11
   45.18000      1.7031973E-10
   45.24000      2.7323535E-10
   45.30000      3.9783027E-10
   45.36000      5.3889165E-10
   45.42000      6.8831896E-10
   45.48000      8.3705021E-10
   45.54000      9.7739383E-10
   45.60000      1.1047044E-09
   45.66000      1.2177109E-09
   45.72000      1.3175895E-09
   45.78000      1.4065358E-09
   45.84000      1.4866934E-09
   45.90000      1.5598413E-09
   45.96000      1.6276215E-09
   46.02000      1.6917708E-09
   46.08000      1.7540011E-09
   46.14000      1.8156213E-09
   46.20000      1.8773236E-09
   46.26000      1.9394539E-09
   46.32000      2.0026798E-09
   46.38000      2.0685655E-09
   46.44000      2.1395445E-09
   46.50000      2.2181441E-09
   46.56000      2.3058295E-09
   46.62000      2.4020841E-09
   46.68000      2.5042031E-09
   46.74000      2.6078322E-09
   46.80000      2.7079081E-09
   46.86000      2.7995575E-09
   46.92000      2.8787233E-09
   46.98000      2.9425384E-09
   47.04000      2.9895710E-09
   47.10000      3.0199405E-09
   47.16000      3.0351555E-09
   47.22000      3.0375362E-09
   47.28000      3.0293132E-09
   47.34000      3.0117813E-09
   47.40000      2.9849567E-09
   47.46000      2.9479474E-09
   47.52000      2.8998242E-09
   47.58000      2.8404890E-09
   47.64000      2.7710796E-09
   47.70000      2.6938038E-09
   47.76000      2.6114846E-09
   47.82000      2.5271998E-09
   47.88000      2.4441893E-09
   47.94000      2.3658244E-09
   48.00000      2.2952713E-09
   48.06000      2.2346853E-09
   48.12000      2.1842204E-09
   48.18000      2.1414783E-09
   48.24000      2.1019526E-09
   48.30000      2.0605091E-09
   48.36000      2.0133166E-09
   48.42000      1.9593054E-09
   48.48000      1.9004358E-09
   48.54000      1.8406819E-09
   48.60000      1.7842942E-09
   48.66000      1.7342126E-09
   48.72000      1.6913079E-09
   48.78000      1.6546370E-09
   48.84000      1.6223867E-09
   48.90000      1.5929704E-09
   48.96000      1.5658003E-09
   49.02000      1.5415081E-09
   49.08000      1.5216117E-09
   49.14000      1.5077806E-09
   49.20000      1.5009468E-09
   49.26000      1.5005773E-09
   49.32000      1.5044394E-09
   49.38000      1.5090698E-09
   49.44000      1.5108705E-09
   49.50000      1.5074196E-09
   49.56000      1.4984044E-09
   49.62000      1.4857129E-09
   49.68000      1.4726348E-09
   49.74000      1.4625693E-09
   49.80000      1.4578516E-09
   49.86000      1.4591538E-09
   49.92000      1.4655199E-09
   49.98000      1.4747731E-09
   50.04000      1.4839862E-09
   50.10000      1.4899397E-09
   50.16000      1.4897287E-09
   50.22000      1.4816702E-09
   50.28000      1.4663505E-09
   50.34000      1.4472844E-09
   50.40000      1.4305871E-09
   50.46000      1.4234719E-09
   50.52000      1.4320758E-09
   50.58000      1.4596431E-09
   50.64000      1.5060290E-09
   50.70000      1.5688103E-09
   50.76000      1.6453860E-09
   50.82000      1.7348988E-09
   50.88000      1.8389856E-09
   50.94000      1.9611297E-09
   51.00000      2.1052382E-09
   51.06000      2.2744455E-09
   51.12000      2.4708142E-09
   51.18000      2.6959039E-09
   51.24000      2.9515734E-09
   51.30000      3.2403318E-09
   51.36000      3.5650178E-09
   51.42000      3.9281445E-09
   51.48000      4.3314947E-09
   51.54000      4.7762523E-09
   51.60000      5.2634581E-09
   51.66000      5.7942473E-09
   51.72000      6.3694712E-09
   51.78000      6.9888682E-09
   51.84000      7.6503666E-09
   51.90000      8.3501499E-09
   51.96000      9.0835757E-09
   52.02000      9.8463788E-09
   52.08000      1.0635302E-08
   52.14000      1.1447568E-08
   52.20000      1.2279385E-08
   52.26000      1.3124343E-08
   52.32000      1.3972590E-08
   52.38000      1.4811195E-08
   52.44000      1.5625220E-08
   52.50000      1.6398616E-08
   52.56000      1.7114195E-08
   52.62000      1.7752718E-08
   52.68000      1.8291834E-08
   52.74000      1.8705800E-08
   52.80000      1.8966414E-08
   52.86000      1.9044668E-08
   52.92000      1.8912116E-08
   52.98000      1.8541032E-08
   53.04000      1.7903165E-08
   53.10000      1.6967906E-08
   53.16000      1.5700994E-08
   53.22000      1.4064706E-08
   53.28000      1.2019519E-08
   53.34000      9.5264809E-09
   53.40000      6.5490937E-09
   53.46000      3.0541325E-09
   53.52000     -9.8855812E-10
   53.58000     -5.6066427E-09
   53.64000     -1.0825475E-08
   53.70000     -1.6667423E-08
   53.76000     -2.3150898E-08
   53.82000     -3.0289527E-08
   53.88000     -3.8092061E-08
   53.94000     -4.6562874E-08
   54.00000     -5.5702618E-08
   54.06000     -6.5508317E-08
   54.12000     -7.5972643E-08
   54.18000     -8.7082505E-08
   54.24000     -9.8817701E-08
   54.30000     -1.1114954E-07
   54.36000     -1.2404001E-07
   54.42000     -1.3744132E-07
   54.48000     -1.5129531E-07
   54.54000     -1.6553319E-07
   54.60000     -1.8007539E-07
   54.66000     -1.9483225E-07
   54.72000     -2.0970552E-07
   54.78000     -2.2459025E-07
   54.84000     -2.3937682E-07
   54.90000     -2.5395215E-07
   54.96000     -2.6819993E-07
   55.02000     -2.8200026E-07
   55.08000     -2.9522892E-07
   55.14000     -3.0775738E-07
   55.20000     -3.1945393E-07
   55.26000     -3.3018551E-07
   55.32000     -3.3982013E-07
   55.38000     -3.4822884E-07
   55.44000     -3.5528663E-07
   55.50000     -3.6087246E-07
   55.56000     -3.6486821E-07