 -0.750000000       0.00000000    
 -0.689999998       0.00000000    
 -0.629999995       0.00000000    
 -0.569999993       0.00000000    
 -0.509999990       2.15012179E-18
 -0.449999988       1.41355902E-17
 -0.389999986       4.76574220E-17
 -0.330000013       1.06488162E-16
 -0.270000011       1.67399333E-16
 -0.209999993       1.67298245E-16
 -0.150000006       1.15257212E-17
  -9.00000036E-02  -3.90870553E-16
  -2.99999993E-02  -1.07167127E-15
   2.99999993E-02  -1.94225883E-15
   9.00000036E-02  -2.74426774E-15
  0.150000006      -3.03699280E-15
  0.209999993      -2.26027544E-15
  0.270000011       8.43518158E-17
  0.330000013       4.12683176E-15
  0.389999986       9.27784156E-15
  0.449999988       1.40267716E-14
  0.509999990       1.61312732E-14
  0.569999993       1.33411492E-14
  0.629999995       4.52612055E-15
  0.689999998      -9.26829888E-15
  0.750000000      -2.45160591E-14
  0.810000002      -3.61748561E-14
  0.870000005      -3.98388869E-14
  0.930000007      -3.41712708E-14
  0.990000010      -2.21229234E-14
   1.04999995      -9.63670993E-15
   1.11000001      -1.73786798E-15
   1.16999996       2.25194170E-15
   1.23000002       1.11797126E-14
   1.28999996       3.91433102E-14
   1.35000002       9.65074646E-14
   1.40999997       1.78147197E-13
   1.47000003       2.55739630E-13
   1.52999997       2.81392775E-13
   1.59000003       2.05723500E-13
   1.64999998       5.59932231E-15
   1.71000004      -2.91129371E-13
   1.76999998      -5.99440853E-13
   1.83000004      -7.99423245E-13
   1.88999999      -7.83727521E-13
   1.95000005      -5.11850490E-13
   2.00999999      -4.44582522E-14
   2.06999993       4.64448250E-13
   2.13000011       8.21935131E-13
   2.19000006       8.78028986E-13
   2.25000000       5.98874791E-13
   2.30999994       9.44213647E-14
   2.36999989      -4.17587460E-13
   2.43000007      -6.99798130E-13
   2.49000001      -5.97787716E-13
   2.54999995      -1.10200464E-13
   2.60999990       6.06307864E-13
   2.67000008       1.29951963E-12
   2.73000002       1.72170785E-12
   2.78999996       1.72035704E-12
   2.84999990       1.27910410E-12
   2.91000009       4.95300524E-13
   2.97000003      -4.85987390E-13
   3.02999997      -1.53884533E-12
   3.08999991      -2.58134291E-12
   3.15000010      -3.53876455E-12
   3.21000004      -4.26186126E-12
   3.26999998      -4.44801140E-12
   3.32999992      -3.62312307E-12
   3.39000010      -1.22292454E-12
   3.45000005       3.23042526E-12
   3.50999999       9.90942831E-12
   3.56999993       1.85056102E-11
   3.63000011       2.81810183E-11
   3.69000006       3.76906770E-11
   3.75000000       4.56550873E-11
   3.80999994       5.08996213E-11
   3.86999989       5.27467098E-11
   3.93000007       5.11635317E-11
   3.99000001       4.67267926E-11
   4.05000019       4.04408278E-11
   4.11000013       3.34995053E-11
   4.17000008       2.70903040E-11
   4.23000002       2.22978216E-11
   4.28999996       2.00961921E-11
   4.34999990       2.13635776E-11
   4.40999985       2.68377889E-11
   4.46999979       3.69693998E-11
   4.53000021       5.16973062E-11
   4.59000015       7.02351718E-11
   4.65000010       9.09803760E-11
   4.71000004       1.11625327E-10
   4.76999998       1.29477873E-10
   4.82999992       1.41916659E-10
   4.88999987       1.46854015E-10
   4.94999981       1.43076953E-10
   5.01000023       1.30381081E-10
   5.07000017       1.09484408E-10
   5.13000011       8.17740597E-11
   5.19000006       4.89774714E-11
   5.25000000       1.28505782E-11
   5.30999994      -2.50522780E-11
   5.36999989      -6.35020786E-11
   5.42999983      -1.01621683E-10
   5.48999977      -1.38842396E-10
   5.55000019      -1.74820075E-10
   5.61000013      -2.09334911E-10
   5.67000008      -2.42194209E-10
   5.73000002      -2.73157275E-10
   5.78999996      -3.01901198E-10
   5.84999990      -3.28040817E-10
   5.90999985      -3.51197377E-10
   5.96999979      -3.71087883E-10
   6.03000021      -3.87587490E-10
   6.09000015      -4.00720540E-10
   6.15000010      -4.10562528E-10
   6.21000004      -4.17078316E-10
   6.26999998      -4.19956181E-10
   6.32999992      -4.18502788E-10
   6.38999987      -4.11630757E-10
   6.44999981      -3.97917893E-10
   6.51000023      -3.75676962E-10
   6.57000017      -3.42974538E-10
   6.63000011      -2.97585956E-10
   6.69000006      -2.36940911E-10
   6.75000000      -1.58161220E-10
   6.80999994      -5.82771539E-11
   6.86999989       6.53622156E-11
   6.92999983       2.14567586E-10
   6.98999977       3.89823784E-10
   7.05000019       5.89979954E-10
   7.11000013       8.12176881E-10
   7.17000008       1.05196962E-09
   7.23000002       1.30353495E-09
   7.28999996       1.55985991E-09
   7.34999990       1.81288529E-09
   7.40999985       2.05366835E-09
   7.46999979       2.27267649E-09
   7.53000021       2.46028997E-09
   7.59000015       2.60749244E-09
   7.65000010       2.70662426E-09
   7.71000004       2.75202128E-09
   7.76999998       2.74039835E-09
   7.82999992       2.67093281E-09
   7.88999987       2.54510257E-09
   7.94999981       2.36639597E-09
   8.01000023       2.13998019E-09
   8.06999969       1.87236093E-09
   8.13000011       1.57099322E-09
   8.18999958       1.24380117E-09
   8.25000000       8.98598196E-10
   8.31000042       5.42485001E-10
   8.36999989       1.81352253E-10
   8.43000031      -1.80378906E-10
   8.48999977      -5.39710665E-10
   8.55000019      -8.94745278E-10
   8.60999966      -1.24420141E-09
   8.67000008      -1.58693048E-09
   8.72999954      -1.92157357E-09
   8.78999996      -2.24643459E-09
   8.85000038      -2.55956345E-09
   8.90999985      -2.85897550E-09
   8.97000027      -3.14291282E-09
   9.02999973      -3.41005513E-09
   9.09000015      -3.65964281E-09
   9.14999962      -3.89151422E-09
   9.21000004      -4.10610079E-09
   9.27000046      -4.30441371E-09
   9.32999992      -4.48804638E-09
   9.39000034      -4.65915928E-09
   9.44999981      -4.82040274E-09
   9.51000023      -4.97472996E-09
   9.56999969      -5.12508835E-09
   9.63000011      -5.27402655E-09
   9.68999958      -5.42331158E-09
   9.75000000      -5.57365487E-09
   9.81000042      -5.72463410E-09
   9.86999989      -5.87483218E-09
   9.93000031      -6.02217876E-09
   9.98999977      -6.16442231E-09
   10.0500002      -6.29961683E-09
   10.1099997      -6.42653086E-09
   10.1700001      -6.54485355E-09
   10.2299995      -6.65514799E-09
   10.2900000      -6.75852263E-09
   10.3500004      -6.85612100E-09
   10.4099998      -6.94859503E-09
   10.4700003      -7.03577774E-09
   10.5299997      -7.11674586E-09
   10.5900002      -7.19033055E-09
   10.6499996      -7.25594829E-09
   10.7100000      -7.31446148E-09
   10.7700005      -7.36872163E-09
   10.8299999      -7.42351824E-09
   10.8900003      -7.48486606E-09
   10.9499998      -7.55882734E-09
   11.0100002      -7.65024311E-09
   11.0699997      -7.76179920E-09
   11.1300001      -7.89376475E-09
   11.1899996      -8.04445133E-09
   11.2500000      -8.21124679E-09
   11.3100004      -8.39184988E-09
   11.3699999      -8.58529248E-09
   11.4300003      -8.79242901E-09
   11.4899998      -9.01575614E-09
   11.5500002      -9.25865962E-09
   11.6099997      -9.52436441E-09
   11.6700001      -9.81493908E-09
   11.7299995      -1.01306608E-08
   11.7900000      -1.04698978E-08
   11.8500004      -1.08294547E-08
   11.9099998      -1.12051808E-08
   11.9700003      -1.15925856E-08
   12.0299997      -1.19872396E-08
   12.0900002      -1.23849393E-08
   12.1499996      -1.27817135E-08
   12.2100000      -1.31738753E-08
   12.2700005      -1.35582576E-08
   12.3299999      -1.39326444E-08
   12.3900003      -1.42962966E-08
   12.4499998      -1.46503529E-08
   12.5100002      -1.49979140E-08
   12.5699997      -1.53437050E-08
   12.6300001      -1.56933027E-08
   12.6899996      -1.60520344E-08
   12.7500000      -1.64236447E-08
   12.8100004      -1.68089436E-08
   12.8699999      -1.72046768E-08
   12.9300003      -1.76029129E-08
   12.9899998      -1.79912654E-08
   13.0500002      -1.83541164E-08
   13.1099997      -1.86747204E-08
   13.1700001      -1.89377438E-08
   13.2299995      -1.91316047E-08
   13.2900000      -1.92499225E-08
   13.3500004      -1.92917469E-08
   13.4099998      -1.92606677E-08
   13.4700003      -1.91633429E-08
   13.5299997      -1.90080875E-08
   13.5900002      -1.88040534E-08
   13.6499996      -1.85610975E-08
   13.7100000      -1.82900450E-08
   13.7700005      -1.80028294E-08
   13.8299999      -1.77121109E-08
   13.8900003      -1.74302190E-08
   13.9499998      -1.71676788E-08
   14.0100002      -1.69316863E-08
   14.0699997      -1.67250480E-08
   14.1300001      -1.65458207E-08
   14.1899996      -1.63877836E-08
   14.2500000      -1.62416658E-08
   14.3100004      -1.60969158E-08
   14.3699999      -1.59437672E-08
   14.4300003      -1.57751874E-08
   14.4899998      -1.55882844E-08
   14.5500002      -1.53848116E-08
   14.6099997      -1.51705510E-08
   14.6700001      -1.49536898E-08
   14.7299995      -1.47426027E-08
   14.7900000      -1.45435779E-08
   14.8500004      -1.43590366E-08
   14.9099998      -1.41865621E-08
   14.9700003      -1.40188430E-08
   15.0299997      -1.38444261E-08
   15.0900002      -1.36491396E-08
   15.1499996      -1.34179947E-08
   15.2100000      -1.31373534E-08
   15.2700005      -1.27970221E-08
   15.3299999      -1.23918555E-08
   15.3900003      -1.19224461E-08
   15.4499998      -1.13947127E-08
   15.5100002      -1.08185461E-08
   15.5699997      -1.02060262E-08
   15.6300001      -9.56983559E-09
   15.6899996      -8.92232066E-09
   15.7500000      -8.27525604E-09
   15.8100004      -7.63997932E-09
   15.8699999      -7.02737646E-09
   15.9300003      -6.44735731E-09
   15.9899998      -5.90786886E-09
   16.0499992      -5.41380363E-09
   16.1100006      -4.96633712E-09
   16.1700001      -4.56305438E-09
   16.2299995      -4.19885238E-09
   16.2900009      -3.86727761E-09
   16.3500004      -3.56179175E-09
   16.4099998      -3.27657612E-09
   16.4699993      -3.00672531E-09
   16.5300007      -2.74796919E-09
   16.5900002      -2.49621279E-09
   16.6499996      -2.24717578E-09
   16.7099991      -1.99630734E-09
   16.7700005      -1.73898351E-09
   16.8299999      -1.47088464E-09
   16.8899994      -1.18836163E-09
   16.9500008      -8.88608853E-10
   17.0100002      -5.69517877E-10
   17.0699997      -2.29216424E-10
   17.1299992       1.34551634E-10
   17.1900005       5.24929711E-10
   17.2500000       9.46043577E-10
   17.3099995       1.40251688E-09
   17.3700008       1.89846006E-09
   17.4300003       2.43621923E-09
   17.4899998       3.01531555E-09
   17.5499992       3.63198738E-09
   17.6100006       4.27958646E-09
   17.6700001       4.94984009E-09
   17.7299995       5.63472247E-09
   17.7900009       6.32847286E-09
   17.8500004       7.02916081E-09
   17.9099998       7.73919773E-09
   17.9699993       8.46437853E-09
   18.0300007       9.21144228E-09
   18.0900002       9.98470284E-09
   18.1499996       1.07828404E-08
   18.2099991       1.15971197E-08
   18.2700005       1.24119950E-08
   18.3299999       1.32082452E-08
   18.3899994       1.39676946E-08
   18.4500008       1.46778056E-08
   18.5100002       1.53343453E-08
   18.5699997       1.59409872E-08
   18.6299992       1.65060392E-08
   18.6900005       1.70376389E-08
   18.7500000       1.75394401E-08
   18.8099995       1.80085831E-08
   18.8700008       1.84367526E-08
   18.9300003       1.88138909E-08
   18.9899998       1.91331218E-08
   19.0499992       1.93950616E-08
   19.1100006       1.96099776E-08
   19.1700001       1.97970049E-08
   19.2299995       1.99805577E-08
   19.2900009       2.01848902E-08
   19.3500004       2.04282973E-08
   19.4099998       2.07186002E-08
   19.4699993       2.10512976E-08
   19.5300007       2.14110116E-08
   19.5900002       2.17759339E-08
   19.6499996       2.21238814E-08
   19.7099991       2.24380159E-08
   19.7700005       2.27101893E-08
   19.8299999       2.29407036E-08
   19.8899994       2.31345965E-08
   19.9500008       2.32957991E-08
   20.0100002       2.34215189E-08
   20.0699997       2.34990623E-08
   20.1299992       2.35065531E-08
   20.1900005       2.34176003E-08
   20.2500000       2.32084147E-08
   20.3099995       2.28649686E-08
   20.3700008       2.23876295E-08
   20.4300003       2.17913563E-08
   20.4899998       2.11011315E-08
   20.5499992       2.03438741E-08
   20.6100006       1.95394296E-08
   20.6700001       1.86937132E-08
   20.7299995       1.77963759E-08
   20.7900009       1.68238543E-08
   20.8500004       1.57467479E-08
   20.9099998       1.45389336E-08
   20.9699993       1.31853506E-08
   21.0300007       1.16859873E-08
   21.0900002       1.00551505E-08
   21.1499996       8.31672153E-09
   21.2099991       6.49739151E-09
   21.2700005       4.62019045E-09
   21.3299999       2.70027245E-09
   21.3899994       7.43959283E-10
   21.4500008      -1.24892685E-09
   21.5100002      -3.28028293E-09
   21.5699997      -5.34793232E-09
   21.6299992      -7.44057704E-09
   21.6900005      -9.53517887E-09
   21.7500000      -1.15979644E-08
   21.8099995      -1.35891831E-08
   21.8700008      -1.54705262E-08
   21.9300003      -1.72129724E-08
   21.9899998      -1.88024618E-08
   22.0499992      -2.02414565E-08
   22.1100006      -2.15458655E-08
   22.1700001      -2.27385168E-08
   22.2299995      -2.38416380E-08
   22.2900009      -2.48709195E-08
   22.3500004      -2.58329784E-08
   22.4099998      -2.67265836E-08
   22.4699993      -2.75466618E-08
   22.5300007      -2.82892838E-08
   22.5900002      -2.89557676E-08
   22.6499996      -2.95545579E-08
   22.7099991      -3.01002991E-08
   22.7700005      -3.06103836E-08
   22.8299999      -3.10998729E-08
   22.8899994      -3.15763380E-08
   22.9500008      -3.20362581E-08
   23.0100002      -3.24643601E-08
   23.0699997      -3.28366312E-08
   23.1299992      -3.31263159E-08
   23.1900005      -3.33112951E-08
   23.2500000      -3.33804095E-08
   23.3099995      -3.33365868E-08
   23.3700008      -3.31956471E-08
   23.4300003      -3.29811556E-08
   23.4899998      -3.27170149E-08
   23.5499992      -3.24201324E-08
   23.6100006      -3.20953895E-08
   23.6700001      -3.17341922E-08
   23.7299995      -3.13168016E-08
   23.7900009      -3.08175103E-08
   23.8500004      -3.02109378E-08
   23.9099998      -2.94776292E-08
   23.9699993      -2.86073458E-08
   24.0300007      -2.75992900E-08
   24.0900002      -2.64594657E-08
   24.1499996      -2.51964920E-08
   24.2099991      -2.38176696E-08
   24.2700005      -2.23269634E-08
   24.3299999      -2.07257287E-08
   24.3899994      -1.90157632E-08
   24.4500008      -1.72031616E-08
   24.5100002      -1.53011932E-08
   24.5699997      -1.33308102E-08
   24.6299992      -1.13184626E-08
   24.6900005      -9.29198851E-09
   24.7500000      -7.27599581E-09
   24.8099995      -5.28816502E-09
   24.8700008      -3.33745409E-09
   24.9300003      -1.42456136E-09
   24.9899998       4.55546351E-10
   25.0499992       2.30958652E-09
   25.1100006       4.14122558E-09
   25.1700001       5.94671690E-09
   25.2299995       7.71206121E-09
   25.2900009       9.41262979E-09
   25.3500004       1.10155289E-08
   25.4099998       1.24841071E-08
   25.4699993       1.37831870E-08
   25.5300007       1.48834074E-08
   25.5900002       1.57635043E-08
   25.6499996       1.64103948E-08
   25.7099991       1.68178378E-08
   25.7700005       1.69849130E-08
   25.8299999       1.69152070E-08
   25.8899994       1.66169034E-08
   25.9500008       1.61031188E-08
   26.0100002       1.53916861E-08
   26.0699997       1.45038292E-08
   26.1299992       1.34618281E-08
   26.1900005       1.22863204E-08
   26.2500000       1.09940057E-08
   26.3099995       9.59626956E-09
   26.3700008       8.09888334E-09
   26.4300003       6.50264065E-09
   26.4899998       4.80472151E-09
   26.5499992       3.00058600E-09
   26.6100006       1.08610276E-09
   26.6700001      -9.40540867E-10
   26.7299995      -3.07773096E-09
   26.7900009      -5.32057420E-09
   26.8500004      -7.66227704E-09
   26.9099998      -1.00961248E-08
   26.9699993      -1.26170150E-08
   27.0300007      -1.52216035E-08
   27.0900002      -1.79067356E-08
   27.1499996      -2.06666471E-08
   27.2099991      -2.34900366E-08
   27.2700005      -2.63581583E-08
   27.3299999      -2.92445979E-08
   27.3899994      -3.21167377E-08
   27.4500008      -3.49382780E-08
   27.5100002      -3.76720948E-08
   27.5699997      -4.02827816E-08
   27.6299992      -4.27384634E-08
   27.6900005      -4.50116708E-08
   27.7500000      -4.70792045E-08
   27.8099995      -4.89208922E-08
   27.8700008      -5.05175741E-08
   27.9300003      -5.18488896E-08
   27.9899998      -5.28917674E-08
   28.0499992      -5.36204432E-08
   28.1100006      -5.40083924E-08
   28.1700001      -5.40318190E-08
   28.2299995      -5.36736309E-08
   28.2900009      -5.29267439E-08
   28.3500004      -5.17956025E-08
   28.4099998      -5.02954016E-08
   28.4699993      -4.84492944E-08
   28.5300007      -4.62842351E-08
   28.5900002      -4.38264891E-08
   28.6499996      -4.10979126E-08
   28.7099991      -3.81139245E-08
   28.7700005      -3.48838434E-08
   28.8299999      -3.14135598E-08
   28.8899994      -2.77099730E-08
   28.9500008      -2.37857609E-08
   29.0100002      -1.96628687E-08
   29.0699997      -1.53734021E-08
   29.1299992      -1.09574856E-08
   29.1900005      -6.45886589E-09
   29.2500000      -1.91989802E-09
   29.3099995       2.62224131E-09
   29.3700008       7.13682446E-09
   29.4300003       1.15981615E-08
   29.4899998       1.59824225E-08
   29.5499992       2.02642454E-08
   29.6100006       2.44146570E-08
   29.6700001       2.84012014E-08
   29.7299995       3.21903819E-08
   29.7900009       3.57516257E-08
   29.8500004       3.90615220E-08
   29.9099998       4.21069402E-08
   29.9699993       4.48859083E-08
   30.0300007       4.74057167E-08
   30.0900002       4.96786363E-08
   30.1499996       5.17163627E-08
   30.2099991       5.35249605E-08
   30.2700005       5.51019212E-08
   30.3299999       5.64363347E-08
   30.3899994       5.75121639E-08
   30.4500008       5.83132724E-08
   30.5100002       5.88285474E-08
   30.5699997       5.90552709E-08
   30.6299992       5.89996851E-08
   30.6900005       5.86747824E-08
   30.7500000       5.80961128E-08
   30.8099995       5.72771022E-08
   30.8700008       5.62253497E-08
   30.9300003       5.49409762E-08
   30.9899998       5.34176188E-08
   31.0499992       5.16457916E-08
   31.1100006       4.96177996E-08
   31.1700001       4.73326836E-08
   31.2299995       4.47997017E-08
   31.2900009       4.20390585E-08
   31.3500004       3.90795414E-08
   31.4099998       3.59536614E-08
   31.4699993       3.26919256E-08
   31.5300007       2.93180271E-08
   31.5900002       2.58464965E-08
   31.6499996       2.22834000E-08
   31.7099991       1.86296809E-08
   31.7700005       1.48860000E-08
   31.8299999       1.10576179E-08
   31.8899994       7.15806880E-09
   31.9500008       3.21072924E-09
   32.0099983      -7.52086338E-10
   32.0699997      -4.69235273E-09
   32.1300011      -8.57120241E-09
   32.1899986      -1.23542270E-08
   32.2500000      -1.60157434E-08
   32.3100014      -1.95406766E-08
   32.3699989      -2.29234267E-08
   32.4300003      -2.61640647E-08
   32.4900017      -2.92632123E-08
   32.5499992      -3.22174110E-08
   32.6100006      -3.50164555E-08
   32.6699982      -3.76433924E-08
   32.7299995      -4.00767135E-08
   32.7900009      -4.22938449E-08
   32.8499985      -4.42747030E-08
   32.9099998      -4.60045513E-08
   32.9700012      -4.74757798E-08
   33.0299988      -4.86885554E-08
   33.0900002      -4.96501968E-08
   33.1500015      -5.03732949E-08
   33.2099991      -5.08727673E-08
   33.2700005      -5.11624734E-08
   33.3300018      -5.12524316E-08
   33.3899994      -5.11478220E-08
   33.4500008      -5.08502964E-08
   33.5099983      -5.03612121E-08
   33.5699997      -4.96855961E-08
   33.6300011      -4.88350516E-08
   33.6899986      -4.78284186E-08
   33.7500000      -4.66897632E-08
   33.8100014      -4.54444233E-08
   33.8699989      -4.41145147E-08
   33.9300003      -4.27153068E-08
   33.9900017      -4.12535925E-08
   34.0499992      -3.97284055E-08
   34.1100006      -3.81339440E-08
   34.1699982      -3.64639838E-08
   34.2299995      -3.47167415E-08
   34.2900009      -3.28988143E-08
   34.3499985      -3.10269144E-08
   34.4099998      -2.91264932E-08
   34.4700012      -2.72272889E-08
   34.5299988      -2.53570089E-08
   34.5900002      -2.35352324E-08
   34.6500015      -2.17698393E-08
   34.7099991      -2.00573993E-08
   34.7700005      -1.83875244E-08
   34.8300018      -1.67495848E-08
   34.8899994      -1.51392587E-08
   34.9500008      -1.35624640E-08
   35.0099983      -1.20352777E-08
   35.0699997      -1.05798961E-08
   35.1300011      -9.21816135E-09
   35.1899986      -7.96490074E-09
   35.2500000      -6.82344492E-09
   35.3100014      -5.78496051E-09
   35.3699989      -4.83211693E-09
   35.4300003      -3.94620425E-09
   35.4900017      -3.11557691E-09
   35.5499992      -2.34256592E-09
   35.6100006      -1.64614788E-09
   35.6699982      -1.05886366E-09
   35.7299995      -6.18443630E-10
   35.7900009      -3.56677132E-10
   35.8499985      -2.89375052E-10
   35.9099998      -4.11144452E-10
   35.9700012      -6.97050251E-10
   36.0299988      -1.11068321E-09
   36.0900002      -1.61573099E-09
   36.1500015      -2.18686824E-09
   36.2099991      -2.81613000E-09
   36.2700005      -3.51269414E-09
   36.3300018      -4.29641567E-09
   36.3899994      -5.18758458E-09
   36.4500008      -6.19653395E-09
   36.5099983      -7.31663485E-09
   36.5699997      -8.52302939E-09
   36.6300011      -9.77761694E-09
   36.6899986      -1.10388330E-08
   36.7500000      -1.22731585E-08
   36.8100014      -1.34646108E-08
   36.8699989      -1.46188812E-08
   36.9300003      -1.57604685E-08
   36.9900017      -1.69234404E-08
   37.0499992      -1.81388753E-08
   37.1100006      -1.94233145E-08
   37.1699982      -2.07723989E-08
   37.2299995      -2.21619985E-08
   37.2900009      -2.35564332E-08
   37.3499985      -2.49207073E-08
   37.4099998      -2.62322555E-08
   37.4700012      -2.74879213E-08
   37.5299988      -2.87036954E-08
   37.5900002      -2.99073797E-08
   37.6500015      -3.11267669E-08
   37.7099991      -3.23774181E-08
   37.7700005      -3.36542847E-08
   37.8300018      -3.49300215E-08
   37.8899994      -3.61607206E-08
   37.9500008      -3.72973048E-08
   38.0099983      -3.82989107E-08
   38.0699997      -3.91438313E-08
   38.1300011      -3.98342728E-08
   38.1899986      -4.03932390E-08
   38.2500000      -4.08545517E-08
   38.3100014      -4.12493932E-08
   38.3699989      -4.15940207E-08
   38.4300003      -4.18828279E-08
   38.4900017      -4.20890274E-08
   38.5499992      -4.21724273E-08
   38.6100006      -4.20914752E-08
   38.6699982      -4.18153050E-08
   38.7299995      -4.13317203E-08
   38.7900009      -4.06486116E-08
   38.8499985      -3.97884428E-08
   38.9099998      -3.87778840E-08
   38.9700012      -3.76362017E-08
   39.0299988      -3.63664476E-08
   39.0900002      -3.49528086E-08
   39.1500015      -3.33653176E-08
   39.2099991      -3.15707034E-08
   39.2700005      -2.95457578E-08
   39.3300018      -2.72885128E-08
   39.3899994      -2.48229064E-08
   39.4500008      -2.21949303E-08
   39.5099983      -1.94612184E-08
   39.5699997      -1.66739831E-08
   39.6300011      -1.38674769E-08
   39.6899986      -1.10507381E-08
   39.7500000      -8.20896506E-09
   39.8100014      -5.31282041E-09
   39.8699989      -2.33225794E-09
   39.9300003       7.49931950E-10
   39.9900017       3.92931421E-09
   40.0499992       7.17848980E-09
   40.1100006       1.04535234E-08
   40.1699982       1.37059439E-08
   40.2299995       1.68963901E-08
   40.2900009       2.00054320E-08
   40.3499985       2.30378649E-08
   40.4099998       2.60188511E-08
   40.4700012       2.89829263E-08
   40.5299988       3.19595550E-08
   40.5900002       3.49602622E-08
   40.6500015       3.79720895E-08
   40.7099991       4.09598258E-08
   40.7700005       4.38763337E-08
   40.8300018       4.66771830E-08
   40.8899994       4.93341403E-08
   40.9500008       5.18428003E-08
   41.0099983       5.42216867E-08
   41.0699997       5.65035023E-08
   41.1300011       5.87218700E-08
   41.1899986       6.08981736E-08
   41.2500000       6.30328074E-08
   41.3100014       6.51034213E-08
   41.3699989       6.70705518E-08
   41.4300003       6.88885891E-08
   41.4900017       7.05187375E-08
   41.5499992       7.19399580E-08
   41.6100006       7.31543892E-08
   41.6699982       7.41854222E-08
   41.7299995       7.50689964E-08
   41.7900009       7.58408021E-08
   41.8499985       7.65236479E-08
   41.9099998       7.71194451E-08
   41.9700012       7.76085045E-08
   42.0299988       7.79562299E-08
   42.0900002       7.81247493E-08
   42.1500015       7.80850513E-08
   42.2099991       7.78254901E-08
   42.2700005       7.73539739E-08
   42.3300018       7.66936381E-08
   42.3899994       7.58741692E-08
   42.4500008       7.49221059E-08
   42.5099983       7.38533501E-08
   42.5699997       7.26702254E-08
   42.6300011       7.13634947E-08
   42.6899986       6.99182863E-08
   42.7500000       6.83217891E-08
   42.8100014       6.65700384E-08
   42.8699989       6.46714469E-08
   42.9300003       6.26461727E-08
   42.9900017       6.05212733E-08
   43.0499992       5.83236641E-08
   43.1100006       5.60732332E-08
   43.1699982       5.37787166E-08
   43.2299995       5.14377305E-08
   43.2900009       4.90408638E-08
   43.3499985       4.65781191E-08
   43.4099998       4.40453363E-08
   43.4700012       4.14483203E-08
   43.5299988       3.88035168E-08
   43.5900002       3.61353187E-08
   43.6500015       3.34711530E-08
   43.7099991       3.08360804E-08
   43.7700005       2.82484311E-08
   43.8300018       2.57177444E-08
   43.8899994       2.32453026E-08
   43.9500008       2.08271409E-08
   44.0099983       1.84585538E-08
   44.0699997       1.61387526E-08
   44.1300011       1.38741578E-08
   44.1899986       1.16791723E-08
   44.2500000       9.57412460E-09
   44.3100014       7.58108332E-09
   44.3699989       5.71902481E-09
   44.4300003       4.00003586E-09
   44.4900017       2.42775533E-09
   44.5499992       9.98279126E-10
   44.6100006      -2.97110309E-10
   44.6699982      -1.46854773E-09
   44.7299995      -2.52460319E-09
   44.7900009      -3.47037399E-09
   44.8499985      -4.30683844E-09
   44.9099998      -5.03137221E-09
   44.9700012      -5.63925440E-09
   45.0299988      -6.12591355E-09
   45.0900002      -6.48952492E-09
   45.1500015      -6.73330547E-09
   45.2099991      -6.86675206E-09
   45.2700005      -6.90523771E-09
   45.3300018      -6.86792268E-09
   45.3899994      -6.77459333E-09
   45.4500008      -6.64245681E-09
   45.5099983      -6.48387566E-09
   45.5699997      -6.30555164E-09
   45.6300011      -6.10905060E-09
   45.6899986      -5.89215476E-09
   45.7500000      -5.65050007E-09
   45.8100014      -5.37920597E-09
   45.8699989      -5.07444398E-09
   45.9300003      -4.73488315E-09
   45.9900017      -4.36273195E-09
   46.0499992      -3.96388788E-09
   46.1100006      -3.54678664E-09
   46.1699982      -3.12002846E-09
   46.2299995      -2.68952216E-09
   46.2900009      -2.25631558E-09
   46.3499985      -1.81619986E-09
   46.4099998      -1.36149103E-09
   46.4700012      -8.84464724E-10
   46.5299988      -3.81169846E-10
   46.5900002       1.45834927E-10
   46.6500015       6.86847246E-10
   46.7099991       1.22671195E-09
   46.7700005       1.74825698E-09
   46.8300018       2.23637775E-09
   46.8899994       2.68156386E-09
   46.9500008       3.08186499E-09
   47.0099983       3.44270812E-09
   47.0699997       3.77449982E-09
   47.1300011       4.08851619E-09
   47.1899986       4.39214753E-09
   47.2500000       4.68489691E-09
   47.3100014       4.95652275E-09
   47.3699989       5.18815613E-09
   47.4300003       5.35626477E-09
   47.4900017       5.43828982E-09
   47.5499992       5.41808065E-09
   47.6100006       5.28923261E-09
   47.6699982       5.05516473E-09
   47.7299995       4.72596895E-09
   47.7900009       4.31323199E-09
   47.8499985       3.82473964E-09
   47.9099998       3.26092287E-09
   47.9700012       2.61421018E-09
   48.0299988       1.87135885E-09
   48.0900002       1.01784636E-09
   48.1500015       4.27722337E-11
   48.2099991      -1.05730735E-09
   48.2700005      -2.27670904E-09
   48.3300018      -3.60141450E-09
   48.3899994      -5.01181630E-09
   48.4500008      -6.48635057E-09
   48.5099983      -8.00480393E-09
   48.5699997      -9.55035606E-09
   48.6300011      -1.11099769E-08
   48.6899986      -1.26733832E-08
   48.7500000      -1.42312242E-08
   48.8100014      -1.57733027E-08
   48.8699989      -1.72875279E-08
   48.9300003      -1.87599571E-08
   48.9900017      -2.01758361E-08
   49.0499992      -2.15212790E-08
   49.1100006      -2.27849188E-08
   49.1699982      -2.39589895E-08
   49.2299995      -2.50393875E-08
   49.2900009      -2.60247077E-08
   49.3499985      -2.69145914E-08
   49.4099998      -2.77079870E-08
   49.4700012      -2.84020150E-08
   49.5299988      -2.89918454E-08
   49.5900002      -2.94716269E-08
   49.6500015      -2.98360270E-08
   49.7099991      -3.00818144E-08
   49.7700005      -3.02089305E-08
   49.8300018      -3.02207432E-08
   49.8899994      -3.01236049E-08
   49.9500008      -2.99259355E-08
   50.0099983      -2.96371905E-08
   50.0699997      -2.92667863E-08
   50.1300011      -2.88231234E-08
   50.1899986      -2.83126926E-08
   50.2500000      -2.77393912E-08
   50.3100014      -2.71042939E-08
   50.3699989      -2.64060454E-08
   50.4300003      -2.56419277E-08
   50.4900017      -2.48093652E-08
   50.5499992      -2.39074183E-08
   50.6100006      -2.29378259E-08