 -0.750000000       0.00000000    
 -0.689999998       0.00000000    
 -0.629999995       0.00000000    
 -0.569999993       0.00000000    
 -0.509999990      -6.10761678E-19
 -0.449999988      -3.69137579E-18
 -0.389999986      -1.09805836E-17
 -0.330000013      -1.97936777E-17
 -0.270000011      -1.86039488E-17
 -0.209999993       1.17219442E-17
 -0.150000006       8.70157211E-17
  -9.00000036E-02   2.01949225E-16
  -2.99999993E-02   3.15279771E-16
   2.99999993E-02   3.50480211E-16
   9.00000036E-02   2.19031060E-16
  0.150000006      -1.35527998E-16
  0.209999993      -6.83582535E-16
  0.270000011      -1.26418503E-15
  0.330000013      -1.57718678E-15
  0.389999986      -1.25141442E-15
  0.449999988      -2.19024175E-17
  0.509999990       1.99749343E-15
  0.569999993       4.05686599E-15
  0.629999995       4.74690986E-15
  0.689999998       2.44970970E-15
  0.750000000      -3.66417601E-15
  0.810000002      -1.23940029E-14
  0.870000005      -1.97465691E-14
  0.930000007      -1.95395136E-14
  0.990000010      -5.86101017E-15
   1.04999995       2.31093424E-14
   1.11000001       6.15916145E-14
   1.16999996       9.53136089E-14
   1.23000002       1.04944021E-13
   1.28999996       7.36323437E-14
   1.35000002      -4.04748722E-15
   1.40999997      -1.16075755E-13
   1.47000003      -2.33688421E-13
   1.52999997      -3.19689614E-13
   1.59000003      -3.41235314E-13
   1.64999998      -2.81119149E-13
   1.71000004      -1.41993174E-13
   1.76999998       5.80843763E-14
   1.83000004       2.94888679E-13
   1.88999999       5.44625326E-13
   1.95000005       7.81763434E-13
   2.00999999       9.68322861E-13
   2.06999993       1.04290903E-12
   2.13000011       9.22260966E-13
   2.19000006       5.24684734E-13
   2.25000000      -1.86617093E-13
   2.30999994      -1.15651390E-12
   2.36999989      -2.21227203E-12
   2.43000007      -3.08097992E-12
   2.49000001      -3.45535037E-12
   2.54999995      -3.09015877E-12
   2.60999990      -1.89351659E-12
   2.67000008       2.53132273E-14
   2.73000002       2.37341743E-12
   2.78999996       4.75021801E-12
   2.84999990       6.74828466E-12
   2.91000009       8.03467536E-12
   2.97000003       8.38053672E-12
   3.02999997       7.63560569E-12
   3.08999991       5.67440279E-12
   3.15000010       2.35493287E-12
   3.21000004      -2.48023585E-12
   3.26999998      -8.96118943E-12
   3.32999992      -1.71391113E-11
   3.39000010      -2.69721016E-11
   3.45000005      -3.83775997E-11
   3.50999999      -5.13395819E-11
   3.56999993      -6.60155541E-11
   3.63000011      -8.27698812E-11
   3.69000006      -1.02081919E-10
   3.75000000      -1.24334668E-10
   3.80999994      -1.49554993E-10
   3.86999989      -1.77215909E-10
   3.93000007      -2.06199544E-10
   3.99000001      -2.34958247E-10
   4.05000019      -2.61826200E-10
   4.11000013      -2.85367951E-10
   4.17000008      -3.04635622E-10
   4.23000002      -3.19250987E-10
   4.28999996      -3.29310579E-10
   4.34999990      -3.35186823E-10
   4.40999985      -3.37334105E-10
   4.46999979      -3.36182776E-10
   4.53000021      -3.32141981E-10
   4.59000015      -3.25663552E-10
   4.65000010      -3.17284338E-10
   4.71000004      -3.07580572E-10
   4.76999998      -2.97019409E-10
   4.82999992      -2.85755059E-10
   4.88999987      -2.73452372E-10
   4.94999981      -2.59214344E-10
   5.01000023      -2.41650699E-10
   5.07000017      -2.19070553E-10
   5.13000011      -1.89744914E-10
   5.19000006      -1.52170276E-10
   5.25000000      -1.05278321E-10
   5.30999994      -4.85594655E-11
   5.36999989       1.79088359E-11
   5.42999983       9.35224537E-11
   5.48999977       1.77282800E-10
   5.55000019       2.67975447E-10
   5.61000013       3.64362013E-10
   5.67000008       4.65350147E-10
   5.73000002       5.70116288E-10
   5.78999996       6.78171574E-10
   5.84999990       7.89380283E-10
   5.90999985       9.03946362E-10
   5.96999979       1.02237308E-09
   6.03000021       1.14538279E-09
   6.09000015       1.27377020E-09
   6.15000010       1.40817580E-09
   6.21000004       1.54880209E-09
   6.26999998       1.69514691E-09
   6.32999992       1.84585447E-09
   6.38999987       1.99877048E-09
   6.44999981       2.15122786E-09
   6.51000023       2.30049668E-09
   6.57000017       2.44426213E-09
   6.63000011       2.58097166E-09
   6.69000006       2.70992961E-09
   6.75000000       2.83111801E-09
   6.80999994       2.94480618E-09
   6.86999989       3.05109160E-09
   6.92999983       3.14951665E-09
   6.98999977       3.23887450E-09
   7.05000019       3.31725802E-09
   7.11000013       3.38233264E-09
   7.17000008       3.43177042E-09
   7.23000002       3.46374951E-09
   7.28999996       3.47738904E-09
   7.34999990       3.47301010E-09
   7.40999985       3.45212325E-09
   7.46999979       3.41712481E-09
   7.53000021       3.37076722E-09
   7.59000015       3.31556027E-09
   7.65000010       3.25329785E-09
   7.71000004       3.18485815E-09
   7.76999998       3.11032178E-09
   7.82999992       3.02931280E-09
   7.88999987       2.94137603E-09
   7.94999981       2.84621060E-09
   8.01000023       2.74367018E-09
   8.06999969       2.63358779E-09
   8.13000011       2.51557752E-09
   8.18999958       2.38898767E-09
   8.25000000       2.25307528E-09
   8.31000042       2.10734785E-09
   8.36999989       1.95189798E-09
   8.43000031       1.78756376E-09
   8.48999977       1.61583091E-09
   8.55000019       1.43852852E-09
   8.60999966       1.25747701E-09
   8.67000008       1.07424780E-09
   8.72999954       8.90111762E-10
   8.78999996       7.06134762E-10
   8.85000038       5.23300236E-10
   8.90999985       3.42542522E-10
   8.97000027       1.64653249E-10
   9.02999973      -9.87932392E-12
   9.09000015      -1.80992096E-10
   9.14999962      -3.49045765E-10
   9.21000004      -5.14690124E-10
   9.27000046      -6.78656187E-10
   9.32999992      -8.41556158E-10
   9.39000034      -1.00373820E-09
   9.44999981      -1.16519239E-09
   9.51000023      -1.32547950E-09
   9.56999969      -1.48368362E-09
   9.63000011      -1.63844038E-09
   9.68999958      -1.78811821E-09
   9.75000000      -1.93117922E-09
   9.81000042      -2.06664175E-09
   9.86999989      -2.19445395E-09
   9.93000031      -2.31557151E-09
   9.98999977      -2.43162024E-09
   10.0500002      -2.54422550E-09
   10.1099997      -2.65427502E-09
   10.1700001      -2.76145462E-09
   10.2299995      -2.86429858E-09
   10.2900000      -2.96075653E-09
   10.3500004      -3.04903591E-09
   10.4099998      -3.12833892E-09
   10.4700003      -3.19917426E-09
   10.5299997      -3.26313732E-09
   10.5900002      -3.32231043E-09
   10.6499996      -3.37860229E-09
   10.7100000      -3.43333295E-09
   10.7700005      -3.48721163E-09
   10.8299999      -3.54063689E-09
   10.8900003      -3.59408148E-09
   10.9499998      -3.64832897E-09
   11.0100002      -3.70441500E-09
   11.0699997      -3.76331943E-09
   11.1300001      -3.82554788E-09
   11.1899996      -3.89080457E-09
   11.2500000      -3.95785094E-09
   11.3100004      -4.02458822E-09
   11.3699999      -4.08827283E-09
   11.4300003      -4.14580326E-09
   11.4899998      -4.19402069E-09
   11.5500002      -4.23003232E-09
   11.6099997      -4.25157864E-09
   11.6700001      -4.25744640E-09
   11.7299995      -4.24787006E-09
   11.7900000      -4.22482538E-09
   11.8500004      -4.19209423E-09
   11.9099998      -4.15504875E-09
   11.9700003      -4.12016776E-09
   12.0299997      -4.09439060E-09
   12.0900002      -4.08444434E-09
   12.1499996      -4.09627354E-09
   12.2100000      -4.13461887E-09
   12.2700005      -4.20270796E-09
   12.3299999      -4.30197256E-09
   12.3900003      -4.43171100E-09
   12.4499998      -4.58871030E-09
   12.5100002      -4.76693929E-09
   12.5699997      -4.95751751E-09
   12.6300001      -5.14912246E-09
   12.6899996      -5.32889821E-09
   12.7500000      -5.48375922E-09
   12.8100004      -5.60184787E-09
   12.8699999      -5.67386316E-09
   12.9300003      -5.69406788E-09
   12.9899998      -5.66089886E-09
   13.0500002      -5.57721913E-09
   13.1099997      -5.45025047E-09
   13.1700001      -5.29117328E-09
   13.2299995      -5.11428278E-09
   13.2900000      -4.93563546E-09
   13.3500004      -4.77124429E-09
   13.4099998      -4.63510430E-09
   13.4700003      -4.53749660E-09
   13.5299997      -4.48398518E-09
   13.5900002      -4.47529303E-09
   13.6499996      -4.50791227E-09
   13.7100000      -4.57504701E-09
   13.7700005      -4.66744776E-09
   13.8299999      -4.77391326E-09
   13.8900003      -4.88156360E-09
   13.9499998      -4.97621722E-09
   14.0100002      -5.04320008E-09
   14.0699997      -5.06864462E-09
   14.1300001      -5.04101472E-09
   14.1899996      -4.95238250E-09
   14.2500000      -4.79906159E-09
   14.3100004      -4.58149829E-09
   14.3699999      -4.30368186E-09
   14.4300003      -3.97250277E-09
   14.4899998      -3.59736863E-09
   14.5500002      -3.19010751E-09
   14.6099997      -2.76488099E-09
   14.6700001      -2.33774933E-09
   14.7299995      -1.92571692E-09
   14.7900000      -1.54538815E-09
   14.8500004      -1.21160726E-09
   14.9099998      -9.36441702E-10
   14.9700003      -7.28662186E-10
   15.0299997      -5.93582683E-10
   15.0900002      -5.32994870E-10
   15.1499996      -5.45040124E-10
   15.2100000      -6.24114926E-10
   15.2700005      -7.61107011E-10
   15.3299999      -9.44230250E-10
   15.3900003      -1.16044363E-09
   15.4499998      -1.39708134E-09
   15.5100002      -1.64313163E-09
   15.5699997      -1.88973504E-09
   15.6300001      -2.12988271E-09
   15.6899996      -2.35772379E-09
   15.7500000      -2.56809130E-09
   15.8100004      -2.75665224E-09
   15.8699999      -2.92062374E-09
   15.9300003      -3.05953862E-09
   15.9899998      -3.17539284E-09
   16.0499992      -3.27177552E-09
   16.1100006      -3.35212191E-09
   16.1700001      -3.41773210E-09
   16.2299995      -3.46638118E-09
   16.2900009      -3.49209328E-09
   16.3500004      -3.48612650E-09
   16.4099998      -3.43871975E-09
   16.4699993      -3.34091266E-09
   16.5300007      -3.18589199E-09
   16.5900002      -2.96967828E-09
   16.6499996      -2.69131384E-09
   16.7099991      -2.35286923E-09
   16.7700005      -1.95949124E-09
   16.8299999      -1.51947577E-09
   16.8899994      -1.04418241E-09
   16.9500008      -5.47593859E-10
   17.0100002      -4.54696697E-11
   17.0699997       4.45760040E-10
   17.1299992       9.10103104E-10
   17.1900005       1.33290945E-09
   17.2500000       1.70151127E-09
   17.3099995       2.00569983E-09
   17.3700008       2.23818142E-09
   17.4300003       2.39507547E-09
   17.4899998       2.47635312E-09
   17.5499992       2.48599119E-09
   17.6100006       2.43161247E-09
   17.6700001       2.32351760E-09
   17.7299995       2.17325669E-09
   17.7900009       1.99209427E-09
   17.8500004       1.78982607E-09
   17.9099998       1.57432711E-09
   17.9699993       1.35197353E-09
   18.0300007       1.12875398E-09
   18.0900002       9.11604958E-10
   18.1499996       7.09377612E-10
   18.2099991       5.32942745E-10
   18.2700005       3.94261179E-10
   18.3299999       3.04665210E-10
   18.3899994       2.72948997E-10
   18.4500008       3.03997411E-10
   18.5100002       3.98501593E-10
   18.5699997       5.53882773E-10
   18.6299992       7.66043007E-10
   18.6900005       1.03119802E-09
   18.7500000       1.34699740E-09
   18.8099995       1.71241421E-09
   18.8700008       2.12639928E-09
   18.9300003       2.58580402E-09
   18.9899998       3.08339132E-09
   19.0499992       3.60676311E-09
   19.1100006       4.13871737E-09
   19.1700001       4.65907091E-09
   19.2299995       5.14748377E-09
   19.2900009       5.58648638E-09
   19.3500004       5.96381566E-09
   19.4099998       6.27339647E-09
   19.4699993       6.51469145E-09
   19.5300007       6.69070621E-09
   19.5900002       6.80539936E-09
   19.6499996       6.86145363E-09
   19.7099991       6.85929269E-09
   19.7700005       6.79773793E-09
   19.8299999       6.67605038E-09
   19.8899994       6.49648246E-09
   19.9500008       6.26617824E-09
   20.0100002       5.99741856E-09
   20.0699997       5.70584691E-09
   20.1299992       5.40712719E-09
   20.1900005       5.11319431E-09
   20.2500000       4.82949281E-09
   20.3099995       4.55430715E-09
   20.3700008       4.28048974E-09
   20.4300003       3.99900157E-09
   20.4899998       3.70298325E-09
   20.5499992       3.39090200E-09
   20.6100006       3.06770320E-09
   20.6700001       2.74366974E-09
   20.7299995       2.43153586E-09
   20.7900009       2.14299356E-09
   20.8500004       1.88584015E-09
   20.9099998       1.66268377E-09
   20.9699993       1.47147972E-09
   21.0300007       1.30751765E-09
   21.0900002       1.16603671E-09
   21.1499996       1.04454490E-09
   21.2099991       9.44139100E-10
   21.2700005       8.69517902E-10
   21.3299999       8.27806490E-10
   21.3899994       8.26628044E-10
   21.4500008       8.72006745E-10
   21.5100002       9.66690172E-10
   21.5699997       1.10934761E-09
   21.6299992       1.29487698E-09
   21.6900005       1.51575841E-09
   21.7500000       1.76407011E-09
   21.8099995       2.03352646E-09
   21.8700008       2.32080866E-09
   21.9300003       2.62562150E-09
   21.9899998       2.94931990E-09
   22.0499992       3.29248739E-09
   22.1100006       3.65228869E-09
   22.1700001       4.02059497E-09
   22.2299995       4.38364189E-09
   22.2900009       4.72346917E-09
   22.3500004       5.02072517E-09
   22.4099998       5.25795985E-09
   22.4699993       5.42236167E-09
   22.5300007       5.50714052E-09
   22.5900002       5.51125501E-09
   22.6499996       5.43776268E-09
   22.7099991       5.29151789E-09
   22.7700005       5.07710229E-09
   22.8299999       4.79776174E-09
   22.8899994       4.45569581E-09
   22.9500008       4.05357303E-09
   23.0100002       3.59662033E-09
   23.0699997       3.09438097E-09
   23.1299992       2.56127586E-09
   23.1900005       2.01549200E-09
   23.2500000       1.47634416E-09
   23.3099995       9.60867164E-10
   23.3700008       4.80741724E-10
   23.4300003       4.05883938E-11
   23.4899998      -3.61816160E-10
   23.5499992      -7.33533290E-10
   23.6100006      -1.08339870E-09
   23.6700001      -1.41890877E-09
   23.7299995      -1.74395176E-09
   23.7900009      -2.05786299E-09
   23.8500004      -2.35580444E-09
   23.9099998      -2.63009126E-09
   23.9699993      -2.87192847E-09
   24.0300007      -3.07305981E-09
   24.0900002      -3.22695159E-09
   24.1499996      -3.32932260E-09
   24.2099991      -3.37801009E-09
   24.2700005      -3.37234174E-09
   24.3299999      -3.31234107E-09
   24.3899994      -3.19814508E-09
   24.4500008      -3.02993453E-09
   24.5100002      -2.80844414E-09
   24.5699997      -2.53583687E-09
   24.6299992      -2.21654561E-09
   24.6900005      -1.85767179E-09
   24.7500000      -1.46874768E-09
   24.8099995      -1.06093245E-09
   24.8700008      -6.45934861E-10
   24.9300003      -2.35003877E-10
   24.9899998       1.61768404E-10
   25.0499992       5.35724909E-10
   25.1100006       8.79490702E-10
   25.1700001       1.18641696E-09
   25.2299995       1.44970058E-09
   25.2900009       1.66139280E-09
   25.3500004       1.81170057E-09
   25.4099998       1.88908644E-09
   25.4699993       1.88152316E-09
   25.5300007       1.77881720E-09
   25.5900002       1.57533764E-09
   25.6499996       1.27210631E-09
   25.7099991       8.77296735E-10
   25.7700005       4.04820344E-10
   25.8299999      -1.28445740E-10
   25.8899994      -7.05570269E-10
   25.9500008      -1.31134936E-09
   26.0100002      -1.93231742E-09
   26.0699997      -2.55532440E-09
   26.1299992      -3.16579962E-09
   26.1900005      -3.74696763E-09
   26.2500000      -4.28072022E-09
   26.3099995      -4.74990580E-09
   26.3700008      -5.14105869E-09
   26.4300003      -5.44640733E-09
   26.4899998      -5.66448444E-09
   26.5499992      -5.79944848E-09
   26.6100006      -5.85982596E-09
   26.6700001      -5.85749715E-09
   26.7299995      -5.80732129E-09
   26.7900009      -5.72719960E-09
   26.8500004      -5.63792657E-09
   26.9099998      -5.56223867E-09
   26.9699993      -5.52287327E-09
   27.0300007      -5.54000978E-09
   27.0900002      -5.62883518E-09
   27.1499996      -5.79793857E-09
   27.2099991      -6.04890005E-09
   27.2700005      -6.37695363E-09
   27.3299999      -6.77225920E-09
   27.3899994      -7.22120053E-09
   27.4500008      -7.70730502E-09
   27.5100002      -8.21168022E-09
   27.5699997      -8.71317152E-09
   27.6299992      -9.18865872E-09
   27.6900005      -9.61390612E-09
   27.7500000      -9.96521621E-09
   27.8099995      -1.02218438E-08
   27.8700008      -1.03687521E-08
   27.9300003      -1.03990381E-08
   27.9899998      -1.03152553E-08
   28.0499992      -1.01290958E-08
   28.1100006      -9.85930093E-09
   28.1700001      -9.52824664E-09
   28.2299995      -9.15804854E-09
   28.2900009      -8.76726336E-09
   28.3500004      -8.36901393E-09
   28.4099998      -7.97091371E-09
   28.4699993      -7.57655094E-09
   28.5300007      -7.18776727E-09
   28.5900002      -6.80675827E-09
   28.6499996      -6.43713571E-09
   28.7099991      -6.08358963E-09
   28.7700005      -5.75037529E-09
   28.8299999      -5.43941203E-09
   28.8899994      -5.14897458E-09
   28.9500008      -4.87377383E-09
   29.0100002      -4.60660576E-09
   29.0699997      -4.34104841E-09
   29.1299992      -4.07413125E-09
   29.1900005      -3.80784426E-09
   29.2500000      -3.54876928E-09
   29.3099995      -3.30593708E-09
   29.3700008      -3.08775139E-09
   29.4300003      -2.89922886E-09
   29.4899998      -2.74062284E-09
   29.5499992      -2.60787281E-09
   29.6100006      -2.49453702E-09
   29.6700001      -2.39430942E-09
   29.7299995      -2.30309349E-09
   29.7900009      -2.21992535E-09
   29.8500004      -2.14656293E-09
   29.9099998      -2.08605555E-09
   29.9699993      -2.04087125E-09
   30.0300007      -2.01117922E-09
   30.0900002      -1.99373762E-09
   30.1499996      -1.98165773E-09
   30.2099991      -1.96513028E-09
   30.2700005      -1.93302441E-09
   30.3299999      -1.87505700E-09
   30.3899994      -1.78401860E-09
   30.4500008      -1.65740777E-09
   30.5100002      -1.49789869E-09
   30.5699997      -1.31237077E-09
   30.6299992      -1.10971010E-09
   30.6900005      -8.98037478E-10
   30.7500000      -6.82257306E-10
   30.8099995      -4.62734073E-10
   30.8700008      -2.35495706E-10
   30.9300003       6.16425357E-12
   30.9899998       2.69280820E-10
   31.0499992       5.58837421E-10
   31.1100006       8.76175521E-10
   31.1700001       1.21865418E-09
   31.2299995       1.58057778E-09
   31.2900009       1.95500016E-09
   31.3500004       2.33572295E-09
   31.4099998       2.71875522E-09
   31.4699993       3.10268411E-09
   31.5300007       3.48780427E-09
   31.5900002       3.87433152E-09
   31.6499996       4.26041735E-09
   31.7099991       4.64082106E-09
   31.7700005       5.00687847E-09
   31.8299999       5.34793898E-09
   31.8899994       5.65382230E-09
   31.9500008       5.91742610E-09
   32.0099983       6.13649220E-09
   32.0699997       6.31386365E-09
   32.1300011       6.45613119E-09
   32.1899986       6.57119292E-09
   32.2500000       6.66562050E-09
   32.3100014       6.74276279E-09
   32.3699989       6.80216239E-09
   32.4300003       6.84033408E-09
   32.4900017       6.85246837E-09
   32.5499992       6.83432733E-09
   32.6100006       6.78362033E-09
   32.6699982       6.70040867E-09
   32.7299995       6.58646382E-09
   32.7900009       6.44389653E-09
   32.8499985       6.27362340E-09
   32.9099998       6.07431438E-09
   32.9700012       5.84231552E-09
   33.0299988       5.57270408E-09
   33.0900002       5.26124566E-09
   33.1500015       4.90659380E-09
   33.2099991       4.51191706E-09
   33.2700005       4.08520728E-09
   33.3300018       3.63797525E-09
   33.3899994       3.18261817E-09
   33.4500008       2.72930345E-09
   33.5099983       2.28346408E-09
   33.5699997       1.84481441E-09
   33.6300011       1.40823664E-09
   33.6899986       9.66147939E-10
   33.7500000       5.11423293E-10
   33.8100014       3.97642440E-11
   33.8699989      -4.49285831E-10
   33.9300003      -9.52889878E-10
   33.9900017      -1.46660084E-09
   34.0499992      -1.98635441E-09
   34.1100006      -2.50990517E-09
   34.1699982      -3.03713277E-09
   34.2299995      -3.56910590E-09
   34.2900009      -4.10625400E-09
   34.3499985      -4.64629046E-09
   34.4099998      -5.18263787E-09
   34.4700012      -5.70397463E-09
   34.5299988      -6.19523766E-09
   34.5900002      -6.63998856E-09
   34.6500015      -7.02361458E-09
   34.7099991      -7.33650829E-09
   34.7700005      -7.57625518E-09
   34.8300018      -7.74811504E-09
   34.8899994      -7.86358001E-09
   34.9500008      -7.93742050E-09
   35.0099983      -7.98417155E-09
   35.0699997      -8.01516364E-09
   35.1300011      -8.03699240E-09
   35.1899986      -8.05178679E-09
   35.2500000      -8.05897571E-09
   35.3100014      -8.05776601E-09
   35.3699989      -8.04930700E-09
   35.4300003      -8.03770561E-09
   35.4900017      -8.02941624E-09
   35.5499992      -8.03115263E-09
   35.6100006      -8.04698175E-09
   35.6699982      -8.07566103E-09
   35.7299995      -8.10931944E-09
   35.7900009      -8.13427459E-09
   35.8499985      -8.13405165E-09
   35.9099998      -8.09387224E-09
   35.9700012      -8.00514854E-09
   36.0299988      -7.86834509E-09
   36.0900002      -7.69298758E-09
   36.1500015      -7.49462536E-09
   36.2099991      -7.28967908E-09
   36.2700005      -7.09002412E-09
   36.3300018      -6.89925894E-09
   36.3899994      -6.71204292E-09
   36.4500008      -6.51667875E-09
   36.5099983      -6.29994634E-09
   36.5699997      -6.05239148E-09
   36.6300011      -5.77222314E-09
   36.6899986      -5.46650902E-09
   36.7500000      -5.14936938E-09
   36.8100014      -4.83779994E-09
   36.8699989      -4.54649740E-09
   36.9300003      -4.28330305E-09
   36.9900017      -4.04669143E-09
   37.0499992      -3.82615406E-09
   37.1100006      -3.60547325E-09
   37.1699982      -3.36799677E-09
   37.2299995      -3.10229820E-09
   37.2900009      -2.80633849E-09
   37.3499985      -2.48861753E-09
   37.4099998      -2.16574536E-09
   37.4700012      -1.85714133E-09
   37.5299988      -1.57867452E-09
   37.5900002      -1.33755007E-09
   37.6500015      -1.13034571E-09
   37.7099991      -9.44948564E-10
   37.7700005      -7.65637775E-10
   37.8300018      -5.79346626E-10
   37.8899994      -3.80677267E-10
   37.9500008      -1.73737025E-10
   38.0099983       2.99010296E-11
   38.0699997       2.16333257E-10
   38.1300011       3.75611958E-10
   38.1899986       5.06825859E-10
   38.2500000       6.20054119E-10
   38.3100014       7.34373840E-10
   38.3699989       8.72473371E-10
   38.4300003       1.05356213E-09
   38.4900017       1.28684663E-09
   38.5499992       1.56766677E-09
   38.6100006       1.87754168E-09
   38.6699982       2.18814189E-09
   38.7299995       2.46797605E-09
   38.7900009       2.68973932E-09
   38.8499985       2.83609314E-09
   38.9099998       2.90217095E-09
   38.9700012       2.89419844E-09
   39.0299988       2.82489299E-09
   39.0900002       2.70736589E-09
   39.1500015       2.54970312E-09
   39.2099991       2.35212427E-09
   39.2700005       2.10765094E-09
   39.3300018       1.80595727E-09
   39.3899994       1.43891654E-09
   39.4500008       1.00575637E-09
   39.5099983       5.15882892E-10
   39.5699997      -1.17270976E-11
   39.6300011      -5.52446644E-10
   39.6899986      -1.08195430E-09
   39.7500000      -1.58225433E-09
   39.8100014      -2.04577688E-09
   39.8699989      -2.47621812E-09
   39.9300003      -2.88583957E-09
   39.9900017      -3.29006289E-09
   40.0499992      -3.70104125E-09
   40.1100006      -4.12220391E-09
   40.1699982      -4.54549376E-09
   40.2299995      -4.95220887E-09
   40.2900009      -5.31725819E-09
   40.3499985      -5.61555868E-09
   40.4099998      -5.82856430E-09
   40.4700012      -5.94880678E-09
   40.5299988      -5.98094818E-09
   40.5900002      -5.93901639E-09
   40.6500015      -5.84083271E-09
   40.7099991      -5.70168934E-09
   40.7700005      -5.52958390E-09
   40.8300018      -5.32374189E-09
   40.8899994      -5.07685494E-09
   40.9500008      -4.78004480E-09
   41.0099983      -4.42849846E-09
   41.0699997      -4.02555056E-09
   41.1300011      -3.58363028E-09
   41.1899986      -3.12174597E-09
   41.2500000      -2.66044631E-09
   41.3100014      -2.21607066E-09
   41.3699989      -1.79622017E-09
   41.4300003      -1.39785061E-09
   41.4900017      -1.00843278E-09
   41.5499992      -6.09632844E-10
   41.6100006      -1.82237031E-10
   41.6699982       2.89244517E-10
   41.7299995       8.13657419E-10
   41.7900009       1.39273693E-09
   41.8499985       2.02304684E-09
   41.9099998       2.69946532E-09
   41.9700012       3.41882012E-09
   42.0299988       4.18220214E-09
   42.0900002       4.99497821E-09
   42.1500015       5.86441029E-09
   42.2099991       6.79576972E-09
   42.2700005       7.78850762E-09
   42.3300018       8.83406948E-09
   42.3899994       9.91631044E-09
   42.4500008       1.10144098E-08
   42.5099983       1.21071979E-08
   42.5699997       1.31772460E-08
   42.6300011       1.42132777E-08
   42.6899986       1.52102277E-08
   42.7500000       1.61672062E-08
   42.8100014       1.70844512E-08
   42.8699989       1.79604935E-08
   42.9300003       1.87905904E-08
   42.9900017       1.95667003E-08
   43.0499992       2.02787813E-08
   43.1100006       2.09167297E-08
   43.1699982       2.14722089E-08
   43.2299995       2.19398881E-08
   43.2900009       2.23177778E-08
   43.3499985       2.26067467E-08
   43.4099998       2.28094184E-08
   43.4700012       2.29288126E-08
   43.5299988       2.29671429E-08
   43.5900002       2.29252013E-08
   43.6500015       2.28026273E-08
   43.7099991       2.25990764E-08
   43.7700005       2.23159642E-08
   43.8300018       2.19581757E-08
   43.8899994       2.15349942E-08
   43.9500008       2.10597300E-08
   44.0099983       2.05480504E-08
   44.0699997       2.00154506E-08
   44.1300011       1.94747809E-08
   44.1899986       1.89346654E-08
   44.2500000       1.83993407E-08
   44.3100014       1.78697999E-08
   44.3699989       1.73455614E-08
   44.4300003       1.68261689E-08
   44.4900017       1.63117555E-08
   44.5499992       1.58025042E-08
   44.6100006       1.52975659E-08
   44.6699982       1.47942139E-08
   44.7299995       1.42880738E-08
   44.7900009       1.37746010E-08
   44.8499985       1.32513520E-08
   44.9099998       1.27200499E-08
   44.9700012       1.21873915E-08
   45.0299988       1.16640324E-08
   45.0900002       1.11619718E-08
   45.1500015       1.06912621E-08
   45.2099991       1.02573168E-08
   45.2700005       9.85981696E-09
   45.3300018       9.49356860E-09
   45.3899994       9.15088805E-09
   45.4500008       8.82451712E-09
   45.5099983       8.50997495E-09
   45.5699997       8.20654211E-09
   45.6300011       7.91664778E-09
   45.6899986       7.64400720E-09
   45.7500000       7.39125738E-09
   45.8100014       7.15794224E-09
   45.8699989       6.93958313E-09
   45.9300003       6.72816736E-09
   45.9900017       6.51396226E-09
   46.0499992       6.28805896E-09
   46.1100006       6.04476869E-09
   46.1699982       5.78294834E-09
   46.2299995       5.50568124E-09
   46.2900009       5.21833865E-09
   46.3499985       4.92573005E-09
   46.4099998       4.62946259E-09
   46.4700012       4.32661329E-09
   46.5299988       4.01030409E-09
   46.5900002       3.67197850E-09
   46.6500015       3.30448313E-09
   46.7099991       2.90475755E-09
   46.7700005       2.47514542E-09
   46.8300018       2.02294159E-09
   46.8899994       1.55848512E-09
   46.9500008       1.09258136E-09
   47.0099983       6.34168662E-10
   47.0699997       1.88899812E-10
   47.1300011      -2.41075548E-10
   47.1899986      -6.56257992E-10
   47.2500000      -1.05827935E-09
   47.3100014      -1.44824430E-09
   47.3699989      -1.82543580E-09
   47.4300003      -2.18673746E-09
   47.4900017      -2.52687582E-09
   47.5499992      -2.83931278E-09
   47.6100006      -3.11737702E-09
   47.6699982      -3.35515593E-09
   47.7299995      -3.54781560E-09
   47.7900009      -3.69130881E-09
   47.8499985      -3.78176601E-09
   47.9099998      -3.81503407E-09
   47.9700012      -3.78675091E-09
   48.0299988      -3.69306896E-09
   48.0900002      -3.53179597E-09
   48.1500015      -3.30351035E-09
   48.2099991      -3.01222203E-09
   48.2700005      -2.66532618E-09
   48.3300018      -2.27287544E-09
   48.3899994      -1.84639060E-09
   48.4500008      -1.39753109E-09
   48.5099983      -9.36929312E-10
   48.5699997      -4.73429185E-10
   48.6300011      -1.38802182E-11
   48.6899986       4.36505221E-10
   48.7500000       8.73391581E-10
   48.8100014       1.29250188E-09
   48.8699989       1.68915282E-09
   48.9300003       2.05843786E-09
   48.9900017       2.39603493E-09
   49.0499992       2.69923994E-09
   49.1100006       2.96760616E-09
   49.1699982       3.20268168E-09
   49.2299995       3.40676487E-09
   49.2900009       3.58114893E-09
   49.3499985       3.72467657E-09
   49.4099998       3.83336030E-09
   49.4700012       3.90132415E-09
   49.5299988       3.92267197E-09
   49.5900002       3.89342025E-09
   49.6500015       3.81260890E-09
   49.7099991       3.68213926E-09
   49.7700005       3.50553542E-09
   49.8300018       3.28629768E-09
   49.8899994       3.02662295E-09
   49.9500008       2.72697287E-09
   50.0099983       2.38650744E-09
   50.0699997       2.00403916E-09
   50.1300011       1.57905278E-09
   50.1899986       1.11245635E-09
   50.2500000       6.06932227E-10
   50.3100014       6.68756231E-11
   50.3699989      -5.02048736E-10
   50.4300003      -1.09368070E-09
   50.4900017      -1.70230807E-09
   50.5499992      -2.32345432E-09
   50.6100006      -2.95409075E-09