  -2.400000      0.0000000E+00
  -2.340000      0.0000000E+00
  -2.280000      0.0000000E+00
  -2.220000      0.0000000E+00
  -2.160000     -6.1078179E-19
  -2.100000     -3.6927096E-18
  -2.040000     -1.0989581E-17
  -1.980000     -1.9823790E-17
  -1.920000     -1.8663914E-17
  -1.860000      1.1660892E-17
  -1.800000      8.7050244E-17
  -1.740000      2.0220742E-16
  -1.680000      3.1575713E-16
  -1.620000      3.5078676E-16
  -1.560000      2.1827758E-16
  -1.500000     -1.3834429E-16
  -1.440000     -6.8847733E-16
  -1.380000     -1.2687257E-15
  -1.320000     -1.5758695E-15
  -1.260000     -1.2375686E-15
  -1.200000      6.9352018E-18
  -1.140000      2.0323213E-15
  -1.080000      4.0730723E-15
  -1.020000      4.7101503E-15
 -0.9600000      2.3360256E-15
 -0.9000000     -3.8387376E-15
 -0.8400000     -1.2551022E-14
 -0.7800000     -1.9754250E-14
 -0.7200000     -1.9269757E-14
 -0.6600000     -5.2855576E-15
 -0.6000000      2.3828556E-14
 -0.5400000      6.2086783E-14
 -0.4800000      9.5126110E-14
 -0.4200000      1.0376651E-13
 -0.3600000      7.1585567E-14
 -0.3000000     -6.2637870E-15
 -0.2400000     -1.1731131E-13
 -0.1800000     -2.3279466E-13
 -0.1200000     -3.1615983E-13
 -5.9999999E-02 -3.3573662E-13
  0.0000000E+00 -2.7558010E-13
  5.9999999E-02 -1.3905869E-13
  0.1200000      5.6128720E-14
  0.1800000      2.8731301E-13
  0.2400000      5.3300799E-13
  0.3000000      7.6984691E-13
  0.3600000      9.6087754E-13
  0.4200000      1.0439601E-12
  0.4800000      9.3336146E-13
  0.5400000      5.4394786E-13
  0.6000000     -1.6429056E-13
  0.6600000     -1.1380502E-12
  0.7200000     -2.2043489E-12
  0.7800000     -3.0879455E-12
  0.8400000     -3.4777587E-12
  0.9000000     -3.1242775E-12
  0.9600000     -1.9318583E-12
   1.020000     -7.4046985E-15
   1.080000      2.3565093E-12
   1.140000      4.7572584E-12
   1.200000      6.7829158E-12
   1.260000      8.0939786E-12
   1.320000      8.4539892E-12
   1.380000      7.7057718E-12
   1.440000      5.7198920E-12
   1.500000      2.3555988E-12
   1.560000     -2.5367208E-12
   1.620000     -9.0731129E-12
   1.680000     -1.7287102E-11
   1.740000     -2.7120188E-11
   1.800000     -3.8479983E-11
   1.860000     -5.1352398E-11
   1.920000     -6.5911054E-11
   1.980000     -8.2548961E-11
   2.040000     -1.0178087E-10
   2.100000     -1.2402283E-10
   2.160000     -1.4932275E-10
   2.220000     -1.7715450E-10
   2.280000     -2.0637747E-10
   2.340000     -2.3539892E-10
   2.400000     -2.6249231E-10
   2.460000     -2.8615590E-10
   2.520000     -3.0538166E-10
   2.580000     -3.1974876E-10
   2.640000     -3.2933783E-10
   2.700000     -3.3453826E-10
   2.760000     -3.3585579E-10
   2.820000     -3.3380362E-10
   2.880000     -3.2889746E-10
   2.940000     -3.2170727E-10
   3.000000     -3.1288519E-10
   3.060000     -3.0310415E-10
   3.120000     -2.9289510E-10
   3.180000     -2.8243249E-10
   3.240000     -2.7135125E-10
   3.300000     -2.5867347E-10
   3.360000     -2.4288194E-10
   3.420000     -2.2212479E-10
   3.480000     -1.9449553E-10
   3.540000     -1.5832019E-10
   3.600000     -1.1239285E-10
   3.660000     -5.6123391E-11
   3.720000      1.0417429E-11
   3.780000      8.6554382E-11
   3.840000      1.7115129E-10
   3.900000      2.6281546E-10
   3.960000      3.6012410E-10
   4.020000      4.6182969E-10
   4.080000      5.6700872E-10
   4.140000      6.7513856E-10
   4.200000      7.8610946E-10
   4.260000      9.0019026E-10
   4.320000      1.0179614E-09
   4.380000      1.1402089E-09
   4.440000      1.2677599E-09
   4.500000      1.4012485E-09
   4.560000      1.5408352E-09
   4.620000      1.6859500E-09
   4.680000      1.8351569E-09
   4.740000      1.9862276E-09
   4.800000      2.1364464E-09
   4.860000      2.2830799E-09
   4.920000      2.4238704E-09
   4.980000      2.5573850E-09
   5.040000      2.6830977E-09
   5.100000      2.8011793E-09
   5.160000      2.9120664E-09
   5.220000      3.0159635E-09
   5.280000      3.1124383E-09
   5.340000      3.2002303E-09
   5.400000      3.2773286E-09
   5.460000      3.3412928E-09
   5.520000      3.3897332E-09
   5.580000      3.4208358E-09
   5.640000      3.4338006E-09
   5.700000      3.4290726E-09
   5.760000      3.4082888E-09
   5.820000      3.3739351E-09
   5.880000      3.3287928E-09
   5.940000      3.2753420E-09
   6.000000      3.2153078E-09
   6.060000      3.1494913E-09
   6.120000      3.0779097E-09
   6.180000      3.0001426E-09
   6.240000      2.9156928E-09
   6.300000      2.8241907E-09
   6.360000      2.7253648E-09
   6.420000      2.6188500E-09
   6.480000      2.5040006E-09
   6.540000      2.3798776E-09
   6.600000      2.2454774E-09
   6.660000      2.1001232E-09
   6.720000      1.9438420E-09
   6.780000      1.7775388E-09
   6.840000      1.6028876E-09
   6.900000      1.4219984E-09
   6.960000      1.2370238E-09
   7.020000      1.0498782E-09
   7.080000      8.6215102E-10
   7.140000      6.7517802E-10
   7.200000      4.9014787E-10
   7.260000      3.0812625E-10
   7.320000      1.2995893E-10
   7.380000     -4.3893930E-11
   7.440000     -2.1348349E-10
   7.500000     -3.7937389E-10
   7.560000     -5.4250271E-10
   7.620000     -7.0395328E-10
   7.680000     -8.6471230E-10
   7.740000     -1.0254638E-09
   7.800000     -1.1864271E-09
   7.860000     -1.3472364E-09
   7.920000     -1.5068850E-09
   7.980000     -1.6637969E-09
   8.040000     -1.8160951E-09
   8.100000     -1.9620607E-09
   8.160000     -2.1006648E-09
   8.220000     -2.2319568E-09
   8.280000     -2.3570892E-09
   8.340000     -2.4778894E-09
   8.400000     -2.5961022E-09
   8.460000     -2.7126108E-09
   8.520000     -2.8269920E-09
   8.580000     -2.9376259E-09
   8.640000     -3.0423322E-09
   8.700000     -3.1392402E-09
   8.760000     -3.2275014E-09
   8.820000     -3.3075302E-09
   8.880000     -3.3807153E-09
   8.940000     -3.4487886E-09
   9.000000     -3.5132017E-09
   9.060000     -3.5748018E-09
   9.120000     -3.6339178E-09
   9.180000     -3.6907288E-09
   9.240000     -3.7456611E-09
   9.300000     -3.7995558E-09
   9.360000     -3.8535104E-09
   9.420000     -3.9084713E-09
   9.480000     -3.9647685E-09
   9.540000     -4.0218042E-09
   9.600000     -4.0779895E-09
   9.660000     -4.1309360E-09
   9.720000     -4.1777786E-09
   9.780000     -4.2155359E-09
   9.840000     -4.2414467E-09
   9.900000     -4.2532733E-09
   9.960000     -4.2496100E-09
   10.02000     -4.2301966E-09
   10.08000     -4.1962052E-09
   10.14000     -4.1504156E-09
   10.20000     -4.0971901E-09
   10.26000     -4.0422132E-09
   10.32000     -3.9920147E-09
   10.38000     -3.9533834E-09
   10.44000     -3.9327781E-09
   10.50000     -3.9358286E-09
   10.56000     -3.9669485E-09
   10.62000     -4.0290229E-09
   10.68000     -4.1230925E-09
   10.74000     -4.2480015E-09
   10.80000     -4.4000430E-09
   10.86000     -4.5727417E-09
   10.92000     -4.7569331E-09
   10.98000     -4.9412701E-09
   11.04000     -5.1131686E-09
   11.10000     -5.2600497E-09
   11.16000     -5.3706612E-09
   11.22000     -5.4362421E-09
   11.28000     -5.4514033E-09
   11.34000     -5.4147025E-09
   11.40000     -5.3289457E-09
   11.46000     -5.2012390E-09
   11.52000     -5.0426912E-09
   11.58000     -4.8676254E-09
   11.64000     -4.6921973E-09
   11.70000     -4.5325068E-09
   11.76000     -4.4025463E-09
   11.82000     -4.3124606E-09
   11.88000     -4.2675556E-09
   11.94000     -4.2682298E-09
   12.00000     -4.3106367E-09
   12.06000     -4.3876551E-09
   12.12000     -4.4897064E-09
   12.18000     -4.6052353E-09
   12.24000     -4.7209743E-09
   12.30000     -4.8223558E-09
   12.36000     -4.8943800E-09
   12.42000     -4.9229762E-09
   12.48000     -4.8965547E-09
   12.54000     -4.8072710E-09
   12.60000     -4.6516120E-09
   12.66000     -4.4302491E-09
   12.72000     -4.1474411E-09
   12.78000     -3.8104022E-09
   12.84000     -3.4289360E-09
   12.90000     -3.0153204E-09
   12.96000     -2.5841496E-09
   13.02000     -2.1518036E-09
   13.08000     -1.7354136E-09
   13.14000     -1.3515024E-09
   13.20000     -1.0146908E-09
   13.26000     -7.3681006E-10
   13.32000     -5.2651178E-10
   13.38000     -3.8918455E-10
   13.44000     -3.2688002E-10
   13.50000     -3.3809927E-10
   13.56000     -4.1757928E-10
   13.62000     -5.5643001E-10
   13.68000     -7.4292461E-10
   13.74000     -9.6393349E-10
   13.80000     -1.2066124E-09
   13.86000     -1.4597488E-09
   13.92000     -1.7143122E-09
   13.98000     -1.9631725E-09
   14.04000     -2.2004001E-09
   14.10000     -2.4207625E-09
   14.16000     -2.6198428E-09
   14.22000     -2.7947369E-09
   14.28000     -2.9448344E-09
   14.34000     -3.0720149E-09
   14.40000     -3.1798495E-09
   14.46000     -3.2719203E-09
   14.52000     -3.3498624E-09
   14.58000     -3.4119301E-09
   14.64000     -3.4526564E-09
   14.70000     -3.4636978E-09
   14.76000     -3.4354579E-09
   14.82000     -3.3588510E-09
   14.88000     -3.2266789E-09
   14.94000     -3.0344081E-09
   15.00000     -2.7804770E-09
   15.06000     -2.4663982E-09
   15.12000     -2.0968560E-09
   15.18000     -1.6797878E-09
   15.24000     -1.2262866E-09
   15.30000     -7.5014822E-10
   15.36000     -2.6701563E-10
   15.42000      2.0673421E-10
   15.48000      6.5512096E-10
   15.54000      1.0634981E-09
   15.60000      1.4192312E-09
   15.66000      1.7121978E-09
   15.72000      1.9352409E-09
   15.78000      2.0846413E-09
   15.84000      2.1605253E-09
   15.90000      2.1669975E-09
   15.96000      2.1117761E-09
   16.02000      2.0052402E-09
   16.08000      1.8590073E-09
   16.14000      1.6843897E-09
   16.20000      1.4911806E-09
   16.26000      1.2871608E-09
   16.32000      1.0784861E-09
   16.38000      8.7078983E-10
   16.44000      6.7054595E-10
   16.50000      4.8609133E-10
   16.56000      3.2780356E-10
   16.62000      2.0723459E-10
   16.68000      1.3542528E-10
   16.74000      1.2098726E-10
   16.80000      1.6868239E-10
   16.86000      2.7906846E-10
   16.92000      4.4936360E-10
   16.98000      6.7517825E-10
   17.04000      9.5238528E-10
   17.10000      1.2783201E-09
   17.16000      1.6517615E-09
   17.22000      2.0716449E-09
   17.28000      2.5349889E-09
   17.34000      3.0348544E-09
   17.40000      3.5591921E-09
   17.46000      4.0911265E-09
   17.52000      4.6107433E-09
   17.58000      5.0979034E-09
   17.64000      5.5352798E-09
   17.70000      5.9106933E-09
   17.76000      6.2180692E-09
   17.82000      6.4567662E-09
   17.88000      6.6295702E-09
   17.94000      6.7401236E-09
   18.00000      6.7907506E-09
   18.06000      6.7815331E-09
   18.12000      6.7110131E-09
   18.18000      6.5782593E-09
   18.24000      6.3854344E-09
   18.30000      6.1397158E-09
   18.36000      5.8535674E-09
   18.42000      5.5429994E-09
   18.48000      5.2242251E-09
   18.54000      4.9098596E-09
   18.60000      4.6060618E-09
   18.66000      4.3117425E-09
   18.72000      4.0202059E-09
   18.78000      3.7226648E-09
   18.84000      3.4123608E-09
   18.90000      3.0878013E-09
   18.96000      2.7539970E-09
   19.02000      2.4213600E-09
   19.08000      2.1028062E-09
   19.14000      1.8102101E-09
   19.20000      1.5515107E-09
   19.26000      1.3294026E-09
   19.32000      1.1419031E-09
   19.38000      9.8439334E-10
   19.44000      8.5227703E-10
   19.50000      7.4330575E-10
   19.56000      6.5884775E-10
   19.62000      6.0380517E-10
   19.68000      5.8532529E-10
   19.74000      6.1077682E-10
   19.80000      6.8561357E-10
   19.86000      8.1172669E-10
   19.92000      9.8673858E-10
   19.98000      1.2044437E-09
   20.04000      1.4562912E-09
   20.10000      1.7334973E-09
   20.16000      2.0291333E-09
   20.22000      2.3394673E-09
   20.28000      2.6640206E-09
   20.34000      3.0042002E-09
   20.40000      3.3608814E-09
   20.46000      3.7317456E-09
   20.52000      4.1093409E-09
   20.58000      4.4806252E-09
   20.64000      4.8282680E-09
   20.70000      5.1333453E-09
   20.76000      5.3785998E-09
   20.82000      5.5512359E-09
   20.88000      5.6444120E-09
   20.94000      5.6570690E-09
   21.00000      5.5923057E-09
   21.06000      5.4550093E-09
   21.12000      5.2496789E-09
   21.18000      4.9792641E-09
   21.24000      4.6454689E-09
   21.30000      4.2503787E-09
   21.36000      3.7987329E-09
   21.42000      3.2998451E-09
   21.48000      2.7682203E-09
   21.54000      2.2223756E-09
   21.60000      1.6820293E-09
   21.66000      1.1645038E-09
   21.72000      6.8153305E-10
   21.78000      2.3755448E-10
   21.84000     -1.6996433E-10
   21.90000     -5.4835608E-10
   21.96000     -9.0654684E-10
   22.02000     -1.2518828E-09
   22.08000     -1.5878996E-09
   22.14000     -1.9134958E-09
   22.20000     -2.2234488E-09
   22.26000     -2.5098446E-09
   22.32000     -2.7638463E-09
   22.38000     -2.9772982E-09
   22.44000     -3.1438261E-09
   22.50000     -3.2592824E-09
   22.56000     -3.3215726E-09
   22.62000     -3.3300407E-09
   22.68000     -3.2847161E-09
   22.74000     -3.1857583E-09
   22.80000     -3.0333629E-09
   22.86000     -2.8281839E-09
   22.92000     -2.5720979E-09
   22.98000     -2.2689679E-09
   23.04000     -1.9250637E-09
   23.10000     -1.5489507E-09
   23.16000     -1.1508891E-09
   23.22000     -7.4194739E-10
   23.28000     -3.3309294E-10
   23.34000      6.5541281E-11
   23.40000      4.4508111E-10
   23.46000      7.9793683E-10
   23.52000      1.1173621E-09
   23.58000      1.3965609E-09
   23.64000      1.6275605E-09
   23.70000      1.8003167E-09
   23.76000      1.9026596E-09
   23.82000      1.9215196E-09
   23.88000      1.8453765E-09
   23.94000      1.6672328E-09
   24.00000      1.3869781E-09
   24.06000      1.0120944E-09
   24.12000      5.5630484E-10
   24.18000      3.6703363E-11
   24.24000     -5.2936938E-10
   24.30000     -1.1263471E-09
   24.36000     -1.7406123E-09
   24.42000     -2.3590907E-09
   24.48000     -2.9673819E-09
   24.54000     -3.5487451E-09
   24.60000     -4.0847534E-09
   24.66000     -4.5575015E-09
   24.72000     -4.9524376E-09
   24.78000     -5.2606484E-09
   24.84000     -5.4798162E-09
   24.90000     -5.6138076E-09
   24.96000     -5.6714868E-09
   25.02000     -5.6655334E-09
   25.08000     -5.6117391E-09
   25.14000     -5.5287148E-09
   25.20000     -5.4375282E-09
   25.26000     -5.3607501E-09
   25.32000     -5.3207194E-09
   25.38000     -5.3372804E-09
   25.44000     -5.4255800E-09
   25.50000     -5.5945217E-09
   25.56000     -5.8462288E-09
   25.62000     -6.1764589E-09
   25.68000     -6.5756423E-09
   25.74000     -7.0300810E-09
   25.80000     -7.5229476E-09
   25.86000     -8.0349416E-09
   25.92000     -8.5447081E-09
   25.98000     -9.0292982E-09
   26.04000     -9.4650101E-09
   26.10000     -9.8288737E-09
   26.16000     -1.0100771E-08
   26.22000     -1.0265927E-08
   26.28000     -1.0317168E-08
   26.34000     -1.0256283E-08
   26.40000     -1.0093884E-08
   26.46000     -9.8476054E-09
   26.52000     -9.5389350E-09
   26.58000     -9.1894679E-09
   26.64000     -8.8175893E-09
   26.70000     -8.4364595E-09
   26.76000     -8.0537621E-09
   26.82000     -7.6730453E-09
   26.88000     -7.2959905E-09
   26.94000     -6.9245769E-09
   27.00000     -6.5622747E-09
   27.06000     -6.2137904E-09
   27.12000     -5.8835550E-09
   27.18000     -5.5737317E-09
   27.24000     -5.2827831E-09
   27.30000     -5.0054423E-09
   27.36000     -4.7343356E-09
   27.42000     -4.4627422E-09
   27.48000     -4.1873829E-09
   27.54000     -3.9100509E-09
   27.60000     -3.6373238E-09
   27.66000     -3.3784311E-09
   27.72000     -3.1421270E-09
   27.78000     -2.9338398E-09
   27.84000     -2.7542038E-09
   27.90000     -2.5994351E-09
   27.96000     -2.4632443E-09
   28.02000     -2.3393756E-09
   28.08000     -2.2237547E-09
   28.14000     -2.1154976E-09
   28.20000     -2.0165691E-09
   28.26000     -1.9303708E-09
   28.32000     -1.8598266E-09
   28.38000     -1.8055818E-09
   28.44000     -1.7648100E-09
   28.50000     -1.7309368E-09
   28.56000     -1.6943914E-09
   28.62000     -1.6442726E-09
   28.68000     -1.5705891E-09
   28.74000     -1.4665001E-09
   28.80000     -1.3299003E-09
   28.86000     -1.1637816E-09
   28.92000     -9.7515918E-10
   28.98000     -7.7281853E-10
   29.04000     -5.6457472E-10
   29.10000     -3.5492459E-10
   29.16000     -1.4385235E-10
   29.22000      7.2864215E-11
   29.28000      3.0201677E-10
   29.34000      5.5060728E-10
   29.40000      8.2357071E-10
   29.46000      1.1223031E-09
   29.52000      1.4444024E-09
   29.58000      1.7846045E-09
   29.64000      2.1365150E-09
   29.70000      2.4944804E-09
   29.76000      2.8549196E-09
   29.82000      3.2166247E-09
   29.88000      3.5799141E-09
   29.94000      3.9449461E-09
   30.00000      4.3098538E-09
   30.06000      4.6694657E-09
   30.12000      5.0152278E-09
   30.18000      5.3364917E-09
   30.24000      5.6228280E-09
   30.30000      5.8665841E-09
   30.36000      6.0647700E-09
   30.42000      6.2195755E-09
   30.48000      6.3373156E-09
   30.54000      6.4261783E-09
   30.60000      6.4935919E-09
   30.66000      6.5441332E-09
   30.72000      6.5786474E-09
   30.78000      6.5947727E-09
   30.84000      6.5885120E-09
   30.90000      6.5561383E-09
   30.96000      6.4956529E-09
   31.02000      6.4072561E-09
   31.08000      6.2926993E-09
   31.14000      6.1538530E-09
   31.20000      5.9911134E-09
   31.26000      5.8023466E-09
   31.32000      5.5828857E-09
   31.38000      5.3267271E-09
   31.44000      5.0286260E-09
   31.50000      4.6864117E-09
   31.56000      4.3026920E-09
   31.62000      3.8852073E-09
   31.68000      3.4455463E-09
   31.74000      2.9964911E-09
   31.80000      2.5488269E-09
   31.86000      2.1087041E-09
   31.92000      1.6764984E-09
   31.98000      1.2475687E-09
   32.04000      8.1457802E-10
   32.10000      3.7044617E-10
   32.16000     -8.9198718E-11
   32.22000     -5.6493676E-10
   32.28000     -1.0540815E-09
   32.34000     -1.5523820E-09
   32.40000     -2.0560358E-09
   32.46000     -2.5631113E-09
   32.52000     -3.0738043E-09
   32.58000     -3.5894678E-09
   32.64000     -4.1108095E-09
   32.70000     -4.6359268E-09
   32.76000     -5.1588636E-09
   32.82000     -5.6692229E-09
   32.88000     -6.1530683E-09
   32.94000     -6.5950223E-09
   33.00000     -6.9811206E-09
   33.06000     -7.3017068E-09
   33.12000     -7.5535578E-09
   33.18000     -7.7405646E-09
   33.24000     -7.8726670E-09
   33.30000     -7.9633287E-09
   33.36000     -8.0262978E-09
   33.42000     -8.0726821E-09
   33.48000     -8.1092404E-09
   33.54000     -8.1383460E-09
   33.60000     -8.1594793E-09
   33.66000     -8.1715790E-09
   33.72000     -8.1752871E-09
   33.78000     -8.1741973E-09
   33.84000     -8.1745331E-09
   33.90000     -8.1832496E-09
   33.96000     -8.2051361E-09
   34.02000     -8.2399483E-09
   34.08000     -8.2807352E-09
   34.14000     -8.3142941E-09
   34.20000     -8.3239753E-09
   34.26000     -8.2942044E-09
   34.32000     -8.2152383E-09
   34.38000     -8.0864249E-09
   34.44000     -7.9165634E-09
   34.50000     -7.7210345E-09
   34.56000     -7.5165882E-09
   34.62000     -7.3156761E-09
   34.68000     -7.1224329E-09
   34.74000     -6.9317903E-09
   34.80000     -6.7320003E-09
   34.86000     -6.5095507E-09
   34.92000     -6.2546301E-09
   34.98000     -5.9652061E-09
   35.04000     -5.6483573E-09
   35.10000     -5.3185176E-09
   35.16000     -4.9932698E-09
   35.22000     -4.6880757E-09
   35.28000     -4.4115729E-09
   35.34000     -4.1629158E-09
   35.40000     -3.9320462E-09
   35.46000     -3.7029497E-09
   35.52000     -3.4590135E-09
   35.58000     -3.1888281E-09
   35.64000     -2.8904810E-09
   35.70000     -2.5727378E-09
   35.76000     -2.2525217E-09
   35.82000     -1.9494322E-09
   35.88000     -1.6792169E-09
   35.94000     -1.4485955E-09
   36.00000     -1.2533831E-09
   36.06000     -1.0806198E-09
   36.12000     -9.1386143E-10
   36.18000     -7.3956280E-10
   36.24000     -5.5209293E-10
   36.30000     -3.5548653E-10
   36.36000     -1.6131280E-10
   36.42000      1.6485081E-11
   36.48000      1.6782464E-10
   36.54000      2.9148031E-10
   36.60000      3.9699499E-10
   36.66000      5.0275117E-10
   36.72000      6.3075040E-10
   36.78000      7.9974088E-10
   36.84000      1.0188723E-09
   36.90000      1.2838939E-09
   36.96000      1.5771146E-09
   37.02000      1.8711712E-09
   37.08000      2.1354687E-09
   37.14000      2.3433311E-09
   37.20000      2.4777103E-09
   37.26000      2.5337714E-09
   37.32000      2.5177047E-09
   37.38000      2.4423352E-09
   37.44000      2.3211428E-09
   37.50000      2.1627957E-09
   37.56000      1.9681017E-09
   37.62000      1.7304045E-09
   37.68000      1.4392402E-09
   37.74000      1.0858806E-09
   37.80000      6.6870565E-10
   37.86000      1.9636803E-10
   37.92000     -3.1251107E-10
   37.98000     -8.3315543E-10
   38.04000     -1.3407383E-09
   38.10000     -1.8167395E-09
   38.16000     -2.2534121E-09
   38.22000     -2.6548472E-09
   38.28000     -3.0342624E-09
   38.34000     -3.4083729E-09
   38.40000     -3.7906323E-09
   38.46000     -4.1854840E-09
   38.52000     -4.5854325E-09
   38.58000     -4.9718745E-09
   38.64000     -5.3194618E-09
   38.70000     -5.6026521E-09
   38.76000     -5.8023932E-09
   38.82000     -5.9107803E-09
   38.88000     -5.9321823E-09
   38.94000     -5.8804832E-09
   39.00000     -5.7734653E-09
   39.06000     -5.6263878E-09
   39.12000     -5.4471241E-09
   39.18000     -5.2346278E-09
   39.24000     -4.9812163E-09
   39.30000     -4.6776591E-09
   39.36000     -4.3189954E-09
   39.42000     -3.9087449E-09
   39.48000     -3.4598648E-09
   39.54000     -2.9920977E-09
   39.60000     -2.5266924E-09
   39.66000     -2.0804019E-09
   39.72000     -1.6607954E-09
   39.78000     -1.2643466E-09
   39.84000     -8.7774793E-10
   39.90000     -4.8184284E-10
   39.96000     -5.6807430E-11
   40.02000      4.1307319E-10
   40.08000      9.3644703E-10
   40.14000      1.5145309E-09
   40.20000      2.1432471E-09
   40.26000      2.8169245E-09
   40.32000      3.5320888E-09
   40.38000      4.2898152E-09
   40.44000      5.0956497E-09
   40.50000      5.9570611E-09
   40.56000      6.8793904E-09
   40.62000      7.8619520E-09
   40.68000      8.8958991E-09
   40.74000      9.9648156E-09
   40.80000      1.1047827E-08
   40.86000      1.2124064E-08
   40.92000      1.3176756E-08
   40.98000      1.4195508E-08
   41.04000      1.5176164E-08
   41.10000      1.6118586E-08
   41.16000      1.7023481E-08
   41.22000      1.7889590E-08
   41.28000      1.8712154E-08
   41.34000      1.9483009E-08
   41.40000      2.0191933E-08
   41.46000      2.0828637E-08
   41.52000      2.1384622E-08
   41.58000      2.1854417E-08
   41.64000      2.2235961E-08
   41.70000      2.2530088E-08
   41.76000      2.2739375E-08
   41.82000      2.2866704E-08
   41.88000      2.2913994E-08
   41.94000      2.2881595E-08
   42.00000      2.2768669E-08
   42.06000      2.2574506E-08
   42.12000      2.2300425E-08
   42.18000      2.1951495E-08
   42.24000      2.1537327E-08
   42.30000      2.1071502E-08
   42.36000      2.0569647E-08
   42.42000      2.0046832E-08
   42.48000      1.9515173E-08
   42.54000      1.8982524E-08
   42.60000      1.8452592E-08
   42.66000      1.7926265E-08
   42.72000      1.7403389E-08
   42.78000      1.6884085E-08
   42.84000      1.6369055E-08
   42.90000      1.5858843E-08
   42.96000      1.5352677E-08
   43.02000      1.4847729E-08
   43.08000      1.4339521E-08
   43.14000      1.3823583E-08
   43.20000      1.3297817E-08
   43.26000      1.2764500E-08
   43.32000      1.2230953E-08
   43.38000      1.1708336E-08
   43.44000      1.1208863E-08
   43.50000      1.0742437E-08
   43.56000      1.0313949E-08
   43.62000      9.9222826E-09
   43.68000      9.5613339E-09
   43.74000      9.2225632E-09
   43.80000      8.8980769E-09
   43.86000      8.5830418E-09
   43.92000      8.2766674E-09
   43.98000      7.9815106E-09
   44.04000      7.7015363E-09
   44.10000      7.4396995E-09
   44.16000      7.1959598E-09
   44.22000      6.9664057E-09
   44.28000      6.7437855E-09
   44.34000      6.5192864E-09
   44.40000      6.2849592E-09
   44.46000      6.0359415E-09
   44.52000      5.7716418E-09
   44.58000      5.4953664E-09
   44.64000      5.2124314E-09
   44.70000      4.9274265E-09
   44.76000      4.6416910E-09
   44.82000      4.3520445E-09
   44.88000      4.0513513E-09
   44.94000      3.7307535E-09
   45.00000      3.3827126E-09
   45.06000      3.0036977E-09
   45.12000      2.5955313E-09
   45.18000      2.1649866E-09
   45.24000      1.7219307E-09
   45.30000      1.2767889E-09
   45.36000      8.3824048E-10
   45.42000      4.1181455E-10
   45.48000     -3.5912993E-13
   45.54000     -3.9879272E-10
   45.60000     -7.8526963E-10
   45.66000     -1.1613370E-09
   45.72000     -1.5270741E-09
   45.78000     -1.8804216E-09
   45.84000     -2.2171769E-09
   45.90000     -2.5315641E-09
   45.96000     -2.8171128E-09
   46.02000     -3.0674834E-09
   46.08000     -3.2769425E-09
   46.14000     -3.4403822E-09
   46.20000     -3.5530425E-09
   46.26000     -3.6102608E-09
   46.32000     -3.6075720E-09
   46.38000     -3.5412955E-09
   46.44000     -3.4094676E-09
   46.50000     -3.2127720E-09
   46.56000     -2.9551028E-09
   46.62000     -2.6435287E-09
   46.68000     -2.2876472E-09
   46.74000     -1.8985060E-09
   46.80000     -1.4873575E-09
   46.86000     -1.0645087E-09
   46.92000     -6.3849209E-10
   46.98000     -2.1571968E-10
   47.04000      1.9930899E-10
   47.10000      6.0332905E-10
   47.16000      9.9343189E-10
   47.22000      1.3663839E-09
   47.28000      1.7184942E-09
   47.34000      2.0461255E-09
   47.40000      2.3465703E-09
   47.46000      2.6187412E-09
   47.52000      2.8631377E-09
   47.58000      3.0809124E-09
   47.64000      3.2723895E-09
   47.70000      3.4357590E-09
   47.76000      3.5666892E-09
   47.82000      3.6591448E-09
   47.88000      3.7070929E-09
   47.94000      3.7062937E-09
   48.00000      3.6553447E-09
   48.06000      3.5555408E-09
   48.12000      3.4097265E-09
   48.18000      3.2207672E-09
   48.24000      2.9903624E-09
   48.30000      2.7186386E-09
   48.36000      2.4045395E-09
   48.42000      2.0467066E-09
   48.48000      1.6444444E-09
   48.54000      1.1984835E-09
   48.60000      7.1139389E-10
   48.66000      1.8758728E-10
   48.72000     -3.6710859E-10
   48.78000     -9.4626329E-10
   48.84000     -1.5438392E-09
   48.90000     -2.1549884E-09
   48.96000     -2.7762193E-09
   49.02000     -3.4047094E-09
   49.08000     -4.0369557E-09
   49.14000     -4.6673594E-09
   49.20000     -5.2874554E-09
   49.26000     -5.8862160E-09
   49.32000     -6.4512866E-09
   49.38000     -6.9705073E-09
   49.44000     -7.4329423E-09
   49.50000     -7.8289712E-09
   49.56000     -8.1495912E-09
   49.62000     -8.3855261E-09
   49.68000     -8.5268050E-09
   49.74000     -8.5630640E-09
   49.80000     -8.4842853E-09
   49.86000     -8.2813498E-09
   49.92000     -7.9458911E-09
   49.98000     -7.4693496E-09
   50.04000     -6.8416841E-09
   50.10000     -6.0504255E-09
   50.16000     -5.0806128E-09
   50.22000     -3.9157246E-09
   50.28000     -2.5392792E-09
   50.34000     -9.3652108E-10
   50.40000      9.0435343E-10
   50.46000      2.9917542E-09
   50.52000      5.3310978E-09
   50.58000      7.9258813E-09
   50.64000      1.0779095E-08
   50.70000      1.3894564E-08
   50.76000      1.7277735E-08
   50.82000      2.0935595E-08
   50.88000      2.4875650E-08
   50.94000      2.9104250E-08
   51.00000      3.3624783E-08
   51.06000      3.8436305E-08
   51.12000      4.3532769E-08
   51.18000      4.8902749E-08
   51.24000      5.4529089E-08
   51.30000      6.0388103E-08
   51.36000      6.6448109E-08
   51.42000      7.2667689E-08
   51.48000      7.8994191E-08
   51.54000      8.5362856E-08
   51.60000      9.1696769E-08
   51.66000      9.7907183E-08
   51.72000      1.0389376E-07
   51.78000      1.0954443E-07
   51.84000      1.1473472E-07
   51.90000      1.1932705E-07
   51.96000      1.2317039E-07
   52.02000      1.2610028E-07
   52.08000      1.2793939E-07
   52.14000      1.2849844E-07
   52.20000      1.2757695E-07
   52.26000      1.2496419E-07
   52.32000      1.2044012E-07
   52.38000      1.1377698E-07
   52.44000      1.0474165E-07
   52.50000      9.3098826E-08
   52.56000      7.8614747E-08
   52.62000      6.1061243E-08
   52.68000      4.0219554E-08
   52.74000      1.5883856E-08
   52.80000     -1.2135451E-08
   52.86000     -4.4008527E-08
   52.92000     -7.9882547E-08
   52.98000     -1.1987771E-07
   53.04000     -1.6408272E-07
   53.10000     -2.1254998E-07
   53.16000     -2.6529051E-07
   53.22000     -3.2226947E-07
   53.28000     -3.8340218E-07
   53.34000     -4.4855091E-07
   53.40000     -5.1752318E-07
   53.46000     -5.9007078E-07
   53.52000     -6.6588979E-07
   53.58000     -7.4462042E-07
   53.64000     -8.2584683E-07
   53.70000     -9.0909623E-07
   53.76000     -9.9383874E-07
   53.82000     -1.0794884E-06
   53.88000     -1.1654057E-06
   53.94000     -1.2509041E-06
   54.00000     -1.3352558E-06
   54.06000     -1.4176986E-06
   54.12000     -1.4974416E-06
   54.18000     -1.5736705E-06
   54.24000     -1.6455513E-06
   54.30000     -1.7122385E-06
   54.36000     -1.7728847E-06
   54.42000     -1.8266522E-06
   54.48000     -1.8727255E-06
   54.54000     -1.9103215E-06
   54.60000     -1.9386991E-06
   54.66000     -1.9571644E-06
   54.72000     -1.9650795E-06
   54.78000     -1.9618697E-06
   54.84000     -1.9470356E-06
   54.90000     -1.9201609E-06
   54.96000     -1.8809208E-06
   55.02000     -1.8290864E-06
   55.08000     -1.7645274E-06
   55.14000     -1.6872151E-06
   55.20000     -1.5972249E-06
   55.26000     -1.4947408E-06
   55.32000     -1.3800562E-06
   55.38000     -1.2535722E-06
   55.44000     -1.1157907E-06
   55.50000     -9.6730651E-07
   55.56000     -8.0880068E-07