  -2.400000      0.0000000E+00
  -2.340000      0.0000000E+00
  -2.280000      0.0000000E+00
  -2.220000      0.0000000E+00
  -2.160000     -3.4811922E-19
  -2.100000     -1.8389660E-18
  -2.040000     -4.0598790E-18
  -1.980000     -2.4112997E-18
  -1.920000      1.1765634E-17
  -1.860000      4.2941728E-17
  -1.800000      7.7378008E-17
  -1.740000      7.6979301E-17
  -1.680000     -2.4995663E-18
  -1.620000     -1.6817577E-16
  -1.560000     -3.4943209E-16
  -1.500000     -4.0491409E-16
  -1.440000     -2.0277077E-16
  -1.380000      2.5646630E-16
  -1.320000      7.6211202E-16
  -1.260000      9.5297083E-16
  -1.200000      5.3160026E-16
  -1.140000     -4.7059345E-16
  -1.080000     -1.5620555E-15
  -1.020000     -1.9395485E-15
 -0.9600000     -9.0117222E-16
 -0.9000000      1.6784411E-15
 -0.8400000      5.0878105E-15
 -0.7800000      7.8988694E-15
 -0.7200000      8.4034079E-15
 -0.6600000      5.1293329E-15
 -0.6000000     -2.7612770E-15
 -0.5400000     -1.5160611E-14
 -0.4800000     -3.0554664E-14
 -0.4200000     -4.5270299E-14
 -0.3600000     -5.2752568E-14
 -0.3000000     -4.3771844E-14
 -0.2400000     -8.6362378E-15
 -0.1800000      5.8160711E-14
 -0.1200000      1.5184476E-13
 -5.9999999E-02  2.5235079E-13
  0.0000000E+00  3.2363541E-13
  5.9999999E-02  3.1970658E-13
  0.1200000      1.9742445E-13
  0.1800000     -6.6785465E-14
  0.2400000     -4.6132591E-13
  0.3000000     -9.3034174E-13
  0.3600000     -1.3750672E-12
  0.4200000     -1.6668902E-12
  0.4800000     -1.6707434E-12
  0.5400000     -1.2754715E-12
  0.6000000     -4.2657444E-13
  0.6600000      8.4424064E-13
  0.7200000      2.3992178E-12
  0.7800000      3.9914239E-12
  0.8400000      5.2842912E-12
  0.9000000      5.8963450E-12
  0.9600000      5.4679312E-12
   1.020000      3.7403852E-12
   1.080000      6.3350638E-13
   1.140000     -3.6935537E-12
   1.200000     -8.8093872E-12
   1.260000     -1.4010476E-11
   1.320000     -1.8352871E-11
   1.380000     -2.0709297E-11
   1.440000     -1.9843500E-11
   1.500000     -1.4493384E-11
   1.560000     -3.4542842E-12
   1.620000      1.4346804E-11
   1.680000      3.9795323E-11
   1.740000      7.3558375E-11
   1.800000      1.1607974E-10
   1.860000      1.6759263E-10
   1.920000      2.2813447E-10
   1.980000      2.9754638E-10
   2.040000      3.7544826E-10
   2.100000      4.6119497E-10
   2.160000      5.5383664E-10
   2.220000      6.5211458E-10
   2.280000      7.5451823E-10
   2.340000      8.5940455E-10
   2.400000      9.6515107E-10
   2.460000      1.0702870E-09
   2.520000      1.1735447E-09
   2.580000      1.2737954E-09
   2.640000      1.3698863E-09
   2.700000      1.4604443E-09
   2.760000      1.5437532E-09
   2.820000      1.6178001E-09
   2.880000      1.6805410E-09
   2.940000      1.7303504E-09
   3.000000      1.7665395E-09
   3.060000      1.7897748E-09
   3.120000      1.8022390E-09
   3.180000      1.8074370E-09
   3.240000      1.8096523E-09
   3.300000      1.8131708E-09
   3.360000      1.8214455E-09
   3.420000      1.8364035E-09
   3.480000      1.8580455E-09
   3.540000      1.8844131E-09
   3.600000      1.9119075E-09
   3.660000      1.9358721E-09
   3.720000      1.9513122E-09
   3.780000      1.9536188E-09
   3.840000      1.9391859E-09
   3.900000      1.9058426E-09
   3.960000      1.8530570E-09
   4.020000      1.7819159E-09
   4.080000      1.6948944E-09
   4.140000      1.5954729E-09
   4.200000      1.4876611E-09
   4.260000      1.3755085E-09
   4.320000      1.2626672E-09
   4.380000      1.1520727E-09
   4.440000      1.0457766E-09
   4.500000      9.4494290E-10
   4.560000      8.4998775E-10
   4.620000      7.6081685E-10
   4.680000      6.7709538E-10
   4.740000      5.9848099E-10
   4.800000      5.2476246E-10
   4.860000      4.5587206E-10
   4.920000      3.9178089E-10
   4.980000      3.3232492E-10
   5.040000      2.7704097E-10
   5.100000      2.2509566E-10
   5.160000      1.7536102E-10
   5.220000      1.2663445E-10
   5.280000      7.7931939E-11
   5.340000      2.8734693E-11
   5.400000     -2.0932958E-11
   5.460000     -7.0660713E-11
   5.520000     -1.2000878E-10
   5.580000     -1.6892220E-10
   5.640000     -2.1800212E-10
   5.700000     -2.6846195E-10
   5.760000     -3.2171335E-10
   5.820000     -3.7869502E-10
   5.880000     -4.3919843E-10
   5.940000     -5.0149168E-10
   6.000000     -5.6245764E-10
   6.060000     -6.1827010E-10
   6.120000     -6.6541045E-10
   6.180000     -7.0167266E-10
   6.240000     -7.2678980E-10
   6.300000     -7.4244949E-10
   6.360000     -7.5170126E-10
   6.420000     -7.5798512E-10
   6.480000     -7.6414947E-10
   6.540000     -7.7180895E-10
   6.600000     -7.8124524E-10
   6.660000     -7.9183443E-10
   6.720000     -8.0278517E-10
   6.780000     -8.1387380E-10
   6.840000     -8.2588181E-10
   6.900000     -8.4057700E-10
   6.960000     -8.6026236E-10
   7.020000     -8.8708119E-10
   7.080000     -9.2235120E-10
   7.140000     -9.6618180E-10
   7.200000     -1.0175097E-09
   7.260000     -1.0745197E-09
   7.320000     -1.1352684E-09
   7.380000     -1.1982472E-09
   7.440000     -1.2626509E-09
   7.500000     -1.3282541E-09
   7.560000     -1.3949618E-09
   7.620000     -1.4622499E-09
   7.680000     -1.5287644E-09
   7.740000     -1.5922762E-09
   7.800000     -1.6500332E-09
   7.860000     -1.6993817E-09
   7.920000     -1.7384036E-09
   7.980000     -1.7663220E-09
   8.040000     -1.7835311E-09
   8.100000     -1.7912727E-09
   8.160000     -1.7911309E-09
   8.220000     -1.7845785E-09
   8.280000     -1.7727605E-09
   8.340000     -1.7565673E-09
   8.400000     -1.7368958E-09
   8.460000     -1.7148959E-09
   8.520000     -1.6920023E-09
   8.580000     -1.6696466E-09
   8.640000     -1.6487107E-09
   8.700000     -1.6289216E-09
   8.760000     -1.6084567E-09
   8.820000     -1.5839760E-09
   8.880000     -1.5511465E-09
   8.940000     -1.5055417E-09
   9.000000     -1.4436434E-09
   9.060000     -1.3636421E-09
   9.120000     -1.2657949E-09
   9.180000     -1.1522723E-09
   9.240000     -1.0265860E-09
   9.300000     -8.9280761E-10
   9.360000     -7.5479417E-10
   9.420000     -6.1558159E-10
   9.480000     -4.7700982E-10
   9.540000     -3.3958863E-10
   9.600000     -2.0259930E-10
   9.660000     -6.4443409E-11
   9.720000      7.6758239E-11
   9.780000      2.2238092E-10
   9.840000      3.7249734E-10
   9.900000      5.2532945E-10
   9.960000      6.7721101E-10
   10.02000      8.2318469E-10
   10.08000      9.5812369E-10
   10.14000      1.0780349E-09
   10.20000      1.1810902E-09
   10.26000      1.2680107E-09
   10.32000      1.3416736E-09
   10.38000      1.4061083E-09
   10.44000      1.4652667E-09
   10.50000      1.5219870E-09
   10.56000      1.5774330E-09
   10.62000      1.6310588E-09
   10.68000      1.6809543E-09
   10.74000      1.7243453E-09
   10.80000      1.7580833E-09
   10.86000      1.7790566E-09
   10.92000      1.7845552E-09
   10.98000      1.7726207E-09
   11.04000      1.7423492E-09
   11.10000      1.6940541E-09
   11.16000      1.6291880E-09
   11.22000      1.5499962E-09
   11.28000      1.4589965E-09
   11.34000      1.3584714E-09
   11.40000      1.2501660E-09
   11.46000      1.1352925E-09
   11.52000      1.0148127E-09
   11.58000      8.8984453E-10
   11.64000      7.6200368E-10
   11.70000      6.3352773E-10
   11.76000      5.0713045E-10
   11.82000      3.8562836E-10
   11.88000      2.7145167E-10
   11.94000      1.6617080E-10
   12.00000      7.0161835E-11
   12.06000     -1.7503813E-11
   12.12000     -9.8906924E-11
   12.18000     -1.7688975E-10
   12.24000     -2.5451749E-10
   12.30000     -3.3452840E-10
   12.36000     -4.1891079E-10
   12.42000     -5.0868987E-10
   12.48000     -6.0391797E-10
   12.54000     -7.0377976E-10
   12.60000     -8.0670037E-10
   12.66000     -9.1039837E-10
   12.72000     -1.0119192E-09
   12.78000     -1.1077677E-09
   12.84000     -1.1942558E-09
   12.90000     -1.2680965E-09
   12.96000     -1.3271215E-09
   13.02000     -1.3708882E-09
   13.08000     -1.4009183E-09
   13.14000     -1.4204167E-09
   13.20000     -1.4335068E-09
   13.26000     -1.4442022E-09
   13.32000     -1.4554448E-09
   13.38000     -1.4685083E-09
   13.44000     -1.4829404E-09
   13.50000     -1.4970220E-09
   13.56000     -1.5085547E-09
   13.62000     -1.5156917E-09
   13.68000     -1.5175170E-09
   13.74000     -1.5141822E-09
   13.80000     -1.5065581E-09
   13.86000     -1.4955395E-09
   13.92000     -1.4812802E-09
   13.98000     -1.4626812E-09
   14.04000     -1.4373759E-09
   14.10000     -1.4022752E-09
   14.16000     -1.3544986E-09
   14.22000     -1.2923506E-09
   14.28000     -1.2159624E-09
   14.34000     -1.1273562E-09
   14.40000     -1.0299205E-09
   14.46000     -9.2753216E-10
   14.52000     -8.2367457E-10
   14.58000     -7.2086043E-10
   14.64000     -6.2049749E-10
   14.70000     -5.2313287E-10
   14.76000     -4.2888540E-10
   14.82000     -3.3786923E-10
   14.88000     -2.5049507E-10
   14.94000     -1.6763170E-10
   15.00000     -9.0651736E-11
   15.06000     -2.1358576E-11
   15.12000      3.8251170E-11
   15.18000      8.6432708E-11
   15.24000      1.2230436E-10
   15.30000      1.4645643E-10
   15.36000      1.6130122E-10
   15.42000      1.7093590E-10
   15.48000      1.8044975E-10
   15.54000      1.9483434E-10
   15.60000      2.1783678E-10
   15.66000      2.5113950E-10
   15.72000      2.9413127E-10
   15.78000      3.4431027E-10
   15.84000      3.9813861E-10
   15.90000      4.5203744E-10
   15.96000      5.0321147E-10
   16.02000      5.5009325E-10
   16.08000      5.9234251E-10
   16.14000      6.3047129E-10
   16.20000      6.6525901E-10
   16.26000      6.9716749E-10
   16.32000      7.2596112E-10
   16.38000      7.5067247E-10
   16.44000      7.6993079E-10
   16.50000      7.8252060E-10
   16.56000      7.8791523E-10
   16.62000      7.8651474E-10
   16.68000      7.7943563E-10
   16.74000      7.6792633E-10
   16.80000      7.5269863E-10
   16.86000      7.3356027E-10
   16.92000      7.0962375E-10
   16.98000      6.8008882E-10
   17.04000      6.4528588E-10
   17.10000      6.0748440E-10
   17.16000      5.7102412E-10
   17.22000      5.4160260E-10
   17.28000      5.2492005E-10
   17.34000      5.2516524E-10
   17.40000      5.4389215E-10
   17.46000      5.7967126E-10
   17.52000      6.2859040E-10
   17.58000      6.8537392E-10
   17.64000      7.4471035E-10
   17.70000      8.0237172E-10
   17.76000      8.5584256E-10
   17.82000      9.0437036E-10
   17.88000      9.4853081E-10
   17.94000      9.8951536E-10
   18.00000      1.0283925E-09
   18.06000      1.0655603E-09
   18.12000      1.1005281E-09
   18.18000      1.1320458E-09
   18.24000      1.1584886E-09
   18.30000      1.1783231E-09
   18.36000      1.1904691E-09
   18.42000      1.1944303E-09
   18.48000      1.1901603E-09
   18.54000      1.1777267E-09
   18.60000      1.1568964E-09
   18.66000      1.1267710E-09
   18.72000      1.0855830E-09
   18.78000      1.0307271E-09
   18.84000      9.5906671E-10
   18.90000      8.6749757E-10
   18.96000      7.5367085E-10
   19.02000      6.1669037E-10
   19.08000      4.5753962E-10
   19.14000      2.7904029E-10
   19.20000      8.5291628E-11
   19.26000     -1.1924328E-10
   19.32000     -3.3066444E-10
   19.38000     -5.4620375E-10
   19.44000     -7.6421552E-10
   19.50000     -9.8363917E-10
   19.56000     -1.2032367E-09
   19.62000     -1.4210096E-09
   19.68000     -1.6340901E-09
   19.74000     -1.8391578E-09
   19.80000     -2.0331654E-09
   19.86000     -2.2140316E-09
   19.92000     -2.3810041E-09
   19.98000     -2.5345701E-09
   20.04000     -2.6759861E-09
   20.10000     -2.8066143E-09
   20.16000     -2.9272593E-09
   20.22000     -3.0376299E-09
   20.28000     -3.1359935E-09
   20.34000     -3.2190570E-09
   20.40000     -3.2821172E-09
   20.46000     -3.3195180E-09
   20.52000     -3.3253922E-09
   20.58000     -3.2945917E-09
   20.64000     -3.2236205E-09
   20.70000     -3.1113612E-09
   20.76000     -2.9594311E-09
   20.82000     -2.7720914E-09
   20.88000     -2.5557407E-09
   20.94000     -2.3181055E-09
   21.00000     -2.0672954E-09
   21.06000     -1.8109270E-09
   21.12000     -1.5555106E-09
   21.18000     -1.3062338E-09
   21.24000     -1.0671430E-09
   21.30000     -8.4155533E-10
   21.36000     -6.3239824E-10
   21.42000     -4.4217616E-10
   21.48000     -2.7243882E-10
   21.54000     -1.2291954E-10
   21.60000      9.2170455E-12
   21.66000      1.2950382E-10
   21.72000      2.4535729E-10
   21.78000      3.6441103E-10
   21.84000      4.9251764E-10
   21.90000      6.3217176E-10
   21.96000      7.8201218E-10
   22.02000      9.3766628E-10
   22.08000      1.0936748E-09
   22.14000      1.2458162E-09
   22.20000      1.3929914E-09
   22.26000      1.5379924E-09
   22.32000      1.6868734E-09
   22.38000      1.8471195E-09
   22.44000      2.0252191E-09
   22.50000      2.2244580E-09
   22.56000      2.4437046E-09
   22.62000      2.6776421E-09
   22.68000      2.9184146E-09
   22.74000      3.1581195E-09
   22.80000      3.3912304E-09
   22.86000      3.6159939E-09
   22.92000      3.8342294E-09
   22.98000      4.0495838E-09
   23.04000      4.2649519E-09
   23.10000      4.4801380E-09
   23.16000      4.6907549E-09
   23.22000      4.8888338E-09
   23.28000      5.0649271E-09
   23.34000      5.2108806E-09
   23.40000      5.3222218E-09
   23.46000      5.3992988E-09
   23.52000      5.4468039E-09
   23.58000      5.4718949E-09
   23.64000      5.4815983E-09
   23.70000      5.4803930E-09
   23.76000      5.4687739E-09
   23.82000      5.4432792E-09
   23.88000      5.3979750E-09
   23.94000      5.3268834E-09
   24.00000      5.2264819E-09
   24.06000      5.0973394E-09
   24.12000      4.9442477E-09
   24.18000      4.7747930E-09
   24.24000      4.5969544E-09
   24.30000      4.4167341E-09
   24.36000      4.2367860E-09
   24.42000      4.0565613E-09
   24.48000      3.8737977E-09
   24.54000      3.6865995E-09
   24.60000      3.4951892E-09
   24.66000      3.3026244E-09
   24.72000      3.1143237E-09
   24.78000      2.9367462E-09
   24.84000      2.7758296E-09
   24.90000      2.6357589E-09
   24.96000      2.5183815E-09
   25.02000      2.4232862E-09
   25.08000      2.3483833E-09
   25.14000      2.2907285E-09
   25.20000      2.2473463E-09
   25.26000      2.2158295E-09
   25.32000      2.1945523E-09
   25.38000      2.1824536E-09
   25.44000      2.1785069E-09
   25.50000      2.1811633E-09
   25.56000      2.1880824E-09
   25.62000      2.1963431E-09
   25.68000      2.2030497E-09
   25.74000      2.2060127E-09
   25.80000      2.2041182E-09
   25.86000      2.1971767E-09
   25.92000      2.1853661E-09
   25.98000      2.1686419E-09
   26.04000      2.1464983E-09
   26.10000      2.1182387E-09
   26.16000      2.0835613E-09
   26.22000      2.0430453E-09
   26.28000      1.9981670E-09
   26.34000      1.9507591E-09
   26.40000      1.9021718E-09
   26.46000      1.8525843E-09
   26.52000      1.8008471E-09
   26.58000      1.7449682E-09
   26.64000      1.6830591E-09
   26.70000      1.6143940E-09
   26.76000      1.5402317E-09
   26.82000      1.4641848E-09
   26.88000      1.3920392E-09
   26.94000      1.3310300E-09
   27.00000      1.2886512E-09
   27.06000      1.2711834E-09
   27.12000      1.2822755E-09
   27.18000      1.3220052E-09
   27.24000      1.3867910E-09
   27.30000      1.4702669E-09
   27.36000      1.5648535E-09
   27.42000      1.6634569E-09
   27.48000      1.7606726E-09
   27.54000      1.8531164E-09
   27.60000      1.9389239E-09
   27.66000      2.0168260E-09
   27.72000      2.0853383E-09
   27.78000      2.1424309E-09
   27.84000      2.1857423E-09
   27.90000      2.2131159E-09
   27.96000      2.2231366E-09
   28.02000      2.2154385E-09
   28.08000      2.1907220E-09
   28.14000      2.1505475E-09
   28.20000      2.0970141E-09
   28.26000      2.0323960E-09
   28.32000      1.9587907E-09
   28.38000      1.8778394E-09
   28.44000      1.7906149E-09
   28.50000      1.6977313E-09
   28.56000      1.5996540E-09
   28.62000      1.4970483E-09
   28.68000      1.3909677E-09
   28.74000      1.2827481E-09
   28.80000      1.1736520E-09
   28.86000      1.0644783E-09
   28.92000      9.5539399E-10
   28.98000      8.4612062E-10
   29.04000      7.3639950E-10
   29.10000      6.2648381E-10
   29.16000      5.1738852E-10
   29.22000      4.1077056E-10
   29.28000      3.0851557E-10
   29.34000      2.1224654E-10
   29.40000      1.2297074E-10
   29.46000      4.0967767E-11
   29.52000     -3.4106717E-11
   29.58000     -1.0299528E-10
   29.64000     -1.6657201E-10
   29.70000     -2.2557539E-10
   29.76000     -2.8037656E-10
   29.82000     -3.3085557E-10
   29.88000     -3.7649384E-10
   29.94000     -4.1674758E-10
   30.00000     -4.5163545E-10
   30.06000     -4.8231669E-10
   30.12000     -5.1136306E-10
   30.18000     -5.4251625E-10
   30.24000     -5.7994842E-10
   30.30000     -6.2728828E-10
   30.36000     -6.8679795E-10
   30.42000     -7.5901030E-10
   30.48000     -8.4291579E-10
   30.54000     -9.3654495E-10
   30.60000     -1.0376694E-09
   30.66000     -1.1443696E-09
   30.72000     -1.2553611E-09
   30.78000     -1.3700968E-09
   30.84000     -1.4887154E-09
   30.90000     -1.6118725E-09
   30.96000     -1.7404453E-09
   31.02000     -1.8751125E-09
   31.08000     -2.0158897E-09
   31.14000     -2.1617865E-09
   31.20000     -2.3107665E-09
   31.26000     -2.4600801E-09
   31.32000     -2.6068552E-09
   31.38000     -2.7486717E-09
   31.44000     -2.8838152E-09
   31.50000     -3.0110503E-09
   31.56000     -3.1290008E-09
   31.62000     -3.2354619E-09
   31.68000     -3.3270517E-09
   31.74000     -3.3995116E-09
   31.80000     -3.4486742E-09
   31.86000     -3.4718137E-09
   31.92000     -3.4688663E-09
   31.98000     -3.4429912E-09
   32.04000     -3.4001524E-09
   32.10000     -3.3477612E-09
   32.16000     -3.2927794E-09
   32.22000     -3.2399272E-09
   32.28000     -3.1906062E-09
   32.34000     -3.1428944E-09
   32.40000     -3.0925689E-09
   32.46000     -3.0347229E-09
   32.52000     -2.9653706E-09
   32.58000     -2.8824876E-09
   32.64000     -2.7862144E-09
   32.70000     -2.6783009E-09
   32.76000     -2.5611291E-09
   32.82000     -2.4367306E-09
   32.88000     -2.3061235E-09
   32.94000     -2.1690931E-09
   33.00000     -2.0243587E-09
   33.06000     -1.8699682E-09
   33.12000     -1.7037521E-09
   33.18000     -1.5237219E-09
   33.24000     -1.3283620E-09
   33.30000     -1.1168094E-09
   33.36000     -8.8893776E-10
   33.42000     -6.4535960E-10
   33.48000     -3.8735457E-10
   33.54000     -1.1671421E-10
   33.60000      1.6450778E-10
   33.66000      4.5433532E-10
   33.72000      7.5124595E-10
   33.78000      1.0544727E-09
   33.84000      1.3640918E-09
   33.90000      1.6807966E-09
   33.96000      2.0053750E-09
   34.02000      2.3380433E-09
   34.08000      2.6778759E-09
   34.14000      3.0225460E-09
   34.20000      3.3684517E-09
   34.26000      3.7111387E-09
   34.32000      4.0458281E-09
   34.38000      4.3678736E-09
   34.44000      4.6730979E-09
   34.50000      4.9580371E-09
   34.56000      5.2201603E-09
   34.62000      5.4580123E-09
   34.68000      5.6711715E-09
   34.74000      5.8598939E-09
   34.80000      6.0244907E-09
   34.86000      6.1647096E-09
   34.92000      6.2794867E-09
   34.98000      6.3673320E-09
   35.04000      6.4272538E-09
   35.10000      6.4597621E-09
   35.16000      6.4673293E-09
   35.22000      6.4538939E-09
   35.28000      6.4234889E-09
   35.34000      6.3786056E-09
   35.40000      6.3191079E-09
   35.46000      6.2423062E-09
   35.52000      6.1442127E-09
   35.58000      6.0214065E-09
   35.64000      5.8726424E-09
   35.70000      5.6994849E-09
   35.76000      5.5057425E-09
   35.82000      5.2960405E-09
   35.88000      5.0741846E-09
   35.94000      4.8419571E-09
   36.00000      4.5987103E-09
   36.06000      4.3417892E-09
   36.12000      4.0675610E-09
   36.18000      3.7727523E-09
   36.24000      3.4557397E-09
   36.30000      3.1174676E-09
   36.36000      2.7616793E-09
   36.42000      2.3942739E-09
   36.48000      2.0218653E-09
   36.54000      1.6499686E-09
   36.60000      1.2814929E-09
   36.66000      9.1621105E-10
   36.72000      5.5151528E-10
   36.78000      1.8422176E-10
   36.84000     -1.8729840E-10
   36.90000     -5.6153904E-10
   36.96000     -9.3344843E-10
   37.02000     -1.2952832E-09
   37.08000     -1.6383097E-09
   37.14000     -1.9546829E-09
   37.20000     -2.2389117E-09
   37.26000     -2.4886089E-09
   37.32000     -2.7045230E-09
   37.38000     -2.8900105E-09
   37.44000     -3.0501290E-09
   37.50000     -3.1905028E-09
   37.56000     -3.3161549E-09
   37.62000     -3.4305729E-09
   37.68000     -3.5353263E-09
   37.74000     -3.6304180E-09
   37.80000     -3.7152763E-09
   37.86000     -3.7899590E-09
   37.92000     -3.8559742E-09
   37.98000     -3.9162571E-09
   38.04000     -3.9742267E-09
   38.10000     -4.0323189E-09
   38.16000     -4.0906571E-09
   38.22000     -4.1464889E-09
   38.28000     -4.1946731E-09
   38.34000     -4.2290549E-09
   38.40000     -4.2442414E-09
   38.46000     -4.2371702E-09
   38.52000     -4.2080108E-09
   38.58000     -4.1601624E-09
   38.64000     -4.0993609E-09
   38.70000     -4.0321040E-09
   38.76000     -3.9637671E-09
   38.82000     -3.8968890E-09
   38.88000     -3.8301482E-09
   38.94000     -3.7584384E-09
   39.00000     -3.6741445E-09
   39.06000     -3.5693037E-09
   39.12000     -3.4379786E-09
   39.18000     -3.2780205E-09
   39.24000     -3.0916210E-09
   39.30000     -2.8845102E-09
   39.36000     -2.6641767E-09
   39.42000     -2.4378066E-09
   39.48000     -2.2106650E-09
   39.54000     -1.9853661E-09
   39.60000     -1.7621037E-09
   39.66000     -1.5396056E-09
   39.72000     -1.3164118E-09
   39.78000     -1.0920803E-09
   39.84000     -8.6798341E-10
   39.90000     -6.4745653E-10
   39.96000     -4.3519577E-10
   40.02000     -2.3599536E-10
   40.08000     -5.3179600E-11
   40.14000      1.1270444E-10
   40.20000      2.6433919E-10
   40.26000      4.0689160E-10
   40.32000      5.4619875E-10
   40.38000      6.8650391E-10
   40.44000      8.2861623E-10
   40.50000      9.6923947E-10
   40.56000      1.1017411E-09
   40.62000      1.2180579E-09
   40.68000      1.3110135E-09
   40.74000      1.3762584E-09
   40.80000      1.4132829E-09
   40.86000      1.4253545E-09
   40.92000      1.4185636E-09
   40.98000      1.4003345E-09
   41.04000      1.3777726E-09
   41.10000      1.3561878E-09
   41.16000      1.3380894E-09
   41.22000      1.3229096E-09
   41.28000      1.3075783E-09
   41.34000      1.2878218E-09
   41.40000      1.2597663E-09
   41.46000      1.2212422E-09
   41.52000      1.1722600E-09
   41.58000      1.1144694E-09
   41.64000      1.0498884E-09
   41.70000      9.7952713E-10
   41.76000      9.0256513E-10
   41.82000      8.1644780E-10
   41.88000      7.1781420E-10
   41.94000      6.0380362E-10
   42.00000      4.7319459E-10
   42.06000      3.2699976E-10
   42.12000      1.6843085E-10
   42.18000      2.3838880E-12
   42.24000     -1.6533672E-10
   42.30000     -3.2888145E-10
   42.36000     -4.8319621E-10
   42.42000     -6.2472505E-10
   42.48000     -7.5181178E-10
   42.54000     -8.6463126E-10
   42.60000     -9.6460218E-10
   42.66000     -1.0534552E-09
   42.72000     -1.1323287E-09
   42.78000     -1.2013006E-09
   42.84000     -1.2595748E-09
   42.90000     -1.3062178E-09
   42.96000     -1.3410735E-09
   43.02000     -1.3654065E-09
   43.08000     -1.3820036E-09
   43.14000     -1.3947378E-09
   43.20000     -1.4078271E-09
   43.26000     -1.4250693E-09
   43.32000     -1.4492224E-09
   43.38000     -1.4815638E-09
   43.44000     -1.5216106E-09
   43.50000     -1.5670614E-09
   43.56000     -1.6141056E-09
   43.62000     -1.6582417E-09
   43.68000     -1.6955528E-09
   43.74000     -1.7241079E-09
   43.80000     -1.7449364E-09
   43.86000     -1.7620512E-09
   43.92000     -1.7812878E-09
   43.98000     -1.8082013E-09
   44.04000     -1.8456702E-09
   44.10000     -1.8920494E-09
   44.16000     -1.9405768E-09
   44.22000     -1.9803594E-09
   44.28000     -1.9987656E-09
   44.34000     -1.9846043E-09
   44.40000     -1.9311932E-09
   44.46000     -1.8383927E-09
   44.52000     -1.7129030E-09
   44.58000     -1.5666161E-09
   44.64000     -1.4134038E-09
   44.70000     -1.2652943E-09
   44.76000     -1.1292606E-09
   44.82000     -1.0057117E-09
   44.88000     -8.8919938E-10
   44.94000     -7.7105655E-10
   45.00000     -6.4298161E-10
   45.06000     -5.0026688E-10
   45.12000     -3.4356704E-10
   45.18000     -1.7870358E-10
   45.24000     -1.4725802E-11
   45.30000      1.3899722E-10
   45.36000      2.7566766E-10
   45.42000      3.9307660E-10
   45.48000      4.9424126E-10
   45.54000      5.8656435E-10
   45.60000      6.7979145E-10
   45.66000      7.8333412E-10
   45.72000      9.0369973E-10
   45.78000      1.0427894E-09
   45.84000      1.1976172E-09
   45.90000      1.3615941E-09
   45.96000      1.5269834E-09
   46.02000      1.6877081E-09
   46.08000      1.8415247E-09
   46.14000      1.9908171E-09
   46.20000      2.1417725E-09
   46.26000      2.3022819E-09
   46.32000      2.4793203E-09
   46.38000      2.6766411E-09
   46.44000      2.8934346E-09
   46.50000      3.1242309E-09
   46.56000      3.3599978E-09
   46.62000      3.5901040E-09
   46.68000      3.8046624E-09
   46.74000      3.9966639E-09
   46.80000      4.1632924E-09
   46.86000      4.3059720E-09
   46.92000      4.4290012E-09
   46.98000      4.5371409E-09
   47.04000      4.6329447E-09
   47.10000      4.7148561E-09
   47.16000      4.7768736E-09
   47.22000      4.8100319E-09
   47.28000      4.8052025E-09
   47.34000      4.7561812E-09
   47.40000      4.6619077E-09
   47.46000      4.5270117E-09
   47.52000      4.3605537E-09
   47.58000      4.1734882E-09
   47.64000      3.9757899E-09
   47.70000      3.7741770E-09
   47.76000      3.5710594E-09
   47.82000      3.3648437E-09
   47.88000      3.1513023E-09
   47.94000      2.9254514E-09
   48.00000      2.6833482E-09
   48.06000      2.4233575E-09
   48.12000      2.1466744E-09
   48.18000      1.8571261E-09
   48.24000      1.5604549E-09
   48.30000      1.2633543E-09
   48.36000      9.7250319E-10
   48.42000      6.9376094E-10
   48.48000      4.3159543E-10
   48.54000      1.8877171E-10
   48.60000     -3.3680711E-11
   48.66000     -2.3620256E-10
   48.72000     -4.2015472E-10
   48.78000     -5.8707816E-10
   48.84000     -7.3794670E-10
   48.90000     -8.7263818E-10
   48.96000     -9.8979425E-10
   49.02000     -1.0871044E-09
   49.08000     -1.1618881E-09
   49.14000     -1.2117555E-09
   49.20000     -1.2351229E-09
   49.26000     -1.2314536E-09
   49.32000     -1.2012025E-09
   49.38000     -1.1455282E-09
   49.44000     -1.0658797E-09
   49.50000     -9.6356334E-10
   49.56000     -8.3941371E-10
   49.62000     -6.9368816E-10
   49.68000     -5.2626364E-10
   49.74000     -3.3711417E-10
   49.80000     -1.2689463E-10
   49.86000      1.0265760E-10
   49.92000      3.4878006E-10
   49.98000      6.0830779E-10
   50.04000      8.7869345E-10
   50.10000      1.1590215E-09
   50.16000      1.4505542E-09
   50.22000      1.7565148E-09
   50.28000      2.0811335E-09
   50.34000      2.4282967E-09
   50.40000      2.8002936E-09
   50.46000      3.1970957E-09
   50.52000      3.6163810E-09
   50.58000      4.0542454E-09
   50.64000      4.5063673E-09
   50.70000      4.9693067E-09
   50.76000      5.4416582E-09
   50.82000      5.9248193E-09
   50.88000      6.4232006E-09
   50.94000      6.9437820E-09
   51.00000      7.4950135E-09
   51.06000      8.0852480E-09
   51.12000      8.7210488E-09
   51.18000      9.4058175E-09
   51.24000      1.0139173E-08
   51.30000      1.0917321E-08
   51.36000      1.1734363E-08
   51.42000      1.2584182E-08
   51.48000      1.3462354E-08
   51.54000      1.4367486E-08
   51.60000      1.5301493E-08
   51.66000      1.6268693E-08
   51.72000      1.7273868E-08
   51.78000      1.8319831E-08
   51.84000      1.9405181E-08
   51.90000      2.0522943E-08
   51.96000      2.1660520E-08
   52.02000      2.2801011E-08
   52.08000      2.3925464E-08
   52.14000      2.5015281E-08
   52.20000      2.6053872E-08
   52.26000      2.7026891E-08
   52.32000      2.7920848E-08
   52.38000      2.8720557E-08
   52.44000      2.9406316E-08
   52.50000      2.9951888E-08
   52.56000      3.0324017E-08
   52.62000      3.0483687E-08
   52.68000      3.0388520E-08
   52.74000      2.9995373E-08
   52.80000      2.9262170E-08
   52.86000      2.8148333E-08
   52.92000      2.6613932E-08
   52.98000      2.4618172E-08
   53.04000      2.2118012E-08
   53.10000      1.9067661E-08
   53.16000      1.5419161E-08
   53.22000      1.1123918E-08
   53.28000      6.1346657E-09
   53.34000      4.0738588E-10
   53.40000     -6.0972494E-09
   53.46000     -1.3413107E-08
   53.52000     -2.1568464E-08
   53.58000     -3.0586403E-08
   53.64000     -4.0485379E-08
   53.70000     -5.1279557E-08
   53.76000     -6.2978565E-08
   53.82000     -7.5586428E-08
   53.88000     -8.9099814E-08
   53.94000     -1.0350601E-07
   54.00000     -1.1878125E-07
   54.06000     -1.3488985E-07
   54.12000     -1.5178409E-07
   54.18000     -1.6940504E-07
   54.24000     -1.8768313E-07
   54.30000     -2.0653866E-07
   54.36000     -2.2588192E-07
   54.42000     -2.4561308E-07
   54.48000     -2.6562245E-07
   54.54000     -2.8579132E-07
   54.60000     -3.0599344E-07
   54.66000     -3.2609623E-07
   54.72000     -3.4596218E-07
   54.78000     -3.6544887E-07
   54.84000     -3.8440899E-07
   54.90000     -4.0268984E-07
   54.96000     -4.2013380E-07
   55.02000     -4.3657954E-07
   55.08000     -4.5186465E-07
   55.14000     -4.6582849E-07
   55.20000     -4.7831554E-07
   55.26000     -4.8917775E-07
   55.32000     -4.9827605E-07
   55.38000     -5.0548061E-07
   55.44000     -5.1067076E-07
   55.50000     -5.1373485E-07
   55.56000     -5.1457044E-07