  -2.400000      0.0000000E+00
  -2.340000      0.0000000E+00
  -2.280000      0.0000000E+00
  -2.220000      0.0000000E+00
  -2.160000      2.1502676E-18
  -2.100000      1.4133013E-17
  -2.040000      4.7633722E-17
  -1.980000      1.0639462E-16
  -1.920000      1.6717618E-16
  -1.860000      1.6697332E-16
  -1.800000      1.1375868E-17
  -1.740000     -3.9024640E-16
  -1.680000     -1.0696210E-15
  -1.620000     -1.9388451E-15
  -1.560000     -2.7413048E-15
  -1.500000     -3.0385833E-15
  -1.440000     -2.2717690E-15
  -1.380000      5.9684820E-17
  -1.320000      4.0928751E-15
  -1.260000      9.2501021E-15
  -1.200000      1.4032372E-14
  -1.140000      1.6200530E-14
  -1.080000      1.3489340E-14
  -1.020000      4.7295198E-15
 -0.9600000     -9.0907777E-15
 -0.9000000     -2.4498654E-14
 -0.8400000     -3.6462420E-14
 -0.7800000     -4.0503428E-14
 -0.7200000     -3.5110430E-14
 -0.6600000     -2.2992886E-14
 -0.6000000     -9.8878010E-15
 -0.5400000     -8.0164225E-16
 -0.4800000      4.6404463E-15
 -0.4200000      1.4637393E-14
 -0.3600000      4.2467264E-14
 -0.3000000      9.7876934E-14
 -0.2400000      1.7578398E-13
 -0.1800000      2.4888422E-13
 -0.1200000      2.7120236E-13
 -5.9999999E-02  1.9556259E-13
  0.0000000E+00  3.0588790E-16
  5.9999999E-02 -2.8702941E-13
  0.1200000     -5.8404773E-13
  0.1800000     -7.7532349E-13
  0.2400000     -7.5832759E-13
  0.3000000     -4.9555184E-13
  0.3600000     -4.6922264E-14
  0.4200000      4.3871102E-13
  0.4800000      7.7680391E-13
  0.5400000      8.2613164E-13
  0.6000000      5.5832736E-13
  0.6600000      8.2690514E-14
  0.7200000     -3.9058175E-13
  0.7800000     -6.3660589E-13
  0.8400000     -5.1415068E-13
  0.9000000     -3.0872365E-14
  0.9600000      6.5539956E-13
   1.020000      1.2999839E-12
   1.080000      1.6690500E-12
   1.140000      1.6256526E-12
   1.200000      1.1655212E-12
   1.260000      3.9101548E-13
   1.320000     -5.5564619E-13
   1.380000     -1.5572242E-12
   1.440000     -2.5427171E-12
   1.500000     -3.4473542E-12
   1.560000     -4.1293999E-12
   1.620000     -4.2919869E-12
   1.680000     -3.4667165E-12
   1.740000     -1.0958106E-12
   1.800000      3.2928595E-12
   1.860000      9.8711560E-12
   1.920000      1.8340451E-11
   1.980000      2.7886740E-11
   2.040000      3.7301856E-11
   2.100000      4.5248458E-11
   2.160000      5.0586629E-11
   2.220000      5.2651709E-11
   2.280000      5.1390912E-11
   2.340000      4.7324880E-11
   2.400000      4.1372274E-11
   2.460000      3.4626808E-11
   2.520000      2.8181161E-11
   2.580000      2.3049892E-11
   2.640000      2.0176425E-11
   2.700000      2.0454725E-11
   2.760000      2.4684527E-11
   2.820000      3.3417991E-11
   2.880000      4.6724905E-11
   2.940000      6.3966686E-11
   3.000000      8.3691741E-11
   3.060000      1.0373224E-10
   3.120000      1.2150937E-10
   3.180000      1.3447310E-10
   3.240000      1.4055065E-10
   3.300000      1.3847580E-10
   3.360000      1.2791740E-10
   3.420000      1.0939668E-10
   3.480000      8.4049510E-11
   3.540000      5.3325497E-11
   3.600000      1.8714474E-11
   3.660000     -1.8441037E-11
   3.720000     -5.7031550E-11
   3.780000     -9.6183221E-11
   3.840000     -1.3521161E-10
   3.900000     -1.7355813E-10
   3.960000     -2.1072885E-10
   4.020000     -2.4624511E-10
   4.080000     -2.7961347E-10
   4.140000     -3.1032402E-10
   4.200000     -3.3788483E-10
   4.260000     -3.6188938E-10
   4.320000     -3.8209194E-10
   4.380000     -3.9845102E-10
   4.440000     -4.1109996E-10
   4.500000     -4.2022913E-10
   4.560000     -4.2590564E-10
   4.620000     -4.2789086E-10
   4.680000     -4.2552339E-10
   4.740000     -4.1770318E-10
   4.800000     -4.0296025E-10
   4.860000     -3.7954451E-10
   4.920000     -3.4547143E-10
   4.980000     -2.9849939E-10
   5.040000     -2.3608254E-10
   5.100000     -1.5539509E-10
   5.160000     -5.3516667E-11
   5.220000      7.2194646E-11
   5.280000      2.2360690E-10
   5.340000      4.0132880E-10
   5.400000      6.0436806E-10
   5.460000      8.3000246E-10
   5.520000      1.0738394E-09
   5.580000      1.3299761E-09
   5.640000      1.5911760E-09
   5.700000      1.8490396E-09
   5.760000      2.0942286E-09
   5.820000      2.3168343E-09
   5.880000      2.5069467E-09
   5.940000      2.6553881E-09
   6.000000      2.7544764E-09
   6.060000      2.7986462E-09
   6.120000      2.7848039E-09
   6.180000      2.7123805E-09
   6.240000      2.5831521E-09
   6.300000      2.4009381E-09
   6.360000      2.1712665E-09
   6.420000      1.9010162E-09
   6.480000      1.5980013E-09
   6.540000      1.2704428E-09
   6.600000      9.2633973E-10
   6.660000      5.7282640E-10
   6.720000      2.1566414E-10
   6.780000     -1.4098901E-10
   6.840000     -4.9446452E-10
   6.900000     -8.4317042E-10
   6.960000     -1.1860246E-09
   7.020000     -1.5219215E-09
   7.080000     -1.8493947E-09
   7.140000     -2.1665496E-09
   7.200000     -2.4712437E-09
   7.260000     -2.7614044E-09
   7.320000     -3.0353564E-09
   7.380000     -3.2920355E-09
   7.440000     -3.5310543E-09
   7.500000     -3.7526386E-09
   7.560000     -3.9575134E-09
   7.620000     -4.1468229E-09
   7.680000     -4.3221222E-09
   7.740000     -4.4854214E-09
   7.800000     -4.6392032E-09
   7.860000     -4.7863256E-09
   7.920000     -4.9297553E-09
   7.980000     -5.0721543E-09
   8.040000     -5.2154201E-09
   8.100000     -5.3603157E-09
   8.160000     -5.5063309E-09
   8.220000     -5.6518297E-09
   8.280000     -5.7944747E-09
   8.340000     -5.9318164E-09
   8.400000     -6.0618905E-09
   8.460000     -6.1836634E-09
   8.520000     -6.2971930E-09
   8.580000     -6.4034591E-09
   8.640000     -6.5039054E-09
   8.700000     -6.5998318E-09
   8.760000     -6.6918493E-09
   8.820000     -6.7796204E-09
   8.880000     -6.8620327E-09
   8.940000     -6.9378072E-09
   9.000000     -7.0063741E-09
   9.060000     -7.0687132E-09
   9.120000     -7.1278117E-09
   9.180000     -7.1885200E-09
   9.240000     -7.2567676E-09
   9.300000     -7.3383633E-09
   9.360000     -7.4377664E-09
   9.420000     -7.5572490E-09
   9.480000     -7.6967286E-09
   9.540000     -7.8543350E-09
   9.600000     -8.0274960E-09
   9.660000     -8.2141591E-09
   9.720000     -8.4137302E-09
   9.780000     -8.6274188E-09
   9.840000     -8.8579073E-09
   9.900000     -9.1084846E-09
   9.960000     -9.3819832E-09
   10.02000     -9.6798907E-09
   10.08000     -1.0001911E-08
   10.14000     -1.0346060E-08
   10.20000     -1.0709174E-08
   10.26000     -1.1087549E-08
   10.32000     -1.1477434E-08
   10.38000     -1.1875226E-08
   10.44000     -1.2277398E-08
   10.50000     -1.2680338E-08
   10.56000     -1.3080358E-08
   10.62000     -1.3473998E-08
   10.68000     -1.3858610E-08
   10.74000     -1.4233038E-08
   10.80000     -1.4598137E-08
   10.86000     -1.4956898E-08
   10.92000     -1.5314098E-08
   10.98000     -1.5675466E-08
   11.04000     -1.6046510E-08
   11.10000     -1.6431116E-08
   11.16000     -1.6830167E-08
   11.22000     -1.7240378E-08
   11.28000     -1.7653678E-08
   11.34000     -1.8057479E-08
   11.40000     -1.8435941E-08
   11.46000     -1.8772150E-08
   11.52000     -1.9050704E-08
   11.58000     -1.9260073E-08
   11.64000     -1.9394001E-08
   11.70000     -1.9451706E-08
   11.76000     -1.9436914E-08
   11.82000     -1.9356367E-08
   11.88000     -1.9218426E-08
   11.94000     -1.9032296E-08
   12.00000     -1.8807944E-08
   12.06000     -1.8556358E-08
   12.12000     -1.8289652E-08
   12.18000     -1.8020550E-08
   12.24000     -1.7761232E-08
   12.30000     -1.7521767E-08
   12.36000     -1.7308617E-08
   12.42000     -1.7123677E-08
   12.48000     -1.6964092E-08
   12.54000     -1.6822908E-08
   12.60000     -1.6690411E-08
   12.66000     -1.6555944E-08
   12.72000     -1.6409867E-08
   12.78000     -1.6245385E-08
   12.84000     -1.6059827E-08
   12.90000     -1.5855068E-08
   12.96000     -1.5636914E-08
   13.02000     -1.5413550E-08
   13.08000     -1.5193390E-08
   13.14000     -1.4982874E-08
   13.20000     -1.4784687E-08
   13.26000     -1.4596758E-08
   13.32000     -1.4412132E-08
   13.38000     -1.4219680E-08
   13.44000     -1.4005488E-08
   13.50000     -1.3754780E-08
   13.56000     -1.3454097E-08
   13.62000     -1.3093417E-08
   13.68000     -1.2667765E-08
   13.74000     -1.2177892E-08
   13.80000     -1.1629849E-08
   13.86000     -1.1033639E-08
   13.92000     -1.0401425E-08
   13.98000     -9.7459516E-09
   14.04000     -9.0796224E-09
   14.10000     -8.4142515E-09
   14.16000     -7.7612130E-09
   14.22000     -7.1314412E-09
   14.28000     -6.5349646E-09
   14.34000     -5.9799632E-09
   14.40000     -5.4717155E-09
   14.46000     -5.0119158E-09
   14.52000     -4.5987036E-09
   14.58000     -4.2274162E-09
   14.64000     -3.8917651E-09
   14.70000     -3.5849952E-09
   14.76000     -3.3006728E-09
   14.82000     -3.0329865E-09
   14.88000     -2.7766514E-09
   14.94000     -2.5266551E-09
   15.00000     -2.2780613E-09
   15.06000     -2.0259967E-09
   15.12000     -1.7658315E-09
   15.18000     -1.4934612E-09
   15.24000     -1.2055507E-09
   15.30000     -8.9959123E-10
   15.36000     -5.7367838E-10
   15.42000     -2.2602480E-10
   15.48000      1.4563697E-10
   15.54000      5.4450100E-10
   15.60000      9.7471498E-10
   15.66000      1.4408477E-09
   15.72000      1.9468740E-09
   15.78000      2.4949807E-09
   15.84000      3.0846039E-09
   15.90000      3.7120795E-09
   15.96000      4.3710995E-09
   16.02000      5.0539475E-09
   16.08000      5.7532490E-09
   16.14000      6.4638113E-09
   16.20000      7.1840049E-09
   16.26000      7.9161655E-09
   16.32000      8.6656291E-09
   16.38000      9.4383994E-09
   16.44000      1.0237946E-08
   16.50000      1.1062175E-08
   16.56000      1.1901773E-08
   16.62000      1.2740864E-08
   16.68000      1.3560113E-08
   16.74000      1.4341349E-08
   16.80000      1.5072068E-08
   16.86000      1.5748004E-08
   16.92000      1.6372718E-08
   16.98000      1.6954344E-08
   17.04000      1.7500872E-08
   17.10000      1.8015919E-08
   17.16000      1.8496751E-08
   17.22000      1.8935294E-08
   17.28000      1.9321748E-08
   17.34000      1.9649356E-08
   17.40000      1.9918602E-08
   17.46000      2.0139332E-08
   17.52000      2.0330067E-08
   17.58000      2.0514564E-08
   17.64000      2.0716556E-08
   17.70000      2.0954056E-08
   17.76000      2.1234861E-08
   17.82000      2.1554586E-08
   17.88000      2.1898018E-08
   17.94000      2.2243469E-08
   18.00000      2.2568848E-08
   18.06000      2.2857419E-08
   18.12000      2.3101233E-08
   18.18000      2.3300943E-08
   18.24000      2.3462045E-08
   18.30000      2.3588957E-08
   18.36000      2.3679288E-08
   18.42000      2.3720611E-08
   18.48000      2.3691207E-08
   18.54000      2.3564793E-08
   18.60000      2.3317753E-08
   18.66000      2.2936398E-08
   18.72000      2.2421574E-08
   18.78000      2.1788804E-08
   18.84000      2.1063586E-08
   18.90000      2.0273189E-08
   18.96000      1.9437564E-08
   19.02000      1.8562533E-08
   19.08000      1.7637577E-08
   19.14000      1.6639056E-08
   19.20000      1.5537710E-08
   19.26000      1.4307821E-08
   19.32000      1.2934907E-08
   19.38000      1.1419542E-08
   19.44000      9.7764072E-09
   19.50000      8.0294145E-09
   19.56000      6.2048793E-09
   19.62000      4.3251207E-09
   19.68000      2.4043740E-09
   19.74000      4.4799317E-10
   19.80000     -1.5450785E-09
   19.86000     -3.5774210E-09
   19.92000     -5.6472809E-09
   19.98000     -7.7434885E-09
   20.04000     -9.8428652E-09
   20.10000     -1.1911288E-08
   20.16000     -1.3908572E-08
   20.22000     -1.5796012E-08
   20.28000     -1.7544309E-08
   20.34000     -1.9139256E-08
   20.40000     -2.0583210E-08
   20.46000     -2.1891886E-08
   20.52000     -2.3087740E-08
   20.58000     -2.4192417E-08
   20.64000     -2.5220912E-08
   20.70000     -2.6179189E-08
   20.76000     -2.7065580E-08
   20.82000     -2.7874902E-08
   20.88000     -2.8603473E-08
   20.94000     -2.9253203E-08
   21.00000     -2.9833377E-08
   21.06000     -3.0359658E-08
   21.12000     -3.0850501E-08
   21.18000     -3.1321981E-08
   21.24000     -3.1782513E-08
   21.30000     -3.2229117E-08
   21.36000     -3.2646767E-08
   21.42000     -3.3011368E-08
   21.48000     -3.3295876E-08
   21.54000     -3.3477750E-08
   21.60000     -3.3545298E-08
   21.66000     -3.3500836E-08
   21.72000     -3.3359470E-08
   21.78000     -3.3143959E-08
   21.84000     -3.2877413E-08
   21.90000     -3.2576143E-08
   21.96000     -3.2244788E-08
   22.02000     -3.1874968E-08
   22.08000     -3.1447584E-08
   22.14000     -3.0937809E-08
   22.20000     -3.0321146E-08
   22.26000     -2.9578818E-08
   22.32000     -2.8700935E-08
   22.38000     -2.7686690E-08
   22.44000     -2.6541811E-08
   22.50000     -2.5274478E-08
   22.56000     -2.3891491E-08
   22.62000     -2.2396325E-08
   22.68000     -2.0789878E-08
   22.74000     -1.9073546E-08
   22.80000     -1.7253113E-08
   22.86000     -1.5341662E-08
   22.92000     -1.3360175E-08
   22.98000     -1.1335409E-08
   23.04000     -9.2958237E-09
   23.10000     -7.2669200E-09
   23.16000     -5.2674003E-09
   23.22000     -3.3071612E-09
   23.28000     -1.3875211E-09
   23.34000      4.9640531E-10
   23.40000      2.3516689E-09
   23.46000      4.1826014E-09
   23.52000      5.9862053E-09
   23.58000      7.7490752E-09
   23.64000      9.4468859E-09
   23.70000      1.1046771E-08
   23.76000      1.2511951E-08
   23.82000      1.3807102E-08
   23.88000      1.4902774E-08
   23.94000      1.5777665E-08
   24.00000      1.6418635E-08
   24.06000      1.6819328E-08
   24.12000      1.6978660E-08
   24.18000      1.6900112E-08
   24.24000      1.6591880E-08
   24.30000      1.6067272E-08
   24.36000      1.5344479E-08
   24.42000      1.4445171E-08
   24.48000      1.3392130E-08
   24.54000      1.2206528E-08
   24.60000      1.0905636E-08
   24.66000      9.5014334E-09
   24.72000      8.0002591E-09
   24.78000      6.4033441E-09
   24.84000      4.7081175E-09
   24.90000      2.9100951E-09
   24.96000      1.0050926E-09
   25.02000     -1.0087461E-09
   25.08000     -3.1297820E-09
   25.14000     -5.3530740E-09
   25.20000     -7.6719022E-09
   25.26000     -1.0079905E-08
   25.32000     -1.2572659E-08
   25.38000     -1.5147727E-08
   25.44000     -1.7802840E-08
   25.50000     -2.0532832E-08
   25.56000     -2.3326564E-08
   25.62000     -2.6165027E-08
   25.68000     -2.9021360E-08
   25.74000     -3.1862584E-08
   25.80000     -3.4652384E-08
   25.86000     -3.7354088E-08
   25.92000     -3.9933127E-08
   25.98000     -4.2358661E-08
   26.04000     -4.4604249E-08
   26.10000     -4.6647465E-08
   26.16000     -4.8468582E-08
   26.22000     -5.0048534E-08
   26.28000     -5.1366815E-08
   26.34000     -5.2400139E-08
   26.40000     -5.3122601E-08
   26.46000     -5.3507669E-08
   26.52000     -5.3531565E-08
   26.58000     -5.3177104E-08
   26.64000     -5.2436796E-08
   26.70000     -5.1314213E-08
   26.76000     -4.9823278E-08
   26.82000     -4.7985704E-08
   26.88000     -4.5827150E-08
   26.94000     -4.3373067E-08
   27.00000     -4.0645155E-08
   27.06000     -3.7659387E-08
   27.12000     -3.4426176E-08
   27.18000     -3.0952840E-08
   27.24000     -2.7247788E-08
   27.30000     -2.3325043E-08
   27.36000     -1.9207551E-08
   27.42000     -1.4927945E-08
   27.48000     -1.0526350E-08
   27.54000     -6.0460406E-09
   27.60000     -1.5285804E-09
   27.66000      2.9897171E-09
   27.72000      7.4788300E-09
   27.78000      1.1913480E-08
   27.84000      1.6269960E-08
   27.90000      2.0522899E-08
   27.96000      2.4643377E-08
   28.02000      2.8599242E-08
   28.08000      3.2357573E-08
   28.14000      3.5888569E-08
   28.20000      3.9169606E-08
   28.26000      4.2188180E-08
   28.32000      4.4942613E-08
   28.38000      4.7440164E-08
   28.44000      4.9692719E-08
   28.50000      5.1711368E-08
   28.56000      5.3501470E-08
   28.62000      5.5059814E-08
   28.68000      5.6374947E-08
   28.74000      5.7430405E-08
   28.80000      5.8209814E-08
   28.86000      5.8701893E-08
   28.92000      5.8903790E-08
   28.98000      5.8821641E-08
   29.04000      5.8468423E-08
   29.10000      5.7859889E-08
   29.16000      5.7009974E-08
   29.22000      5.5927053E-08
   29.28000      5.4612165E-08
   29.34000      5.3059733E-08
   29.40000      5.1260706E-08
   29.46000      4.9207333E-08
   29.52000      4.6898144E-08
   29.58000      4.4341618E-08
   29.64000      4.1557179E-08
   29.70000      3.8573035E-08
   29.76000      3.5421436E-08
   29.82000      3.2132945E-08
   29.88000      2.8731586E-08
   29.94000      2.5232401E-08
   30.00000      2.1642146E-08
   30.06000      1.7962577E-08
   30.12000      1.4195252E-08
   30.18000      1.0346317E-08
   30.24000      6.4300436E-09
   30.30000      2.4702680E-09
   30.36000     -1.5006040E-09
   30.42000     -5.4448344E-09
   30.48000     -9.3241459E-09
   30.54000     -1.3104897E-08
   30.60000     -1.6762190E-08
   30.66000     -2.0281632E-08
   30.72000     -2.3658089E-08
   30.78000     -2.6891847E-08
   30.84000     -2.9983532E-08
   30.90000     -3.2929552E-08
   30.96000     -3.5719562E-08
   31.02000     -3.8336569E-08
   31.08000     -4.0759282E-08
   31.14000     -4.2965539E-08
   31.20000     -4.4935828E-08
   31.26000     -4.6655927E-08
   31.32000     -4.8118551E-08
   31.38000     -4.9323813E-08
   31.44000     -5.0278583E-08
   31.50000     -5.0994746E-08
   31.56000     -5.1486399E-08
   31.62000     -5.1766683E-08
   31.68000     -5.1845127E-08
   31.74000     -5.1726630E-08
   31.80000     -5.1412645E-08
   31.86000     -5.0904287E-08
   31.92000     -5.0206186E-08
   31.98000     -4.9329476E-08
   32.04000     -4.8292598E-08
   32.10000     -4.7119517E-08
   32.16000     -4.5835950E-08
   32.22000     -4.4464848E-08
   32.28000     -4.3022602E-08
   32.34000     -4.1517158E-08
   32.40000     -3.9948436E-08
   32.46000     -3.8311125E-08
   32.52000     -3.6599101E-08
   32.58000     -3.4810416E-08
   32.64000     -3.2951434E-08
   32.70000     -3.1038727E-08
   32.76000     -2.9097764E-08
   32.82000     -2.7158437E-08
   32.88000     -2.5248712E-08
   32.94000     -2.3388447E-08
   33.00000     -2.1585782E-08
   33.06000     -1.9837463E-08
   33.12000     -1.8133180E-08
   33.18000     -1.6462280E-08
   33.24000     -1.4820389E-08
   33.30000     -1.3213458E-08
   33.36000     -1.1657822E-08
   33.42000     -1.0176263E-08
   33.48000     -8.7914955E-09
   33.54000     -7.5193460E-09
   33.60000     -6.3639956E-09
   33.66000     -5.3170268E-09
   33.72000     -4.3609076E-09
   33.78000     -3.4760912E-09
   33.84000     -2.6496101E-09
   33.90000     -1.8822373E-09
   33.96000     -1.1914365E-09
   34.02000     -6.0851535E-10
   34.08000     -1.7041718E-10
   34.14000      9.1320201E-11
   34.20000      1.6059254E-10
   34.26000      4.2034244E-11
   34.32000     -2.4046595E-10
   34.38000     -6.5157751E-10
   34.44000     -1.1558231E-09
   34.50000     -1.7282582E-09
   34.56000     -2.3607756E-09
   34.62000     -3.0619915E-09
   34.68000     -3.8510213E-09
   34.74000     -4.7475193E-09
   34.80000     -5.7615201E-09
   34.86000     -6.8865234E-09
   34.92000     -8.0981692E-09
   34.98000     -9.3590335E-09
   35.04000     -1.0628155E-08
   35.10000     -1.1872308E-08
   35.16000     -1.3075337E-08
   35.22000     -1.4242297E-08
   35.28000     -1.5396713E-08
   35.34000     -1.6571621E-08
   35.40000     -1.7797282E-08
   35.46000     -1.9089848E-08
   35.52000     -2.0445025E-08
   35.58000     -2.1839051E-08
   35.64000     -2.3236645E-08
   35.70000     -2.4603013E-08
   35.76000     -2.5915520E-08
   35.82000     -2.7170810E-08
   35.88000     -2.8384829E-08
   35.94000     -2.9585754E-08
   36.00000     -3.0802266E-08
   36.06000     -3.2051208E-08
   36.12000     -3.3328860E-08
   36.18000     -3.4608888E-08
   36.24000     -3.5847805E-08
   36.30000     -3.6996269E-08
   36.36000     -3.8012644E-08
   36.42000     -3.8874131E-08
   36.48000     -3.9581856E-08
   36.54000     -4.0157978E-08
   36.60000     -4.0635854E-08
   36.66000     -4.1046658E-08
   36.72000     -4.1407052E-08
   36.78000     -4.1712102E-08
   36.84000     -4.1935703E-08
   36.90000     -4.2038131E-08
   36.96000     -4.1977891E-08
   37.02000     -4.1723741E-08
   37.08000     -4.1262840E-08
   37.14000     -4.0602401E-08
   37.20000     -3.9764465E-08
   37.26000     -3.8775642E-08
   37.32000     -3.7655415E-08
   37.38000     -3.6407197E-08
   37.44000     -3.5015450E-08
   37.50000     -3.3450348E-08
   37.56000     -3.1678638E-08
   37.62000     -2.9677153E-08
   37.68000     -2.7444036E-08
   37.74000     -2.5003359E-08
   37.80000     -2.2401116E-08
   37.86000     -1.9693656E-08
   37.92000     -1.6932530E-08
   37.98000     -1.4151028E-08
   38.04000     -1.1357129E-08
   38.10000     -8.5351113E-09
   38.16000     -5.6550533E-09
   38.22000     -2.6867233E-09
   38.28000      3.8690118E-10
   38.34000      3.5609253E-09
   38.40000      6.8073378E-09
   38.46000      1.0081565E-08
   38.52000      1.3334585E-08
   38.58000      1.6526677E-08
   38.64000      1.9638284E-08
   38.70000      2.2674264E-08
   38.76000      2.5659915E-08
   38.82000      2.8629787E-08
   38.88000      3.1613126E-08
   38.94000      3.4621007E-08
   39.00000      3.7639918E-08
   39.06000      4.0634255E-08
   39.12000      4.3556813E-08
   39.18000      4.6363471E-08
   39.24000      4.9026564E-08
   39.30000      5.1542234E-08
   39.36000      5.3929288E-08
   39.42000      5.6220344E-08
   39.48000      5.8448535E-08
   39.54000      6.0634498E-08
   39.60000      6.2777737E-08
   39.66000      6.4855044E-08
   39.72000      6.6826111E-08
   39.78000      6.8644646E-08
   39.84000      7.0271426E-08
   39.90000      7.1685399E-08
   39.96000      7.2889257E-08
   40.02000      7.3907522E-08
   40.08000      7.4777653E-08
   40.14000      7.5536946E-08
   40.20000      7.6209510E-08
   40.26000      7.6798010E-08
   40.32000      7.7282877E-08
   40.38000      7.7629153E-08
   40.44000      7.7798411E-08
   40.50000      7.7761086E-08
   40.56000      7.7505206E-08
   40.62000      7.7038486E-08
   40.68000      7.6383991E-08
   40.74000      7.5571322E-08
   40.80000      7.4626875E-08
   40.86000      7.3566397E-08
   40.92000      7.2392112E-08
   40.98000      7.1094739E-08
   41.04000      6.9659507E-08
   41.10000      6.8073760E-08
   41.16000      6.6333776E-08
   41.22000      6.4448393E-08
   41.28000      6.2438346E-08
   41.34000      6.0331487E-08
   41.40000      5.8155614E-08
   41.46000      5.5931352E-08
   41.52000      5.3667780E-08
   41.58000      5.1362267E-08
   41.64000      4.9004559E-08
   41.70000      4.6583335E-08
   41.76000      4.4092936E-08
   41.82000      4.1537788E-08
   41.88000      3.8933266E-08
   41.94000      3.6302989E-08
   42.00000      3.3673849E-08
   42.06000      3.1070424E-08
   42.12000      2.8510556E-08
   42.18000      2.6003271E-08
   42.24000      2.3549445E-08
   42.30000      2.1144949E-08
   42.36000      1.8785272E-08
   42.42000      1.6470223E-08
   42.48000      1.4207180E-08
   42.54000      1.2011780E-08
   42.60000      9.9057118E-09
   42.66000      7.9123605E-09
   42.72000      6.0517946E-09
   42.78000      4.3368251E-09
   42.84000      2.7713689E-09
   42.90000      1.3513902E-09
   42.96000      6.7767333E-11
   43.02000     -1.0901291E-09
   43.08000     -2.1313007E-09
   43.14000     -3.0611507E-09
   43.20000     -3.8808783E-09
   43.26000     -4.5880979E-09
   43.32000     -5.1784315E-09
   43.38000     -5.6477862E-09
   43.44000     -5.9949183E-09
   43.50000     -6.2236687E-09
   43.56000     -6.3441599E-09
   43.62000     -6.3723733E-09
   43.68000     -6.3280523E-09
   43.74000     -6.2314931E-09
   43.80000     -6.1002412E-09
   43.86000     -5.9467213E-09
   43.92000     -5.7773573E-09
   43.98000     -5.5931433E-09
   44.04000     -5.3911293E-09
   44.10000     -5.1662346E-09
   44.16000     -4.9130127E-09
   44.22000     -4.6272604E-09
   44.28000     -4.3074357E-09
   44.34000     -3.9556416E-09
   44.40000     -3.5777472E-09
   44.46000     -3.1822422E-09
   44.52000     -2.7778566E-09
   44.58000     -2.3706386E-09
   44.64000     -1.9616699E-09
   44.70000     -1.5465559E-09
   44.76000     -1.1172002E-09
   44.82000     -6.6537958E-10
   44.88000     -1.8680625E-10
   44.94000      3.1590755E-10
   45.00000      8.3255619E-10
   45.06000      1.3472062E-09
   45.12000      1.8419799E-09
   45.18000      2.3014952E-09
   45.24000      2.7165850E-09
   45.30000      3.0862033E-09
   45.36000      3.4169856E-09
   45.42000      3.7205286E-09
   45.48000      4.0090451E-09
   45.54000      4.2905226E-09
   45.60000      4.5647677E-09
   45.66000      4.8216400E-09
   45.72000      5.0422404E-09
   45.78000      5.2029123E-09
   45.84000      5.2809068E-09
   45.90000      5.2598552E-09
   45.96000      5.1331397E-09
   46.02000      4.9039643E-09
   46.08000      4.5821209E-09
   46.14000      4.1786974E-09
   46.20000      3.7007208E-09
   46.26000      3.1476739E-09
   46.32000      2.5110465E-09
   46.38000      1.7769176E-09
   46.44000      9.3048352E-10
   46.50000     -3.9101118E-11
   46.56000     -1.1351293E-09
   46.62000     -2.3519358E-09
   46.68000     -3.6757901E-09
   46.74000     -5.0874789E-09
   46.80000     -6.5655774E-09
   46.86000     -8.0894083E-09
   46.92000     -9.6409787E-09
   46.98000     -1.1205620E-08
   47.04000     -1.2771447E-08
   47.10000     -1.4328062E-08
   47.16000     -1.5865064E-08
   47.22000     -1.7370951E-08
   47.28000     -1.8832802E-08
   47.34000     -2.0236921E-08
   47.40000     -2.1570226E-08
   47.46000     -2.2821874E-08
   47.52000     -2.3984461E-08
   47.58000     -2.5054270E-08
   47.64000     -2.6030337E-08
   47.70000     -2.6912717E-08
   47.76000     -2.7700560E-08
   47.82000     -2.8390827E-08
   47.88000     -2.8978169E-08
   47.94000     -2.9455927E-08
   48.00000     -2.9817862E-08
   48.06000     -3.0059887E-08
   48.12000     -3.0181258E-08
   48.18000     -3.0184882E-08
   48.24000     -3.0076993E-08
   48.30000     -2.9866285E-08
   48.36000     -2.9562903E-08
   48.42000     -2.9177254E-08
   48.48000     -2.8718794E-08
   48.54000     -2.8194838E-08
   48.60000     -2.7609641E-08
   48.66000     -2.6964102E-08
   48.72000     -2.6256330E-08
   48.78000     -2.5482983E-08
   48.84000     -2.4640995E-08
   48.90000     -2.3729163E-08
   48.96000     -2.2749060E-08
   49.02000     -2.1705118E-08
   49.08000     -2.0603984E-08
   49.14000     -1.9453440E-08
   49.20000     -1.8261250E-08
   49.26000     -1.7034177E-08
   49.32000     -1.5777376E-08
   49.38000     -1.4494300E-08
   49.44000     -1.3187217E-08
   49.50000     -1.1858258E-08
   49.56000     -1.0510661E-08
   49.62000     -9.1495940E-09
   49.68000     -7.7819955E-09
   49.74000     -6.4151626E-09
   49.80000     -5.0544848E-09
   49.86000     -3.7012649E-09
   49.92000     -2.3517517E-09
   49.98000     -9.9814035E-10
   50.04000      3.6855979E-10
   50.10000      1.7547227E-09
   50.16000      3.1607683E-09
   50.22000      4.5795274E-09
   50.28000      5.9968759E-09
   50.34000      7.3943798E-09
   50.40000      8.7531120E-09
   50.46000      1.0057595E-08
   50.52000      1.1299006E-08
   50.58000      1.2477060E-08
   50.64000      1.3600252E-08
   50.70000      1.4684387E-08
   50.76000      1.5749523E-08
   50.82000      1.6815878E-08
   50.88000      1.7899586E-08
   50.94000      1.9009398E-08
   51.00000      2.0145306E-08
   51.06000      2.1299453E-08
   51.12000      2.2459050E-08
   51.18000      2.3610284E-08
   51.24000      2.4742077E-08
   51.30000      2.5848715E-08
   51.36000      2.6930808E-08
   51.42000      2.7994609E-08
   51.48000      2.9050071E-08
   51.54000      3.0108243E-08
   51.60000      3.1178757E-08
   51.66000      3.2268176E-08
   51.72000      3.3379870E-08
   51.78000      3.4515757E-08
   51.84000      3.5679570E-08
   51.90000      3.6880756E-08
   51.96000      3.8137490E-08
   52.02000      3.9477651E-08
   52.08000      4.0937056E-08
   52.14000      4.2555389E-08
   52.20000      4.4370953E-08
   52.26000      4.6415852E-08
   52.32000      4.8712980E-08
   52.38000      5.1275407E-08
   52.44000      5.4108135E-08
   52.50000      5.7211647E-08
   52.56000      6.0586160E-08
   52.62000      6.4235572E-08
   52.68000      6.8169882E-08
   52.74000      7.2405314E-08
   52.80000      7.6961612E-08
   52.86000      8.1857024E-08
   52.92000      8.7101931E-08
   52.98000      9.2693085E-08
   53.04000      9.8609988E-08
   53.10000      1.0481440E-07
   53.16000      1.1125290E-07
   53.22000      1.1786130E-07
   53.28000      1.2456914E-07
   53.34000      1.3130297E-07
   53.40000      1.3798720E-07
   53.46000      1.4454280E-07
   53.52000      1.5088447E-07
   53.58000      1.5691754E-07
   53.64000      1.6253549E-07
   53.70000      1.6761931E-07
   53.76000      1.7203882E-07
   53.82000      1.7565581E-07
   53.88000      1.7832825E-07
   53.94000      1.7991457E-07
   54.00000      1.8027720E-07
   54.06000      1.7928450E-07
   54.12000      1.7681134E-07
   54.18000      1.7273864E-07
   54.24000      1.6695252E-07
   54.30000      1.5934361E-07
   54.36000      1.4980701E-07
   54.42000      1.3824322E-07
   54.48000      1.2456044E-07
   54.54000      1.0867797E-07
   54.60000      9.0530754E-08
   54.66000      7.0073675E-08
   54.72000      4.7284519E-08
   54.78000      2.2164475E-08
   54.84000     -5.2638280E-09
   54.90000     -3.4959562E-08
   54.96000     -6.6866320E-08
   55.02000     -1.0091260E-07
   55.08000     -1.3700995E-07
   55.14000     -1.7504986E-07
   55.20000     -2.1490155E-07
   55.26000     -2.5641188E-07
   55.32000     -2.9940779E-07
   55.38000     -3.4369972E-07
   55.44000     -3.8908453E-07
   55.50000     -4.3534703E-07
   55.56000     -4.8226087E-07