 -0.750000000       0.00000000    
 -0.689999998       0.00000000    
 -0.629999995       0.00000000    
 -0.569999993       0.00000000    
 -0.509999990      -3.45182159E-19
 -0.449999988      -1.82444528E-18
 -0.389999986      -4.03054672E-18
 -0.330000013      -2.39667042E-18
 -0.270000011       1.16988857E-17
 -0.209999993       4.27690096E-17
 -0.150000006       7.72723475E-17
  -9.00000036E-02   7.73883777E-17
  -2.99999993E-02  -1.09336982E-18
   2.99999993E-02  -1.65880934E-16
   9.00000036E-02  -3.47602178E-16
  0.150000006      -4.06092874E-16
  0.209999993      -2.09338264E-16
  0.270000011       2.44668670E-16
  0.330000013       7.49724638E-16
  0.389999986       9.48671395E-16
  0.449999988       5.44259591E-16
  0.509999990      -4.37936495E-16
  0.569999993      -1.51707053E-15
  0.629999995      -1.90073537E-15
  0.689999998      -8.91903141E-16
  0.750000000       1.63972990E-15
  0.810000002       4.99680406E-15
  0.870000005       7.77020338E-15
  0.930000007       8.27051609E-15
  0.990000010       5.04100308E-15
   1.04999995      -2.74713876E-15
   1.11000001      -1.49895507E-14
   1.16999996      -3.02000449E-14
   1.23000002      -4.47691878E-14
   1.28999996      -5.22388631E-14
   1.35000002      -4.34780250E-14
   1.40999997      -8.83506101E-15
   1.47000003       5.72796815E-14
   1.52999997       1.50326122E-13
   1.59000003       2.50573894E-13
   1.64999998       3.22280830E-13
   1.71000004       3.19548641E-13
   1.76999998       1.98996445E-13
   1.83000004      -6.35198952E-14
   1.88999999      -4.57127608E-13
   1.95000005      -9.26558201E-13
   2.00999999      -1.37320613E-12
   2.06999993      -1.66804949E-12
   2.13000011      -1.67512889E-12
   2.19000006      -1.28221695E-12
   2.25000000      -4.33958045E-13
   2.30999994       8.38261697E-13
   2.36999989       2.39636262E-12
   2.43000007       3.99258231E-12
   2.49000001       5.28934145E-12
   2.54999995       5.90433692E-12
   2.60999990       5.47752078E-12
   2.67000008       3.75031820E-12
   2.73000002       6.42919149E-13
   2.78999996      -3.68519494E-12
   2.84999990      -8.80274326E-12
   2.91000009      -1.40070455E-11
   2.97000003      -1.83556191E-11
   3.02999997      -2.07226961E-11
   3.08999991      -1.98725168E-11
   3.15000010      -1.45411348E-11
   3.21000004      -3.51870573E-12
   3.26999998       1.42762807E-11
   3.32999992       3.97393958E-11
   3.39000010       7.35459540E-11
   3.45000005       1.16141388E-10
   3.50999999       1.67749578E-10
   3.56999993       2.28385769E-10
   3.63000011       2.97858516E-10
   3.69000006       3.75752041E-10
   3.75000000       4.61393507E-10
   3.80999994       5.53825319E-10
   3.86999989       6.51809440E-10
   3.93000007       7.53885954E-10
   3.99000001       8.58485338E-10
   4.05000019       9.64067604E-10
   4.11000013       1.06923703E-09
   4.17000008       1.17277910E-09
   4.23000002       1.27358946E-09
   4.28999996       1.37051070E-09
   4.34999990       1.46214185E-09
   4.40999985       1.54672164E-09
   4.46999979       1.62217673E-09
   4.53000021       1.68638470E-09
   4.59000015       1.73761827E-09
   4.65000010       1.77506143E-09
   4.71000004       1.79923421E-09
   4.76999998       1.81217219E-09
   4.82999992       1.81725701E-09
   4.88999987       1.81870352E-09
   4.94999981       1.82080284E-09
   5.01000023       1.82709536E-09
   5.07000017       1.83966886E-09
   5.13000011       1.85873772E-09
   5.19000006       1.88258231E-09
   5.25000000       1.90784100E-09
   5.30999994       1.93007033E-09
   5.36999989       1.94444749E-09
   5.42999983       1.94648253E-09
   5.48999977       1.93262295E-09
   5.55000019       1.90067584E-09
   5.61000013       1.85001070E-09
   5.67000008       1.78154069E-09
   5.73000002       1.69750758E-09
   5.78999996       1.60112368E-09
   5.84999990       1.49613066E-09
   5.90999985       1.38634082E-09
   5.96999979       1.27523081E-09
   6.03000021       1.16563881E-09
   6.09000015       1.05960185E-09
   6.15000010       9.58343627E-10
   6.21000004       8.62397043E-10
   6.26999998       7.71816333E-10
   6.32999992       6.86421531E-10
   6.38999987       6.06008910E-10
   6.44999981       5.30472721E-10
   6.51000023       4.59809635E-10
   6.57000017       3.94014016E-10
   6.63000011       3.32910532E-10
   6.69000006       2.75998391E-10
   6.75000000       2.22385832E-10
   6.80999994       1.70867126E-10
   6.86999989       1.20140745E-10
   6.92999983       6.91043958E-11
   6.98999977       1.71150351E-11
   7.05000019      -3.59032942E-11
   7.11000013      -8.95715169E-11
   7.17000008      -1.43364057E-10
   7.23000002      -1.96991520E-10
   7.28999996      -2.50677756E-10
   7.34999990      -3.05170667E-10
   7.40999985      -3.61427749E-10
   7.46999979      -4.20065982E-10
   7.53000021      -4.80794404E-10
   7.59000015      -5.42095202E-10
   7.65000010      -6.01346140E-10
   7.71000004      -6.55410004E-10
   7.76999998      -7.01515790E-10
   7.82999992      -7.38119343E-10
   7.88999987      -7.65412678E-10
   7.94999981      -7.85276510E-10
   8.01000023      -8.00681910E-10
   8.06999969      -8.14760648E-10
   8.13000011      -8.29891267E-10
   8.18999958      -8.47131865E-10
   8.25000000      -8.66190619E-10
   8.31000042      -8.85911899E-10
   8.36999989      -9.05063025E-10
   8.43000031      -9.23104093E-10
   8.48999977      -9.40644118E-10
   8.55000019      -9.59423541E-10
   8.60999966      -9.81846493E-10
   8.67000008      -1.01025577E-09
   8.72999954      -1.04623643E-09
   8.78999996      -1.09020371E-09
   8.85000038      -1.14141419E-09
   8.90999985      -1.19836741E-09
   8.97000027      -1.25940192E-09
   9.02999973      -1.32322786E-09
   9.09000015      -1.38916512E-09
   9.14999962      -1.45699797E-09
   9.21000004      -1.52652746E-09
   9.27000046      -1.59704294E-09
   9.32999992      -1.66697278E-09
   9.39000034      -1.73389836E-09
   9.44999981      -1.79495441E-09
   9.51000023      -1.84747184E-09
   9.56999969      -1.88960936E-09
   9.63000011      -1.92073535E-09
   9.68999958      -1.94142280E-09
   9.75000000      -1.95309569E-09
   9.81000042      -1.95749572E-09
   9.86999989      -1.95619720E-09
   9.93000031      -1.95035432E-09
   9.98999977      -1.94073424E-09
   10.0500002      -1.92794891E-09
   10.1099997      -1.91270910E-09
   10.1700001      -1.89591098E-09
   10.2299995      -1.87845628E-09
   10.2900000      -1.86083715E-09
   10.3500004      -1.84264226E-09
   10.4099998      -1.82220650E-09
   10.4700003      -1.79658699E-09
   10.5299997      -1.76194404E-09
   10.5900002      -1.71424897E-09
   10.6499996      -1.65012148E-09
   10.7100000      -1.56755020E-09
   10.7700005      -1.46629520E-09
   10.8299999      -1.34788369E-09
   10.8900003      -1.21523769E-09
   10.9499998      -1.07206455E-09
   11.0100002      -9.22172338E-10
   11.0699997      -7.68839714E-10
   11.1300001      -6.14335804E-10
   11.1899996      -4.59645683E-10
   11.2500000      -3.04457931E-10
   11.3100004      -1.47462292E-10
   11.3699999       1.30354278E-11
   11.4300003       1.78267484E-10
   11.4899998       3.48136436E-10
   11.5500002       5.20619825E-10
   11.6099997       6.91723290E-10
   11.6700001       8.56108184E-10
   11.7299995       1.00827258E-09
   11.7900000       1.14393306E-09
   11.8500004       1.26113398E-09
   11.9099998       1.36069078E-09
   11.9700003       1.44580869E-09
   12.0299997       1.52102164E-09
   12.0900002       1.59083258E-09
   12.1499996       1.65849867E-09
   12.2100000       1.72529968E-09
   12.2700005       1.79040949E-09
   12.3299999       1.85127835E-09
   12.3900003       1.90431160E-09
   12.4499998       1.94562344E-09
   12.5100002       1.97170769E-09
   12.5699997       1.97995398E-09
   12.6300001       1.96897276E-09
   12.6899996       1.93870564E-09
   12.7500000       1.89030480E-09
   12.8100004       1.82579063E-09
   12.8699999       1.74757242E-09
   12.9300003       1.65797209E-09
   12.9899998       1.55890922E-09
   13.0500002       1.45184920E-09
   13.1099997       1.33800171E-09
   13.1700001       1.21865307E-09
   13.2299995       1.09545728E-09
   13.2900000       9.70546532E-10
   13.3500004       8.46408554E-10
   13.4099998       7.25579652E-10
   13.4700003       6.10262119E-10
   13.5299997       5.01979291E-10
   13.5900002       4.01341044E-10
   13.6499996       3.07950249E-10
   13.7100000       2.20451296E-10
   13.7700005       1.36713904E-10
   13.8299999       5.41350992E-11
   13.8900003      -2.99764311E-11
   13.9499998      -1.18000457E-10
   14.0100002      -2.11670209E-10
   14.0699997      -3.11862897E-10
   14.1300001      -4.18526436E-10
   14.1899996      -5.30695932E-10
   14.2500000      -6.46535381E-10
   14.3100004      -7.63376751E-10
   14.3699999      -8.77796225E-10
   14.4300003      -9.85828086E-10
   14.4899998      -1.08340226E-09
   14.5500002      -1.16700638E-09
   14.6099997      -1.23443455E-09
   14.6700001      -1.28538458E-09
   14.7299995      -1.32165501E-09
   14.7900000      -1.34680456E-09
   14.8500004      -1.36532730E-09
   14.9099998      -1.38157585E-09
   14.9700003      -1.39876799E-09
   15.0299997      -1.41837497E-09
   15.0900002      -1.44005874E-09
   15.1499996      -1.46212620E-09
   15.2100000      -1.48230905E-09
   15.2700005      -1.49858148E-09
   15.3299999      -1.50973933E-09
   15.3900003      -1.51555835E-09
   15.4499998      -1.51650126E-09
   15.5100002      -1.51310930E-09
   15.5699997      -1.50533297E-09
   15.6300001      -1.49209711E-09
   15.6899996      -1.47131529E-09
   15.7500000      -1.44039725E-09
   15.8100004      -1.39708223E-09
   15.8699999      -1.34028255E-09
   15.9300003      -1.27059163E-09
   15.9899998      -1.19025101E-09
   16.0499992      -1.10259035E-09
   16.1100006      -1.01118003E-09
   16.1700001      -9.19035292E-10
   16.2299995      -8.28155711E-10
   16.2900009      -7.39504513E-10
   16.3500004      -6.53331556E-10
   16.4099998      -5.69629288E-10
   16.4699993      -4.88522001E-10
   16.5300007      -4.10490919E-10
   16.5900002      -3.36450867E-10
   16.6499996      -2.67737471E-10
   16.7099991      -2.06027556E-10
   16.7700005      -1.53148702E-10
   16.8299999      -1.10713078E-10
   16.8899994      -7.95800578E-11
   16.9500008      -5.92817878E-11
   17.0100002      -4.76515251E-11
   17.0699997      -4.08924422E-11
   17.1299992      -3.41841451E-11
   17.1900005      -2.27033548E-11
   17.2500000      -2.74233414E-12
   17.3099995       2.74544502E-11
   17.3700008       6.74146503E-11
   17.4300003       1.14788699E-10
   17.4899998       1.66166622E-10
   17.5499992       2.18059459E-10
   17.6100006       2.67730255E-10
   17.6700001       3.13653437E-10
   17.7299995       3.55526802E-10
   17.7900009       3.93900967E-10
   17.8500004       4.29590002E-10
   17.9099998       4.63080185E-10
   17.9699993       4.94146224E-10
   18.0300007       5.21819088E-10
   18.0900002       5.44721712E-10
   18.1499996       5.61636126E-10
   18.2099991       5.72043135E-10
   18.2700005       5.76359793E-10
   18.3299999       5.75723524E-10
   18.3899994       5.71397651E-10
   18.4500008       5.64093661E-10
   18.5100002       5.53598389E-10
   18.5699997       5.38982747E-10
   18.6299992       5.19390031E-10
   18.6900005       4.95092578E-10
   18.7500000       4.68317773E-10
   18.8099995       4.43400927E-10
   18.8700008       4.26090607E-10
   18.9300003       4.22195834E-10
   18.9899998       4.36043951E-10
   19.0499992       4.69292216E-10
   19.1100006       5.20484988E-10
   19.1700001       5.85461402E-10
   19.2299995       6.58425037E-10
   19.2900009       7.33307970E-10
   19.3500004       8.05028044E-10
   19.4099998       8.70330474E-10
   19.4699993       9.28062460E-10
   19.5300007       9.78890413E-10
   19.5900002       1.02460562E-09
   19.6499996       1.06725162E-09
   19.7099991       1.10833354E-09
   19.7700005       1.14833010E-09
   19.8299999       1.18661470E-09
   19.8899994       1.22175148E-09
   19.9500008       1.25200017E-09
   20.0100002       1.27580313E-09
   20.0699997       1.29206501E-09
   20.1299992       1.30013644E-09
   20.1900005       1.29953781E-09
   20.2500000       1.28954802E-09
   20.3099995       1.26881516E-09
   20.3700008       1.23512489E-09
   20.4300003       1.18542576E-09
   20.4899998       1.11615850E-09
   20.5499992       1.02387510E-09
   20.6100006       9.06041131E-10
   20.6700001       7.61821550E-10
   20.7299995       5.92584370E-10
   20.7900009       4.01893213E-10
   20.8500004       1.94909255E-10
   20.9099998      -2.26452936E-11
   20.9699993      -2.45610560E-10
   21.0300007      -4.70188277E-10
   21.0900002      -6.94136248E-10
   21.1499996      -9.16347831E-10
   21.2099991      -1.13607990E-09
   21.2700005      -1.35223011E-09
   21.3299999      -1.56299929E-09
   21.3899994      -1.76605208E-09
   21.4500008      -1.95903760E-09
   21.5100002      -2.14017937E-09
   21.5699997      -2.30865882E-09
   21.6299992      -2.46464427E-09
   21.6900005      -2.60898503E-09
   21.7500000      -2.74269008E-09
   21.8099995      -2.86634161E-09
   21.8700008      -2.97955283E-09
   21.9300003      -3.08056269E-09
   21.9899998      -3.16605031E-09
   22.0499992      -3.23125060E-09
   22.1100006      -3.27043015E-09
   22.1700001      -3.27768768E-09
   22.2299995      -3.24793570E-09
   22.2900009      -3.17784421E-09
   22.3500004      -3.06651327E-09
   22.4099998      -2.91572744E-09
   22.4699993      -2.72975886E-09
   22.5300007      -2.51479637E-09
   22.5900002      -2.27815034E-09
   22.6499996      -2.02739936E-09
   22.7099991      -1.76965553E-09
   22.7700005      -1.51109225E-09
   22.8299999      -1.25682320E-09
   22.8899994      -1.01110886E-09
   22.9500008      -7.77718390E-10
   23.0100002      -5.60170799E-10
   23.0699997      -3.61588148E-10
   23.1299992      -1.84070356E-10
   23.1900005      -2.77819729E-11
   23.2500000       1.09807261E-10
   23.3099995       2.34029685E-10
   23.3700008       3.52180979E-10
   23.4300003       4.71849670E-10
   23.4899998       5.98944616E-10
   23.5499992       7.36163408E-10
   23.6100006       8.82529494E-10
   23.6700001       1.03422704E-09
   23.7299995       1.18644983E-09
   23.7900009       1.33558731E-09
   23.8500004       1.48094514E-09
   23.9099998       1.62537939E-09
   23.9699993       1.77461801E-09
   24.0300007       1.93549843E-09
   24.0900002       2.11372075E-09
   24.1499996       2.31188135E-09
   24.2099991       2.52847809E-09
   24.2700005       2.75827272E-09
   24.3299999       2.99391978E-09
   24.3899994       3.22830607E-09
   24.4500008       3.45672957E-09
   24.5100002       3.67805275E-09
   24.5699997       3.89434529E-09
   24.6299992       4.10911571E-09
   24.6900005       4.32484626E-09
   24.7500000       4.54085303E-09
   24.8099995       4.75237361E-09
   24.8700008       4.95129804E-09
   24.9300003       5.12826448E-09
   24.9899998       5.27532640E-09
   25.0499992       5.38818057E-09
   25.1100006       5.46716272E-09
   25.1700001       5.51670576E-09
   25.2299995       5.54350521E-09
   25.2900009       5.55404789E-09
   25.3500004       5.55236346E-09
   25.4099998       5.53873880E-09
   25.4699993       5.50981527E-09
   25.5300007       5.46004175E-09
   25.5900002       5.38397549E-09
   25.6499996       5.27859667E-09
   25.7099991       5.14478238E-09
   25.7700005       4.98734920E-09
   25.8299999       4.81365481E-09
   25.8899994       4.63132954E-09
   25.9500008       4.44608217E-09
   26.0100002       4.26047864E-09
   26.0699997       4.07414191E-09
   26.1299992       3.88518906E-09
   26.1900005       3.69218456E-09
   26.2500000       3.49575191E-09
   26.3099995       3.29921268E-09
   26.3700008       3.10811687E-09
   26.4300003       2.92898461E-09
   26.4899998       2.76781842E-09
   26.5499992       2.62889821E-09
   26.6100006       2.51414778E-09
   26.6700001       2.42311082E-09
   26.7299995       2.35341147E-09
   26.7900009       2.30150277E-09
   26.8500004       2.26349495E-09
   26.9099998       2.23585506E-09
   26.9699993       2.21580798E-09
   27.0300007       2.20135221E-09
   27.0900002       2.19096141E-09
   27.1499996       2.18318408E-09
   27.2099991       2.17640217E-09
   27.2700005       2.16889884E-09
   27.3299999       2.15917395E-09
   27.3899994       2.14626006E-09
   27.4500008       2.12978057E-09
   27.5100002       2.10965934E-09
   27.5699997       2.08565876E-09
   27.6299992       2.05708761E-09
   27.6900005       2.02294426E-09
   27.7500000       1.98248795E-09
   27.8099995       1.93591876E-09
   27.8700008       1.88470994E-09
   27.9300003       1.83128923E-09
   27.9899998       1.77812820E-09
   28.0499992       1.72664971E-09
   28.1100006       1.67650804E-09
   28.1700001       1.62562686E-09
   28.2299995       1.57102731E-09
   28.2900009       1.51012769E-09
   28.3500004       1.44202772E-09
   28.4099998       1.36835132E-09
   28.4699993       1.29342292E-09
   28.5300007       1.22376675E-09
   28.5900002       1.16706156E-09
   28.6499996       1.13076060E-09
   28.7099991       1.12064658E-09
   28.7700005       1.13964427E-09
   28.8299999       1.18722343E-09
   28.8899994       1.25961497E-09
   28.9500008       1.35081235E-09
   29.0100002       1.45402967E-09
   29.0699997       1.56308788E-09
   29.1299992       1.67323433E-09
   29.1900005       1.78117454E-09
   29.2500000       1.88447813E-09
   29.3099995       1.98079575E-09
   29.3700008       2.06736028E-09
   29.4300003       2.14101825E-09
   29.4899998       2.19872676E-09
   29.5499992       2.23820962E-09
   29.6100006       2.25843833E-09
   29.6700001       2.25974284E-09
   29.7299995       2.24357133E-09
   29.7900009       2.21204988E-09
   29.8500004       2.16751839E-09
   29.9099998       2.11215734E-09
   29.9699993       2.04774842E-09
   30.0300007       1.97558747E-09
   30.0900002       1.89655647E-09
   30.1499996       1.81132798E-09
   30.2099991       1.72062609E-09
   30.2700005       1.62540181E-09
   30.3299999       1.52679858E-09
   30.3899994       1.42589029E-09
   30.4500008       1.32332556E-09
   30.5100002       1.21911348E-09
   30.5699997       1.11274556E-09
   30.6299992       1.00366637E-09
   30.6900005       8.91893615E-10
   30.7500000       7.78470621E-10
   30.8099995       6.65499988E-10
   30.8700008       5.55715363E-10
   30.9300003       4.51782306E-10
   30.9899998       3.55636715E-10
   31.0499992       2.68117861E-10
   31.1100006       1.88986174E-10
   31.1700001       1.17245116E-10
   31.2299995       5.16025556E-11
   31.2900009      -9.08028080E-12
   31.3500004      -6.54448856E-11
   31.4099998      -1.17456170E-10
   31.4699993      -1.64446734E-10
   31.5300007      -2.05437722E-10
   31.5900002      -2.39720577E-10
   31.6499996      -2.67551509E-10
   31.7099991      -2.90688168E-10
   31.7700005      -3.12484427E-10
   31.8299999      -3.37405881E-10
   31.8899994      -3.70083297E-10
   31.9500008      -4.14250967E-10
   32.0099983      -4.71985007E-10
   32.0699997      -5.43514733E-10
   32.1300011      -6.27612240E-10
   32.1899986      -7.22316873E-10
   32.2500000      -8.25657820E-10
   32.3100014      -9.36124178E-10
   32.3699989      -1.05281972E-09
   32.4300003      -1.17539034E-09
   32.4900017      -1.30386124E-09
   32.5499992      -1.43845336E-09
   32.6100006      -1.57936908E-09
   32.6699982      -1.72651793E-09
   32.7299995      -1.87921234E-09
   32.7900009      -2.03595363E-09
   32.8499985      -2.19445084E-09
   32.9099998      -2.35193420E-09
   32.9700012      -2.50566279E-09
   33.0299988      -2.65338862E-09
   33.0900002      -2.79352275E-09
   33.1500015      -2.92487590E-09
   33.2099991      -3.04607517E-09
   33.2700005      -3.15495718E-09
   33.3300018      -3.24830385E-09
   33.3899994      -3.32217964E-09
   33.4500008      -3.37286798E-09
   33.5099983      -3.39812400E-09
   33.5699997      -3.39827810E-09
   33.6300011      -3.37670691E-09
   33.6899986      -3.33939632E-09
   33.7500000      -3.29363470E-09
   33.8100014      -3.24621285E-09
   33.8699989      -3.20171334E-09
   33.9300003      -3.16145332E-09
   33.9900017      -3.12342641E-09
   34.0499992      -3.08321368E-09
   34.1100006      -3.03549519E-09
   34.1699982      -2.97561464E-09
   34.2299995      -2.90068325E-09
   34.2900009      -2.80994739E-09
   34.3499985      -2.70445244E-09
   34.4099998      -2.58625854E-09
   34.4700012      -2.45756815E-09
   34.5299988      -2.32004327E-09
   34.5900002      -2.17444951E-09
   34.6500015      -2.02061101E-09
   34.7099991      -1.85758331E-09
   34.7700005      -1.68393721E-09
   34.8300018      -1.49807400E-09
   34.8899994      -1.29852928E-09
   34.9500008      -1.08423293E-09
   35.0099983      -8.54703197E-10
   35.0699997      -6.10145212E-10
   35.1300011      -3.51433660E-10
   35.1899986      -7.99669012E-11
   35.2500000       2.02599076E-10
   35.3100014       4.94694397E-10
   35.3699989       7.95171706E-10
   35.4300003       1.10351472E-09
   35.4900017       1.41980316E-09
   35.5499992       1.74438852E-09
   35.6100006       2.07735318E-09
   35.6699982       2.41794473E-09
   35.7299995       2.76421530E-09
   35.7900009       3.11302251E-09
   35.8499985       3.46037998E-09
   35.9099998       3.80198806E-09
   35.9700012       4.13371026E-09
   36.0299988       4.45184245E-09
   36.0900002       4.75317696E-09
   36.1500015       5.03499242E-09
   36.2099991       5.29509858E-09
   36.2700005       5.53194290E-09
   36.3300018       5.74464165E-09
   36.3899994       5.93278360E-09
   36.4500008       6.09599127E-09
   36.5099983       6.23344398E-09
   36.5699997       6.34371577E-09
   36.6300011       6.42517861E-09
   36.6899986       6.47689991E-09
   36.7500000       6.49960574E-09
   36.8100014       6.49610987E-09
   36.8699989       6.47080878E-09
   36.9300003       6.42830811E-09
   36.9900017       6.37176933E-09
   37.0499992       6.30177466E-09
   37.1100006       6.21629859E-09
   37.1699982       6.11184126E-09
   37.2299995       5.98517547E-09
   37.2900009       5.83488813E-09
   37.3499985       5.66202907E-09
   37.4099998       5.46965184E-09
   37.4700012       5.26155475E-09
   37.5299988       5.04084108E-09
   37.5900002       4.80887685E-09
   37.6500015       4.56496929E-09
   37.7099991       4.30676916E-09
   37.7700005       4.03118250E-09
   37.8300018       3.73551368E-09
   37.8899994       3.41855722E-09
   37.9500008       3.08136561E-09
   38.0099983       2.72743406E-09
   38.0699997       2.36213049E-09
   38.1300011       1.99142391E-09
   38.1899986       1.62027347E-09
   38.2500000       1.25128785E-09
   38.3100014       8.84260332E-10
   38.3699989       5.16876209E-10
   38.4300003       1.46378742E-10
   38.4900017      -2.28467981E-10
   38.5499992      -6.05927974E-10
   38.6100006      -9.80927228E-10
   38.6699982      -1.34585698E-09
   38.7299995      -1.69215952E-09
   38.7900009      -2.01207917E-09
   38.8499985      -2.30004482E-09
   38.9099998      -2.55341925E-09
   38.9700012      -2.77261369E-09
   39.0299988      -2.96069524E-09
   39.0900002      -3.12260462E-09
   39.1500015      -3.26407701E-09
   39.2099991      -3.39042394E-09
   39.2700005      -3.50545415E-09
   39.3300018      -3.61090402E-09
   39.3899994      -3.70664677E-09
   39.4500008      -3.79164922E-09
   39.5099983      -3.86527788E-09
   39.5699997      -3.92832256E-09
   39.6300011      -3.98318889E-09
   39.6899986      -4.03310185E-09
   39.7500000      -4.08066025E-09
   39.8100014      -4.12640722E-09
   39.8699989      -4.16810764E-09
   39.9300003      -4.20109592E-09
   39.9900017      -4.21957536E-09
   40.0499992      -4.21840118E-09
   40.1100006      -4.19470725E-09
   40.1699982      -4.14885770E-09
   40.2299995      -4.08445189E-09
   40.2900009      -4.00738687E-09
   40.3499985      -3.92421340E-09
   40.4099998      -3.84018906E-09
   40.4700012      -3.75754894E-09
   40.5299988      -3.67453001E-09
   40.5900002      -3.58555430E-09
   40.6500015      -3.48264284E-09
   40.7099991      -3.35771344E-09
   40.7700005      -3.20502713E-09
   40.8300018      -3.02294456E-09
   40.8899994      -2.81436763E-09
   40.9500008      -2.58576094E-09
   41.0099983      -2.34517872E-09
   41.0699997      -2.10007811E-09
   41.1300011      -1.85567450E-09
   41.1899986      -1.61430569E-09
   41.2500000      -1.37582123E-09
   41.3100014      -1.13868892E-09
   41.3699989      -9.01354935E-10
   41.4300003      -6.63436917E-10
   41.4900017      -4.26436525E-10
   41.5499992      -1.93793218E-10
   41.6100006       2.97739194E-11
   41.6699982       2.39515408E-10
   41.7299995       4.32146346E-10
   41.7900009       6.07054018E-10
   41.8499985       7.66667507E-10
   41.9099998       9.15676368E-10
   41.9700012       1.05924680E-09
   42.0299988       1.20085908E-09
   42.0900002       1.34062372E-09
   42.1500015       1.47478729E-09
   42.2099991       1.59663993E-09
   42.2700005       1.69845871E-09
   42.3300018       1.77372972E-09
   42.3899994       1.81887450E-09
   42.4500008       1.83401649E-09
   42.5099983       1.82274673E-09
   42.5699997       1.79116288E-09
   42.6300011       1.74654502E-09
   42.6899986       1.69596004E-09
   42.7500000       1.64499336E-09
   42.8100014       1.59678459E-09
   42.8699989       1.55159241E-09
   42.9300003       1.50708479E-09
   42.9900017       1.45937684E-09
   43.0499992       1.40453338E-09
   43.1100006       1.33998967E-09
   43.1699982       1.26529920E-09
   43.2299995       1.18188448E-09
   43.2900009       1.09193121E-09
   43.3499985       9.96971727E-10
   43.4099998       8.96845320E-10
   43.4700012       7.89505628E-10
   43.5299988       6.71719791E-10
   43.5900002       5.40309353E-10
   43.6500015       3.93410859E-10
   43.7099991       2.31331287E-10
   43.7700005       5.68138349E-11
   43.8300018      -1.25251809E-10
   43.8899994      -3.08541470E-10
   43.9500008      -4.86292506E-10
   44.0099983      -6.52442544E-10
   44.0699997      -8.02700517E-10
   44.1300011      -9.35255984E-10
   44.1899986      -1.05083786E-09
   44.2500000      -1.15201293E-09
   44.3100014      -1.24192667E-09
   44.3699989      -1.32297440E-09
   44.4300003      -1.39596645E-09
   44.4900017      -1.46013668E-09
   44.5499992      -1.51394652E-09
   44.6100006      -1.55626168E-09
   44.6699982      -1.58734359E-09
   44.7299995      -1.60924707E-09
   44.7900009      -1.62553748E-09
   44.8499985      -1.64053382E-09
   44.9099998      -1.65839531E-09
   44.9700012      -1.68229286E-09
   45.0299988      -1.71377490E-09
   45.0900002      -1.75236414E-09
   45.1500015      -1.79546955E-09
   45.2099991      -1.83876780E-09
   45.2700005      -1.87717331E-09
   45.3300018      -1.90631000E-09
   45.3899994      -1.92409710E-09
   45.4500008      -1.93184202E-09
   45.5099983      -1.93426741E-09
   45.5699997      -1.93823313E-09
   45.6300011      -1.95042071E-09
   45.6899986      -1.97469330E-09
   45.7500000      -2.01004124E-09
   45.8100014      -2.04987716E-09
   45.8699989      -2.08302908E-09
   45.9300003      -2.09624451E-09
   45.9900017      -2.07755058E-09
   46.0499992      -2.01951833E-09
   46.1100006      -1.92146210E-09
   46.1699982      -1.78983883E-09
   46.2299995      -1.63661229E-09
   46.2900009      -1.47597834E-09
   46.3499985      -1.32041855E-09
   46.4099998      -1.17735011E-09
   46.4700012      -1.04750408E-09
   46.5299988      -9.25579502E-10
   46.5900002      -8.02903410E-10
   46.6500015      -6.71096734E-10
   46.7099991      -5.25409938E-10
   46.7700005      -3.66583930E-10
   46.8300018      -2.00698291E-10
   46.8899994      -3.72157236E-11
   46.9500008       1.13992753E-10
   47.0099983       2.45626658E-10
   47.0699997       3.55051488E-10
   47.1300011       4.44980525E-10
   47.1899986       5.22640764E-10
   47.2500000       5.97714767E-10
   47.3100014       6.79648116E-10
   47.3699989       7.75086495E-10
   47.4300003       8.86202722E-10
   47.4900017       1.01045627E-09
   47.5499992       1.14189824E-09
   47.6100006       1.27361044E-09
   47.6699982       1.40045076E-09
   47.7299995       1.52114277E-09
   47.7900009       1.63899228E-09
   47.8499985       1.76101889E-09
   47.9099998       1.89585436E-09
   47.9700012       2.05113704E-09
   48.0299988       2.23120122E-09
   48.0900002       2.43567166E-09
   48.1500015       2.65924505E-09
   48.2099991       2.89264368E-09
   48.2700005       3.12448267E-09
   48.3300018       3.34364181E-09
   48.3899994       3.54158169E-09
   48.4500008       3.71399045E-09
   48.5099983       3.86119625E-09
   48.5699997       3.98709110E-09
   48.6300011       4.09680467E-09
   48.6899986       4.19387103E-09
   48.7500000       4.27797042E-09
   48.8100014       4.34416192E-09
   48.8699989       4.38402425E-09
   48.9300003       4.38833103E-09
   48.9900017       4.35026282E-09
   49.0499992       4.26794022E-09
   49.1100006       4.14534851E-09
   49.1699982       3.99137612E-09
   49.2299995       3.81739085E-09
   49.2900009       3.63425068E-09
   49.3499985       3.44974294E-09
   49.4099998       3.26716099E-09
   49.4700012       3.08528780E-09
   49.5299988       2.89960966E-09
   49.5900002       2.70427081E-09
   49.6500015       2.49416776E-09
   49.7099991       2.26662111E-09
   49.7700005       2.02224837E-09
   49.8300018       1.76489356E-09
   49.8899994       1.50074397E-09
   49.9500008       1.23695876E-09
   50.0099983       9.80234782E-10
   50.0699997       7.35696837E-10
   50.1300011       5.06341358E-10
   50.1899986       2.93078339E-10
   50.2500000       9.52509946E-11
   50.3100014      -8.85665499E-11
   50.3699989      -2.59709865E-10
   50.4300003      -4.18694440E-10
   50.4900017      -5.64770564E-10
   50.5499992      -6.95863867E-10
   50.6100006      -8.08918599E-10