  -2.400000      0.0000000E+00
  -2.340000      0.0000000E+00
  -2.280000      0.0000000E+00
  -2.220000      0.0000000E+00
  -2.160000      0.0000000E+00
  -2.100000      1.6285784E-20
  -2.040000      1.2745905E-19
  -1.980000      5.1090754E-19
  -1.920000      1.3567305E-18
  -1.860000      2.5361955E-18
  -1.800000      3.0555289E-18
  -1.740000      6.8543039E-19
  -1.680000     -7.4312417E-18
  -1.620000     -2.2402157E-17
  -1.560000     -3.9710430E-17
  -1.500000     -4.6314878E-17
  -1.440000     -2.3211489E-17
  -1.380000      4.2915434E-17
  -1.320000      1.4114917E-16
  -1.260000      2.2228138E-16
  -1.200000      2.0638318E-16
  -1.140000      2.2883556E-17
  -1.080000     -3.2696517E-16
  -1.020000     -7.2113987E-16
 -0.9600000     -9.2747228E-16
 -0.9000000     -6.9724512E-16
 -0.8400000      8.6647030E-17
 -0.7800000      1.2858441E-15
 -0.7200000      2.4939598E-15
 -0.6600000      3.1686628E-15
 -0.6000000      2.8523532E-15
 -0.5400000      1.3626562E-15
 -0.4800000     -1.1477420E-15
 -0.4200000     -4.2659866E-15
 -0.3600000     -7.4295928E-15
 -0.3000000     -9.9554120E-15
 -0.2400000     -1.0970914E-14
 -0.1800000     -9.3834539E-15
 -0.1200000     -4.0914563E-15
 -5.9999999E-02  5.4673745E-15
  0.0000000E+00  1.8583506E-14
  5.9999999E-02  3.2731345E-14
  0.1200000      4.3604653E-14
  0.1800000      4.5904703E-14
  0.2400000      3.4745200E-14
  0.3000000      7.3498904E-15
  0.3600000     -3.5270764E-14
  0.4200000     -8.6917263E-14
  0.4800000     -1.3546193E-13
  0.5400000     -1.6354139E-13
  0.6000000     -1.5172613E-13
  0.6600000     -8.4788804E-14
  0.7200000      3.9788156E-14
  0.7800000      2.0405222E-13
  0.8400000      3.6708058E-13
  0.9000000      4.7170942E-13
  0.9600000      4.6121445E-13
   1.020000      3.0169628E-13
   1.080000      1.6720295E-15
   1.140000     -3.8049644E-13
   1.200000     -7.4697562E-13
   1.260000     -9.8716803E-13
   1.320000     -1.0120714E-12
   1.380000     -7.8386939E-13
   1.440000     -3.2995205E-13
   1.500000      2.6327860E-13
   1.560000      8.7378027E-13
   1.620000      1.3755587E-12
   1.680000      1.6679179E-12
   1.740000      1.6936416E-12
   1.800000      1.4422344E-12
   1.860000      9.3999840E-13
   1.920000      2.3371553E-13
   1.980000     -6.2242258E-13
   2.040000     -1.5677714E-12
   2.100000     -2.5208071E-12
   2.160000     -3.3557118E-12
   2.220000     -3.8863999E-12
   2.280000     -3.8787125E-12
   2.340000     -3.1045893E-12
   2.400000     -1.4334451E-12
   2.460000      1.0676492E-12
   2.520000      4.0696673E-12
   2.580000      6.9954619E-12
   2.640000      9.1291428E-12
   2.700000      9.7996663E-12
   2.760000      8.5819702E-12
   2.820000      5.4449214E-12
   2.880000      7.9088868E-13
   2.940000     -4.6290177E-12
   3.000000     -9.8948037E-12
   3.060000     -1.4131779E-11
   3.120000     -1.6692691E-11
   3.180000     -1.7260714E-11
   3.240000     -1.5859390E-11
   3.300000     -1.2787470E-11
   3.360000     -8.5163829E-12
   3.420000     -3.5913104E-12
   3.480000      1.4346270E-12
   3.540000      6.0243689E-12
   3.600000      9.6546486E-12
   3.660000      1.1821225E-11
   3.720000      1.2089130E-11
   3.780000      1.0207099E-11
   3.840000      6.2671248E-12
   3.900000      8.4638411E-13
   3.960000     -4.9565222E-12
   4.020000     -9.6636579E-12
   4.080000     -1.1749421E-11
   4.140000     -1.0085633E-11
   4.200000     -4.3503027E-12
   4.260000      4.7672886E-12
   4.320000      1.5675634E-11
   4.380000      2.6300342E-11
   4.440000      3.4686694E-11
   4.500000      3.9583340E-11
   4.560000      4.0813491E-11
   4.620000      3.9326445E-11
   4.680000      3.6945155E-11
   4.740000      3.5926276E-11
   4.800000      3.8485586E-11
   4.860000      4.6407492E-11
   4.920000      6.0781637E-11
   4.980000      8.1839910E-11
   5.040000      1.0884088E-10
   5.100000      1.3997575E-10
   5.160000      1.7232731E-10
   5.220000      2.0196096E-10
   5.280000      2.2423069E-10
   5.340000      2.3433155E-10
   5.400000      2.2804121E-10
   5.460000      2.0250672E-10
   5.520000      1.5689024E-10
   5.580000      9.2706655E-11
   5.640000      1.3766581E-11
   5.700000     -7.4255969E-11
   5.760000     -1.6451937E-10
   5.820000     -2.4981298E-10
   5.880000     -3.2330588E-10
   5.940000     -3.7913958E-10
   6.000000     -4.1282305E-10
   6.060000     -4.2144122E-10
   6.120000     -4.0372486E-10
   6.180000     -3.6004294E-10
   6.240000     -2.9237315E-10
   6.300000     -2.0428279E-10
   6.360000     -1.0090744E-10
   6.420000      1.1140968E-11
   6.480000      1.2404842E-10
   6.540000      2.2935943E-10
   6.600000      3.1884892E-10
   6.660000      3.8558820E-10
   6.720000      4.2494672E-10
   6.780000      4.3521084E-10
   6.840000      4.1758705E-10
   6.900000      3.7557962E-10
   6.960000      3.1399935E-10
   7.020000      2.3803393E-10
   7.080000      1.5277835E-10
   7.140000      6.3375367E-11
   7.200000     -2.4439839E-11
   7.260000     -1.0387156E-10
   7.320000     -1.6718842E-10
   7.380000     -2.0670643E-10
   7.440000     -2.1646605E-10
   7.500000     -1.9404223E-10
   7.560000     -1.4176596E-10
   7.620000     -6.6806859E-11
   7.680000      2.0010032E-11
   7.740000      1.0629376E-10
   7.800000      1.8040279E-10
   7.860000      2.3328772E-10
   7.920000      2.5942939E-10
   7.980000      2.5685476E-10
   8.040000      2.2656274E-10
   8.100000      1.7182883E-10
   8.160000      9.7732704E-11
   8.220000      1.0961624E-11
   8.280000     -8.0345237E-11
   8.340000     -1.6706703E-10
   8.400000     -2.4011576E-10
   8.460000     -2.9191294E-10
   8.520000     -3.1791089E-10
   8.580000     -3.1757874E-10
   8.640000     -2.9439820E-10
   8.700000     -2.5479474E-10
   8.760000     -2.0638270E-10
   8.820000     -1.5619127E-10
   8.880000     -1.0949829E-10
   8.940000     -6.9547305E-11
   9.000000     -3.7958931E-11
   9.060000     -1.5342323E-11
   9.120000     -1.6460804E-12
   9.180000      3.8755778E-12
   9.240000      2.8012950E-12
   9.300000     -2.6695072E-12
   9.360000     -1.0532755E-11
   9.420000     -2.0180012E-11
   9.480000     -3.3337159E-11
   9.540000     -5.4046573E-11
   9.600000     -8.7434296E-11
   9.660000     -1.3770934E-10
   9.720000     -2.0638395E-10
   9.780000     -2.9170971E-10
   9.840000     -3.8971321E-10
   9.900000     -4.9631022E-10
   9.960000     -6.0930644E-10
   10.02000     -7.2908413E-10
   10.08000     -8.5746837E-10
   10.14000     -9.9528608E-10
   10.20000     -1.1398839E-09
   10.26000     -1.2839247E-09
   10.32000     -1.4161089E-09
   10.38000     -1.5234729E-09
   10.44000     -1.5941782E-09
   10.50000     -1.6196068E-09
   10.56000     -1.5951274E-09
   10.62000     -1.5196814E-09
   10.68000     -1.3948922E-09
   10.74000     -1.2244054E-09
   10.80000     -1.0137252E-09
   10.86000     -7.7026074E-10
   10.92000     -5.0304877E-10
   10.98000     -2.2181802E-10
   11.04000      6.4440460E-11
   11.10000      3.4878817E-10
   11.16000      6.2684585E-10
   11.22000      8.9614843E-10
   11.28000      1.1545838E-09
   11.34000      1.3986373E-09
   11.40000      1.6222981E-09
   11.46000      1.8172163E-09
   11.52000      1.9741868E-09
   11.58000      2.0855067E-09
   11.64000      2.1474282E-09
   11.70000      2.1618747E-09
   11.76000      2.1367845E-09
   11.82000      2.0848236E-09
   11.88000      2.0206694E-09
   11.94000      1.9575168E-09
   12.00000      1.9037603E-09
   12.06000      1.8608578E-09
   12.12000      1.8230889E-09
   12.18000      1.7793456E-09
   12.24000      1.7164193E-09
   12.30000      1.6227448E-09
   12.36000      1.4914420E-09
   12.42000      1.3218144E-09
   12.48000      1.1190611E-09
   12.54000      8.9256613E-10
   12.60000      6.5350753E-10
   12.66000      4.1255777E-10
   12.72000      1.7822829E-10
   12.78000     -4.3908925E-11
   12.84000     -2.5114427E-10
   12.90000     -4.4286075E-10
   12.96000     -6.1931010E-10
   13.02000     -7.8024792E-10
   13.08000     -9.2382169E-10
   13.14000     -1.0461251E-09
   13.20000     -1.1416930E-09
   13.26000     -1.2048973E-09
   13.32000     -1.2318023E-09
   13.38000     -1.2217476E-09
   13.44000     -1.1779351E-09
   13.50000     -1.1066489E-09
   13.56000     -1.0153360E-09
   13.62000     -9.1032631E-10
   13.68000     -7.9521573E-10
   13.74000     -6.7070283E-10
   13.80000     -5.3603172E-10
   13.86000     -3.9142195E-10
   13.92000     -2.4032779E-10
   13.98000     -9.0349797E-11
   14.04000      4.7825001E-11
   14.10000      1.6317205E-10
   14.16000      2.4764618E-10
   14.22000      2.9859881E-10
   14.28000      3.1918101E-10
   14.34000      3.1654035E-10
   14.40000      2.9867295E-10
   14.46000      2.7144006E-10
   14.52000      2.3714855E-10
   14.58000      1.9526558E-10
   14.64000      1.4471420E-10
   14.70000      8.6386724E-11
   14.76000      2.4449196E-11
   14.82000     -3.4276908E-11
   14.88000     -8.2497266E-11
   14.94000     -1.1501145E-10
   15.00000     -1.3035981E-10
   15.06000     -1.3084997E-10
   15.12000     -1.2118551E-10
   15.18000     -1.0660289E-10
   15.24000     -9.1487255E-11
   15.30000     -7.8928683E-11
   15.36000     -7.0994877E-11
   15.42000     -6.9108837E-11
   15.48000     -7.4050863E-11
   15.54000     -8.5585421E-11
   15.60000     -1.0213839E-10
   15.66000     -1.2097105E-10
   15.72000     -1.3890256E-10
   15.78000     -1.5313879E-10
   15.84000     -1.6159801E-10
   15.90000     -1.6246106E-10
   15.96000     -1.5332158E-10
   16.02000     -1.3077993E-10
   16.08000     -9.1210858E-11
   16.14000     -3.2714307E-11
   16.20000      4.2647972E-11
   16.26000      1.2770153E-10
   16.32000      2.1112273E-10
   16.38000      2.8050084E-10
   16.44000      3.2632561E-10
   16.50000      3.4514597E-10
   16.56000      3.4050168E-10
   16.62000      3.2131417E-10
   16.68000      2.9860750E-10
   16.74000      2.8205235E-10
   16.80000      2.7761363E-10
   16.86000      2.8678213E-10
   16.92000      3.0704858E-10
   16.98000      3.3291772E-10
   17.04000      3.5696635E-10
   17.10000      3.7091902E-10
   17.16000      3.6699344E-10
   17.22000      3.3961500E-10
   17.28000      2.8713457E-10
   17.34000      2.1279914E-10
   17.40000      1.2428653E-10
   17.46000      3.1675645E-11
   17.52000     -5.5512248E-11
   17.58000     -1.3106234E-10
   17.64000     -1.9352604E-10
   17.70000     -2.4590530E-10
   17.76000     -2.9385711E-10
   17.82000     -3.4326555E-10
   17.88000     -3.9811501E-10
   17.94000     -4.5927517E-10
   18.00000     -5.2433413E-10
   18.06000     -5.8826449E-10
   18.12000     -6.4458394E-10
   18.18000     -6.8671197E-10
   18.24000     -7.0929057E-10
   18.30000     -7.0925016E-10
   18.36000     -6.8639711E-10
   18.42000     -6.4336725E-10
   18.48000     -5.8495542E-10
   18.54000     -5.1705473E-10
   18.60000     -4.4556822E-10
   18.66000     -3.7561726E-10
   18.72000     -3.1118183E-10
   18.78000     -2.5508559E-10
   18.84000     -2.0912123E-10
   18.90000     -1.7414575E-10
   18.96000     -1.5010347E-10
   19.02000     -1.3604808E-10
   19.08000     -1.3025979E-10
   19.14000     -1.3049947E-10
   19.20000     -1.3437453E-10
   19.26000     -1.3976439E-10
   19.32000     -1.4526150E-10
   19.38000     -1.5056988E-10
   19.44000     -1.5675206E-10
   19.50000     -1.6615806E-10
   19.56000     -1.8190312E-10
   19.62000     -2.0693357E-10
   19.68000     -2.4297381E-10
   19.74000     -2.8981781E-10
   19.80000     -3.4535966E-10
   19.86000     -4.0642251E-10
   19.92000     -4.7001536E-10
   19.98000     -5.3437810E-10
   20.04000     -5.9927352E-10
   20.10000     -6.6541389E-10
   20.16000     -7.3342626E-10
   20.22000     -8.0303048E-10
   20.28000     -8.7294766E-10
   20.34000     -9.4156605E-10
   20.40000     -1.0078822E-09
   20.46000     -1.0720415E-09
   20.52000     -1.1350499E-09
   20.58000     -1.1977686E-09
   20.64000     -1.2597725E-09
   20.70000     -1.3187873E-09
   20.76000     -1.3711079E-09
   20.82000     -1.4128720E-09
   20.88000     -1.4416118E-09
   20.94000     -1.4573738E-09
   21.00000     -1.4629238E-09
   21.06000     -1.4629735E-09
   21.12000     -1.4627404E-09
   21.18000     -1.4663589E-09
   21.24000     -1.4756480E-09
   21.30000     -1.4895946E-09
   21.36000     -1.5047014E-09
   21.42000     -1.5161228E-09
   21.48000     -1.5192706E-09
   21.54000     -1.5113887E-09
   21.60000     -1.4925362E-09
   21.66000     -1.4655733E-09
   21.72000     -1.4351070E-09
   21.78000     -1.4057872E-09
   21.84000     -1.3806322E-09
   21.90000     -1.3600614E-09
   21.96000     -1.3419824E-09
   22.02000     -1.3228089E-09
   22.08000     -1.2989000E-09
   22.14000     -1.2678005E-09
   22.20000     -1.2288416E-09
   22.26000     -1.1830091E-09
   22.32000     -1.1322848E-09
   22.38000     -1.0788154E-09
   22.44000     -1.0242308E-09
   22.50000     -9.6930519E-10
   22.56000     -9.1402752E-10
   22.62000     -8.5804192E-10
   22.68000     -8.0133855E-10
   22.74000     -7.4498435E-10
   22.80000     -6.9161327E-10
   22.86000     -6.4540634E-10
   22.92000     -6.1142641E-10
   22.98000     -5.9441901E-10
   23.04000     -5.9744160E-10
   23.10000     -6.2082245E-10
   23.16000     -6.6188155E-10
   23.22000     -7.1559808E-10
   23.28000     -7.7606438E-10
   23.34000     -8.3827945E-10
   23.40000     -8.9969293E-10
   23.46000     -9.6097330E-10
   23.52000     -1.0257123E-09
   23.58000     -1.0991227E-09
   23.64000     -1.1861345E-09
   23.70000     -1.2895330E-09
   23.76000     -1.4087967E-09
   23.82000     -1.5400599E-09
   23.88000     -1.6771970E-09
   23.94000     -1.8135962E-09
   24.00000     -1.9439323E-09
   24.06000     -2.0653166E-09
   24.12000     -2.1775188E-09
   24.18000     -2.2823792E-09
   24.24000     -2.3828051E-09
   24.30000     -2.4817721E-09
   24.36000     -2.5815805E-09
   24.42000     -2.6834048E-09
   24.48000     -2.7870926E-09
   24.54000     -2.8912033E-09
   24.60000     -2.9933511E-09
   24.66000     -3.0908527E-09
   24.72000     -3.1814853E-09
   24.78000     -3.2639746E-09
   24.84000     -3.3378504E-09
   24.90000     -3.4026242E-09
   24.96000     -3.4567154E-09
   25.02000     -3.4968475E-09
   25.08000     -3.5185044E-09
   25.14000     -3.5174652E-09
   25.20000     -3.4917353E-09
   25.26000     -3.4428322E-09
   25.32000     -3.3756153E-09
   25.38000     -3.2966123E-09
   25.44000     -3.2116094E-09
   25.50000     -3.1236769E-09
   25.56000     -3.0325209E-09
   25.62000     -2.9353244E-09
   25.68000     -2.8284828E-09
   25.74000     -2.7093372E-09
   25.80000     -2.5772331E-09
   25.86000     -2.4337514E-09
   25.92000     -2.2823725E-09
   25.98000     -2.1279010E-09
   26.04000     -1.9757755E-09
   26.10000     -1.8311949E-09
   26.16000     -1.6980426E-09
   26.22000     -1.5778652E-09
   26.28000     -1.4693885E-09
   26.34000     -1.3689744E-09
   26.40000     -1.2719777E-09
   26.46000     -1.1744422E-09
   26.52000     -1.0743337E-09
   26.58000     -9.7176744E-10
   26.64000     -8.6827395E-10
   26.70000     -7.6567852E-10
   26.76000     -6.6527828E-10
   26.82000     -5.6764909E-10
   26.88000     -4.7290089E-10
   26.94000     -3.8093648E-10
   27.00000     -2.9142036E-10
   27.06000     -2.0357610E-10
   27.12000     -1.1619464E-10
   27.18000     -2.8103910E-11
   27.24000      6.1103074E-11
   27.30000      1.5065678E-10
   27.36000      2.3901206E-10
   27.42000      3.2500497E-10
   27.48000      4.0906900E-10
   27.54000      4.9362037E-10
   27.60000      5.8219751E-10
   27.66000      6.7781142E-10
   27.72000      7.8159024E-10
   27.78000      8.9267116E-10
   27.84000      1.0094305E-09
   27.90000      1.1311507E-09
   27.96000      1.2588435E-09
   28.02000      1.3945295E-09
   28.08000      1.5394293E-09
   28.14000      1.6924114E-09
   28.20000      1.8499619E-09
   28.26000      2.0078690E-09
   28.32000      2.1635203E-09
   28.38000      2.3171263E-09
   28.44000      2.4708535E-09
   28.50000      2.6263172E-09
   28.56000      2.7821410E-09
   28.62000      2.9333742E-09
   28.68000      3.0733409E-09
   28.74000      3.1967979E-09
   28.80000      3.3022989E-09
   28.86000      3.3921403E-09
   28.92000      3.4699179E-09
   28.98000      3.5373853E-09
   29.04000      3.5928220E-09
   29.10000      3.6320791E-09
   29.16000      3.6516041E-09
   29.22000      3.6513539E-09
   29.28000      3.6355623E-09
   29.34000      3.6108012E-09
   29.40000      3.5826258E-09
   29.46000      3.5530223E-09
   29.52000      3.5203038E-09
   29.58000      3.4813925E-09
   29.64000      3.4348764E-09
   29.70000      3.3827825E-09
   29.76000      3.3299994E-09
   29.82000      3.2818486E-09
   29.88000      3.2414282E-09
   29.94000      3.2082730E-09
   30.00000      3.1788232E-09
   30.06000      3.1480283E-09
   30.12000      3.1109311E-09
   30.18000      3.0635359E-09
   30.24000      3.0031186E-09
   30.30000      2.9285983E-09
   30.36000      2.8413216E-09
   30.42000      2.7458291E-09
   30.48000      2.6496625E-09
   30.54000      2.5615734E-09
   30.60000      2.4884883E-09
   30.66000      2.4326132E-09
   30.72000      2.3902895E-09
   30.78000      2.3533830E-09
   30.84000      2.3125926E-09
   30.90000      2.2610038E-09
   30.96000      2.1961779E-09
   31.02000      2.1200515E-09
   31.08000      2.0372106E-09
   31.14000      1.9528557E-09
   31.20000      1.8715507E-09
   31.26000      1.7969850E-09
   31.32000      1.7321502E-09
   31.38000      1.6791948E-09
   31.44000      1.6387554E-09
   31.50000      1.6092762E-09
   31.56000      1.5870784E-09
   31.62000      1.5674919E-09
   31.68000      1.5465568E-09
   31.74000      1.5222785E-09
   31.80000      1.4946128E-09
   31.86000      1.4641717E-09
   31.92000      1.4304941E-09
   31.98000      1.3910058E-09
   32.04000      1.3413193E-09
   32.10000      1.2766369E-09
   32.16000      1.1933609E-09
   32.22000      1.0900051E-09
   32.28000      9.6709640E-10
   32.34000      8.2644830E-10
   32.40000      6.7050071E-10
   32.46000      5.0215704E-10
   32.52000      3.2499980E-10
   32.58000      1.4339364E-10
   32.64000     -3.7920635E-11
   32.70000     -2.1467879E-10
   32.76000     -3.8390308E-10
   32.82000     -5.4413279E-10
   32.88000     -6.9491307E-10
   32.94000     -8.3587909E-10
   33.00000     -9.6601793E-10
   33.06000     -1.0835133E-09
   33.12000     -1.1861462E-09
   33.18000     -1.2718872E-09
   33.24000     -1.3393014E-09
   33.30000     -1.3876650E-09
   33.36000     -1.4169597E-09
   33.42000     -1.4279441E-09
   33.48000     -1.4222666E-09
   33.54000     -1.4023492E-09
   33.60000     -1.3708114E-09
   33.66000     -1.3295555E-09
   33.72000     -1.2790514E-09
   33.78000     -1.2184492E-09
   33.84000     -1.1467268E-09
   33.90000     -1.0643669E-09
   33.96000     -9.7452613E-10
   34.02000     -8.8276897E-10
   34.08000     -7.9520485E-10
   34.14000     -7.1585315E-10
   34.20000     -6.4463784E-10
   34.26000     -5.7716115E-10
   34.32000     -5.0645371E-10
   34.38000     -4.2582132E-10
   34.44000     -3.3136605E-10
   34.50000     -2.2304843E-10
   34.56000     -1.0405725E-10
   34.62000      2.0835549E-11
   34.68000      1.4687068E-10
   34.74000      2.7007768E-10
   34.80000      3.8714598E-10
   34.86000      4.9488463E-10
   34.92000      5.8989957E-10
   34.98000      6.6880568E-10
   35.04000      7.2883038E-10
   35.10000      7.6839168E-10
   35.16000      7.8728896E-10
   35.22000      7.8642370E-10
   35.28000      7.6723333E-10
   35.34000      7.3111478E-10
   35.40000      6.7903239E-10
   35.46000      6.1137134E-10
   35.52000      5.2802573E-10
   35.58000      4.2870199E-10
   35.64000      3.1340527E-10
   35.70000      1.8299974E-10
   35.76000      3.9629650E-11
   35.82000     -1.1323638E-10
   35.88000     -2.7124752E-10
   35.94000     -4.2997286E-10
   36.00000     -5.8574368E-10
   36.06000     -7.3620982E-10
   36.12000     -8.8047580E-10
   36.18000     -1.0189374E-09
   36.24000     -1.1530564E-09
   36.30000     -1.2852174E-09
   36.36000     -1.4185744E-09
   36.42000     -1.5566509E-09
   36.48000     -1.7025433E-09
   36.54000     -1.8578719E-09
   36.60000     -2.0219209E-09
   36.66000     -2.1914490E-09
   36.72000     -2.3613795E-09
   36.78000     -2.5261171E-09
   36.84000     -2.6809142E-09
   36.90000     -2.8227056E-09
   36.96000     -2.9501681E-09
   37.02000     -3.0631921E-09
   37.08000     -3.1622152E-09
   37.14000     -3.2477812E-09
   37.20000     -3.3204222E-09
   37.26000     -3.3806800E-09
   37.32000     -3.4290317E-09
   37.38000     -3.4656671E-09
   37.44000     -3.4902607E-09
   37.50000     -3.5019738E-09
   37.56000     -3.4997685E-09
   37.62000     -3.4828807E-09
   37.68000     -3.4511642E-09
   37.74000     -3.4050911E-09
   37.80000     -3.3454253E-09
   37.86000     -3.2727985E-09
   37.92000     -3.1874465E-09
   37.98000     -3.0892013E-09
   38.04000     -2.9776541E-09
   38.10000     -2.8523162E-09
   38.16000     -2.7127169E-09
   38.22000     -2.5585121E-09
   38.28000     -2.3897422E-09
   38.34000     -2.2072391E-09
   38.40000     -2.0129727E-09
   38.46000     -1.8100322E-09
   38.52000     -1.6020802E-09
   38.58000     -1.3924344E-09
   38.64000     -1.1832115E-09
   38.70000     -9.7497332E-10
   38.76000     -7.6702339E-10
   38.82000     -5.5809957E-10
   38.88000     -3.4698719E-10
   38.94000     -1.3271441E-10
   39.00000      8.5620226E-11
   39.06000      3.0899217E-10
   39.12000      5.3814780E-10
   39.18000      7.7278123E-10
   39.24000      1.0105927E-09
   39.30000      1.2468769E-09
   39.36000      1.4750934E-09
   39.42000      1.6883361E-09
   39.48000      1.8810962E-09
   39.54000      2.0505333E-09
   39.60000      2.1967566E-09
   39.66000      2.3221500E-09
   39.72000      2.4301972E-09
   39.78000      2.5243465E-09
   39.84000      2.6072182E-09
   39.90000      2.6801599E-09
   39.96000      2.7430469E-09
   40.02000      2.7943272E-09
   40.08000      2.8314717E-09
   40.14000      2.8519209E-09
   40.20000      2.8543161E-09
   40.26000      2.8394382E-09
   40.32000      2.8101954E-09
   40.38000      2.7703964E-09
   40.44000      2.7227336E-09
   40.50000      2.6669909E-09
   40.56000      2.5995168E-09
   40.62000      2.5143931E-09
   40.68000      2.4058118E-09
   40.74000      2.2704927E-09
   40.80000      2.1089746E-09
   40.86000      1.9252711E-09
   40.92000      1.7252761E-09
   40.98000      1.5148773E-09
   41.04000      1.2986762E-09
   41.10000      1.0796519E-09
   41.16000      8.5949198E-10
   41.22000      6.3905126E-10
   41.28000      4.1861134E-10
   41.34000      1.9802358E-10
   41.40000     -2.2955951E-11
   41.46000     -2.4399016E-10
   41.52000     -4.6340140E-10
   41.58000     -6.7786537E-10
   41.64000     -8.8296437E-10
   41.70000     -1.0744924E-09
   41.76000     -1.2498558E-09
   41.82000     -1.4087541E-09
   41.88000     -1.5527053E-09
   41.94000     -1.6836663E-09
   42.00000     -1.8025521E-09
   42.06000     -1.9084789E-09
   42.12000     -1.9990634E-09
   42.18000     -2.0714570E-09
   42.24000     -2.1234197E-09
   42.30000     -2.1538802E-09
   42.36000     -2.1629158E-09
   42.42000     -2.1515154E-09
   42.48000     -2.1215125E-09
   42.54000     -2.0757323E-09
   42.60000     -2.0179654E-09
   42.66000     -1.9522965E-09
   42.72000     -1.8817237E-09
   42.78000     -1.8066302E-09
   42.84000     -1.7240677E-09
   42.90000     -1.6285894E-09
   42.96000     -1.5145909E-09
   43.02000     -1.3792157E-09
   43.08000     -1.2244269E-09
   43.14000     -1.0571594E-09
   43.20000     -8.8738483E-10
   43.26000     -7.2492212E-10
   43.32000     -5.7636051E-10
   43.38000     -4.4329143E-10
   43.44000     -3.2235101E-10
   43.50000     -2.0680863E-10
   43.56000     -8.8975556E-11
   43.62000      3.7340020E-11
   43.68000      1.7490538E-10
   43.74000      3.2202976E-10
   43.80000      4.7267090E-10
   43.86000      6.1779187E-10
   43.92000      7.4778156E-10
   43.98000      8.5529150E-10
   44.04000      9.3746000E-10
   44.10000      9.9651598E-10
   44.16000      1.0383437E-09
   44.22000      1.0695355E-09
   44.28000      1.0942695E-09
   44.34000      1.1125040E-09
   44.40000      1.1203291E-09
   44.46000      1.1121818E-09
   44.52000      1.0836764E-09
   44.58000      1.0335609E-09
   44.64000      9.6393615E-10
   44.70000      8.7891538E-10
   44.76000      7.8273249E-10
   44.82000      6.7841671E-10
   44.88000      5.6756339E-10
   44.94000      4.5090651E-10
   45.00000      3.2891778E-10
   45.06000      2.0183370E-10
   45.12000      6.9148527E-11
   45.18000     -7.0802496E-11
   45.24000     -2.2048241E-10
   45.30000     -3.8186504E-10
   45.36000     -5.5483229E-10
   45.42000     -7.3629092E-10
   45.48000     -9.2077362E-10
   45.54000     -1.1024500E-09
   45.60000     -1.2775814E-09
   45.66000     -1.4461036E-09
   45.72000     -1.6114402E-09
   45.78000     -1.7786186E-09
   45.84000     -1.9516673E-09
   45.90000     -2.1316091E-09
   45.96000     -2.3159537E-09
   46.02000     -2.4997351E-09
   46.08000     -2.6773763E-09
   46.14000     -2.8443934E-09
   46.20000     -2.9982652E-09
   46.26000     -3.1383789E-09
   46.32000     -3.2654319E-09
   46.38000     -3.3807759E-09
   46.44000     -3.4859564E-09
   46.50000     -3.5824059E-09
   46.56000     -3.6711152E-09
   46.62000     -3.7522287E-09
   46.68000     -3.8247281E-09
   46.74000     -3.8864791E-09
   46.80000     -3.9348009E-09
   46.86000     -3.9673997E-09
   46.92000     -3.9832542E-09
   46.98000     -3.9829722E-09
   47.04000     -3.9683714E-09
   47.10000     -3.9414170E-09
   47.16000     -3.9030135E-09
   47.22000     -3.8522625E-09
   47.28000     -3.7866168E-09
   47.34000     -3.7029788E-09
   47.40000     -3.5993426E-09
   47.46000     -3.4762597E-09
   47.52000     -3.3373986E-09
   47.58000     -3.1887806E-09
   47.64000     -3.0368179E-09
   47.70000     -2.8858758E-09
   47.76000     -2.7364011E-09
   47.82000     -2.5845512E-09
   47.88000     -2.4236577E-09
   47.94000     -2.2470399E-09
   48.00000     -2.0510103E-09
   48.06000     -1.8367711E-09
   48.12000     -1.6103829E-09
   48.18000     -1.3808770E-09
   48.24000     -1.1574176E-09
   48.30000     -9.4676489E-10
   48.36000     -7.5199608E-10
   48.42000     -5.7272287E-10
   48.48000     -4.0632780E-10
   48.54000     -2.4941990E-10
   48.60000     -9.8879023E-11
   48.66000      4.7689082E-11
   48.72000      1.9187604E-10
   48.78000      3.3446917E-10
   48.84000      4.7540982E-10
   48.90000      6.1383859E-10
   48.96000      7.4841811E-10
   49.02000      8.7795243E-10
   49.08000      1.0020589E-09
   49.14000      1.1215272E-09
   49.20000      1.2381276E-09
   49.26000      1.3539383E-09
   49.32000      1.4705243E-09
   49.38000      1.5883528E-09
   49.44000      1.7066517E-09
   49.50000      1.8236747E-09
   49.56000      1.9371935E-09
   49.62000      2.0450552E-09
   49.68000      2.1457340E-09
   49.74000      2.2388327E-09
   49.80000      2.3253843E-09
   49.86000      2.4077074E-09
   49.92000      2.4886144E-09
   49.98000      2.5700750E-09
   50.04000      2.6518188E-09
   50.10000      2.7305913E-09
   50.16000      2.8006033E-09
   50.22000      2.8551721E-09
   50.28000      2.8889227E-09
   50.34000      2.8995892E-09
   50.40000      2.8886529E-09
   50.46000      2.8606351E-09
   50.52000      2.8215115E-09
   50.58000      2.7770160E-09
   50.64000      2.7314404E-09
   50.70000      2.6870988E-09
   50.76000      2.6442581E-09
   50.82000      2.6012652E-09
   50.88000      2.5548235E-09
   50.94000      2.5005982E-09
   51.00000      2.4343023E-09
   51.06000      2.3531019E-09
   51.12000      2.2567825E-09
   51.18000      2.1480095E-09
   51.24000      2.0313453E-09
   51.30000      1.9113262E-09
   51.36000      1.7904763E-09
   51.42000      1.6682480E-09
   51.48000      1.5414301E-09
   51.54000      1.4058195E-09
   51.60000      1.2583181E-09
   51.66000      1.0984770E-09
   51.72000      9.2887636E-10
   51.78000      7.5436096E-10
   51.84000      5.8063920E-10
   51.90000      4.1289547E-10
   51.96000      2.5485181E-10
   52.02000      1.0840205E-10
   52.08000     -2.6252545E-11
   52.14000     -1.5003532E-10
   52.20000     -2.6400260E-10
   52.26000     -3.6799852E-10
   52.32000     -4.5923679E-10
   52.38000     -5.3134525E-10
   52.44000     -5.7445809E-10
   52.50000     -5.7660543E-10
   52.56000     -5.2602933E-10
   52.62000     -4.1350889E-10
   52.68000     -2.3364849E-10
   52.74000      1.5515839E-11
   52.80000      3.3443015E-10
   52.86000      7.2450695E-10
   52.92000      1.1899887E-09
   52.98000      1.7383340E-09
   53.04000      2.3790716E-09
   53.10000      3.1217475E-09
   53.16000      3.9739589E-09
   53.22000      4.9401812E-09
   53.28000      6.0215979E-09
   53.34000      7.2167010E-09
   53.40000      8.5222434E-09
   53.46000      9.9343227E-09
   53.52000      1.1449464E-08
   53.58000      1.3065659E-08
   53.64000      1.4783018E-08
   53.70000      1.6603556E-08
   53.76000      1.8529768E-08
   53.82000      2.0562208E-08
   53.88000      2.2696840E-08
   53.94000      2.4923420E-08
   54.00000      2.7225600E-08
   54.06000      2.9582745E-08
   54.12000      3.1972455E-08
   54.18000      3.4372430E-08
   54.24000      3.6761012E-08
   54.30000      3.9116344E-08
   54.36000      4.1415259E-08
   54.42000      4.3632788E-08
   54.48000      4.5742787E-08
   54.54000      4.7719034E-08
   54.60000      4.9535881E-08
   54.66000      5.1167802E-08
   54.72000      5.2588060E-08
   54.78000      5.3767472E-08
   54.84000      5.4674302E-08
   54.90000      5.5275525E-08
   54.96000      5.5538692E-08
   55.02000      5.5433269E-08
   55.08000      5.4930602E-08
   55.14000      5.4002843E-08
   55.20000      5.2621807E-08
   55.26000      5.0758903E-08
   55.32000      4.8386536E-08
   55.38000      4.5480174E-08
   55.44000      4.2020229E-08
   55.50000      3.7992855E-08
   55.56000      3.3389775E-08