 -0.750000000       0.00000000    
 -0.689999998       0.00000000    
 -0.629999995       0.00000000    
 -0.569999993       0.00000000    
 -0.509999990       0.00000000    
 -0.449999988       7.04410046E-21
 -0.389999986       3.99214360E-20
 -0.330000013       9.62743366E-20
 -0.270000011       1.09179711E-19
 -0.209999993       5.73284955E-20
 -0.150000006       3.17682126E-19
  -9.00000036E-02   1.81630148E-18
  -2.99999993E-02   4.97881955E-18
   2.99999993E-02   7.05919409E-18
   9.00000036E-02  -2.42561486E-19
  0.150000006      -2.84107688E-17
  0.209999993      -8.13049721E-17
  0.270000011      -1.38775827E-16
  0.330000013      -1.47166853E-16
  0.389999986      -3.33182594E-17
  0.449999988       2.51051063E-16
  0.509999990       6.70617160E-16
  0.569999993       1.07133066E-15
  0.629999995       1.20760249E-15
  0.689999998       8.40489724E-16
  0.750000000      -1.31288029E-16
  0.810000002      -1.57676581E-15
  0.870000005      -3.13142109E-15
  0.930000007      -4.29319962E-15
  0.990000010      -4.56490831E-15
   1.04999995      -3.58010249E-15
   1.11000001      -1.19184058E-15
   1.16999996       2.44214337E-15
   1.23000002       6.74437067E-15
   1.28999996       1.06210198E-14
   1.35000002       1.25385796E-14
   1.40999997       1.09424544E-14
   1.47000003       5.02372615E-15
   1.52999997      -4.45079730E-15
   1.59000003      -1.47571385E-14
   1.64999998      -2.17359462E-14
   1.71000004      -2.12620940E-14
   1.76999998      -1.11352806E-14
   1.83000004       7.49645927E-15
   1.88999999       2.99217201E-14
   1.95000005       4.89760583E-14
   2.00999999       5.68951760E-14
   2.06999993       4.70762515E-14
   2.13000011       1.53340865E-14
   2.19000006      -3.89917184E-14
   2.25000000      -1.11333306E-13
   2.30999994      -1.89435829E-13
   2.36999989      -2.51428734E-13
   2.43000007      -2.67038751E-13
   2.49000001      -2.04446404E-13
   2.54999995      -4.30307916E-14
   2.60999990       2.11505401E-13
   2.67000008       5.16414006E-13
   2.73000002       7.92891577E-13
   2.78999996       9.42690804E-13
   2.84999990       8.77896226E-13
   2.91000009       5.54863284E-13
   2.97000003      -8.71132689E-17
   3.02999997      -6.83961839E-13
   3.08999991      -1.33390412E-12
   3.15000010      -1.76399889E-12
   3.21000004      -1.81215069E-12
   3.26999998      -1.38468566E-12
   3.32999992      -4.88136441E-13
   3.39000010       7.57951590E-13
   3.45000005       2.12868807E-12
   3.50999999       3.32016229E-12
   3.56999993       3.99099894E-12
   3.63000011       3.81520033E-12
   3.69000006       2.54201152E-12
   3.75000000       5.79209396E-14
   3.80999994      -3.55528627E-12
   3.86999989      -7.97428183E-12
   3.93000007      -1.26100606E-11
   3.99000001      -1.66188452E-11
   4.05000019      -1.89623681E-11
   4.11000013      -1.85295772E-11
   4.17000008      -1.43233975E-11
   4.23000002      -5.70050387E-12
   4.28999996       7.36831429E-12
   4.34999990       2.40692830E-11
   4.40999985       4.26110952E-11
   4.46999979       6.02421238E-11
   4.53000021       7.34524663E-11
   4.59000015       7.83531573E-11
   4.65000010       7.11790141E-11
   4.71000004       4.88240073E-11
   4.76999998       9.30470978E-12
   4.82999992      -4.79354195E-11
   4.88999987      -1.21921001E-10
   4.94999981      -2.10220202E-10
   5.01000023      -3.09132081E-10
   5.07000017      -4.13901191E-10
   5.13000011      -5.18900034E-10
   5.19000006      -6.17776774E-10
   5.25000000      -7.03626268E-10
   5.30999994      -7.69271036E-10
   5.36999989      -8.07714062E-10
   5.42999983      -8.12750478E-10
   5.48999977      -7.79635245E-10
   5.55000019      -7.05639880E-10
   5.61000013      -5.90334948E-10
   5.67000008      -4.35513292E-10
   5.73000002      -2.44784054E-10
   5.78999996      -2.29761644E-11
   5.84999990       2.24467764E-10
   5.90999985       4.91961361E-10
   5.96999979       7.74061149E-10
   6.03000021       1.06562803E-09
   6.09000015       1.36198230E-09
   6.15000010       1.65915837E-09
   6.21000004       1.95428673E-09
   6.26999998       2.24602981E-09
   6.32999992       2.53492938E-09
   6.38999987       2.82350787E-09
   6.44999981       3.11602832E-09
   6.51000023       3.41790241E-09
   6.57000017       3.73483111E-09
   6.63000011       4.07181089E-09
   6.69000006       4.43213244E-09
   6.75000000       4.81649254E-09
   6.80999994       5.22226795E-09
   6.86999989       5.64304292E-09
   6.92999983       6.06844797E-09
   6.98999977       6.48445386E-09
   7.05000019       6.87422741E-09
   7.11000013       7.21960935E-09
   7.17000008       7.50312434E-09
   7.23000002       7.71024489E-09
   7.28999996       7.83146081E-09
   7.34999990       7.86367949E-09
   7.40999985       7.81059306E-09
   7.46999979       7.68196085E-09
   7.53000021       7.49202567E-09
   7.59000015       7.25757809E-09
   7.65000010       6.99622449E-09
   7.71000004       6.72520706E-09
   7.76999998       6.46086162E-09
   7.82999992       6.21847329E-09
   7.88999987       6.01212635E-09
   7.94999981       5.85421711E-09
   8.01000023       5.75451375E-09
   8.06999969       5.71894265E-09
   8.13000011       5.74846837E-09
   8.18999958       5.83849191E-09
   8.25000000       5.97904704E-09
   8.31000042       6.15586870E-09
   8.36999989       6.35217878E-09
   8.43000031       6.55085675E-09
   8.48999977       6.73656553E-09
   8.55000019       6.89741908E-09
   8.60999966       7.02583014E-09
   8.67000008       7.11838011E-09
   8.72999954       7.17478743E-09
   8.78999996       7.19631377E-09
   8.85000038       7.18415238E-09
   8.90999985       7.13835568E-09
   8.97000027       7.05766734E-09
   9.02999973       6.94027991E-09
   9.09000015       6.78512135E-09
   9.14999962       6.59305766E-09
   9.21000004       6.36738928E-09
   9.27000046       6.11328055E-09
   9.32999992       5.83622217E-09
   9.39000034       5.54001423E-09
   9.44999981       5.22500354E-09
   9.51000023       4.88727681E-09
   9.56999969       4.51919835E-09
   9.63000011       4.11123446E-09
   9.68999958       3.65454245E-09
   9.75000000       3.14350146E-09
   9.81000042       2.57734523E-09
   9.86999989       1.96034633E-09
   9.93000031       1.30053712E-09
   9.98999977       6.07516981E-10
   10.0500002      -1.09722162E-10
   10.1099997      -8.44036063E-10
   10.1700001      -1.58994984E-09
   10.2299995      -2.34226261E-09
   10.2900000      -3.09426329E-09
   10.3500004      -3.83662613E-09
   10.4099998      -4.55776927E-09
   10.4700003      -5.24575006E-09
   10.5299997      -5.89099747E-09
   10.5900002      -6.48868559E-09
   10.6499996      -7.03965730E-09
   10.7100000      -7.54937979E-09
   10.7700005      -8.02524625E-09
   10.8299999      -8.47321147E-09
   10.8900003      -8.89496921E-09
   10.9499998      -9.28665056E-09
   11.0100002      -9.63945013E-09
   11.0699997      -9.94194505E-09
   11.1300001      -1.01834230E-08
   11.1899996      -1.03572431E-08
   11.2500000      -1.04632898E-08
   11.3100004      -1.05087690E-08
   11.3699999      -1.05069820E-08
   11.4300003      -1.04742828E-08
   11.4899998      -1.04260645E-08
   11.5500002      -1.03730375E-08
   11.6099997      -1.03191757E-08
   11.6700001      -1.02621804E-08
   11.7299995      -1.01964055E-08
   11.7900000      -1.01171604E-08
   11.8500004      -1.00246602E-08
   11.9099998      -9.92599691E-09
   11.9700003      -9.83426851E-09
   12.0299997      -9.76523307E-09
   12.0900002      -9.73280834E-09
   12.1499996      -9.74513892E-09
   12.2100000      -9.80256409E-09
   12.2700005      -9.89794113E-09
   12.3299999      -1.00188302E-08
   12.3900003      -1.01505249E-08
   12.4499998      -1.02788915E-08
   12.5100002      -1.03923519E-08
   12.5699997      -1.04828830E-08
   12.6300001      -1.05462039E-08
   12.6899996      -1.05814202E-08
   12.7500000      -1.05903144E-08
   12.8100004      -1.05763878E-08
   12.8699999      -1.05438254E-08
   12.9300003      -1.04966045E-08
   12.9899998      -1.04380238E-08
   13.0500002      -1.03708055E-08
   13.1099997      -1.02976365E-08
   13.1700001      -1.02217799E-08
   13.2299995      -1.01472981E-08
   13.2900000      -1.00786188E-08
   13.3500004      -1.00195052E-08
   13.4099998      -9.97187843E-09
   13.4700003      -9.93505456E-09
   13.5299997      -9.90579263E-09
   13.5900002      -9.87914284E-09
   13.6499996      -9.84971393E-09
   13.7100000      -9.81268045E-09
   13.7700005      -9.76403669E-09
   13.8299999      -9.69991376E-09
   13.8900003      -9.61530855E-09
   13.9499998      -9.50291668E-09
   14.0100002      -9.35285627E-09
   14.0699997      -9.15373466E-09
   14.1300001      -8.89501539E-09
   14.1899996      -8.57003091E-09
   14.2500000      -8.17860979E-09
   14.3100004      -7.72829001E-09
   14.3699999      -7.23348936E-09
   14.4300003      -6.71273037E-09
   14.4899998      -6.18473361E-09
   14.5500002      -5.66464919E-09
   14.6099997      -5.16168663E-09
   14.6700001      -4.67890082E-09
   14.7299995      -4.21505453E-09
   14.7900000      -3.76769727E-09
   14.8500004      -3.33619532E-09
   14.9099998      -2.92354208E-09
   14.9700003      -2.53638399E-09
   15.0299997      -2.18350116E-09
   15.0900002      -1.87359439E-09
   15.1499996      -1.61342550E-09
   15.2100000      -1.40702905E-09
   15.2700005      -1.25608823E-09
   15.3299999      -1.16096477E-09
   15.3900003      -1.12159226E-09
   15.4499998      -1.13761933E-09
   15.5100002      -1.20768873E-09
   15.5699997      -1.32828137E-09
   15.6300001      -1.49284662E-09
   15.6899996      -1.69181646E-09
   15.7500000      -1.91365546E-09
   15.8100004      -2.14656004E-09
   15.8699999      -2.38008036E-09
   15.9300003      -2.60597033E-09
   15.9899998      -2.81793899E-09
   16.0499992      -3.01049941E-09
   16.1100006      -3.17750981E-09
   16.1700001      -3.31111805E-09
   16.2299995      -3.40160344E-09
   16.2900009      -3.43819617E-09
   16.3500004      -3.41054318E-09
   16.4099998      -3.31026051E-09
   16.4699993      -3.13202464E-09
   16.5300007      -2.87388668E-09
   16.5900002      -2.53680676E-09
   16.6499996      -2.12367146E-09
   16.7099991      -1.63818126E-09
   16.7700005      -1.08397635E-09
   16.8299999      -4.64219552E-10
   16.8899994       2.18311466E-10
   16.9500008       9.60713620E-10
   17.0100002       1.75920600E-09
   17.0699997       2.60833266E-09
   17.1299992       3.50031937E-09
   17.1900005       4.42478187E-09
   17.2500000       5.36895550E-09
   17.3099995       6.31853947E-09
   17.3700008       7.25910621E-09
   17.4300003       8.17779977E-09
   17.4899998       9.06488040E-09
   17.5499992       9.91459892E-09
   17.6100006       1.07250715E-08
   17.6700001       1.14971872E-08
   17.7299995       1.22329311E-08
   17.7900009       1.29338220E-08
   17.8500004       1.35999993E-08
   17.9099998       1.42302135E-08
   17.9699993       1.48224775E-08
   18.0300007       1.53748676E-08
   18.0900002       1.58860001E-08
   18.1499996       1.63550204E-08
   18.2099991       1.67813674E-08
   18.2700005       1.71647301E-08
   18.3299999       1.75054886E-08
   18.3899994       1.78054727E-08
   18.4500008       1.80685937E-08
   18.5100002       1.83007032E-08
   18.5699997       1.85085742E-08
   18.6299992       1.86982501E-08
   18.6900005       1.88735783E-08
   18.7500000       1.90356566E-08
   18.8099995       1.91834388E-08
   18.8700008       1.93151468E-08
   18.9300003       1.94296845E-08
   18.9899998       1.95272936E-08
   19.0499992       1.96092067E-08
   19.1100006       1.96766266E-08
   19.1700001       1.97298018E-08
   19.2299995       1.97677288E-08
   19.2900009       1.97886294E-08
   19.3500004       1.97907557E-08
   19.4099998       1.97728873E-08
   19.4699993       1.97340775E-08
   19.5300007       1.96727097E-08
   19.5900002       1.95854035E-08
   19.6499996       1.94664906E-08
   19.7099991       1.93084517E-08
   19.7700005       1.91033820E-08
   19.8299999       1.88449150E-08
   19.8899994       1.85299847E-08
   19.9500008       1.81598043E-08
   20.0100002       1.77397386E-08
   20.0699997       1.72782126E-08
   20.1299992       1.67849308E-08
   20.1900005       1.62690181E-08
   20.2500000       1.57376103E-08
   20.3099995       1.51953259E-08
   20.3700008       1.46447610E-08
   20.4300003       1.40877408E-08
   20.4899998       1.35267495E-08
   20.5499992       1.29658266E-08
   20.6100006       1.24104060E-08
   20.6700001       1.18660841E-08
   20.7299995       1.13368346E-08
   20.7900009       1.08235021E-08
   20.8500004       1.03233226E-08
   20.9099998       9.83075310E-09
   20.9699993       9.33924493E-09
   21.0300007       8.84319107E-09
   21.0900002       8.33922087E-09
   21.1499996       7.82634846E-09
   21.2099991       7.30505789E-09
   21.2700005       6.77581635E-09
   21.3299999       6.23771257E-09
   21.3899994       5.68776581E-09
   21.4500008       5.12112042E-09
   21.5100002       4.53202320E-09
   21.5699997       3.91522281E-09
   21.6299992       3.26737215E-09
   21.6900005       2.58805377E-09
   21.7500000       1.88018645E-09
   21.8099995       1.14976328E-09
   21.8700008       4.05046580E-10
   21.9300003      -3.44508561E-10
   21.9899998      -1.08929910E-09
   22.0499992      -1.82035764E-09
   22.1100006      -2.52979171E-09
   22.1700001      -3.21092242E-09
   22.2299995      -3.85822752E-09
   22.2900009      -4.46716264E-09
   22.3500004      -5.03388087E-09
   22.4099998      -5.55487212E-09
   22.4699993      -6.02659789E-09
   22.5300007      -6.44525988E-09
   22.5900002      -6.80682133E-09
   22.6499996      -7.10726278E-09
   22.7099991      -7.34289474E-09
   22.7700005      -7.51047846E-09
   22.8299999      -7.60703234E-09
   22.8899994      -7.62947483E-09
   22.9500008      -7.57445839E-09
   23.0100002      -7.43874917E-09
   23.0699997      -7.22016935E-09
   23.1299992      -6.91868651E-09
   23.1900005      -6.53701004E-09
   23.2500000      -6.08019635E-09
   23.3099995      -5.55432145E-09
   23.3700008      -4.96485919E-09
   23.4300003      -4.31569136E-09
   23.4899998      -3.60935459E-09
   23.5499992      -2.84845103E-09
   23.6100006      -2.03744221E-09
   23.6700001      -1.18381838E-09
   23.7299995      -2.97995628E-10
   23.7900009       6.07974560E-10
   23.8500004       1.52216617E-09
   23.9099998       2.43413978E-09
   23.9699993       3.33541106E-09
   24.0300007       4.21912416E-09
   24.0900002       5.07942177E-09
   24.1499996       5.91094462E-09
   24.2099991       6.70856704E-09
   24.2700005       7.46710782E-09
   24.3299999       8.18080714E-09
   24.3899994       8.84266349E-09
   24.4500008       9.44412903E-09
   24.5100002       9.97567362E-09
   24.5699997       1.04283124E-08
   24.6299992       1.07955396E-08
   24.6900005       1.10746781E-08
   24.7500000       1.12668355E-08
   24.8099995       1.13753682E-08
   24.8700008       1.14035945E-08
   24.9300003       1.13529284E-08
   24.9899998       1.12222986E-08
   25.0499992       1.10089386E-08
   25.1100006       1.07097984E-08
   25.1700001       1.03225766E-08
   25.2299995       9.84575976E-09
   25.2900009       9.27788424E-09
   25.3500004       8.61682281E-09
   25.4099998       7.85993937E-09
   25.4699993       7.00540737E-09
   25.5300007       6.05415318E-09
   25.5900002       5.01145170E-09
   25.6499996       3.88728338E-09
   25.7099991       2.69520517E-09
   25.7700005       1.45021073E-09
   25.8299999       1.66483632E-10
   25.8899994      -1.14410514E-09
   25.9500008      -2.47233811E-09
   26.0100002      -3.81092580E-09
   26.0699997      -5.15314991E-09
   26.1299992      -6.49142118E-09
   26.1900005      -7.81621612E-09
   26.2500000      -9.11572595E-09
   26.3099995      -1.03763442E-08
   26.3700008      -1.15839205E-08
   26.4300003      -1.27254012E-08
   26.4899998      -1.37902978E-08
   26.5499992      -1.47714205E-08
   26.6100006      -1.56646021E-08
   26.6700001      -1.64676468E-08
   26.7299995      -1.71790955E-08
   26.7900009      -1.77975092E-08
   26.8500004      -1.83216127E-08
   26.9099998      -1.87510256E-08
   26.9699993      -1.90869915E-08
   27.0300007      -1.93324361E-08
   27.0900002      -1.94911465E-08
   27.1499996      -1.95664658E-08
   27.2099991      -1.95602059E-08
   27.2700005      -1.94724432E-08
   27.3299999      -1.93023020E-08
   27.3899994      -1.90493239E-08
   27.4500008      -1.87147222E-08
   27.5100002      -1.83019964E-08
   27.5699997      -1.78167401E-08
   27.6299992      -1.72659078E-08
   27.6900005      -1.66569407E-08
   27.7500000      -1.59969868E-08
   27.8099995      -1.52922581E-08
   27.8700008      -1.45475196E-08
   27.9300003      -1.37657388E-08
   27.9899998      -1.29481439E-08
   28.0499992      -1.20949064E-08
   28.1100006      -1.12064269E-08
   28.1700001      -1.02848485E-08
   28.2299995      -9.33513000E-09
   28.2900009      -8.36509706E-09
   28.3500004      -7.38428696E-09
   28.4099998      -6.40198206E-09
   28.4699993      -5.42518253E-09
   28.5300007      -4.45727499E-09
   28.5900002      -3.49779716E-09
   28.6499996      -2.54318722E-09
   28.7099991      -1.58805202E-09
   28.7700005      -6.26427688E-10
   28.8299999       3.47274265E-10
   28.8899994       1.33762479E-09
   28.9500008       2.34762365E-09
   29.0100002       3.37798722E-09
   29.0699997       4.42619275E-09
   29.1299992       5.48542367E-09
   29.1900005       6.54375532E-09
   29.2500000       7.58396990E-09
   29.3099995       8.58428706E-09
   29.3700008       9.52002654E-09
   29.4300003       1.03658788E-08
   29.4899998       1.10982112E-08
   29.5499992       1.16967769E-08
   29.6100006       1.21454633E-08
   29.6700001       1.24322037E-08
   29.7299995       1.25486084E-08
   29.7900009       1.24900152E-08
   29.8500004       1.22563497E-08
   29.9099998       1.18535279E-08
   29.9699993       1.12945333E-08
   30.0300007       1.05992299E-08
   30.0900002       9.79244508E-09
   30.1499996       8.90076723E-09
   30.2099991       7.94928745E-09
   30.2700005       6.95957869E-09
   30.3299999       5.94958660E-09
   30.3899994       4.93496399E-09
   30.4500008       3.93058519E-09
   30.5100002       2.95087421E-09
   30.5699997       2.00839345E-09
   30.6299992       1.11130494E-09
   30.6900005       2.61138638E-10
   30.7500000      -5.47740409E-10
   30.8099995      -1.32644595E-09
   30.8700008      -2.08831930E-09
   30.9300003      -2.84551982E-09
   30.9899998      -3.60679930E-09
   31.0499992      -4.37700676E-09
   31.1100006      -5.15789278E-09
   31.1700001      -5.94922422E-09
   31.2299995      -6.74929934E-09
   31.2900009      -7.55456142E-09
   31.3500004      -8.35862668E-09
   31.4099998      -9.15134635E-09
   31.4699993      -9.91837990E-09
   31.5300007      -1.06414468E-08
   31.5900002      -1.12991652E-08
   31.6499996      -1.18684014E-08
   31.7099991      -1.23261312E-08
   31.7700005      -1.26518103E-08
   31.8299999      -1.28299904E-08
   31.8899994      -1.28526301E-08
   31.9500008      -1.27203235E-08
   32.0099983      -1.24419470E-08
   32.0699997      -1.20327490E-08
   32.1300011      -1.15115197E-08
   32.1899986      -1.08977671E-08
   32.2500000      -1.02096740E-08
   32.3100014      -9.46311918E-09
   32.3699989      -8.67157812E-09
   32.4300003      -7.84651100E-09
   32.4900017      -6.99795333E-09
   32.5499992      -6.13518969E-09
   32.6100006      -5.26752020E-09
   32.6699982      -4.40496928E-09
   32.7299995      -3.55864671E-09
   32.7900009      -2.74046608E-09
   32.8499985      -1.96221284E-09
   32.9099998      -1.23433963E-09
   32.9700012      -5.65081926E-10
   33.0299988       3.96979637E-11
   33.0900002       5.76002024E-10
   33.1500015       1.04104103E-09
   33.2099991       1.43301115E-09
   33.2700005       1.75147974E-09
   33.3300018       1.99796979E-09
   33.3899994       2.17602425E-09
   33.4500008       2.29027530E-09
   33.5099983       2.34475217E-09
   33.5699997       2.34131359E-09
   33.6300011       2.27920505E-09
   33.6899986       2.15614615E-09
   33.7500000       1.97040695E-09
   33.8100014       1.72266323E-09
   33.8699989       1.41653489E-09
   33.9300003       1.05753084E-09
   33.9900017       6.51148857E-10
   34.0499992       2.01385880E-10
   34.1100006      -2.89423041E-10
   34.1699982      -8.19467605E-10
   34.2299995      -1.38594447E-09
   34.2900009      -1.98429428E-09
   34.3499985      -2.60873345E-09
   34.4099998      -3.25366911E-09
   34.4700012      -3.91495814E-09
   34.5299988      -4.59009586E-09
   34.5900002      -5.27722044E-09
   34.6500015      -5.97362870E-09
   34.7099991      -6.67483446E-09
   34.7700005      -7.37473815E-09
   34.8300018      -8.06666822E-09
   34.8899994      -8.74446382E-09
   34.9500008      -9.40281719E-09
   35.0099983      -1.00367190E-08
   35.0699997      -1.06405516E-08
   35.1300011      -1.12075806E-08
   35.1899986      -1.17302363E-08
   35.2500000      -1.22009114E-08
   35.3100014      -1.26126158E-08
   35.3699989      -1.29590179E-08
   35.4300003      -1.32340636E-08
   35.4900017      -1.34318618E-08
   35.5499992      -1.35474885E-08
   35.6100006      -1.35786822E-08
   35.6699982      -1.35275764E-08
   35.7299995      -1.34012570E-08
   35.7900009      -1.32104523E-08
   35.8499985      -1.29667317E-08
   35.9099998      -1.26796031E-08
   35.9700012      -1.23550370E-08
   36.0299988      -1.19961925E-08
   36.0900002      -1.16058017E-08
   36.1500015      -1.11887095E-08
   36.2099991      -1.07529541E-08
   36.2700005      -1.03086988E-08
   36.3300018      -9.86554838E-09
   36.3899994      -9.42962863E-09
   36.4500008      -9.00186858E-09
   36.5099983      -8.57813820E-09
   36.5699997      -8.15096701E-09
   36.6300011      -7.71194220E-09
   36.6899986      -7.25384330E-09
   36.7500000      -6.77203360E-09
   36.8100014      -6.26502761E-09
   36.8699989      -5.73446313E-09
   36.9300003      -5.18465582E-09
   36.9900017      -4.62186378E-09
   37.0499992      -4.05337852E-09
   37.1100006      -3.48669382E-09
   37.1699982      -2.92903590E-09
   37.2299995      -2.38739739E-09
   37.2900009      -1.86890370E-09
   37.3499985      -1.38106426E-09
   37.4099998      -9.31457911E-10
   37.4700012      -5.26716115E-10
   37.5299988      -1.71137007E-10
   37.5900002       1.34441527E-10
   37.6500015       3.92948230E-10
   37.7099991       6.10398510E-10
   37.7700005       7.94537214E-10
   37.8300018       9.53382817E-10
   37.8899994       1.09420129E-09
   37.9500008       1.22315269E-09
   38.0099983       1.34553546E-09
   38.0699997       1.46636203E-09
   38.1300011       1.59092028E-09
   38.1899986       1.72499293E-09
   38.2500000       1.87445370E-09
   38.3100014       2.04413397E-09
   38.3699989       2.23618901E-09
   38.4300003       2.44862708E-09
   38.4900017       2.67491740E-09
   38.5499992       2.90536373E-09
   38.6100006       3.13014969E-09
   38.6699982       3.34293038E-09
   38.7299995       3.54319263E-09
   38.7900009       3.73588094E-09
   38.8499985       3.92804100E-09
   38.9099998       4.12388212E-09
   38.9700012       4.32074243E-09
   39.0299988       4.50824489E-09
   39.0900002       4.67136374E-09
   39.1500015       4.79609774E-09
   39.2099991       4.87498131E-09
   39.2700005       4.90973928E-09
   39.3300018       4.90987206E-09
   39.3899994       4.88804863E-09
   39.4500008       4.85467266E-09
   39.5099983       4.81416240E-09
   39.5699997       4.76433692E-09
   39.6300011       4.69867434E-09
   39.6899986       4.60999683E-09
   39.7500000       4.49389326E-09
   39.8100014       4.35076597E-09
   39.8699989       4.18625712E-09
   39.9300003       4.01037203E-09
   39.9900017       3.83577925E-09
   40.0499992       3.67563913E-09
   40.1100006       3.54130636E-09
   40.1699982       3.44038797E-09
   40.2299995       3.37578165E-09
   40.2900009       3.34617289E-09
   40.3499985       3.34793326E-09
   40.4099998       3.37771211E-09
   40.4700012       3.43463791E-09
   40.5299988       3.52120666E-09
   40.5900002       3.64261488E-09
   40.6500015       3.80499854E-09
   40.7099991       4.01342160E-09
   40.7700005       4.27032676E-09
   40.8300018       4.57474902E-09
   40.8899994       4.92225549E-09
   40.9500008       5.30555555E-09
   41.0099983       5.71583758E-09
   41.0699997       6.14490858E-09
   41.1300011       6.58783073E-09
   41.1899986       7.04519643E-09
   41.2500000       7.52384111E-09
   41.3100014       8.03513167E-09
   41.3699989       8.59099014E-09
   41.4300003       9.19900600E-09
   41.4900017       9.85867210E-09
   41.5499992       1.05604379E-08
   41.6100006       1.12879972E-08
   41.6699982       1.20227801E-08
   41.7299995       1.27486786E-08
   41.7900009       1.34552272E-08
   41.8499985       1.41383634E-08
   41.9099998       1.47990606E-08
   41.9700012       1.54408397E-08
   42.0299988       1.60671902E-08
   42.0900002       1.66795022E-08
   42.1500015       1.72758572E-08
   42.2099991       1.78507609E-08
   42.2700005       1.83960349E-08
   42.3300018       1.89028579E-08
   42.3899994       1.93644585E-08
   42.4500008       1.97784011E-08
   42.5099983       2.01471941E-08
   42.5699997       2.04765271E-08
   42.6300011       2.07716866E-08
   42.6899986       2.10337827E-08
   42.7500000       2.12577760E-08
   42.8100014       2.14335287E-08
   42.8699989       2.15494484E-08
   42.9300003       2.15969909E-08
   42.9900017       2.15738254E-08
   43.0499992       2.14842775E-08
   43.1100006       2.13372520E-08
   43.1699982       2.11429647E-08
   43.2299995       2.09101731E-08
   43.2900009       2.06448263E-08
   43.3499985       2.03499777E-08
   43.4099998       2.00261887E-08
   43.4700012       1.96718428E-08
   43.5299988       1.92834033E-08
   43.5900002       1.88562428E-08
   43.6500015       1.83864604E-08
   43.7099991       1.78733597E-08
   43.7700005       1.73214527E-08
   43.8300018       1.67407084E-08
   43.8899994       1.61444991E-08
   43.9500008       1.55458988E-08
   44.0099983       1.49539705E-08
   44.0699997       1.43716576E-08
   44.1300011       1.37960816E-08
   44.1899986       1.32208502E-08
   44.2500000       1.26391484E-08
   44.3100014       1.20463568E-08
   44.3699989       1.14415135E-08
   44.4300003       1.08275886E-08
   44.4900017       1.02108366E-08
   44.5499992       9.59946789E-09
   44.6100006       9.00173536E-09
   44.6699982       8.42371328E-09
   44.7299995       7.86750842E-09
   44.7900009       7.33088656E-09
   44.8499985       6.80906043E-09
   44.9099998       6.29833607E-09
   44.9700012       5.80013193E-09
   45.0299988       5.32327737E-09
   45.0900002       4.88303131E-09
   45.1500015       4.49686510E-09
   45.2099991       4.17878354E-09
   45.2700005       3.93482757E-09
   45.3300018       3.76181353E-09
   45.3899994       3.64965413E-09
   45.4500008       3.58577990E-09
   45.5099983       3.55935903E-09
   45.5699997       3.56352836E-09
   45.6300011       3.59531582E-09
   45.6899986       3.65426311E-09
   45.7500000       3.74115317E-09
   45.8100014       3.85758137E-09
   45.8699989       4.00603861E-09
   45.9300003       4.18952162E-09
   45.9900017       4.41004211E-09
   46.0499992       4.66636063E-09
   46.1100006       4.95219599E-09
   46.1699982       5.25620036E-09
   46.2299995       5.56413493E-09
   46.2900009       5.86243276E-09
   46.3499985       6.14150375E-09
   46.4099998       6.39733511E-09
   46.4700012       6.63090560E-09
   46.5299988       6.84610058E-09
   46.5900002       7.04742176E-09
   46.6500015       7.23854532E-09
   46.7099991       7.42206607E-09
   46.7700005       7.60003616E-09
   46.8300018       7.77471332E-09
   46.8899994       7.94915245E-09
   46.9500008       8.12755641E-09
   47.0099983       8.31536617E-09
   47.0699997       8.51880166E-09
   47.1300011       8.74345574E-09
   47.1899986       8.99178243E-09
   47.2500000       9.26012866E-09
   47.3100014       9.53667367E-09
   47.3699989       9.80177717E-09
   47.4300003       1.00313731E-08
   47.4900017       1.02025357E-08
   47.5499992       1.02990425E-08
   47.6100006       1.03144844E-08
   47.6699982       1.02515596E-08
   47.7299995       1.01180637E-08
   47.7900009       9.92168836E-09
   47.8499985       9.66617364E-09
   47.9099998       9.35041022E-09
   47.9700012       8.97039509E-09
   48.0299988       8.52256754E-09
   48.0900002       8.00668065E-09
   48.1500015       7.42708428E-09
   48.2099991       6.79242174E-09
   48.2700005       6.11450357E-09
   48.3300018       5.40710188E-09
   48.3899994       4.68486094E-09
   48.4500008       3.96201205E-09
   48.5099983       3.25065375E-09
   48.5699997       2.55889465E-09
   48.6300011       1.88972726E-09
   48.6899986       1.24151156E-09
   48.7500000       6.10241635E-10
   48.8100014      -7.24962755E-12
   48.8699989      -6.10632989E-10
   48.9300003      -1.19526777E-09
   48.9900017      -1.75355885E-09
   49.0499992      -2.27767494E-09
   49.1100006      -2.76218870E-09
   49.1699982      -3.20541282E-09
   49.2299995      -3.60904173E-09
   49.2900009      -3.97657818E-09
   49.3499985      -4.31144143E-09
   49.4099998      -4.61551153E-09
   49.4700012      -4.88841989E-09
   49.5299988      -5.12758325E-09
   49.5900002      -5.32889333E-09
   49.6500015      -5.48804380E-09
   49.7099991      -5.60233904E-09
   49.7700005      -5.67251135E-09
   49.8300018      -5.70369973E-09
   49.8899994      -5.70480907E-09
   49.9500008      -5.68608494E-09
   50.0099983      -5.65571145E-09
   50.0699997      -5.61696201E-09
   50.1300011      -5.56733326E-09
   50.1899986      -5.50017365E-09
   50.2500000      -5.40795808E-09
   50.3100014      -5.28550670E-09
   50.3699989      -5.13154008E-09
   50.4300003      -4.94799179E-09
   50.4900017      -4.73780215E-09
   50.5499992      -4.50266802E-09
   50.6100006      -4.24200230E-09