  -2.400000      0.0000000E+00
  -2.340000      0.0000000E+00
  -2.280000      0.0000000E+00
  -2.220000      0.0000000E+00
  -2.160000      0.0000000E+00
  -2.100000     -3.0140196E-20
  -2.040000     -2.0337243E-19
  -1.980000     -6.2366182E-19
  -1.920000     -9.2630549E-19
  -1.860000      3.6948788E-19
  -1.800000      5.7156257E-18
  -1.740000      1.6291723E-17
  -1.680000      2.7682057E-17
  -1.620000      2.6541614E-17
  -1.560000     -6.1058730E-18
  -1.500000     -8.0944785E-17
  -1.440000     -1.7980372E-16
  -1.380000     -2.4343330E-16
  -1.320000     -1.8736158E-16
  -1.260000      4.5726753E-17
  -1.200000      4.1666662E-16
  -1.140000      7.5275760E-16
  -1.080000      7.9700999E-16
  -1.020000      3.5786157E-16
 -0.9600000     -5.0254560E-16
 -0.9000000     -1.3709439E-15
 -0.8400000     -1.6035648E-15
 -0.7800000     -6.8618308E-16
 -0.7200000      1.3199080E-15
 -0.6600000      3.5376702E-15
 -0.6000000      4.5098147E-15
 -0.5400000      2.9472414E-15
 -0.4800000     -1.3275316E-15
 -0.4200000     -6.8237622E-15
 -0.3600000     -1.0742848E-14
 -0.3000000     -1.0344148E-14
 -0.2400000     -4.7509638E-15
 -0.1800000      3.8539372E-15
 -0.1200000      1.0632099E-14
 -5.9999999E-02  1.0355544E-14
  0.0000000E+00  6.9766356E-16
  5.9999999E-02 -1.5163397E-14
  0.1200000     -2.8394228E-14
  0.1800000     -2.7593630E-14
  0.2400000     -4.2607172E-15
  0.3000000      4.1693357E-14
  0.3600000      9.9188554E-14
  0.4200000      1.4782361E-13
  0.4800000      1.6415928E-13
  0.5400000      1.3014077E-13
  0.6000000      4.0216294E-14
  0.6600000     -9.5798606E-14
  0.7200000     -2.5508862E-13
  0.7800000     -4.0790532E-13
  0.8400000     -5.2404424E-13
  0.9000000     -5.7646758E-13
  0.9600000     -5.4081549E-13
   1.020000     -3.9272375E-13
   1.080000     -1.0756466E-13
   1.140000      3.3230217E-13
   1.200000      9.2052321E-13
   1.260000      1.6034309E-12
   1.320000      2.2602174E-12
   1.380000      2.7001379E-12
   1.440000      2.6883062E-12
   1.500000      2.0029859E-12
   1.560000      5.1414743E-13
   1.620000     -1.7393634E-12
   1.680000     -4.5022063E-12
   1.740000     -7.3071878E-12
   1.800000     -9.5390536E-12
   1.860000     -1.0544093E-11
   1.920000     -9.7564457E-12
   1.980000     -6.8083798E-12
   2.040000     -1.6023729E-12
   2.100000      5.6575972E-12
   2.160000      1.4459887E-11
   2.220000      2.3982169E-11
   2.280000      3.3079883E-11
   2.340000      4.0277906E-11
   2.400000      4.3801962E-11
   2.460000      4.1699047E-11
   2.520000      3.2086979E-11
   2.580000      1.3541988E-11
   2.640000     -1.4411774E-11
   2.700000     -5.0789616E-11
   2.760000     -9.2716237E-11
   2.820000     -1.3518467E-10
   2.880000     -1.7108565E-10
   2.940000     -1.9154581E-10
   3.000000     -1.8656479E-10
   3.060000     -1.4589853E-10
   3.120000     -6.0107835E-11
   3.180000      7.8323299E-11
   3.240000      2.7390151E-10
   3.300000      5.2717430E-10
   3.360000      8.3402829E-10
   3.420000      1.1853510E-09
   3.480000      1.5671633E-09
   3.540000      1.9612989E-09
   3.600000      2.3466369E-09
   3.660000      2.7008040E-09
   3.720000      3.0021556E-09
   3.780000      3.2317711E-09
   3.840000      3.3751739E-09
   3.900000      3.4235330E-09
   3.960000      3.3742069E-09
   4.020000      3.2306173E-09
   4.080000      3.0015586E-09
   4.140000      2.7000953E-09
   4.200000      2.3422257E-09
   4.260000      1.9454258E-09
   4.320000      1.5271601E-09
   4.380000      1.1034175E-09
   4.440000      6.8735145E-10
   4.500000      2.8814653E-10
   4.560000     -8.9728905E-11
   4.620000     -4.4673354E-10
   4.680000     -7.8784557E-10
   4.740000     -1.1215727E-09
   4.800000     -1.4585443E-09
   4.860000     -1.8099319E-09
   4.920000     -2.1859563E-09
   4.980000     -2.5946518E-09
   5.040000     -3.0409397E-09
   5.100000     -3.5259360E-09
   5.160000     -4.0463926E-09
   5.220000     -4.5942330E-09
   5.280000     -5.1563056E-09
   5.340000     -5.7146385E-09
   5.400000     -6.2475469E-09
   5.460000     -6.7318386E-09
   5.520000     -7.1460571E-09
   5.580000     -7.4742958E-09
   5.640000     -7.7097635E-09
   5.700000     -7.8571034E-09
   5.760000     -7.9326510E-09
   5.820000     -7.9623081E-09
   5.880000     -7.9773308E-09
   5.940000     -8.0090103E-09
   6.000000     -8.0835703E-09
   6.060000     -8.2185379E-09
   6.120000     -8.4214324E-09
   6.180000     -8.6908729E-09
   6.240000     -9.0194856E-09
   6.300000     -9.3974597E-09
   6.360000     -9.8155031E-09
   6.420000     -1.0266241E-08
   6.480000     -1.0743750E-08
   6.540000     -1.1241637E-08
   6.600000     -1.1750658E-08
   6.660000     -1.2257090E-08
   6.720000     -1.2742848E-08
   6.780000     -1.3187743E-08
   6.840000     -1.3573493E-08
   6.900000     -1.3888371E-08
   6.960000     -1.4131039E-08
   7.020000     -1.4312153E-08
   7.080000     -1.4452965E-08
   7.140000     -1.4580943E-08
   7.200000     -1.4723384E-08
   7.260000     -1.4900654E-08
   7.320000     -1.5120879E-08
   7.380000     -1.5377619E-08
   7.440000     -1.5651297E-08
   7.500000     -1.5914081E-08
   7.560000     -1.6137008E-08
   7.620000     -1.6297406E-08
   7.680000     -1.6384487E-08
   7.740000     -1.6401577E-08
   7.800000     -1.6364218E-08
   7.860000     -1.6294832E-08
   7.920000     -1.6215589E-08
   7.980000     -1.6141806E-08
   8.040000     -1.6078101E-08
   8.100000     -1.6018518E-08
   8.160000     -1.5950588E-08
   8.220000     -1.5861829E-08
   8.280000     -1.5746330E-08
   8.340000     -1.5609015E-08
   8.400000     -1.5465952E-08
   8.460000     -1.5340495E-08
   8.520000     -1.5256443E-08
   8.580000     -1.5230528E-08
   8.640000     -1.5266675E-08
   8.700000     -1.5354026E-08
   8.760000     -1.5469441E-08
   8.820000     -1.5583820E-08
   8.880000     -1.5670372E-08
   8.940000     -1.5712374E-08
   9.000000     -1.5708123E-08
   9.060000     -1.5671569E-08
   9.120000     -1.5628515E-08
   9.180000     -1.5609492E-08
   9.240000     -1.5641541E-08
   9.300000     -1.5741355E-08
   9.360000     -1.5911796E-08
   9.420000     -1.6142705E-08
   9.480000     -1.6415433E-08
   9.540000     -1.6709393E-08
   9.600000     -1.7008226E-08
   9.660000     -1.7303494E-08
   9.720000     -1.7594740E-08
   9.780000     -1.7886169E-08
   9.840000     -1.8181471E-08
   9.900000     -1.8479064E-08
   9.960000     -1.8769837E-08
   10.02000     -1.9038477E-08
   10.08000     -1.9268091E-08
   10.14000     -1.9446331E-08
   10.20000     -1.9570530E-08
   10.26000     -1.9649551E-08
   10.32000     -1.9701231E-08
   10.38000     -1.9746020E-08
   10.44000     -1.9798964E-08
   10.50000     -1.9863066E-08
   10.56000     -1.9926579E-08
   10.62000     -1.9965471E-08
   10.68000     -1.9950299E-08
   10.74000     -1.9855131E-08
   10.80000     -1.9665395E-08
   10.86000     -1.9381986E-08
   10.92000     -1.9020376E-08
   10.98000     -1.8605222E-08
   11.04000     -1.8162366E-08
   11.10000     -1.7710873E-08
   11.16000     -1.7257456E-08
   11.22000     -1.6794816E-08
   11.28000     -1.6304185E-08
   11.34000     -1.5761211E-08
   11.40000     -1.5143518E-08
   11.46000     -1.4437794E-08
   11.52000     -1.3644430E-08
   11.58000     -1.2778332E-08
   11.64000     -1.1865641E-08
   11.70000     -1.0937311E-08
   11.76000     -1.0021580E-08
   11.82000     -9.1377412E-09
   11.88000     -8.2931804E-09
   11.94000     -7.4845303E-09
   12.00000     -6.7021975E-09
   12.06000     -5.9364424E-09
   12.12000     -5.1827165E-09
   12.18000     -4.4444586E-09
   12.24000     -3.7326608E-09
   12.30000     -3.0627088E-09
   12.36000     -2.4498563E-09
   12.42000     -1.9048760E-09
   12.48000     -1.4311066E-09
   12.54000     -1.0234824E-09
   12.60000     -6.6951916E-10
   12.66000     -3.5180681E-10
   12.72000     -5.1339454E-11
   12.78000      2.4905700E-10
   12.84000      5.6191179E-10
   12.90000      8.9349289E-10
   12.96000      1.2437154E-09
   13.02000      1.6075493E-09
   13.08000      1.9775406E-09
   13.14000      2.3468014E-09
   13.20000      2.7117675E-09
   13.26000      3.0741376E-09
   13.32000      3.4416117E-09
   13.38000      3.8272669E-09
   13.44000      4.2475992E-09
   13.50000      4.7194728E-09
   13.56000      5.2564832E-09
   13.62000      5.8655329E-09
   13.68000      6.5445507E-09
   13.74000      7.2821740E-09
   13.80000      8.0597067E-09
   13.86000      8.8549310E-09
   13.92000      9.6467074E-09
   13.98000      1.0418971E-08
   14.04000      1.1162993E-08
   14.10000      1.1877430E-08
   14.16000      1.2566481E-08
   14.22000      1.3237022E-08
   14.28000      1.3895723E-08
   14.34000      1.4546871E-08
   14.40000      1.5191171E-08
   14.46000      1.5825403E-08
   14.52000      1.6442733E-08
   14.58000      1.7033473E-08
   14.64000      1.7586217E-08
   14.70000      1.8089338E-08
   14.76000      1.8532656E-08
   14.82000      1.8909063E-08
   14.88000      1.9215731E-08
   14.94000      1.9454678E-08
   15.00000      1.9632589E-08
   15.06000      1.9759923E-08
   15.12000      1.9849502E-08
   15.18000      1.9914681E-08
   15.24000      1.9967345E-08
   15.30000      2.0015914E-08
   15.36000      2.0063815E-08
   15.42000      2.0108823E-08
   15.48000      2.0143741E-08
   15.54000      2.0158527E-08
   15.60000      2.0143538E-08
   15.66000      2.0093095E-08
   15.72000      2.0008278E-08
   15.78000      1.9897890E-08
   15.84000      1.9777003E-08
   15.90000      1.9663288E-08
   15.96000      1.9572026E-08
   16.02000      1.9511404E-08
   16.08000      1.9479662E-08
   16.14000      1.9465194E-08
   16.20000      1.9449688E-08
   16.26000      1.9413299E-08
   16.32000      1.9340000E-08
   16.38000      1.9221257E-08
   16.44000      1.9056799E-08
   16.50000      1.8852464E-08
   16.56000      1.8616328E-08
   16.62000      1.8354855E-08
   16.68000      1.8070642E-08
   16.74000      1.7762304E-08
   16.80000      1.7426000E-08
   16.86000      1.7057342E-08
   16.92000      1.6652493E-08
   16.98000      1.6207904E-08
   17.04000      1.5719092E-08
   17.10000      1.5179353E-08
   17.16000      1.4579419E-08
   17.22000      1.3908370E-08
   17.28000      1.3155523E-08
   17.34000      1.2312546E-08
   17.40000      1.1375047E-08
   17.46000      1.0343260E-08
   17.52000      9.2218313E-09
   17.58000      8.0189126E-09
   17.64000      6.7447630E-09
   17.70000      5.4099694E-09
   17.76000      4.0234611E-09
   17.82000      2.5907065E-09
   17.88000      1.1127339E-09
   17.94000     -4.1343576E-10
   18.00000     -1.9927389E-09
   18.06000     -3.6288943E-09
   18.12000     -5.3212008E-09
   18.18000     -7.0625856E-09
   18.24000     -8.8397583E-09
   18.30000     -1.0635508E-08
   18.36000     -1.2432300E-08
   18.42000     -1.4215835E-08
   18.48000     -1.5977340E-08
   18.54000     -1.7713905E-08
   18.60000     -1.9426926E-08
   18.66000     -2.1119362E-08
   18.72000     -2.2792751E-08
   18.78000     -2.4444969E-08
   18.84000     -2.6069369E-08
   18.90000     -2.7655549E-08
   18.96000     -2.9191543E-08
   19.02000     -3.0666740E-08
   19.08000     -3.2074571E-08
   19.14000     -3.3413968E-08
   19.20000     -3.4688934E-08
   19.26000     -3.5906147E-08
   19.32000     -3.7071363E-08
   19.38000     -3.8185672E-08
   19.44000     -3.9243055E-08
   19.50000     -4.0229878E-08
   19.56000     -4.1126711E-08
   19.62000     -4.1911751E-08
   19.68000     -4.2564999E-08
   19.74000     -4.3071942E-08
   19.80000     -4.3425874E-08
   19.86000     -4.3628148E-08
   19.92000     -4.3686434E-08
   19.98000     -4.3611301E-08
   20.04000     -4.3412250E-08
   20.10000     -4.3094424E-08
   20.16000     -4.2657220E-08
   20.22000     -4.2095422E-08
   20.28000     -4.1402679E-08
   20.34000     -4.0575905E-08
   20.40000     -3.9619117E-08
   20.46000     -3.8544993E-08
   20.52000     -3.7373674E-08
   20.58000     -3.6129325E-08
   20.64000     -3.4835800E-08
   20.70000     -3.3513146E-08
   20.76000     -3.2175883E-08
   20.82000     -3.0833284E-08
   20.88000     -2.9490934E-08
   20.94000     -2.8152551E-08
   21.00000     -2.6821239E-08
   21.06000     -2.5499903E-08
   21.12000     -2.4191031E-08
   21.18000     -2.2896320E-08
   21.24000     -2.1616485E-08
   21.30000     -2.0351409E-08
   21.36000     -1.9100460E-08
   21.42000     -1.7862762E-08
   21.48000     -1.6637191E-08
   21.54000     -1.5422019E-08
   21.60000     -1.4214270E-08
   21.66000     -1.3009003E-08
   21.72000     -1.1798891E-08
   21.78000     -1.0574446E-08
   21.84000     -9.3251487E-09
   21.90000     -8.0414111E-09
   21.96000     -6.7169146E-09
   22.02000     -5.3505778E-09
   22.08000     -3.9474117E-09
   22.14000     -2.5178706E-09
   22.20000     -1.0758896E-09
   22.26000      3.6371595E-10
   22.32000      1.7875877E-09
   22.38000      3.1851843E-09
   22.44000      4.5488977E-09
   22.50000      5.8731202E-09
   22.56000      7.1527251E-09
   22.62000      8.3814600E-09
   22.68000      9.5506287E-09
   22.74000      1.0648308E-08
   22.80000      1.1659302E-08
   22.86000      1.2565902E-08
   22.92000      1.3349431E-08
   22.98000      1.3992224E-08
   23.04000      1.4479514E-08
   23.10000      1.4800567E-08
   23.16000      1.4948728E-08
   23.22000      1.4920440E-08
   23.28000      1.4713733E-08
   23.34000      1.4326858E-08
   23.40000      1.3757535E-08
   23.46000      1.3002891E-08
   23.52000      1.2059842E-08
   23.58000      1.0925581E-08
   23.64000      9.5980779E-09
   23.70000      8.0767180E-09
   23.76000      6.3633054E-09
   23.82000      4.4634207E-09
   23.88000      2.3877271E-09
   23.94000      1.5262017E-10
   24.00000     -2.2202848E-09
   24.06000     -4.7058322E-09
   24.12000     -7.2776043E-09
   24.18000     -9.9098951E-09
   24.24000     -1.2578645E-08
   24.30000     -1.5261119E-08
   24.36000     -1.7934790E-08
   24.42000     -2.0576163E-08
   24.48000     -2.3160327E-08
   24.54000     -2.5661466E-08
   24.60000     -2.8054089E-08
   24.66000     -3.0314382E-08
   24.72000     -3.2421045E-08
   24.78000     -3.4355189E-08
   24.84000     -3.6099262E-08
   24.90000     -3.7635331E-08
   24.96000     -3.8943220E-08
   25.02000     -3.9999197E-08
   25.08000     -4.0775859E-08
   25.14000     -4.1243517E-08
   25.20000     -4.1373095E-08
   25.26000     -4.1139913E-08
   25.32000     -4.0527365E-08
   25.38000     -3.9529347E-08
   25.44000     -3.8150720E-08
   25.50000     -3.6405659E-08
   25.56000     -3.4314514E-08
   25.62000     -3.1900228E-08
   25.68000     -2.9185490E-08
   25.74000     -2.6191257E-08
   25.80000     -2.2936860E-08
   25.86000     -1.9441281E-08
   25.92000     -1.5724932E-08
   25.98000     -1.1811253E-08
   26.04000     -7.7275937E-09
   26.10000     -3.5050567E-09
   26.16000      8.2265850E-10
   26.22000      5.2211746E-09
   26.28000      9.6575290E-09
   26.34000      1.4101749E-08
   26.40000      1.8527270E-08
   26.46000      2.2909923E-08
   26.52000      2.7225756E-08
   26.58000      3.1448540E-08
   26.64000      3.5548037E-08
   26.70000      3.9490004E-08
   26.76000      4.3238369E-08
   26.82000      4.6759148E-08
   26.88000      5.0025047E-08
   26.94000      5.3019253E-08
   27.00000      5.5736979E-08
   27.06000      5.8184188E-08
   27.12000      6.0373516E-08
   27.18000      6.2318627E-08
   27.24000      6.4028590E-08
   27.30000      6.5503883E-08
   27.36000      6.6735097E-08
   27.42000      6.7704057E-08
   27.48000      6.8386676E-08
   27.54000      6.8755824E-08
   27.60000      6.8783287E-08
   27.66000      6.8440357E-08
   27.72000      6.7697776E-08
   27.78000      6.6526248E-08
   27.84000      6.4898330E-08
   27.90000      6.2792104E-08
   27.96000      6.0195653E-08
   28.02000      5.7111027E-08
   28.08000      5.3556452E-08
   28.14000      4.9565902E-08
   28.20000      4.5186244E-08
   28.26000      4.0472713E-08
   28.32000      3.5483591E-08
   28.38000      3.0275029E-08
   28.44000      2.4896714E-08
   28.50000      1.9389041E-08
   28.56000      1.3782413E-08
   28.62000      8.0989135E-09
   28.68000      2.3561397E-09
   28.74000     -3.4279335E-09
   28.80000     -9.2307104E-09
   28.86000     -1.5022952E-08
   28.92000     -2.0769766E-08
   28.98000     -2.6434090E-08
   29.04000     -3.1980985E-08
   29.10000     -3.7380683E-08
   29.16000     -4.2609003E-08
   29.22000     -4.7644946E-08
   29.28000     -5.2466749E-08
   29.34000     -5.7048315E-08
   29.40000     -6.1357632E-08
   29.46000     -6.5357952E-08
   29.52000     -6.9011136E-08
   29.58000     -7.2281921E-08
   29.64000     -7.5141465E-08
   29.70000     -7.7569368E-08
   29.76000     -7.9553594E-08
   29.82000     -8.1088935E-08
   29.88000     -8.2174651E-08
   29.94000     -8.2812292E-08
   30.00000     -8.3004309E-08
   30.06000     -8.2753900E-08
   30.12000     -8.2065952E-08
   30.18000     -8.0948716E-08
   30.24000     -7.9415535E-08
   30.30000     -7.7485822E-08
   30.36000     -7.5184772E-08
   30.42000     -7.2541816E-08
   30.48000     -6.9588104E-08
   30.54000     -6.6353969E-08
   30.60000     -6.2867215E-08
   30.66000     -5.9153010E-08
   30.72000     -5.5235546E-08
   30.78000     -5.1141036E-08
   30.84000     -4.6901057E-08
   30.90000     -4.2555044E-08
   30.96000     -3.8150834E-08
   31.02000     -3.3742584E-08
   31.08000     -2.9386488E-08
   31.14000     -2.5135099E-08
   31.20000     -2.1032008E-08
   31.26000     -1.7108347E-08
   31.32000     -1.3382264E-08
   31.38000     -9.8614210E-09
   31.44000     -6.5477153E-09
   31.50000     -3.4427021E-09
   31.56000     -5.5206389E-10
   31.62000      2.1121018E-09
   31.68000      4.5316511E-09
   31.74000      6.6850792E-09
   31.80000      8.5515524E-09
   31.86000      1.0115034E-08
   31.92000      1.1367317E-08
   31.98000      1.2309149E-08
   32.04000      1.2949214E-08
   32.10000      1.3301320E-08
   32.16000      1.3380694E-08
   32.22000      1.3200497E-08
   32.28000      1.2769608E-08
   32.34000      1.2092299E-08
   32.40000      1.1169820E-08
   32.46000      1.0003358E-08
   32.52000      8.5974827E-09
   32.58000      6.9630945E-09
   32.64000      5.1191069E-09
   32.70000      3.0924183E-09
   32.76000      9.1616009E-10
   32.82000     -1.3733531E-09
   32.88000     -3.7401873E-09
   32.94000     -6.1518697E-09
   33.00000     -8.5810932E-09
   33.06000     -1.1005581E-08
   33.12000     -1.3406386E-08
   33.18000     -1.5765504E-08
   33.24000     -1.8064037E-08
   33.30000     -2.0281794E-08
   33.36000     -2.2398497E-08
   33.42000     -2.4395844E-08
   33.48000     -2.6259285E-08
   33.54000     -2.7978535E-08
   33.60000     -2.9546626E-08
   33.66000     -3.0958176E-08
   33.72000     -3.2207996E-08
   33.78000     -3.3290920E-08
   33.84000     -3.4202959E-08
   33.90000     -3.4943064E-08
   33.96000     -3.5514383E-08
   34.02000     -3.5924160E-08
   34.08000     -3.6182250E-08
   34.14000     -3.6298776E-08
   34.20000     -3.6281946E-08
   34.26000     -3.6136864E-08
   34.32000     -3.5865444E-08
   34.38000     -3.5467330E-08
   34.44000     -3.4941195E-08
   34.50000     -3.4286018E-08
   34.56000     -3.3502108E-08
   34.62000     -3.2591771E-08
   34.68000     -3.1559651E-08
   34.74000     -3.0412821E-08
   34.80000     -2.9160683E-08
   34.86000     -2.7814805E-08
   34.92000     -2.6388822E-08
   34.98000     -2.4898435E-08
   35.04000     -2.3361302E-08
   35.10000     -2.1796549E-08
   35.16000     -2.0223696E-08
   35.22000     -1.8661130E-08
   35.28000     -1.7124533E-08
   35.34000     -1.5625897E-08
   35.40000     -1.4173389E-08
   35.46000     -1.2771877E-08
   35.52000     -1.1423525E-08
   35.58000     -1.0127796E-08
   35.64000     -8.8807059E-09
   35.70000     -7.6738296E-09
   35.76000     -6.4940058E-09
   35.82000     -5.3244724E-09
   35.88000     -4.1474988E-09
   35.94000     -2.9476903E-09
   36.00000     -1.7147125E-09
   36.06000     -4.4444140E-10
   36.12000      8.6166962E-10
   36.18000      2.1983788E-09
   36.24000      3.5586185E-09
   36.30000      4.9349471E-09
   36.36000      6.3204686E-09
   36.42000      7.7096987E-09
   36.48000      9.0998187E-09
   36.54000      1.0492209E-08
   36.60000      1.1893518E-08
   36.66000      1.3315366E-08
   36.72000      1.4772305E-08
   36.78000      1.6278600E-08
   36.84000      1.7845162E-08
   36.90000      1.9478035E-08
   36.96000      2.1178984E-08
   37.02000      2.2947571E-08
   37.08000      2.4783162E-08
   37.14000      2.6685303E-08
   37.20000      2.8651844E-08
   37.26000      3.0675579E-08
   37.32000      3.2741198E-08
   37.38000      3.4824474E-08
   37.44000      3.6894786E-08
   37.50000      3.8920437E-08
   37.56000      4.0875076E-08
   37.62000      4.2742915E-08
   37.68000      4.4520828E-08
   37.74000      4.6216574E-08
   37.80000      4.7843823E-08
   37.86000      4.9415618E-08
   37.92000      5.0938251E-08
   37.98000      5.2407490E-08
   38.04000      5.3808119E-08
   38.10000      5.5116935E-08
   38.16000      5.6308327E-08
   38.22000      5.7360804E-08
   38.28000      5.8262575E-08
   38.34000      5.9014365E-08
   38.40000      5.9628434E-08
   38.46000      6.0123824E-08
   38.52000      6.0519220E-08
   38.58000      6.0825663E-08
   38.64000      6.1041646E-08
   38.70000      6.1152619E-08
   38.76000      6.1135509E-08
   38.82000      6.0967039E-08
   38.88000      6.0633248E-08
   38.94000      6.0136848E-08
   39.00000      5.9499502E-08
   39.06000      5.8757699E-08
   39.12000      5.7953166E-08
   39.18000      5.7120744E-08
   39.24000      5.6277788E-08
   39.30000      5.5418916E-08
   39.36000      5.4518090E-08
   39.42000      5.3537605E-08
   39.48000      5.2440924E-08
   39.54000      5.1205113E-08
   39.60000      4.9828468E-08
   39.66000      4.8330918E-08
   39.72000      4.6747179E-08
   39.78000      4.5115225E-08
   39.84000      4.3464137E-08
   39.90000      4.1805503E-08
   39.96000      4.0131106E-08
   40.02000      3.8417479E-08
   40.08000      3.6635626E-08
   40.14000      3.4762603E-08
   40.20000      3.2791128E-08
   40.26000      3.0734125E-08
   40.32000      2.8622612E-08
   40.38000      2.6497634E-08
   40.44000      2.4398670E-08
   40.50000      2.2352374E-08
   40.56000      2.0365523E-08
   40.62000      1.8424757E-08
   40.68000      1.6503508E-08
   40.74000      1.4573884E-08
   40.80000      1.2619353E-08
   40.86000      1.0643566E-08
   40.92000      8.6719636E-09
   40.98000      6.7453829E-09
   41.04000      4.9078865E-09
   41.10000      3.1932177E-09
   41.16000      1.6147418E-09
   41.22000      1.6243572E-10
   41.28000     -1.1921243E-09
   41.34000     -2.4846354E-09
   41.40000     -3.7446823E-09
   41.46000     -4.9845745E-09
   41.52000     -6.1939893E-09
   41.58000     -7.3420572E-09
   41.64000     -8.3861664E-09
   41.70000     -9.2847081E-09
   41.76000     -1.0009775E-08
   41.82000     -1.0555782E-08
   41.88000     -1.0941160E-08
   41.94000     -1.1202440E-08
   42.00000     -1.1382498E-08
   42.06000     -1.1516782E-08
   42.12000     -1.1622132E-08
   42.18000     -1.1691975E-08
   42.24000     -1.1699534E-08
   42.30000     -1.1607787E-08
   42.36000     -1.1382665E-08
   42.42000     -1.1004833E-08
   42.48000     -1.0476068E-08
   42.54000     -9.8182555E-09
   42.60000     -9.0655243E-09
   42.66000     -8.2523641E-09
   42.72000     -7.4017765E-09
   42.78000     -6.5174852E-09
   42.84000     -5.5829013E-09
   42.90000     -4.5674113E-09
   42.96000     -3.4381542E-09
   43.02000     -2.1735225E-09
   43.08000     -7.7382550E-10
   43.14000      7.3473450E-10
   43.20000      2.3044691E-09
   43.26000      3.8777661E-09
   43.32000      5.4019780E-09
   43.38000      6.8425363E-09
   43.44000      8.1898417E-09
   43.50000      9.4578088E-09
   43.56000      1.0674935E-08
   43.62000      1.1871330E-08
   43.68000      1.3066236E-08
   43.74000      1.4259984E-08
   43.80000      1.5432553E-08
   43.86000      1.6548624E-08
   43.92000      1.7567187E-08
   43.98000      1.8452589E-08
   44.04000      1.9183751E-08
   44.10000      1.9758927E-08
   44.16000      2.0194554E-08
   44.22000      2.0518520E-08
   44.28000      2.0759829E-08
   44.34000      2.0937911E-08
   44.40000      2.1055166E-08
   44.46000      2.1095346E-08
   44.52000      2.1028402E-08
   44.58000      2.0820236E-08
   44.64000      2.0444027E-08
   44.70000      1.9889479E-08
   44.76000      1.9167119E-08
   44.82000      1.8306586E-08
   44.88000      1.7349672E-08
   44.94000      1.6340277E-08
   45.00000      1.5314093E-08
   45.06000      1.4290726E-08
   45.12000      1.3270349E-08
   45.18000      1.2235964E-08
   45.24000      1.1160821E-08
   45.30000      1.0019004E-08
   45.36000      8.7959231E-09
   45.42000      7.4951227E-09
   45.48000      6.1389125E-09
   45.54000      4.7624402E-09
   45.60000      3.4034509E-09
   45.66000      2.0916078E-09
   45.72000      8.4138274E-10
   45.78000     -3.4911035E-10
   45.84000     -1.4934536E-09
   45.90000     -2.6087530E-09
   45.96000     -3.7072405E-09
   46.02000     -4.7904694E-09
   46.08000     -5.8475398E-09
   46.14000     -6.8573081E-09
   46.20000     -7.7935196E-09
   46.26000     -8.6313898E-09
   46.32000     -9.3540153E-09
   46.38000     -9.9570290E-09
   46.44000     -1.0450015E-08
   46.50000     -1.0853828E-08
   46.56000     -1.1194103E-08
   46.62000     -1.1492793E-08
   46.68000     -1.1760645E-08
   46.74000     -1.1993577E-08
   46.80000     -1.2174553E-08
   46.86000     -1.2280324E-08
   46.92000     -1.2290441E-08
   46.98000     -1.2195030E-08
   47.04000     -1.1998605E-08
   47.10000     -1.1718934E-08
   47.16000     -1.1381968E-08
   47.22000     -1.1014984E-08
   47.28000     -1.0640244E-08
   47.34000     -1.0270762E-08
   47.40000     -9.9088506E-09
   47.46000     -9.5474100E-09
   47.52000     -9.1734380E-09
   47.58000     -8.7728624E-09
   47.64000     -8.3354204E-09
   47.70000     -7.8580955E-09
   47.76000     -7.3458661E-09
   47.82000     -6.8093793E-09
   47.88000     -6.2604304E-09
   47.94000     -5.7071108E-09
   48.00000     -5.1506901E-09
   48.06000     -4.5854742E-09
   48.12000     -4.0014956E-09
   48.18000     -3.3886467E-09
   48.24000     -2.7404328E-09
   48.30000     -2.0559623E-09
   48.36000     -1.3397653E-09
   48.42000     -5.9988720E-10
   48.48000      1.5492789E-10
   48.54000      9.1819841E-10
   48.60000      1.6882353E-09
   48.66000      2.4697016E-09
   48.72000      3.2736160E-09
   48.78000      4.1153783E-09
   48.84000      5.0109761E-09
   48.90000      5.9724035E-09
   48.96000      7.0039698E-09
   49.02000      8.1010798E-09
   49.08000      9.2520835E-09
   49.14000      1.0442355E-08
   49.20000      1.1658735E-08
   49.26000      1.2892347E-08
   49.32000      1.4138796E-08
   49.38000      1.5396122E-08
   49.44000      1.6661881E-08
   49.50000      1.7930804E-08
   49.56000      1.9193774E-08
   49.62000      2.0438007E-08
   49.68000      2.1647844E-08
   49.74000      2.2805793E-08
   49.80000      2.3893916E-08
   49.86000      2.4895872E-08
   49.92000      2.5799524E-08
   49.98000      2.6599363E-08
   50.04000      2.7297501E-08
   50.10000      2.7902287E-08
   50.16000      2.8424605E-08
   50.22000      2.8873096E-08
   50.28000      2.9250181E-08
   50.34000      2.9550460E-08
   50.40000      2.9761992E-08
   50.46000      2.9869721E-08
   50.52000      2.9859738E-08
   50.58000      2.9722926E-08
   50.64000      2.9457309E-08
   50.70000      2.9068813E-08
   50.76000      2.8570492E-08
   50.82000      2.7980382E-08
   50.88000      2.7318237E-08
   50.94000      2.6601786E-08
   51.00000      2.5843605E-08
   51.06000      2.5049859E-08
   51.12000      2.4221588E-08
   51.18000      2.3358231E-08
   51.24000      2.2461977E-08
   51.30000      2.1541126E-08
   51.36000      2.0611090E-08
   51.42000      1.9692900E-08
   51.48000      1.8810089E-08
   51.54000      1.7985386E-08
   51.60000      1.7238213E-08
   51.66000      1.6583222E-08
   51.72000      1.6029523E-08
   51.78000      1.5580218E-08
   51.84000      1.5232326E-08
   51.90000      1.4977484E-08
   51.96000      1.4803674E-08
   52.02000      1.4697582E-08
   52.08000      1.4646470E-08
   52.14000      1.4638363E-08
   52.20000      1.4660089E-08
   52.26000      1.4693891E-08
   52.32000      1.4714233E-08
   52.38000      1.4686418E-08
   52.44000      1.4567695E-08
   52.50000      1.4310226E-08
   52.56000      1.3864447E-08
   52.62000      1.3181361E-08
   52.68000      1.2213106E-08
   52.74000      1.0912197E-08
   52.80000      9.2301971E-09
   52.86000      7.1165851E-09
   52.92000      4.5180317E-09
   52.98000      1.3780360E-09
   53.04000     -2.3629798E-09
   53.10000     -6.7667774E-09
   53.16000     -1.1895195E-08
   53.22000     -1.7806880E-08
   53.28000     -2.4553730E-08
   53.34000     -3.2178399E-08
   53.40000     -4.0713950E-08
   53.46000     -5.0185715E-08
   53.52000     -6.0613957E-08
   53.58000     -7.2015517E-08
   53.64000     -8.4402977E-08
   53.70000     -9.7781239E-08
   53.76000     -1.1214321E-07
   53.82000     -1.2746641E-07
   53.88000     -1.4371224E-07
   53.94000     -1.6082784E-07
   54.00000     -1.7874967E-07
   54.06000     -1.9740692E-07
   54.12000     -2.1672361E-07
   54.18000     -2.3661963E-07
   54.24000     -2.5701047E-07
   54.30000     -2.7780635E-07
   54.36000     -2.9891098E-07
   54.42000     -3.2021913E-07
   54.48000     -3.4161360E-07
   54.54000     -3.6296245E-07
   54.60000     -3.8411801E-07
   54.66000     -4.0491923E-07
   54.72000     -4.2519787E-07
   54.78000     -4.4478674E-07
   54.84000     -4.6352773E-07
   54.90000     -4.8127663E-07
   54.96000     -4.9790344E-07
   55.02000     -5.1328902E-07
   55.08000     -5.2731872E-07
   55.14000     -5.3987804E-07
   55.20000     -5.5084899E-07
   55.26000     -5.6011208E-07
   55.32000     -5.6755005E-07
   55.38000     -5.7305436E-07
   55.44000     -5.7653222E-07
   55.50000     -5.7791272E-07
   55.56000     -5.7714971E-07