 -0.750000000       0.00000000    
 -0.689999998       0.00000000    
 -0.629999995       0.00000000    
 -0.569999993       0.00000000    
 -0.509999990       0.00000000    
 -0.449999988      -3.01313754E-20
 -0.389999986      -2.03971805E-19
 -0.330000013      -6.29982047E-19
 -0.270000011      -9.58495535E-19
 -0.209999993       2.62330198E-19
 -0.150000006       5.46073083E-18
  -9.00000036E-02   1.58627169E-17
  -2.99999993E-02   2.72749638E-17
   2.99999993E-02   2.68223786E-17
   9.00000036E-02  -3.87804977E-18
  0.150000006      -7.52864787E-17
  0.209999993      -1.70228423E-16
  0.270000011      -2.32464116E-16
  0.330000013      -1.82387952E-16
  0.389999986       3.26658786E-17
  0.449999988       3.73277255E-16
  0.509999990       6.75617884E-16
  0.569999993       7.02542626E-16
  0.629999995       2.88336368E-16
  0.689999998      -4.86259116E-16
  0.750000000      -1.21424661E-15
  0.810000002      -1.29529115E-15
  0.870000005      -2.91138882E-16
  0.930000007       1.65593173E-15
  0.990000010       3.62669904E-15
   1.04999995       4.20049102E-15
   1.11000001       2.21447150E-15
   1.16999996      -2.32700216E-15
   1.23000002      -7.76811714E-15
   1.28999996      -1.12421931E-14
   1.35000002      -1.00856416E-14
   1.40999997      -3.63307127E-15
   1.47000003       5.65331727E-15
   1.52999997       1.26761513E-14
   1.59000003       1.20395162E-14
   1.64999998       1.37178500E-15
   1.71000004      -1.60640917E-14
   1.76999998      -3.12050292E-14
   1.83000004      -3.22353567E-14
   1.88999999      -1.00217516E-14
   1.95000005       3.63228192E-14
   2.00999999       9.64650248E-14
   2.06999993       1.50307176E-13
   2.13000011       1.73819116E-13
   2.19000006       1.47174739E-13
   2.25000000       6.20010093E-14
   2.30999994      -7.50692030E-14
   2.36999989      -2.43604101E-13
   2.43000007      -4.14145064E-13
   2.49000001      -5.53763198E-13
   2.54999995      -6.29623740E-13
   2.60999990      -6.09558031E-13
   2.67000008      -4.61435523E-13
   2.73000002      -1.55435411E-13
   2.78999996       3.26469266E-13
   2.84999990       9.72338421E-13
   2.91000009       1.71733081E-12
   2.97000003       2.42583926E-12
   3.02999997       2.89176278E-12
   3.08999991       2.86770607E-12
   3.15000010       2.12521775E-12
   3.21000004       5.35295441E-13
   3.26999998      -1.85366110E-12
   3.32999992      -4.76848075E-12
   3.39000010      -7.71697636E-12
   3.45000005      -1.00537504E-11
   3.50999999      -1.10929781E-11
   3.56999993      -1.02394759E-11
   3.63000011      -7.10533672E-12
   3.69000006      -1.58932232E-12
   3.75000000       6.08509857E-12
   3.80999994       1.53595713E-11
   3.86999989       2.53386669E-11
   3.93000007       3.47854627E-11
   3.99000001       4.21264724E-11
   4.05000019       4.55007490E-11
   4.11000013       4.28992224E-11
   4.17000008       3.24306623E-11
   4.23000002       1.27196847E-11
   4.28999996      -1.66011753E-11
   4.34999990      -5.43844553E-11
   4.40999985      -9.75499681E-11
   4.46999979      -1.40860323E-10
   4.53000021      -1.76969273E-10
   4.59000015      -1.96781050E-10
   4.65000010      -1.90110552E-10
   4.71000004      -1.46593127E-10
   4.76999998      -5.67614011E-11
   4.82999992       8.68101563E-11
   4.88999987       2.88401109E-10
   4.94999981       5.48194989E-10
   5.01000023       8.61599347E-10
   5.07000017       1.21895016E-09
   5.13000011       1.60570301E-09
   5.19000006       2.00317141E-09
   5.25000000       2.38980991E-09
   5.30999994       2.74294498E-09
   5.36999989       3.04077297E-09
   5.42999983       3.26435678E-09
   5.48999977       3.39935191E-09
   5.55000019       3.43721851E-09
   5.61000013       3.37577721E-09
   5.67000008       3.21908344E-09
   5.73000002       2.97670311E-09
   5.78999996       2.66254374E-09
   5.84999990       2.29340480E-09
   5.90999985       1.88739868E-09
   5.96999979       1.46234735E-09
   6.03000021       1.03425624E-09
   6.09000015       6.15960671E-10
   6.15000010       2.16070842E-10
   6.21000004      -1.61646710E-10
   6.26999998      -5.18337540E-10
   6.32999992      -8.59533111E-10
   6.38999987      -1.19409382E-09
   6.44999981      -1.53279178E-09
   6.51000023      -1.88676808E-09
   6.57000017      -2.26609220E-09
   6.63000011      -2.67856870E-09
   6.69000006      -3.12882298E-09
   6.75000000      -3.61759245E-09
   6.80999994      -4.14114698E-09
   6.86999989      -4.69082195E-09
   6.92999983      -5.25281996E-09
   6.98999977      -5.80857318E-09
   7.05000019      -6.33600283E-09
   7.11000013      -6.81187995E-09
   7.17000008      -7.21518489E-09
   7.23000002      -7.53095275E-09
   7.28999996      -7.75375142E-09
   7.34999990      -7.88981946E-09
   7.40999985      -7.95706789E-09
   7.46999979      -7.98268562E-09
   7.53000021      -7.99871014E-09
   7.59000015      -8.03658562E-09
   7.65000010      -8.12202039E-09
   7.71000004      -8.27143953E-09
   7.76999998      -8.49080628E-09
   7.82999992      -8.77693385E-09
   7.88999987      -9.12058695E-09
   7.94999981      -9.51027257E-09
   8.01000023      -9.93540095E-09
   8.06999969      -1.03878808E-08
   8.13000011      -1.08617693E-08
   8.18999958      -1.13513901E-08
   8.25000000      -1.18488526E-08
   8.31000042      -1.23422081E-08
   8.36999989      -1.28152680E-08
   8.43000031      -1.32495472E-08
   8.48999977      -1.36280116E-08
   8.55000019      -1.39396104E-08
   8.60999966      -1.41831045E-08
   8.67000008      -1.43687959E-08
   8.72999954      -1.45172834E-08
   8.78999996      -1.46551997E-08
   8.85000038      -1.48088821E-08
   8.90999985      -1.49975943E-08
   8.97000027      -1.52281849E-08
   9.02999973      -1.54927999E-08
   9.09000015      -1.57704285E-08
   9.14999962      -1.60320432E-08
   9.21000004      -1.62480145E-08
   9.27000046      -1.63957807E-08
   9.32999992      -1.64655702E-08
   9.39000034      -1.64625202E-08
   9.44999981      -1.64045044E-08
   9.51000023      -1.63163616E-08
   9.56999969      -1.62223088E-08
   9.63000011      -1.61389906E-08
   9.68999958      -1.60714286E-08
   9.75000000      -1.60131499E-08
   9.81000042      -1.59504179E-08
   9.86999989      -1.58690288E-08
   9.93000031      -1.57612270E-08
   9.98999977      -1.56302669E-08
   10.0500002      -1.54909952E-08
   10.1099997      -1.53661475E-08
   10.1700001      -1.52795891E-08
   10.2299995      -1.52487427E-08
   10.2900000      -1.52787329E-08
   10.3500004      -1.53601611E-08
   10.4099998      -1.54713380E-08
   10.4700003      -1.55843036E-08
   10.5299997      -1.56728710E-08
   10.5900002      -1.57202553E-08
   10.6499996      -1.57240265E-08
   10.7100000      -1.56969460E-08
   10.7700005      -1.56634314E-08
   10.8299999      -1.56528088E-08
   10.8900003      -1.56914162E-08
   10.9499998      -1.57959068E-08
   11.0100002      -1.59697517E-08
   11.0699997      -1.62037637E-08
   11.1300001      -1.64802110E-08
   11.1899996      -1.67788965E-08
   11.2500000      -1.70830052E-08
   11.3100004      -1.73827459E-08
   11.3699999      -1.76756672E-08
   11.4300003      -1.79638455E-08
   11.4899998      -1.82492919E-08
   11.5500002      -1.85296312E-08
   11.6099997      -1.87959497E-08
   11.6700001      -1.90339282E-08
   11.7299995      -1.92279703E-08
   11.7900000      -1.93668406E-08
   11.8500004      -1.94484659E-08
   11.9099998      -1.94817904E-08
   11.9700003      -1.94845118E-08
   12.0299997      -1.94771541E-08
   12.0900002      -1.94754044E-08
   12.1499996      -1.94835277E-08
   12.2100000      -1.94913792E-08
   12.2700005      -1.94763796E-08
   12.3299999      -1.94099172E-08
   12.3900003      -1.92660892E-08
   12.4499998      -1.90297378E-08
   12.5100002      -1.87010887E-08
   12.5699997      -1.82954576E-08
   12.6300001      -1.78382482E-08
   12.6899996      -1.73569177E-08
   12.7500000      -1.68725514E-08
   12.8100004      -1.63935709E-08
   12.8699999      -1.59134572E-08
   12.9300003      -1.54129989E-08
   12.9899998      -1.48664148E-08
   13.0500002      -1.42494896E-08
   13.1099997      -1.35473748E-08
   13.1700001      -1.27597399E-08
   13.2299995      -1.19016974E-08
   13.2900000      -1.10001936E-08
   13.3500004      -1.00870059E-08
   13.4099998      -9.19061360E-09
   13.4700003      -8.32961167E-09
   13.5299997      -7.50979900E-09
   13.5900002      -6.72570843E-09
   13.6499996      -5.96575855E-09
   13.7100000      -5.21892529E-09
   13.7700005      -4.48044490E-09
   13.8299999      -3.75461795E-09
   13.8900003      -3.05400505E-09
   13.9499998      -2.39566145E-09
   14.0100002      -1.79596671E-09
   14.0699997      -1.26584621E-09
   14.1300001      -8.07753309E-10
   14.1899996      -4.15021933E-10
   14.2500000      -7.34295819E-11
   14.3100004       2.35716113E-10
   14.3699999       5.31867772E-10
   14.4300003       8.31770042E-10
   14.4899998       1.14690990E-09
   14.5500002       1.48230261E-09
   14.6099997       1.83674242E-09
   14.6700001       2.20435736E-09
   14.7299995       2.57707522E-09
   14.7900000       2.94745428E-09
   14.8500004       3.31130900E-09
   14.9099998       3.66962238E-09
   14.9700003       4.02935685E-09
   15.0299997       4.40293180E-09
   15.0900002       4.80631490E-09
   15.1499996       5.25595123E-09
   15.2100000       5.76506620E-09
   15.2700005       6.34020214E-09
   15.3299999       6.97897251E-09
   15.3900003       7.66983188E-09
   15.4499998       8.39414138E-09
   15.5100002       9.13006382E-09
   15.5699997       9.85720039E-09
   15.6300001       1.05605862E-08
   15.6899996       1.12329124E-08
   15.7500000       1.18744818E-08
   15.8100004       1.24911956E-08
   15.8699999       1.30914488E-08
   15.9300003       1.36830041E-08
   15.9899998       1.42706815E-08
   16.0499992       1.48552077E-08
   16.1100006       1.54331605E-08
   16.1700001       1.59976352E-08
   16.2299995       1.65392731E-08
   16.2900009       1.70474017E-08
   16.3500004       1.75112262E-08
   16.4099998       1.79210513E-08
   16.4699993       1.82695636E-08
   16.5300007       1.85530133E-08
   16.5900002       1.87721021E-08
   16.6499996       1.89323153E-08
   16.7099991       1.90434530E-08
   16.7700005       1.91182963E-08
   16.8299999       1.91705034E-08
   16.8899994       1.92120986E-08
   16.9500008       1.92510861E-08
   17.0100002       1.92898248E-08
   17.0699997       1.93246752E-08
   17.1299992       1.93472012E-08
   17.1900005       1.93467962E-08
   17.2500000       1.93141609E-08
   17.3099995       1.92447818E-08
   17.3700008       1.91413516E-08
   17.4300003       1.90142906E-08
   17.4899998       1.88799429E-08
   17.5499992       1.87567188E-08
   17.6100006       1.86601117E-08
   17.6700001       1.85981168E-08
   17.7299995       1.85685334E-08
   17.7900009       1.85592270E-08
   17.8500004       1.85513507E-08
   17.9099998       1.85245259E-08
   17.9699993       1.84621509E-08
   18.0300007       1.83550046E-08
   18.0900002       1.82019786E-08
   18.1499996       1.80079880E-08
   18.2099991       1.77802981E-08
   18.2700005       1.75249486E-08
   18.3299999       1.72446892E-08
   18.3899994       1.69389303E-08
   18.4500008       1.66050977E-08
   18.5100002       1.62402145E-08
   18.5699997       1.58416196E-08
   18.6299992       1.54064459E-08
   18.6900005       1.49303006E-08
   18.7500000       1.44060985E-08
   18.8099995       1.38239065E-08
   18.8700008       1.31720910E-08
   18.9300003       1.24394308E-08
   18.9899998       1.16174110E-08
   19.0499992       1.07019691E-08
   19.1100006       9.69425873E-09
   19.1700001       8.60037641E-09
   19.2299995       7.43019513E-09
   19.2900009       6.19554807E-09
   19.3500004       4.90797580E-09
   19.4099998       3.57640006E-09
   19.4699993       2.20526108E-09
   19.5300007       7.93778210E-10
   19.5900002      -6.63161082E-10
   19.6499996      -2.17247664E-09
   19.7099991      -3.73938525E-09
   19.7700005      -5.36408340E-09
   19.8299999      -7.03986425E-09
   19.8899994      -8.75343265E-09
   19.9500008      -1.04873559E-08
   20.0100002      -1.22237696E-08
   20.0699997      -1.39480427E-08
   20.1299992      -1.56511639E-08
   20.1900005      -1.73301995E-08
   20.2500000      -1.89868175E-08
   20.3099995      -2.06245545E-08
   20.3700008      -2.22457679E-08
   20.4300003      -2.38492337E-08
   20.4899998      -2.54291237E-08
   20.5499992      -2.69756359E-08
   20.6100006      -2.84770465E-08
   20.6700001      -2.99225071E-08
   20.7299995      -3.13046513E-08
   20.7900009      -3.26210419E-08
   20.8500004      -3.38738602E-08
   20.9099998      -3.50678597E-08
   20.9699993      -3.62072008E-08
   21.0300007      -3.72921818E-08
   21.0900002      -3.83170047E-08
   21.1499996      -3.92692669E-08
   21.2099991      -4.01313756E-08
   21.2700005      -4.08835028E-08
   21.3299999      -4.15072456E-08
   21.3899994      -4.19890682E-08
   21.4500008      -4.23225721E-08
   21.5100002      -4.25089439E-08
   21.5699997      -4.25554099E-08
   21.6299992      -4.24720383E-08
   21.6900005      -4.22678532E-08
   21.7500000      -4.19475938E-08
   21.8099995      -4.15103685E-08
   21.8700008      -4.09508800E-08
   21.9300003      -4.02628544E-08
   21.9899998      -3.94435027E-08
   22.0499992      -3.84971734E-08
   22.1100006      -3.74367950E-08
   22.1700001      -3.62825645E-08
   22.2299995      -3.50584308E-08
   22.2900009      -3.37878809E-08
   22.3500004      -3.24905365E-08
   22.4099998      -3.11805799E-08
   22.4699993      -2.98670848E-08
   22.5300007      -2.85555544E-08
   22.5900002      -2.72496958E-08
   22.6499996      -2.59526125E-08
   22.7099991      -2.46671963E-08
   22.7700005      -2.33959589E-08
   22.8299999      -2.21406751E-08
   22.8899994      -2.09022382E-08
   22.9500008      -1.96807406E-08
   23.0100002      -1.84757329E-08
   23.0699997      -1.72863786E-08
   23.1299992      -1.61114073E-08
   23.1900005      -1.49487889E-08
   23.2500000      -1.37951846E-08
   23.3099995      -1.26454092E-08
   23.3700008      -1.14921264E-08
   23.4300003      -1.03260982E-08
   23.4899998      -9.13718079E-09
   23.5499992      -7.91607757E-09
   23.6100006      -6.65646605E-09
   23.6700001      -5.35690159E-09
   23.7299995      -4.02181444E-09
   23.7900009      -2.66117350E-09
   23.8500004      -1.28883704E-09
   23.9099998       7.98906705E-11
   23.9699993       1.43071466E-09
   24.0300007       2.75207124E-09
   24.0900002       4.03568823E-09
   24.1499996       5.27595656E-09
   24.2099991       6.46844711E-09
   24.2700005       7.60806085E-09
   24.3299999       8.68734329E-09
   24.3899994       9.69541158E-09
   24.4500008       1.06177973E-08
   24.5100002       1.14373142E-08
   24.5699997       1.21357759E-08
   24.6299992       1.26961099E-08
   24.6900005       1.31042102E-08
   24.7500000       1.33499629E-08
   24.8099995       1.34271740E-08
   24.8700008       1.33325644E-08
   24.9300003       1.30643629E-08
   24.9899998       1.26211015E-08
   25.0499992       1.20009620E-08
   25.1100006       1.12017124E-08
   25.1700001       1.02209681E-08
   25.2299995       9.05653685E-09
   25.2900009       7.70681918E-09
   25.3500004       6.17143003E-09
   25.4099998       4.45221726E-09
   25.4699993       2.55459742E-09
   25.5300007       4.88797447E-10
   25.5900002      -1.72958725E-09
   25.6499996      -4.08012157E-09
   25.7099991      -6.53906440E-09
   25.7700005      -9.08132947E-09
   25.8299999      -1.16820695E-08
   25.8899994      -1.43172825E-08
   25.9500008      -1.69634227E-08
   26.0100002      -1.95964791E-08
   26.0699997      -2.21912977E-08
   26.1299992      -2.47216878E-08
   26.1900005      -2.71614162E-08
   26.2500000      -2.94856726E-08
   26.3099995      -3.16722932E-08
   26.3700008      -3.37022001E-08
   26.4300003      -3.55587169E-08
   26.4899998      -3.72259663E-08
   26.5499992      -3.86867853E-08
   26.6100006      -3.99208027E-08
   26.6700001      -4.09034087E-08
   26.7299995      -4.16060715E-08
   26.7900009      -4.19982236E-08
   26.8500004      -4.20504840E-08
   26.9099998      -4.17385557E-08
   26.9699993      -4.10466861E-08
   27.0300007      -3.99697733E-08
   27.0900002      -3.85134911E-08
   27.1499996      -3.66924127E-08
   27.2099991      -3.45268560E-08
   27.2700005      -3.20395195E-08
   27.3299999      -2.92528348E-08
   27.3899994      -2.61877222E-08
   27.4500008      -2.28637163E-08
   27.5100002      -1.93001455E-08
   27.5699997      -1.55177240E-08
   27.6299992      -1.15399788E-08
   27.6900005      -7.39410400E-09
   27.7500000      -3.11094972E-09
   27.8099995       1.27590027E-09
   27.8700008       5.73180081E-09
   27.9300003       1.02230420E-08
   27.9899998       1.47185375E-08
   28.0499992       1.91905318E-08
   28.1100006       2.36139499E-08
   28.1700001       2.79644983E-08
   28.2299995       3.22162386E-08
   28.2900009       3.63397170E-08
   28.3500004       4.03017246E-08
   28.4099998       4.40672068E-08
   28.4699993       4.76030095E-08
   28.5300007       5.08824733E-08
   28.5900002       5.38892273E-08
   28.6499996       5.66188163E-08
   28.7099991       5.90773723E-08
   28.7700005       6.12775111E-08
   28.8299999       6.32326689E-08
   28.8899994       6.49514789E-08
   28.9500008       6.64339481E-08
   29.0100002       6.76701859E-08
   29.0699997       6.86417394E-08
   29.1299992       6.93243720E-08
   29.1900005       6.96909908E-08
   29.2500000       6.97135576E-08
   29.3099995       6.93637574E-08
   29.3700008       6.86130264E-08
   29.4300003       6.74329925E-08
   29.4899998       6.57973658E-08
   29.5499992       6.36853130E-08
   29.6100006       6.10857072E-08
   29.6700001       5.80009321E-08
   29.7299995       5.44489893E-08
   29.7900009       5.04632318E-08
   29.8500004       4.60896921E-08
   29.9099998       4.13826555E-08
   29.9699993       3.63993564E-08
   30.0300007       3.11947446E-08
   30.0900002       2.58171085E-08
   30.1499996       2.03053094E-08
   30.2099991       1.46882799E-08
   30.2700005       8.98701025E-09
   30.3299999       3.21862115E-09
   30.3899994      -2.59864574E-09
   30.4500008      -8.44123704E-09
   30.5100002      -1.42784451E-08
   30.5699997      -2.00736299E-08
   30.6299992      -2.57879211E-08
   30.6900005      -3.13846868E-08
   30.7500000      -3.68327733E-08
   30.8099995      -4.21070432E-08
   30.8700008      -4.71861163E-08
   30.9300003      -5.20484633E-08
   30.9899998      -5.66687532E-08
   31.0499992      -6.10161308E-08
   31.1100006      -6.50551044E-08
   31.1700001      -6.87486050E-08
   31.2299995      -7.20620150E-08
   31.2900009      -7.49666000E-08
   31.3500004      -7.74414062E-08
   31.4099998      -7.94733026E-08
   31.4699993      -8.10555534E-08
   31.5300007      -8.21857427E-08
   31.5900002      -8.28638491E-08
   31.6499996      -8.30911162E-08
   31.7099991      -8.28699740E-08
   31.7700005      -8.22049842E-08
   31.8299999      -8.11042966E-08
   31.8899994      -7.95812412E-08
   31.9500008      -7.76552511E-08
   32.0099983      -7.53516574E-08
   32.0699997      -7.27003311E-08
   32.1300011      -6.97332680E-08
   32.1899986      -6.64820661E-08
   32.2500000      -6.29760777E-08
   32.3100014      -5.92419731E-08
   32.3699989      -5.53051613E-08
   32.4300003      -5.11926110E-08
   32.4900017      -4.69362007E-08
   32.5499992      -4.25752660E-08
   32.6100006      -3.81571432E-08
   32.6699982      -3.37352226E-08
   32.7299995      -2.93646742E-08
   32.7900009      -2.50969876E-08
   32.8499985      -2.09749533E-08
   32.9099998      -1.70295280E-08
   32.9700012      -1.32795073E-08
   33.0299988      -9.73402958E-09
   33.0900002      -6.39697229E-09
   33.1500015      -3.27191008E-09
   33.2099991      -3.66142117E-10
   33.2700005       2.30723174E-09
   33.3300018       4.72962336E-09
   33.3899994       6.87940149E-09
   33.4500008       8.73568951E-09
   33.5099983       1.02824016E-08
   33.5699997       1.15113847E-08
   33.6300011       1.24237474E-08
   33.6899986       1.30289930E-08
   33.7500000       1.33421860E-08
   33.8100014       1.33800366E-08
   33.8699989       1.31571056E-08
   33.9300003       1.26833060E-08
   33.9900017       1.19634267E-08
   34.0499992       1.09987290E-08
   34.1100006       9.79003545E-09
   34.1699982       8.34134628E-09
   34.2299995       6.66293820E-09
   34.2900009       4.77316986E-09
   34.3499985       2.69854095E-09
   34.4099998       4.72022310E-10
   34.4700012      -1.86993221E-09
   34.5299988      -4.29091207E-09
   34.5900002      -6.75765444E-09
   34.6500015      -9.24184196E-09
   34.7099991      -1.17201449E-08
   34.7700005      -1.41727128E-08
   34.8300018      -1.65809872E-08
   34.8899994      -1.89259612E-08
   34.9500008      -2.11877556E-08
   35.0099983      -2.33466331E-08
   35.0699997      -2.53848071E-08
   35.1300011      -2.72879657E-08
   35.1899986      -2.90456157E-08
   35.2500000      -3.06501562E-08
   35.3100014      -3.20953291E-08
   35.3699989      -3.33750521E-08
   35.4300003      -3.44834632E-08
   35.4900017      -3.54161642E-08
   35.5499992      -3.61719188E-08
   35.6100006      -3.67538355E-08
   35.6699982      -3.71691868E-08
   35.7299995      -3.74279239E-08
   35.7900009      -3.75403779E-08
   35.8499985      -3.75151323E-08
   35.9099998      -3.73577436E-08
   35.9700012      -3.70705173E-08
   36.0299988      -3.66531943E-08
   36.0900002      -3.61041295E-08
   36.1500015      -3.54215892E-08
   36.2099991      -3.46049553E-08
   36.2700005      -3.36556774E-08
   36.3300018      -3.25779475E-08
   36.3899994      -3.13789421E-08
   36.4500008      -3.00687759E-08
   36.5099983      -2.86601711E-08
   36.5699997      -2.71681557E-08
   36.6300011      -2.56097650E-08
   36.6899986      -2.40037110E-08
   36.7500000      -2.23697452E-08
   36.8100014      -2.07275921E-08
   36.8699989      -1.90955110E-08
   36.9300003      -1.74889596E-08
   36.9900017      -1.59198095E-08
   37.0499992      -1.43963375E-08
   37.1100006      -1.29237856E-08
   37.1699982      -1.15048477E-08
   37.2299995      -1.01395647E-08
   37.2900009      -8.82452778E-09
   37.3499985      -7.55195817E-09
   37.4099998      -6.30952712E-09
   37.4700012      -5.08157205E-09
   37.5299988      -3.85162169E-09
   37.5900002      -2.60540767E-09
   37.6500015      -1.33321199E-09
   37.7099991      -3.07271535E-11
   37.7700005       1.30159716E-09
   37.8300018       2.66005529E-09
   37.8899994       4.03915879E-09
   37.9500008       5.43260903E-09
   38.0099983       6.83395385E-09
   38.0699997       8.23748980E-09
   38.1300011       9.63978941E-09
   38.1899986       1.10415730E-08
   38.2500000       1.24490214E-08
   38.3100014       1.38735459E-08
   38.3699989       1.53296682E-08
   38.4300003       1.68316934E-08
   38.4900017       1.83905851E-08
   38.5499992       2.00124948E-08
   38.6100006       2.16994298E-08
   38.6699982       2.34513884E-08
   38.7299995       2.52683261E-08
   38.7900009       2.71504348E-08
   38.8499985       2.90961513E-08
   38.9099998       3.10986827E-08
   38.9700012       3.31429320E-08
   39.0299988       3.52047635E-08
   39.0900002       3.72535496E-08
   39.1500015       3.92575998E-08
   39.2099991       4.11906740E-08
   39.2700005       4.30372467E-08
   39.3300018       4.47945929E-08
   39.3899994       4.64710155E-08
   39.4500008       4.80807500E-08
   39.5099983       4.96372792E-08
   39.5699997       5.11471505E-08
   39.6300011       5.26061896E-08
   39.6899986       5.39991305E-08
   39.7500000       5.53027881E-08
   39.8100014       5.64917393E-08
   39.8699989       5.75448489E-08
   39.9300003       5.84506950E-08
   39.9900017       5.92101195E-08
   40.0499992       5.98350667E-08
   40.1100006       6.03438082E-08
   40.1699982       6.07540045E-08
   40.2299995       6.10757027E-08
   40.2900009       6.13068352E-08
   40.3499985       6.14328357E-08
   40.4099998       6.14311162E-08
   40.4700012       6.12791666E-08
   40.5299988       6.09636785E-08
   40.5900002       6.04877357E-08
   40.6500015       5.98729883E-08
   40.7099991       5.91556777E-08
   40.7700005       5.83771964E-08
   40.8300018       5.75721337E-08
   40.8899994       5.67577203E-08
   40.9500008       5.59284565E-08
   41.0099983       5.50580381E-08
   41.0699997       5.41081739E-08
   41.1300011       5.30413793E-08
   41.1899986       5.18334957E-08
   41.2500000       5.04815532E-08
   41.3100014       4.90044769E-08
   41.3699989       4.74364654E-08
   41.4300003       4.58156215E-08
   41.4900017       4.41717489E-08
   41.5499992       4.25175131E-08
   41.6100006       4.08458014E-08
   41.6699982       3.91339050E-08
   41.7299995       3.73530291E-08
   41.7900009       3.54797791E-08
   41.8499985       3.35059269E-08
   41.9099998       3.14431823E-08
   41.9700012       2.93214111E-08
   42.0299988       2.71808016E-08
   42.0900002       2.50604089E-08
   42.1500015       2.29869173E-08
   42.2099991       2.09674766E-08
   42.2700005       1.89892848E-08
   42.3300018       1.70263217E-08
   42.3899994       1.50510484E-08
   42.4500008       1.30469733E-08
   42.5099983       1.10174803E-08
   42.5699997       8.98755825E-09
   42.6300011       6.99764557E-09
   42.6899986       5.09173814E-09
   42.7500000       3.30402949E-09
   42.8100014       1.64888736E-09
   42.8699989       1.17680157E-10
   42.9300003      -1.31651023E-09
   42.9900017      -2.68802758E-09
   43.0499992      -4.02539868E-09
   43.1100006      -5.34014610E-09
   43.1699982      -6.62129684E-09
   43.2299995      -7.83735032E-09
   43.2900009      -8.94508467E-09
   43.3499985      -9.90246019E-09
   43.4099998      -1.06815374E-08
   43.4700012      -1.12772467E-08
   43.5299988      -1.17090417E-08
   43.5900002      -1.20146950E-08
   43.6500015      -1.22381367E-08
   43.7099991      -1.24152892E-08
   43.7700005      -1.25626878E-08
   43.8300018      -1.26727437E-08
   43.8899994      -1.27172362E-08
   43.9500008      -1.26576767E-08
   44.0099983      -1.24588500E-08
   44.0699997      -1.21008066E-08
   44.1300011      -1.15852963E-08
   44.1899986      -1.09346523E-08
   44.2500000      -1.01837712E-08
   44.3100014      -9.36804234E-09
   44.3699989      -8.51136495E-09
   44.4300003      -7.61825270E-09
   44.4900017      -6.67275213E-09
   44.5499992      -5.64473179E-09
   44.6100006      -4.50166837E-09
   44.6699982      -3.22217253E-09
   44.7299995      -1.80666049E-09
   44.7900009      -2.81334733E-10
   44.8499985       1.30620303E-09
   44.9099998       2.89846280E-09
   44.9700012       4.44286474E-09
   45.0299988       5.90475402E-09
   45.0900002       7.27424210E-09
   45.1500015       8.56477378E-09
   45.2099991       9.80431647E-09
   45.2700005       1.10225509E-08
   45.3300018       1.22384867E-08
   45.3899994       1.34524187E-08
   45.4500008       1.46443497E-08
   45.5099983       1.57788875E-08
   45.5699997       1.68147309E-08
   45.6300011       1.77157684E-08
   45.6899986       1.84604865E-08
   45.7500000       1.90469525E-08
   45.8100014       1.94918499E-08
   45.8699989       1.98237036E-08
   45.9300003       2.00722994E-08
   45.9900017       2.02576871E-08
   46.0499992       2.03824655E-08
   46.1100006       2.04301003E-08
   46.1699982       2.03699457E-08
   46.2299995       2.01673096E-08
   46.2900009       1.97951096E-08
   46.3499985       1.92432719E-08
   46.4099998       1.85229680E-08
   46.4700012       1.76646573E-08
   46.5299988       1.67108389E-08
   46.5900002       1.57057798E-08
   46.6500015       1.46851500E-08
   46.7099991       1.36682639E-08
   46.7700005       1.26549615E-08
   46.8300018       1.16280692E-08
   46.8899994       1.05609255E-08
   46.9500008       9.42794731E-09
   47.0099983       8.21499135E-09
   47.0699997       6.92604241E-09
   47.1300011       5.58374813E-09
   47.1899986       4.22351620E-09
   47.2500000       2.88333202E-09
   47.3100014       1.59315117E-09
   47.3699989       3.67799485E-10
   47.4300003      -7.94249611E-10
   47.4900017      -1.90630645E-09
   47.5499992      -2.98536995E-09
   47.6100006      -4.04375067E-09
   47.6699982      -5.08323783E-09
   47.7299995      -6.09328055E-09
   47.7900009      -7.05316872E-09
   47.8499985      -7.93716293E-09
   47.9099998      -8.72104700E-09
   47.9700012      -9.38846867E-09
   48.0299988      -9.93545601E-09
   48.0900002      -1.03717062E-08
   48.1500015      -1.07178453E-08
   48.2099991      -1.09990204E-08
   48.2700005      -1.12366374E-08
   48.3300018      -1.14410641E-08
   48.3899994      -1.16081509E-08
   48.4500008      -1.17210854E-08
   48.5099983      -1.17570158E-08
   48.5699997      -1.16958931E-08
   48.6300011      -1.15281980E-08
   48.6899986      -1.12588214E-08
   48.7500000      -1.09060920E-08
   48.8100014      -1.04968283E-08
   48.8699989      -1.00594777E-08
   48.9300003      -9.61760982E-09
   48.9900017      -9.18540533E-09
   49.0499992      -8.76595418E-09
   49.1100006      -8.35241831E-09
   49.1699982      -7.93157806E-09
   49.2299995      -7.48887530E-09
   49.2900009      -7.01359371E-09
   49.3499985      -6.50259846E-09
   49.4099998      -5.96128791E-09
   49.4700012      -5.40129674E-09
   49.5299988      -4.83578200E-09
   49.5900002      -4.27421476E-09
   49.6500015      -3.71884812E-09
   49.7099991      -3.16429571E-09
   49.7700005      -2.60019162E-09
   49.8300018      -2.01557993E-09
   49.8899994      -1.40307443E-09
   49.9500008      -7.61221086E-10
   50.0099983      -9.44703760E-11
   50.0699997       5.88843252E-10
   50.1300011       1.27959399E-09
   50.1899986       1.97109618E-09
   50.2500000       2.66175548E-09
   50.3100014       3.35657768E-09
   50.3699989       4.06705114E-09
   50.4300003       4.80909623E-09
   50.4900017       5.59930102E-09
   50.5499992       6.45043263E-09
   50.6100006       7.36777661E-09