  -2.400000      0.0000000E+00
  -2.340000      0.0000000E+00
  -2.280000      0.0000000E+00
  -2.220000      0.0000000E+00
  -2.160000      0.0000000E+00
  -2.100000      5.9253565E-21
  -2.040000      3.0562834E-20
  -1.980000      5.7772155E-20
  -1.920000      1.1612166E-20
  -1.860000     -8.7525609E-20
  -1.800000      2.9825817E-19
  -1.740000      2.3889243E-18
  -1.680000      6.8656557E-18
  -1.620000      1.0774522E-17
  -1.560000      4.6352600E-18
  -1.500000     -2.5296768E-17
  -1.440000     -8.5344916E-17
  -1.380000     -1.5601615E-16
  -1.320000     -1.8017045E-16
  -1.260000     -7.6133948E-17
  -1.200000      2.1557618E-16
  -1.140000      6.6765980E-16
  -1.080000      1.1238499E-15
  -1.020000      1.3222550E-15
 -0.9600000      9.9693142E-16
 -0.9000000      1.9862863E-17
 -0.8400000     -1.4908240E-15
 -0.7800000     -3.1613917E-15
 -0.7200000     -4.4619053E-15
 -0.6600000     -4.8622198E-15
 -0.6000000     -3.9720568E-15
 -0.5400000     -1.6323663E-15
 -0.4800000      2.0132442E-15
 -0.4200000      6.4239724E-15
 -0.3600000      1.0571008E-14
 -0.3000000      1.2985483E-14
 -0.2400000      1.2113264E-14
 -0.1800000      7.0103517E-15
 -0.1200000     -1.8582433E-15
 -5.9999999E-02 -1.2185461E-14
  0.0000000E+00 -2.0200011E-14
  5.9999999E-02 -2.1937601E-14
  0.1200000     -1.4954548E-14
  0.1800000      3.2087908E-16
  0.2400000      2.0284472E-14
  0.3000000      3.9009249E-14
  0.3600000      4.9718523E-14
  0.4200000      4.6131728E-14
  0.4800000      2.3385140E-14
  0.5400000     -2.0988284E-14
  0.6000000     -8.5161560E-14
  0.6600000     -1.5998676E-13
  0.7200000     -2.2618574E-13
  0.7800000     -2.5457780E-13
  0.8400000     -2.1216961E-13
  0.9000000     -7.4683457E-14
  0.9600000      1.5779295E-13
   1.020000      4.4887932E-13
   1.080000      7.2531174E-13
   1.140000      8.9203455E-13
   1.200000      8.6088358E-13
   1.260000      5.8404751E-13
   1.320000      7.9905327E-14
   1.380000     -5.5953305E-13
   1.440000     -1.1840478E-12
   1.500000     -1.6198182E-12
   1.560000     -1.7132473E-12
   1.620000     -1.3720029E-12
   1.680000     -5.9365728E-13
   1.740000      5.2290073E-13
   1.800000      1.7834948E-12
   1.860000      2.9197341E-12
   1.920000      3.6222876E-12
   1.980000      3.5841902E-12
   2.040000      2.5524680E-12
   2.100000      3.8572685E-13
   2.160000     -2.8865766E-12
   2.220000     -7.0105549E-12
   2.280000     -1.1471293E-11
   2.340000     -1.5488522E-11
   2.400000     -1.8062180E-11
   2.460000     -1.8083457E-11
   2.520000     -1.4517668E-11
   2.580000     -6.6480953E-12
   2.640000      5.6529872E-12
   2.700000      2.1681427E-11
   2.760000      3.9753482E-11
   2.820000      5.7213859E-11
   2.880000      7.0632986E-11
   2.940000      7.6183303E-11
   3.000000      7.0136716E-11
   3.060000      4.9388865E-11
   3.120000      1.1905798E-11
   3.180000     -4.2988835E-11
   3.240000     -1.1451858E-10
   3.300000     -2.0052374E-10
   3.360000     -2.9762354E-10
   3.420000     -4.0138876E-10
   3.480000     -5.0647431E-10
   3.540000     -6.0672189E-10
   3.600000     -6.9530171E-10
   3.660000     -7.6498657E-10
   3.720000     -8.0862023E-10
   3.780000     -8.1976115E-10
   3.840000     -7.9338758E-10
   3.900000     -7.2648715E-10
   3.960000     -6.1836081E-10
   4.020000     -4.7055321E-10
   4.080000     -2.8644484E-10
   4.140000     -7.0652845E-11
   4.200000      1.7156901E-10
   4.260000      4.3478071E-10
   4.320000      7.1361222E-10
   4.380000      1.0028958E-09
   4.440000      1.2978078E-09
   4.500000      1.5941402E-09
   4.560000      1.8887301E-09
   4.620000      2.1799627E-09
   4.680000      2.4681823E-09
   4.740000      2.7558289E-09
   4.800000      3.0471896E-09
   4.860000      3.3477634E-09
   4.920000      3.6633392E-09
   4.980000      3.9989589E-09
   5.040000      4.3579194E-09
   5.100000      4.7409285E-09
   5.160000      5.1454676E-09
   5.220000      5.5653864E-09
   5.280000      5.9907745E-09
   5.340000      6.4082037E-09
   5.400000      6.8014643E-09
   5.460000      7.1528898E-09
   5.520000      7.4452235E-09
   5.580000      7.6638065E-09
   5.640000      7.7986693E-09
   5.700000      7.8460376E-09
   5.760000      7.8088709E-09
   5.820000      7.6962818E-09
   5.880000      7.5220585E-09
   5.940000      7.3027446E-09
   6.000000      7.0558390E-09
   6.060000      6.7985377E-09
   6.120000      6.5471268E-09
   6.180000      6.3168173E-09
   6.240000      6.1216254E-09
   6.300000      5.9739245E-09
   6.360000      5.8835297E-09
   6.420000      5.8564416E-09
   6.480000      5.8936429E-09
   6.540000      5.9903824E-09
   6.600000      6.1362937E-09
   6.660000      6.3164509E-09
   6.720000      6.5132260E-09
   6.780000      6.7085848E-09
   6.840000      6.8863684E-09
   6.900000      7.0340764E-09
   6.960000      7.1437967E-09
   7.020000      7.2121056E-09
   7.080000      7.2390289E-09
   7.140000      7.2264403E-09
   7.200000      7.1764408E-09
   7.260000      7.0902733E-09
   7.320000      6.9681350E-09
   7.380000      6.8098696E-09
   7.440000      6.6161649E-09
   7.500000      6.3896208E-09
   7.560000      6.1350853E-09
   7.620000      5.8589289E-09
   7.680000      5.5673635E-09
   7.740000      5.2643236E-09
   7.800000      4.9496824E-09
   7.860000      4.6185042E-09
   7.920000      4.2617483E-09
   7.980000      3.8683359E-09
   8.040000      3.4280196E-09
   8.100000      2.9341563E-09
   8.160000      2.3854718E-09
   8.220000      1.7862206E-09
   8.280000      1.1447140E-09
   8.340000      4.7082727E-10
   8.400000     -2.2648869E-10
   8.460000     -9.4066521E-10
   8.520000     -1.6673667E-09
   8.580000     -2.4029092E-09
   8.640000     -3.1421141E-09
   8.700000     -3.8767682E-09
   8.760000     -4.5956097E-09
   8.820000     -5.2860232E-09
   8.880000     -5.9368239E-09
   8.940000     -6.5409274E-09
   9.000000     -7.0967423E-09
   9.060000     -7.6076541E-09
   9.120000     -8.0797742E-09
   9.180000     -8.5188177E-09
   9.240000     -8.9272714E-09
   9.300000     -9.3028154E-09
   9.360000     -9.6385060E-09
   9.420000     -9.9246140E-09
   9.480000     -1.0151577E-08
   9.540000     -1.0313206E-08
   9.600000     -1.0409239E-08
   9.660000     -1.0446404E-08
   9.720000     -1.0437524E-08
   9.780000     -1.0398712E-08
   9.840000     -1.0345409E-08
   9.900000     -1.0288533E-08
   9.960000     -1.0232238E-08
   10.02000     -1.0174227E-08
   10.08000     -1.0108688E-08
   10.14000     -1.0030772E-08
   10.20000     -9.9407647E-09
   10.26000     -9.8461932E-09
   10.32000     -9.7608863E-09
   10.38000     -9.7013162E-09
   10.44000     -9.6816795E-09
   10.50000     -9.7096100E-09
   10.56000     -9.7840722E-09
   10.62000     -9.8959463E-09
   10.68000     -1.0030785E-08
   10.74000     -1.0172513E-08
   10.80000     -1.0306767E-08
   10.86000     -1.0423014E-08
   10.92000     -1.0515234E-08
   10.98000     -1.0581414E-08
   11.04000     -1.0622367E-08
   11.10000     -1.0640352E-08
   11.16000     -1.0637878E-08
   11.22000     -1.0616948E-08
   11.28000     -1.0578892E-08
   11.34000     -1.0524815E-08
   11.40000     -1.0456469E-08
   11.46000     -1.0377120E-08
   11.52000     -1.0291943E-08
   11.58000     -1.0207561E-08
   11.64000     -1.0130759E-08
   11.70000     -1.0066795E-08
   11.76000     -1.0017974E-08
   11.82000     -9.9831157E-09
   11.88000     -9.9581445E-09
   11.94000     -9.9375024E-09
   12.00000     -9.9157242E-09
   12.06000     -9.8884021E-09
   12.12000     -9.8520854E-09
   12.18000     -9.8031725E-09
   12.24000     -9.7363486E-09
   12.30000     -9.6434167E-09
   12.36000     -9.5132693E-09
   12.42000     -9.3333616E-09
   12.48000     -9.0924210E-09
   12.54000     -8.7836343E-09
   12.60000     -8.4072189E-09
   12.66000     -7.9713649E-09
   12.72000     -7.4910513E-09
   12.78000     -6.9849038E-09
   12.84000     -6.4710526E-09
   12.90000     -5.9633507E-09
   12.96000     -5.4692633E-09
   13.02000     -4.9901301E-09
   13.08000     -4.5236019E-09
   13.14000     -4.0671826E-09
   13.20000     -3.6213865E-09
   13.26000     -3.1912604E-09
   13.32000     -2.7857650E-09
   13.38000     -2.4154891E-09
   13.44000     -2.0898561E-09
   13.50000     -1.8150942E-09
   13.56000     -1.5937465E-09
   13.62000     -1.4256613E-09
   13.68000     -1.3096835E-09
   13.74000     -1.2450077E-09
   13.80000     -1.2314620E-09
   13.86000     -1.2686519E-09
   13.92000     -1.3545397E-09
   13.98000     -1.4843201E-09
   14.04000     -1.6502507E-09
   14.10000     -1.8425592E-09
   14.16000     -2.0509829E-09
   14.22000     -2.2661950E-09
   14.28000     -2.4804758E-09
   14.34000     -2.6873976E-09
   14.40000     -2.8807836E-09
   14.46000     -3.0535103E-09
   14.52000     -3.1967640E-09
   14.58000     -3.3001026E-09
   14.64000     -3.3523266E-09
   14.70000     -3.3428424E-09
   14.76000     -3.2630454E-09
   14.82000     -3.1072955E-09
   14.88000     -2.8732232E-09
   14.94000     -2.5613511E-09
   15.00000     -2.1742130E-09
   15.06000     -1.7152904E-09
   15.12000     -1.1880960E-09
   15.18000     -5.9566163E-10
   15.24000      5.9463205E-11
   15.30000      7.7474638E-10
   15.36000      1.5468933E-09
   15.42000      2.3709730E-09
   15.48000      3.2396752E-09
   15.54000      4.1429216E-09
   15.60000      5.0680198E-09
   15.66000      6.0004850E-09
   15.72000      6.9254931E-09
   15.78000      7.8297191E-09
   15.84000      8.7030774E-09
   15.90000      9.5397983E-09
   15.96000      1.0338420E-08
   16.02000      1.1100646E-08
   16.08000      1.1829500E-08
   16.14000      1.2527478E-08
   16.20000      1.3195404E-08
   16.26000      1.3832321E-08
   16.32000      1.4436177E-08
   16.38000      1.5004755E-08
   16.44000      1.5536271E-08
   16.50000      1.6029416E-08
   16.56000      1.6483090E-08
   16.62000      1.6896305E-08
   16.68000      1.7268606E-08
   16.74000      1.7600900E-08
   16.80000      1.7896141E-08
   16.86000      1.8159261E-08
   16.92000      1.8396126E-08
   16.98000      1.8611837E-08
   17.04000      1.8809265E-08
   17.10000      1.8988535E-08
   17.16000      1.9147834E-08
   17.22000      1.9285016E-08
   17.28000      1.9399172E-08
   17.34000      1.9491294E-08
   17.40000      1.9563798E-08
   17.46000      1.9619312E-08
   17.52000      1.9659556E-08
   17.58000      1.9684915E-08
   17.64000      1.9694879E-08
   17.70000      1.9688780E-08
   17.76000      1.9666224E-08
   17.82000      1.9626718E-08
   17.88000      1.9568642E-08
   17.94000      1.9488160E-08
   18.00000      1.9378801E-08
   18.06000      1.9232122E-08
   18.12000      1.9039389E-08
   18.18000      1.8793653E-08
   18.24000      1.8491585E-08
   18.30000      1.8134406E-08
   18.36000      1.7727716E-08
   18.42000      1.7280289E-08
   18.48000      1.6802213E-08
   18.54000      1.6302915E-08
   18.60000      1.5789590E-08
   18.66000      1.5266560E-08
   18.72000      1.4735685E-08
   18.78000      1.4197703E-08
   18.84000      1.3653837E-08
   18.90000      1.3106958E-08
   18.96000      1.2561645E-08
   19.02000      1.2023056E-08
   19.08000      1.1495099E-08
   19.14000      1.0978777E-08
   19.20000      1.0471567E-08
   19.26000      9.9681348E-09
   19.32000      9.4621013E-09
   19.38000      8.9480139E-09
   19.44000      8.4226626E-09
   19.50000      7.8852285E-09
   19.56000      7.3363551E-09
   19.62000      6.7766903E-09
   19.68000      6.2056214E-09
   19.74000      5.6207270E-09
   19.80000      5.0181086E-09
   19.86000      4.3934043E-09
   19.92000      3.7430814E-09
   19.98000      3.0655944E-09
   20.04000      2.3621025E-09
   20.10000      1.6366093E-09
   20.16000      8.9554797E-10
   20.22000      1.4697257E-10
   20.28000     -6.0041405E-10
   20.34000     -1.3381463E-09
   20.40000     -2.0586237E-09
   20.46000     -2.7554150E-09
   20.52000     -3.4232679E-09
   20.58000     -4.0579060E-09
   20.64000     -4.6556838E-09
   20.70000     -5.2131552E-09
   20.76000     -5.7266445E-09
   20.82000     -6.1919470E-09
   20.88000     -6.6043180E-09
   20.94000     -6.9587993E-09
   21.00000     -7.2507604E-09
   21.06000     -7.4763626E-09
   21.12000     -7.6326359E-09
   21.18000     -7.7170759E-09
   21.24000     -7.7270368E-09
   21.30000     -7.6593860E-09
   21.36000     -7.5108684E-09
   21.42000     -7.2791857E-09
   21.48000     -6.9642723E-09
   21.54000     -6.5690005E-09
   21.60000     -6.0987473E-09
   21.66000     -5.5599019E-09
   21.72000     -4.9580642E-09
   21.78000     -4.2969841E-09
   21.84000     -3.5789098E-09
   21.90000     -2.8062224E-09
   21.96000     -1.9834481E-09
   22.02000     -1.1185195E-09
   22.08000     -2.2256617E-10
   22.14000      6.9162032E-10
   22.20000      1.6116050E-09
   22.26000      2.5268205E-09
   22.32000      3.4290288E-09
   22.38000      4.3118726E-09
   22.44000      5.1701035E-09
   22.50000      5.9989964E-09
   22.56000      6.7940551E-09
   22.62000      7.5507041E-09
   22.68000      8.2636937E-09
   22.74000      8.9263192E-09
   22.80000      9.5300079E-09
   22.86000      1.0064876E-08
   22.92000      1.0521410E-08
   22.98000      1.0892627E-08
   23.04000      1.1175642E-08
   23.10000      1.1371648E-08
   23.16000      1.1484223E-08
   23.22000      1.1516755E-08
   23.28000      1.1470350E-08
   23.34000      1.1343244E-08
   23.40000      1.1131812E-08
   23.46000      1.0832329E-08
   23.52000      1.0442264E-08
   23.58000      9.9603703E-09
   23.64000      9.3857224E-09
   23.70000      8.7166656E-09
   23.76000      7.9507316E-09
   23.82000      7.0859256E-09
   23.88000      6.1229031E-09
   23.94000      5.0668807E-09
   24.00000      3.9282315E-09
   24.06000      2.7213616E-09
   24.12000      1.4623653E-09
   24.18000      1.6647510E-10
   24.24000     -1.1536871E-09
   24.30000     -2.4885540E-09
   24.36000     -3.8308561E-09
   24.42000     -5.1741855E-09
   24.48000     -6.5114953E-09
   24.54000     -7.8340063E-09
   24.60000     -9.1307939E-09
   24.66000     -1.0389133E-08
   24.72000     -1.1595512E-08
   24.78000     -1.2737058E-08
   24.84000     -1.3802932E-08
   24.90000     -1.4785208E-08
   24.96000     -1.5678934E-08
   25.02000     -1.6481442E-08
   25.08000     -1.7191329E-08
   25.14000     -1.7807693E-08
   25.20000     -1.8330002E-08
   25.26000     -1.8758513E-08
   25.32000     -1.9094779E-08
   25.38000     -1.9341716E-08
   25.44000     -1.9502927E-08
   25.50000     -1.9581563E-08
   25.56000     -1.9579272E-08
   25.62000     -1.9495896E-08
   25.68000     -1.9330106E-08
   25.74000     -1.9080680E-08
   25.80000     -1.8747912E-08
   25.86000     -1.8334498E-08
   25.92000     -1.7845675E-08
   25.98000     -1.7288631E-08
   26.04000     -1.6671528E-08
   26.10000     -1.6002433E-08
   26.16000     -1.5288304E-08
   26.22000     -1.4534264E-08
   26.28000     -1.3743235E-08
   26.34000     -1.2916175E-08
   26.40000     -1.2052993E-08
   26.46000     -1.1153994E-08
   26.52000     -1.0221377E-08
   26.58000     -9.2601784E-09
   26.64000     -8.2781586E-09
   26.70000     -7.2845738E-09
   26.76000     -6.2882681E-09
   26.82000     -5.2958238E-09
   26.88000     -4.3104404E-09
   26.94000     -3.3318501E-09
   27.00000     -2.3570816E-09
   27.06000     -1.3815998E-09
   27.12000     -4.0034581E-10
   27.18000      5.9155342E-10
   27.24000      1.5983026E-09
   27.30000      2.6229088E-09
   27.36000      3.6663563E-09
   27.42000      4.7264588E-09
   27.48000      5.7966316E-09
   27.54000      6.8649988E-09
   27.60000      7.9142604E-09
   27.66000      8.9225551E-09
   27.72000      9.8652473E-09
   27.78000      1.0717223E-08
   27.84000      1.1455096E-08
   27.90000      1.2058755E-08
   27.96000      1.2511982E-08
   28.02000      1.2802350E-08
   28.08000      1.2920967E-08
   28.14000      1.2862722E-08
   28.20000      1.2627307E-08
   28.26000      1.2220680E-08
   28.32000      1.1656118E-08
   28.38000      1.0953956E-08
   28.44000      1.0139589E-08
   28.50000      9.2402246E-09
   28.56000      8.2815710E-09
   28.62000      7.2857134E-09
   28.68000      6.2708563E-09
   28.74000      5.2525215E-09
   28.80000      4.2450066E-09
   28.86000      3.2618097E-09
   28.92000      2.3144302E-09
   28.98000      1.4100642E-09
   29.04000      5.4951615E-10
   29.10000     -2.7331651E-10
   29.16000     -1.0698171E-09
   29.22000     -1.8534267E-09
   29.28000     -2.6361628E-09
   29.34000     -3.4262402E-09
   29.40000     -4.2274584E-09
   29.46000     -5.0400546E-09
   29.52000     -5.8620766E-09
   29.58000     -6.6902794E-09
   29.64000     -7.5200681E-09
   29.70000     -8.3446432E-09
   29.76000     -9.1539363E-09
   29.82000     -9.9339248E-09
   29.88000     -1.0666660E-08
   29.94000     -1.1331069E-08
   30.00000     -1.1904420E-08
   30.06000     -1.2364329E-08
   30.12000     -1.2691173E-08
   30.18000     -1.2870540E-08
   30.24000     -1.2895265E-08
   30.30000     -1.2766409E-08
   30.36000     -1.2492837E-08
   30.42000     -1.2089433E-08
   30.48000     -1.1574516E-08
   30.54000     -1.0967235E-08
   30.60000     -1.0285609E-08
   30.66000     -9.5455270E-09
   30.72000     -8.7605869E-09
   30.78000     -7.9424476E-09
   30.84000     -7.1014234E-09
   30.90000     -6.2471583E-09
   30.96000     -5.3893205E-09
   31.02000     -4.5381725E-09
   31.08000     -3.7048109E-09
   31.14000     -2.9008722E-09
   31.20000     -2.1377364E-09
   31.26000     -1.4255378E-09
   31.32000     -7.7243489E-10
   31.38000     -1.8443175E-10
   31.44000      3.3432479E-10
   31.50000      7.8116508E-10
   31.56000      1.1548398E-09
   31.62000      1.4558443E-09
   31.68000      1.6867313E-09
   31.74000      1.8518198E-09
   31.80000      1.9560071E-09
   31.86000      2.0030142E-09
   31.92000      1.9939475E-09
   31.98000      1.9270898E-09
   32.04000      1.7992322E-09
   32.10000      1.6079477E-09
   32.16000      1.3536035E-09
   32.22000      1.0399930E-09
   32.28000      6.7327721E-10
   32.34000      2.5991773E-10
   32.40000     -1.9514632E-10
   32.46000     -6.8906236E-10
   32.52000     -1.2202064E-09
   32.58000     -1.7866394E-09
   32.64000     -2.3849682E-09
   32.70000     -3.0103091E-09
   32.76000     -3.6572418E-09
   32.82000     -4.3209791E-09
   32.88000     -4.9979181E-09
   32.94000     -5.6852532E-09
   33.00000     -6.3800156E-09
   33.06000     -7.0782433E-09
   33.12000     -7.7747888E-09
   33.18000     -8.4637293E-09
   33.24000     -9.1389127E-09
   33.30000     -9.7941522E-09
   33.36000     -1.0423006E-08
   33.42000     -1.1018465E-08
   33.48000     -1.1573007E-08
   33.54000     -1.2079112E-08
   33.60000     -1.2529909E-08
   33.66000     -1.2919443E-08
   33.72000     -1.3242308E-08
   33.78000     -1.3493024E-08
   33.84000     -1.3665922E-08
   33.90000     -1.3756106E-08
   33.96000     -1.3761340E-08
   34.02000     -1.3683909E-08
   34.08000     -1.3531229E-08
   34.14000     -1.3314497E-08
   34.20000     -1.3045808E-08
   34.26000     -1.2735123E-08
   34.32000     -1.2388677E-08
   34.38000     -1.2009614E-08
   34.44000     -1.1600388E-08
   34.50000     -1.1165415E-08
   34.56000     -1.0712362E-08
   34.62000     -1.0251264E-08
   34.68000     -9.7918944E-09
   34.74000     -9.3407628E-09
   34.80000     -8.8991872E-09
   34.86000     -8.4632559E-09
   34.92000     -8.0254923E-09
   34.98000     -7.5773361E-09
   35.04000     -7.1114572E-09
   35.10000     -6.6232420E-09
   35.16000     -6.1113421E-09
   35.22000     -5.5774914E-09
   35.28000     -5.0259046E-09
   35.34000     -4.4624895E-09
   35.40000     -3.8940668E-09
   35.46000     -3.3277616E-09
   35.52000     -2.7707427E-09
   35.58000     -2.2303108E-09
   35.64000     -1.7141359E-09
   35.70000     -1.2302512E-09
   35.76000     -7.8648799E-10
   35.82000     -3.8933326E-10
   35.88000     -4.2593869E-11
   35.94000      2.5353089E-10
   36.00000      5.0249405E-10
   36.06000      7.1050099E-10
   36.12000      8.8506263E-10
   36.18000      1.0336259E-09
   36.24000      1.1627939E-09
   36.30000      1.2782986E-09
   36.36000      1.3855190E-09
   36.42000      1.4901406E-09
   36.48000      1.5985461E-09
   36.54000      1.7176659E-09
   36.60000      1.8541766E-09
   36.66000      2.0131432E-09
   36.72000      2.1964512E-09
   36.78000      2.4016333E-09
   36.84000      2.6218046E-09
   36.90000      2.8471765E-09
   36.96000      3.0679581E-09
   37.02000      3.2776326E-09
   37.08000      3.4750878E-09
   37.14000      3.6643135E-09
   37.20000      3.8514356E-09
   37.26000      4.0402703E-09
   37.32000      4.2285544E-09
   37.38000      4.4069348E-09
   37.44000      4.5615058E-09
   37.50000      4.6788995E-09
   37.56000      4.7515343E-09
   37.62000      4.7805009E-09
   37.68000      4.7747011E-09
   37.74000      4.7467381E-09
   37.80000      4.7075770E-09
   37.86000      4.6624216E-09
   37.92000      4.6094812E-09
   37.98000      4.5418176E-09
   38.04000      4.4511399E-09
   38.10000      4.3318162E-09
   38.16000      4.1836388E-09
   38.22000      4.0126311E-09
   38.28000      3.8299834E-09
   38.34000      3.6497083E-09
   38.40000      3.4857794E-09
   38.46000      3.3495133E-09
   38.52000      3.2478282E-09
   38.58000      3.1828264E-09
   38.64000      3.1527898E-09
   38.70000      3.1542344E-09
   38.76000      3.1842613E-09
   38.82000      3.2423391E-09
   38.88000      3.3309087E-09
   38.94000      3.4547223E-09
   39.00000      3.6193253E-09
   39.06000      3.8293129E-09
   39.12000      4.0868859E-09
   39.18000      4.3909991E-09
   39.24000      4.7371937E-09
   39.30000      5.1182227E-09
   39.36000      5.5255436E-09
   39.42000      5.9516236E-09
   39.48000      6.3925358E-09
   39.54000      6.8499100E-09
   39.60000      7.3311814E-09
   39.66000      7.8475288E-09
   39.72000      8.4099163E-09
   39.78000      9.0246175E-09
   39.84000      9.6900328E-09
   39.90000      1.0396154E-08
   39.96000      1.1126887E-08
   40.02000      1.1864193E-08
   40.08000      1.2592379E-08
   40.14000      1.3300991E-08
   40.20000      1.3985628E-08
   40.26000      1.4646852E-08
   40.32000      1.5287988E-08
   40.38000      1.5912617E-08
   40.44000      1.6522396E-08
   40.50000      1.7115584E-08
   40.56000      1.7686647E-08
   40.62000      1.8227208E-08
   40.68000      1.8728256E-08
   40.74000      1.9183007E-08
   40.80000      1.9589192E-08
   40.86000      1.9949576E-08
   40.92000      2.0270100E-08
   40.98000      2.0556303E-08
   41.04000      2.0809663E-08
   41.10000      2.1025757E-08
   41.16000      2.1195273E-08
   41.22000      2.1307462E-08
   41.28000      2.1354364E-08
   41.34000      2.1333753E-08
   41.40000      2.1249635E-08
   41.46000      2.1110356E-08
   41.52000      2.0925592E-08
   41.58000      2.0703705E-08
   41.64000      2.0450319E-08
   41.70000      2.0168104E-08
   41.76000      1.9857159E-08
   41.82000      1.9515468E-08
   41.88000      1.9139430E-08
   41.94000      1.8724833E-08
   42.00000      1.8268588E-08
   42.06000      1.7770819E-08
   42.12000      1.7236456E-08
   42.18000      1.6675243E-08
   42.24000      1.6099838E-08
   42.30000      1.5522545E-08
   42.36000      1.4951977E-08
   42.42000      1.4391064E-08
   42.48000      1.3837064E-08
   42.54000      1.3283419E-08
   42.60000      1.2722533E-08
   42.66000      1.2148496E-08
   42.72000      1.1559039E-08
   42.78000      1.0956418E-08
   42.84000      1.0347129E-08
   42.90000      9.7404547E-09
   42.96000      9.1460226E-09
   43.02000      8.5709528E-09
   43.08000      8.0176532E-09
   43.14000      7.4834654E-09
   43.20000      6.9628112E-09
   43.26000      6.4512959E-09
   43.32000      5.9500578E-09
   43.38000      5.4681273E-09
   43.44000      5.0213274E-09
   43.50000      4.6278648E-09
   43.56000      4.3025090E-09
   43.62000      4.0520103E-09
   43.68000      3.8737884E-09
   43.74000      3.7581938E-09
   43.80000      3.6929002E-09
   43.86000      3.6671528E-09
   43.92000      3.6741046E-09
   43.98000      3.7108556E-09
   44.04000      3.7771026E-09
   44.10000      3.8737489E-09
   44.16000      4.0022532E-09
   44.22000      4.1645216E-09
   44.28000      4.3625086E-09
   44.34000      4.5969331E-09
   44.40000      4.8653619E-09
   44.46000      5.1607283E-09
   44.52000      5.4714451E-09
   44.58000      5.7835323E-09
   44.64000      6.0840115E-09
   44.70000      6.3640795E-09
   44.76000      6.6206325E-09
   44.82000      6.8556316E-09
   44.88000      7.0738944E-09
   44.94000      7.2805828E-09
   45.00000      7.4795361E-09
   45.06000      7.6729423E-09
   45.12000      7.8620719E-09
   45.18000      8.0484286E-09
   45.24000      8.2347276E-09
   45.30000      8.4253804E-09
   45.36000      8.6263361E-09
   45.42000      8.8441494E-09
   45.48000      9.0841485E-09
   45.54000      9.3478540E-09
   45.60000      9.6303516E-09
   45.66000      9.9187965E-09
   45.72000      1.0193191E-08
   45.78000      1.0429829E-08
   45.84000      1.0606504E-08
   45.90000      1.0707571E-08
   45.96000      1.0726724E-08
   46.02000      1.0666330E-08
   46.08000      1.0533746E-08
   46.14000      1.0336489E-08
   46.20000      1.0078529E-08
   46.26000      9.7592165E-09
   46.32000      9.3749115E-09
   46.38000      8.9220711E-09
   46.44000      8.4001170E-09
   46.50000      7.8129272E-09
   46.56000      7.1687567E-09
   46.62000      6.4791927E-09
   46.68000      5.7578435E-09
   46.74000      5.0190967E-09
   46.80000      4.2768193E-09
   46.86000      3.5428116E-09
   46.92000      2.8252078E-09
   46.98000      2.1274758E-09
   47.04000      1.4487742E-09
   47.10000      7.8589524E-10
   47.16000      1.3616669E-10
   47.22000     -4.9996857E-10
   47.28000     -1.1179548E-09
   47.34000     -1.7102036E-09
   47.40000     -2.2686744E-09
   47.46000     -2.7876295E-09
   47.52000     -3.2652321E-09
   47.58000     -3.7033399E-09
   47.64000     -4.1057979E-09
   47.70000     -4.4761745E-09
   47.76000     -4.8159494E-09
   47.82000     -5.1237738E-09
   47.88000     -5.3958651E-09
   47.94000     -5.6272431E-09
   48.00000     -5.8134111E-09
   48.06000     -5.9520584E-09
   48.12000     -6.0443766E-09
   48.18000     -6.0954948E-09
   48.24000     -6.1136536E-09
   48.30000     -6.1081189E-09
   48.36000     -6.0864145E-09
   48.42000     -6.0519638E-09
   48.48000     -6.0032210E-09
   48.54000     -5.9347527E-09
   48.60000     -5.8397855E-09
   48.66000     -5.7129617E-09
   48.72000     -5.5519602E-09
   48.78000     -5.3573292E-09
   48.84000     -5.1309059E-09
   48.90000     -4.8739262E-09
   48.96000     -4.5859587E-09
   49.02000     -4.2651220E-09
   49.08000     -3.9091770E-09
   49.14000     -3.5166206E-09
   49.20000     -3.0871052E-09
   49.26000     -2.6211477E-09
   49.32000     -2.1196696E-09
   49.38000     -1.5839909E-09
   49.44000     -1.0164397E-09
   49.50000     -4.2113468E-10
   49.56000      1.9578436E-10
   49.62000      8.2691320E-10
   49.68000      1.4651222E-09
   49.74000      2.1051387E-09
   49.80000      2.7443974E-09
   49.86000      3.3828620E-09
   49.92000      4.0221586E-09
   49.98000      4.6646877E-09
   50.04000      5.3132108E-09
   50.10000      5.9708931E-09
   50.16000      6.6413453E-09
   50.22000      7.3281758E-09
   50.28000      8.0339690E-09
   50.34000      8.7590717E-09
   50.40000      9.5007664E-09
   50.46000      1.0253149E-08
   50.52000      1.1007471E-08
   50.58000      1.1752362E-08
   50.64000      1.2473333E-08
   50.70000      1.3151475E-08
   50.76000      1.3761799E-08
   50.82000      1.4272021E-08
   50.88000      1.4642398E-08
   50.94000      1.4826690E-08
   51.00000      1.4773770E-08
   51.06000      1.4429124E-08
   51.12000      1.3735572E-08
   51.18000      1.2632951E-08
   51.24000      1.1056949E-08
   51.30000      8.9375698E-09
   51.36000      6.1977867E-09
   51.42000      2.7528702E-09
   51.48000     -1.4893613E-09
   51.54000     -6.6273693E-09
   51.60000     -1.2764060E-08
   51.66000     -2.0004743E-08
   51.72000     -2.8455359E-08
   51.78000     -3.8221327E-08
   51.84000     -4.9406950E-08
   51.90000     -6.2115070E-08
   51.96000     -7.6446362E-08
   52.02000     -9.2497892E-08
   52.08000     -1.1036057E-07
   52.14000     -1.3011579E-07
   52.20000     -1.5183154E-07
   52.26000     -1.7555867E-07
   52.32000     -2.0132757E-07
   52.38000     -2.2914571E-07
   52.44000     -2.5899587E-07
   52.50000     -2.9083435E-07
   52.56000     -3.2458971E-07
   52.62000     -3.6016039E-07
   52.68000     -3.9741261E-07
   52.74000     -4.3617777E-07
   52.80000     -4.7625116E-07
   52.86000     -5.1739164E-07
   52.92000     -5.5932270E-07
   52.98000     -6.0173386E-07
   53.04000     -6.4428144E-07
   53.10000     -6.8658881E-07
   53.16000     -7.2824469E-07
   53.22000     -7.6880275E-07
   53.28000     -8.0778267E-07
   53.34000     -8.4467422E-07
   53.40000     -8.7894307E-07
   53.46000     -9.1003812E-07
   53.52000     -9.3739743E-07
   53.58000     -9.6045244E-07
   53.64000     -9.7863187E-07
   53.70000     -9.9136400E-07
   53.76000     -9.9808062E-07
   53.82000     -9.9822182E-07
   53.88000     -9.9124065E-07
   53.94000     -9.7660791E-07
   54.00000     -9.5381870E-07
   54.06000     -9.2239912E-07
   54.12000     -8.8191553E-07
   54.18000     -8.3198540E-07
   54.24000     -7.7228788E-07
   54.30000     -7.0257084E-07
   54.36000     -6.2265389E-07
   54.42000     -5.3242672E-07
   54.48000     -4.3184758E-07
   54.54000     -3.2094218E-07
   54.60000     -1.9980634E-07
   54.66000     -6.8610362E-08
   54.72000      7.2396745E-08
   54.78000      2.2288573E-07
   54.84000      3.8244875E-07
   54.90000      5.5060286E-07
   54.96000      7.2679398E-07
   55.02000      9.1040073E-07
   55.08000      1.1007384E-06
   55.14000      1.2970651E-06
   55.20000      1.4985899E-06
   55.26000      1.7044815E-06
   55.32000      1.9138752E-06
   55.38000      2.1258763E-06
   55.44000      2.3395610E-06
   55.50000      2.5539809E-06
   55.56000      2.7681708E-06