 -0.750000000       0.00000000    
 -0.689999998       0.00000000    
 -0.629999995       0.00000000    
 -0.569999993       0.00000000    
 -0.509999990       0.00000000    
 -0.449999988       1.82874479E-20
 -0.389999986       1.42003763E-19
 -0.330000013       5.61535902E-19
 -0.270000011       1.45955957E-18
 -0.209999993       2.63337601E-18
 -0.150000006       2.92946841E-18
  -9.00000036E-02  -3.64253539E-20
  -2.99999993E-02  -9.03365022E-18
   2.99999993E-02  -2.45696399E-17
   9.00000036E-02  -4.10084616E-17
  0.150000006      -4.42438329E-17
  0.209999993      -1.54273899E-17
  0.270000011       5.61864946E-17
  0.330000013       1.54564547E-16
  0.389999986       2.24794047E-16
  0.449999988       1.84742571E-16
  0.509999990      -3.02974884E-17
  0.569999993      -4.03212167E-16
  0.629999995      -7.89883423E-16
  0.689999998      -9.39996719E-16
  0.750000000      -6.03918027E-16
  0.810000002       3.09705050E-16
  0.870000005       1.61185637E-15
  0.930000007       2.83660979E-15
  0.990000010       3.39871292E-15
   1.04999995       2.83742972E-15
   1.11000001       1.01479619E-15
   1.16999996      -1.83831857E-15
   1.23000002      -5.22609206E-15
   1.28999996      -8.52563395E-15
   1.35000002      -1.10238916E-14
   1.40999997      -1.18311470E-14
   1.47000003      -9.81878305E-15
   1.52999997      -3.81200783E-15
   1.59000003       6.84041574E-15
   1.64999998       2.14612738E-14
   1.71000004       3.73935739E-14
   1.76999998       4.99360380E-14
   1.83000004       5.30950575E-14
   1.88999999       4.10730240E-14
   1.95000005       1.02049987E-14
   2.00999999      -3.89761669E-14
   2.06999993      -9.98727061E-14
   2.13000011      -1.58698101E-13
   2.19000006      -1.95088412E-13
   2.25000000      -1.85714101E-13
   2.30999994      -1.11609290E-13
   2.36999989       3.17955264E-14
   2.43000007       2.25380356E-13
   2.49000001       4.22956375E-13
   2.54999995       5.58392417E-13
   2.60999990       5.64232797E-13
   2.67000008       3.97235874E-13
   2.73000002       6.14210356E-14
   2.78999996      -3.81968762E-13
   2.84999990      -8.24294355E-13
   2.91000009      -1.13812768E-12
   2.97000003      -1.21557929E-12
   3.02999997      -1.00280949E-12
   3.08999991      -5.18464124E-13
   3.15000010       1.49919058E-13
   3.21000004       8.69226620E-13
   3.26999998       1.49489774E-12
   3.32999992       1.90432544E-12
   3.39000010       2.01963034E-12
   3.45000005       1.81459025E-12
   3.50999999       1.30652477E-12
   3.56999993       5.39701747E-13
   3.63000011      -4.29370352E-13
   3.69000006      -1.53448142E-12
   3.75000000      -2.68534912E-12
   3.80999994      -3.74208433E-12
   3.86999989      -4.49574102E-12
   3.93000007      -4.67795420E-12
   3.99000001      -4.01633587E-12
   4.05000019      -2.33278132E-12
   4.11000013       3.44065949E-13
   4.17000008       3.70005459E-12
   4.23000002       7.13774005E-12
   4.28999996       9.88195810E-12
   4.34999990       1.11699946E-11
   4.40999985       1.04685444E-11
   4.46999979       7.64216121E-12
   4.53000021       3.01181064E-12
   4.59000015      -2.71773294E-12
   4.65000010      -8.63459217E-12
   4.71000004      -1.38383801E-11
   4.76999998      -1.76301109E-11
   4.82999992      -1.96217730E-11
   4.88999987      -1.97488293E-11
   4.94999981      -1.82040702E-11
   5.01000023      -1.53341524E-11
   5.07000017      -1.15448736E-11
   5.13000011      -7.24865090E-12
   5.19000006      -2.86301278E-12
   5.25000000       1.15994638E-12
   5.30999994       4.31571359E-12
   5.36999989       6.08819202E-12
   5.42999983       6.07492832E-12
   5.48999977       4.17731474E-12
   5.55000019       7.84773667E-13
   5.61000013      -3.14878917E-12
   5.67000008      -6.22263439E-12
   5.73000002      -6.91983753E-12
   5.78999996      -4.07266972E-12
   5.84999990       2.69782786E-12
   5.90999985       1.27501690E-11
   5.96999979       2.45203250E-11
   6.03000021       3.59476719E-11
   6.09000015       4.50947717E-11
   6.15000010       5.07460671E-11
   6.21000004       5.27806167E-11
   6.26999998       5.22086575E-11
   6.32999992       5.08931612E-11
   6.38999987       5.10849210E-11
   6.44999981       5.49354624E-11
   6.51000023       6.41112580E-11
   6.57000017       7.95487634E-11
   6.63000011       1.01314096E-10
   6.69000006       1.28504485E-10
   6.75000000       1.59161323E-10
   6.80999994       1.90229013E-10
   6.86999989       2.17648052E-10
   6.92999983       2.36674597E-10
   6.98999977       2.42462800E-10
   7.05000019       2.30849673E-10
   7.11000013       1.99188055E-10
   7.17000008       1.47024698E-10
   7.23000002       7.64416169E-11
   7.28999996      -8.03697560E-12
   7.34999990      -9.99541283E-11
   7.40999985      -1.91725219E-10
   7.46999979      -2.75560547E-10
   7.53000021      -3.44328593E-10
   7.59000015      -3.92231164E-10
   7.65000010      -4.15231183E-10
   7.71000004      -4.11238377E-10
   7.76999998      -3.80105530E-10
   7.82999992      -3.23508859E-10
   7.88999987      -2.44785137E-10
   7.94999981      -1.48771565E-10
   8.01000023      -4.16461900E-11
   8.06999969       6.92913366E-11
   8.13000011       1.75999534E-10
   8.18999958       2.70324652E-10
   8.25000000       3.44884954E-10
   8.31000042       3.94077160E-10
   8.36999989       4.14941609E-10
   8.43000031       4.07581358E-10
   8.48999977       3.74935361E-10
   8.55000019       3.21938393E-10
   8.60999966       2.54362836E-10
   8.67000008       1.77797346E-10
   8.72999954       9.71622574E-11
   8.78999996       1.68958545E-11
   8.85000038      -5.84157028E-11
   8.90999985      -1.23462546E-10
   8.97000027      -1.72211759E-10
   9.02999973      -1.98746991E-10
   9.09000015      -1.98780048E-10
   9.14999962      -1.71279532E-10
   9.21000004      -1.19514537E-10
   9.27000046      -5.09902953E-11
   9.32999992       2.38192122E-11
   9.39000034       9.35580016E-11
   9.44999981       1.48202325E-10
   9.51000023       1.80703091E-10
   9.56999969       1.87643470E-10
   9.63000011       1.68926456E-10
   9.68999958       1.26877481E-10
   9.75000000       6.52965459E-11
   9.81000042      -1.11285712E-11
   9.86999989      -9.69459929E-11
   9.93000031      -1.85829629E-10
   9.98999977      -2.70636707E-10
   10.0500002      -3.43958528E-10
   10.1099997      -3.99199840E-10
   10.1700001      -4.31874536E-10
   10.2299995      -4.40597142E-10
   10.2900000      -4.27312602E-10
   10.3500004      -3.96626815E-10
   10.4099998      -3.54514251E-10
   10.4700003      -3.06955461E-10
   10.5299997      -2.59031907E-10
   10.5900002      -2.14687587E-10
   10.6499996      -1.76953452E-10
   10.7100000      -1.48180634E-10
   10.7700005      -1.29916938E-10
   10.8299999      -1.22433647E-10
   10.8900003      -1.24316168E-10
   10.9499998      -1.32666614E-10
   11.0100002      -1.44183082E-10
   11.0699997      -1.56812480E-10
   11.1300001      -1.71175948E-10
   11.1899996      -1.90899102E-10
   11.2500000      -2.21466540E-10
   11.3100004      -2.68021133E-10
   11.3699999      -3.33183758E-10
   11.4300003      -4.16044033E-10
   11.4899998      -5.12873355E-10
   11.5500002      -6.19150509E-10
   11.6099997      -7.31721517E-10
   11.6700001      -8.49814108E-10
   11.7299995      -9.74268666E-10
   11.7900000      -1.10536535E-09
   11.8500004      -1.24043475E-09
   11.9099998      -1.37256773E-09
   11.9700003      -1.49113943E-09
   12.0299997      -1.58390112E-09
   12.0900002      -1.63964686E-09
   12.1499996      -1.65031877E-09
   12.2100000      -1.61188518E-09
   12.2700005      -1.52406110E-09
   12.3299999      -1.38946843E-09
   12.3900003      -1.21287280E-09
   12.4499998      -1.00076258E-09
   12.5100002      -7.61075536E-10
   12.5699997      -5.02679287E-10
   12.6300001      -2.34410574E-10
   12.6899996       3.61038456E-11
   12.7500000       3.03294834E-10
   12.8100004       5.63648961E-10
   12.8699999       8.14729673E-10
   12.9300003       1.05362974E-09
   12.9899998       1.27561173E-09
   13.0500002       1.47366996E-09
   13.1099997       1.63935310E-09
   13.1700001       1.76464698E-09
   13.2299995       1.84428439E-09
   13.2900000       1.87768445E-09
   13.3500004       1.86985560E-09
   13.4099998       1.83091153E-09
   13.4700003       1.77422954E-09
   13.5299997       1.71364223E-09
   13.5900002       1.66032721E-09
   13.6499996       1.62020319E-09
   13.7100000       1.59258307E-09
   13.7700005       1.57053648E-09
   13.8299999       1.54292346E-09
   13.8900003       1.49752211E-09
   13.9499998       1.42430501E-09
   14.0100002       1.31789279E-09
   14.0699997       1.17855303E-09
   14.1300001       1.01165276E-09
   14.1899996       8.25990831E-10
   14.2500000       6.31687758E-10
   14.3100004       4.38267672E-10
   14.3699999       2.53310400E-10
   14.4300003       8.17810264E-11
   14.4899998      -7.40126085E-11
   14.5500002      -2.13916995E-10
   14.6099997      -3.38970296E-10
   14.6700001      -4.50143811E-10
   14.7299995      -5.47111745E-10
   14.7900000      -6.27508268E-10
   14.8500004      -6.87086887E-10
   14.9099998      -7.20898841E-10
   14.9700003      -7.25139837E-10
   15.0299997      -6.98909708E-10
   15.0900002      -6.45038245E-10
   15.1499996      -5.69470915E-10
   15.2100000      -4.79362716E-10
   15.2700005      -3.80696419E-10
   15.3299999      -2.76560358E-10
   15.3900003      -1.66986439E-10
   15.4499998      -5.05275752E-11
   15.5100002       7.31269212E-11
   15.5699997       2.00793576E-10
   15.6300001       3.24973798E-10
   15.6899996       4.35176062E-10
   15.7500000       5.20960997E-10
   15.8100004       5.75402115E-10
   15.8699999       5.97374816E-10
   15.9300003       5.91581395E-10
   15.9899998       5.66282465E-10
   16.0499992       5.29810584E-10
   16.1100006       4.87527685E-10
   16.1700001       4.40641107E-10
   16.2299995       3.87329641E-10
   16.2900009       3.25456773E-10
   16.3500004       2.55366256E-10
   16.4099998       1.81284154E-10
   16.4699993       1.10637305E-10
   16.5300007       5.17005432E-11
   16.5900002       1.07926636E-11
   16.6499996      -9.65345772E-12
   16.7099991      -1.14113502E-11
   16.7700005       6.78156424E-13
   16.8299999       2.04992880E-11
   16.8899994       4.22076367E-11
   16.9500008       6.10515666E-11
   17.0100002       7.35653830E-11
   17.0699997       7.75566347E-11
   17.1299992       7.22145399E-11
   17.1900005       5.83052287E-11
   17.2500000       3.81386311E-11
   17.3099995       1.50505771E-11
   17.3700008      -7.48877956E-12
   17.4300003      -2.66513391E-11
   17.4899998      -4.03866246E-11
   17.5499992      -4.67985477E-11
   17.6100006      -4.32618490E-11
   17.6700001      -2.61434468E-11
   17.7299995       8.22465533E-12
   17.7900009       6.14411994E-11
   17.8500004       1.30793848E-10
   17.9099998       2.08264322E-10
   17.9699993       2.81746793E-10
   18.0300007       3.38365003E-10
   18.0900002       3.68633485E-10
   18.1499996       3.69668379E-10
   18.2099991       3.46046247E-10
   18.2700005       3.08018944E-10
   18.3299999       2.67983358E-10
   18.3899994       2.36742459E-10
   18.4500008       2.20900118E-10
   18.5100002       2.21940855E-10
   18.5699997       2.36707626E-10
   18.6299992       2.58585597E-10
   18.6900005       2.78851303E-10
   18.7500000       2.88074370E-10
   18.8099995       2.77739665E-10
   18.8700008       2.42130455E-10
   18.9300003       1.80089249E-10
   18.9899998       9.59134994E-11
   19.0499992      -1.29123914E-12
   19.1100006      -9.99153607E-11
   19.1700001      -1.89144297E-10
   19.2299995      -2.62050770E-10
   19.2900009      -3.17302379E-10
   19.3500004      -3.58896884E-10
   19.4099998      -3.94164590E-10
   19.4699993      -4.30920299E-10
   19.5300007      -4.74824680E-10
   19.5900002      -5.27737076E-10
   19.6499996      -5.87336346E-10
   19.7099991      -6.47855436E-10
   19.7700005      -7.01544600E-10
   19.8299999      -7.40447148E-10
   19.8899994      -7.58119512E-10
   19.9500008      -7.50963902E-10
   20.0100002      -7.18893556E-10
   20.0699997      -6.65164146E-10
   20.1299992      -5.95428540E-10
   20.1900005      -5.16329368E-10
   20.2500000      -4.34103004E-10
   20.3099995      -3.53632457E-10
   20.3700008      -2.78153500E-10
   20.4300003      -2.09518680E-10
   20.4899998      -1.48708573E-10
   20.5499992      -9.62595836E-11
   20.6100006      -5.24194889E-11
   20.6700001      -1.70458144E-11
   20.7299995       1.05902682E-11
   20.7900009       3.19001735E-11
   20.8500004       4.88345302E-11
   20.9099998       6.34655523E-11
   20.9699993       7.73666547E-11
   21.0300007       9.09609471E-11
   21.0900002       1.03082404E-10
   21.1499996       1.10999654E-10
   21.2099991       1.11035396E-10
   21.2700005       9.96765726E-11
   21.3299999       7.48021783E-11
   21.3899994       3.65057949E-11
   21.4500008      -1.28983647E-11
   21.5100002      -6.97362099E-11
   21.5699997      -1.30313219E-10
   21.6299992      -1.92079366E-10
   21.6900005      -2.54065824E-10
   21.7500000      -3.16463133E-10
   21.8099995      -3.79712428E-10
   21.8700008      -4.43753340E-10
   21.9300003      -5.07928311E-10
   21.9899998      -5.71570569E-10
   22.0499992      -6.34814146E-10
   22.1100006      -6.98968994E-10
   22.1700001      -7.66054165E-10
   22.2299995      -8.37614755E-10
   22.2900009      -9.13436271E-10
   22.3500004      -9.90896254E-10
   22.4099998      -1.06539233E-09
   22.4699993      -1.13172571E-09
   22.5300007      -1.18583587E-09
   22.5900002      -1.22613586E-09
   22.6499996      -1.25391830E-09
   22.7099991      -1.27275157E-09
   22.7700005      -1.28718414E-09
   22.8299999      -1.30128119E-09
   22.8899994      -1.31747380E-09
   22.9500008      -1.33602118E-09
   23.0100002      -1.35517253E-09
   23.0699997      -1.37192813E-09
   23.1299992      -1.38316503E-09
   23.1900005      -1.38677947E-09
   23.2500000      -1.38246548E-09
   23.3099995      -1.37184308E-09
   23.3700008      -1.35786815E-09
   23.4300003      -1.34376243E-09
   23.4899998      -1.33191136E-09
   23.5499992      -1.32319689E-09
   23.6100006      -1.31701094E-09
   23.6700001      -1.31185030E-09
   23.7299995      -1.30611988E-09
   23.7900009      -1.29871958E-09
   23.8500004      -1.28916522E-09
   23.9099998      -1.27729527E-09
   23.9699993      -1.26283628E-09
   24.0300007      -1.24514443E-09
   24.0900002      -1.22329513E-09
   24.1499996      -1.19648313E-09
   24.2099991      -1.16454313E-09
   24.2700005      -1.12838117E-09
   24.3299999      -1.09017784E-09
   24.3899994      -1.05332132E-09
   24.4500008      -1.02208308E-09
   24.5100002      -1.00105724E-09
   24.5699997      -9.94404781E-10
   24.6299992      -1.00500319E-09
   24.6900005      -1.03369435E-09
   24.7500000      -1.07889231E-09
   24.8099995      -1.13677512E-09
   24.8700008      -1.20213661E-09
   24.9300003      -1.26973210E-09
   24.9899998      -1.33573863E-09
   25.0499992      -1.39885814E-09
   25.1100006      -1.46066392E-09
   25.1700001      -1.52503665E-09
   25.2299995      -1.59684743E-09
   25.2900009      -1.68031555E-09
   25.3500004      -1.77758697E-09
   25.4099998      -1.88799376E-09
   25.4699993      -2.00819383E-09
   25.5300007      -2.13306151E-09
   25.5900002      -2.25696040E-09
   25.6499996      -2.37494735E-09
   25.7099991      -2.48360532E-09
   25.7700005      -2.58140243E-09
   25.8299999      -2.66867151E-09
   25.8899994      -2.74733769E-09
   25.9500008      -2.82044832E-09
   26.0100002      -2.89148927E-09
   26.0699997      -2.96349212E-09
   26.1299992      -3.03810799E-09
   26.1900005      -3.11498760E-09
   26.2500000      -3.19180171E-09
   26.3099995      -3.26499605E-09
   26.3700008      -3.33095929E-09
   26.4300003      -3.38701200E-09
   26.4899998      -3.43165496E-09
   26.5499992      -3.46396023E-09
   26.6100006      -3.48256135E-09
   26.6700001      -3.48501827E-09
   26.7299995      -3.46818152E-09
   26.7900009      -3.42954132E-09
   26.8500004      -3.36886119E-09
   26.9099998      -3.28907612E-09
   26.9699993      -3.19576343E-09
   27.0300007      -3.09527781E-09
   27.0900002      -2.99242320E-09
   27.1499996      -2.88881807E-09
   27.2099991      -2.78272627E-09
   27.2700005      -2.67033440E-09
   27.3299999      -2.54773092E-09
   27.3899994      -2.41263831E-09
   27.4500008      -2.26525643E-09
   27.5100002      -2.10816831E-09
   27.5699997      -1.94566940E-09
   27.6299992      -1.78293436E-09
   27.6900005      -1.62518832E-09
   27.7500000      -1.47685364E-09
   27.8099995      -1.34065581E-09
   27.8700008      -1.21691435E-09
   27.9300003      -1.10342091E-09
   27.9899998      -9.96181471E-10
   28.0499992      -8.90867546E-10
   28.1100006      -7.84361132E-10
   28.1700001      -6.75648537E-10
   28.2299995      -5.65664626E-10
   28.2900009      -4.56299887E-10
   28.3500004      -3.49255791E-10
   28.4099998      -2.45419712E-10
   28.4699993      -1.44975226E-10
   28.5300007      -4.79024181E-11
   28.5900002       4.56972064E-11
   28.6499996       1.35759931E-10
   28.7099991       2.22703689E-10
   28.7700005       3.07641274E-10
   28.8299999       3.92014005E-10
   28.8899994       4.76813256E-10
   28.9500008       5.62005775E-10
   29.0100002       6.46733112E-10
   29.0699997       7.30292937E-10
   29.1299992       8.13241474E-10
   29.1900005       8.97731112E-10
   29.2500000       9.86676851E-10
   29.3099995       1.08221754E-09
   29.3700008       1.18456189E-09
   29.4300003       1.29213706E-09
   29.4899998       1.40305378E-09
   29.5499992       1.51687551E-09
   29.6100006       1.63533287E-09
   29.6700001       1.76129311E-09
   29.7299995       1.89656157E-09
   29.7900009       2.04004746E-09
   29.8500004       2.18771357E-09
   29.9099998       2.33454234E-09
   29.9699993       2.47728260E-09
   30.0300007       2.61606603E-09
   30.0900002       2.75365175E-09
   30.1499996       2.89267232E-09
   30.2099991       3.03269965E-09
   30.2700005       3.16916760E-09
   30.3299999       3.29498384E-09
   30.3899994       3.40382522E-09
   30.4500008       3.49294416E-09
   30.5100002       3.56362850E-09
   30.5699997       3.61909658E-09
   30.6299992       3.66137187E-09
   30.6900005       3.68937569E-09
   30.7500000       3.69958264E-09
   30.8099995       3.68875108E-09
   30.8700008       3.65677155E-09
   30.9300003       3.60760533E-09
   30.9899998       3.54764018E-09
   31.0499992       3.48259088E-09
   31.1100006       3.41506246E-09
   31.1700001       3.34436479E-09
   31.2299995       3.26858207E-09
   31.2900009       3.18735460E-09
   31.3500004       3.10341997E-09
   31.4099998       3.02190162E-09
   31.4699993       2.94788371E-09
   31.5300007       2.88387869E-09
   31.5900002       2.82869195E-09
   31.6499996       2.77810353E-09
   31.7099991       2.72662692E-09
   31.7700005       2.66915046E-09
   31.8299999       2.60177035E-09
   31.8899994       2.52201149E-09
   31.9500008       2.42912335E-09
   32.0099983       2.32481256E-09
   32.0699997       2.21397989E-09
   32.1300011       2.10448992E-09
   32.1899986       2.00531636E-09
   32.2500000       1.92344296E-09
   32.3100014       1.86095839E-09
   32.3699989       1.81398396E-09
   32.4300003       1.77420623E-09
   32.4900017       1.73231685E-09
   32.5499992       1.68158931E-09
   32.6100006       1.61983882E-09
   32.6699982       1.54908941E-09
   32.7299995       1.47364299E-09
   32.7900009       1.39800105E-09
   32.8499985       1.32579436E-09
   32.9099998       1.25987887E-09
   32.9700012       1.20284294E-09
   33.0299988       1.15702703E-09
   33.0900002       1.12377718E-09
   33.1500015       1.10249132E-09
   33.2099991       1.09035536E-09
   33.2700005       1.08322584E-09
   33.3300018       1.07724252E-09
   33.3899994       1.07013987E-09
   33.4500008       1.06136766E-09
   33.5099983       1.05093434E-09
   33.5699997       1.03777842E-09
   33.6300011       1.01879316E-09
   33.6899986       9.89168192E-10
   33.7500000       9.43822132E-10
   33.8100014       8.79026296E-10
   33.8699989       7.93318466E-10
   33.9300003       6.87391755E-10
   33.9900017       5.63357028E-10
   34.0499992       4.24060037E-10
   34.1100006       2.72865841E-10
   34.1699982       1.13768120E-10
   34.2299995      -4.86538344E-11
   34.2900009      -2.09770604E-10
   34.3499985      -3.65788844E-10
   34.4099998      -5.14446652E-10
   34.4700012      -6.55006271E-10
   34.5299988      -7.87483356E-10
   34.5900002      -9.11577092E-10
   34.6500015      -1.02595832E-09
   34.7099991      -1.12829390E-09
   34.7700005      -1.21587640E-09
   34.8300018      -1.28636835E-09
   34.8899994      -1.33823430E-09
   34.9500008      -1.37079059E-09
   35.0099983      -1.38412948E-09
   35.0699997      -1.37916989E-09
   35.1300011      -1.35778655E-09
   35.1899986      -1.32267342E-09
   35.2500000      -1.27665734E-09
   35.3100014      -1.22161303E-09
   35.3699989      -1.15762855E-09
   35.4300003      -1.08316967E-09
   35.4900017      -9.96480787E-10
   35.5499992      -8.97602437E-10
   35.6100006      -7.89778520E-10
   35.6699982      -6.79166223E-10
   35.7299995      -5.72677294E-10
   35.7900009      -4.74931428E-10
   35.8499985      -3.85950633E-10
   35.9099998      -3.00911379E-10
   35.9700012      -2.12156431E-10
   36.0299988      -1.12438073E-10
   36.0900002       2.23174604E-12
   36.1500015       1.31398267E-10
   36.2099991       2.70895695E-10
   36.2700005       4.14739465E-10
   36.3300018       5.57018098E-10
   36.3899994       6.92953195E-10
   36.4500008       8.19011525E-10
   36.5099983       9.32517952E-10
   36.5699997       1.03131914E-09
   36.6300011       1.11373810E-09
   36.6899986       1.17868137E-09
   36.7500000       1.22562671E-09
   36.8100014       1.25437760E-09
   36.8699989       1.26473132E-09
   36.9300003       1.25630917E-09
   36.9900017       1.22866151E-09
   37.0499992       1.18152799E-09
   37.1100006       1.11502185E-09
   37.1699982       1.02961539E-09
   37.2299995       9.26032695E-10
   37.2900009       8.05274014E-10
   37.3499985       6.68889777E-10
   37.4099998       5.19358390E-10
   37.4700012       3.60236146E-10
   37.5299988       1.95816918E-10
   37.5900002       3.03475613E-11
   37.6500015      -1.32845790E-10
   37.7099991      -2.91892149E-10
   37.7700005      -4.46378018E-10
   37.8300018      -5.96983463E-10
   37.8899994      -7.45115913E-10
   37.9500008      -8.92784180E-10
   38.0099983      -1.04261877E-09
   38.0699997      -1.19768739E-09
   38.1300011      -1.36082212E-09
   38.1899986      -1.53354973E-09
   38.2500000      -1.71512626E-09
   38.3100014      -1.90228588E-09
   38.3699989      -2.08997730E-09
   38.4300003      -2.27280861E-09
   38.4900017      -2.44648657E-09
   38.5499992      -2.60857225E-09
   38.6100006      -2.75831868E-09
   38.6699982      -2.89590663E-09
   38.7299995      -3.02166892E-09
   38.7900009      -3.13573967E-09
   38.8499985      -3.23812910E-09
   38.9099998      -3.32889161E-09
   38.9700012      -3.40805695E-09
   39.0299988      -3.47530205E-09
   39.0900002      -3.52967122E-09
   39.1500015      -3.56970831E-09
   39.2099991      -3.59406682E-09
   39.2700005      -3.60226582E-09
   39.3300018      -3.59506780E-09
   39.3899994      -3.57416097E-09
   39.4500008      -3.54128660E-09
   39.5099983      -3.49733531E-09
   39.5699997      -3.44194406E-09
   39.6300011      -3.37376926E-09
   39.6899986      -3.29115868E-09
   39.7500000      -3.19275006E-09
   39.8100014      -3.07769432E-09
   39.8699989      -2.94558866E-09
   39.9300003      -2.79644952E-09
   39.9900017      -2.63097566E-09
   40.0499992      -2.45098830E-09
   40.1100006      -2.25962338E-09
   40.1699982      -2.06089590E-09
   40.2299995      -1.85864268E-09
   40.2900009      -1.65534131E-09
   40.3499985      -1.45146051E-09
   40.4099998      -1.24571797E-09
   40.4700012      -1.03604092E-09
   40.5299988      -8.20598034E-10
   40.5900002      -5.98303074E-10
   40.6500015      -3.68668568E-10
   40.7099991      -1.31431685E-10
   40.7700005       1.13432264E-10
   40.8300018       3.65036140E-10
   40.8899994       6.20588525E-10
   40.9500008       8.74846640E-10
   41.0099983       1.12064613E-09
   41.0699997       1.35051392E-09
   41.1300011       1.55866897E-09
   41.1899986       1.74244030E-09
   41.2500000       1.90246463E-09
   41.3100014       2.04172457E-09
   41.3699989       2.16408114E-09
   41.4300003       2.27304331E-09
   41.4900017       2.37114595E-09
   41.5499992       2.45980614E-09
   41.6100006       2.53930810E-09
   41.6699982       2.60875832E-09
   41.7299995       2.66619904E-09
   41.7900009       2.70919620E-09
   41.8499985       2.73592971E-09
   41.9099998       2.74630163E-09
   41.9700012       2.74229350E-09
   42.0299988       2.72706768E-09
   42.0900002       2.70306511E-09
   42.1500015       2.67010147E-09
   42.2099991       2.62466449E-09
   42.2700005       2.56101274E-09
   42.3300018       2.47363552E-09
   42.3899994       2.35979059E-09
   42.4500008       2.22076846E-09
   42.5099983       2.06128803E-09
   42.5699997       1.88751237E-09
   42.6300011       1.70487413E-09
   42.6899986       1.51682200E-09
   42.7500000       1.32485667E-09
   42.8100014       1.12939769E-09
   42.8699989       9.30665378E-10
   42.9300003       7.29050043E-10
   42.9900017       5.25049615E-10
   43.0499992       3.19248766E-10
   43.1100006       1.12696699E-10
   43.1699982      -9.24617327E-11
   43.2299995      -2.92678576E-10
   43.2900009      -4.83535545E-10
   43.3499985      -6.61086019E-10
   43.4099998      -8.23321689E-10
   43.4700012      -9.70843406E-10
   43.5299988      -1.10622200E-09
   43.5900002      -1.23233523E-09
   43.6500015      -1.35061418E-09
   43.7099991      -1.46017087E-09
   43.7700005      -1.55819846E-09
   43.8300018      -1.64123781E-09
   43.8899994      -1.70647374E-09
   43.9500008      -1.75238901E-09
   44.0099983      -1.77870663E-09
   44.0699997      -1.78607051E-09
   44.1300011      -1.77596071E-09
   44.1899986      -1.75090931E-09
   44.2500000      -1.71456882E-09
   44.3100014      -1.67106839E-09
   44.3699989      -1.62355240E-09
   44.4300003      -1.57251512E-09
   44.4900017      -1.51499469E-09
   44.5499992      -1.44542889E-09
   44.6100006      -1.35809741E-09
   44.6699982      -1.25009014E-09
   44.7299995      -1.12330345E-09
   44.7900009      -9.84387460E-10
   44.8499985      -8.42605097E-10
   44.9099998      -7.06615710E-10
   44.9700012      -5.81642845E-10
   45.0299988      -4.68147798E-10
   45.0900002      -3.62301383E-10
   45.1500015      -2.57759925E-10
   45.2099991      -1.47915624E-10
   45.2700005      -2.79327551E-11
   45.3300018       1.03790282E-10
   45.3899994       2.44887555E-10
   45.4500008       3.89177052E-10
   45.5099983       5.27870914E-10
   45.5699997       6.51804000E-10
   45.6300011       7.54148022E-10
   45.6899986       8.32592995E-10
   45.7500000       8.89909590E-10
   45.8100014       9.32389166E-10
   45.8699989       9.66686620E-10
   45.9300003       9.96502769E-10
   45.9900017       1.02073638E-09
   46.0499992       1.03403452E-09
   46.1100006       1.02940267E-09
   46.1699982       1.00146491E-09
   46.2299995       9.48695233E-10
   46.2900009       8.73632944E-10
   46.3499985       7.81284648E-10
   46.4099998       6.76859180E-10
   46.4700012       5.64138070E-10
   46.5299988       4.45134374E-10
   46.5900002       3.20752369E-10
   46.6500015       1.91576630E-10
   46.7099991       5.80585892E-11
   46.7700005      -7.99552993E-11
   46.8300018      -2.23734989E-10
   46.8899994      -3.75461967E-10
   46.9500008      -5.37062839E-10
   47.0099983      -7.08632708E-10
   47.0699997      -8.87480756E-10
   47.1300011      -1.06861087E-09
   47.1899986      -1.24661625E-09
   47.2500000      -1.41805556E-09
   47.3100014      -1.58298497E-09
   47.3699989      -1.74473447E-09
   47.4300003      -1.90800020E-09
   47.4900017      -2.07625872E-09
   47.5499992      -2.24985475E-09
   47.6100006      -2.42567189E-09
   47.6699982      -2.59838484E-09
   47.7299995      -2.76247714E-09
   47.7900009      -2.91395930E-09
   47.8499985      -3.05108605E-09
   47.9099998      -3.17403992E-09
   47.9700012      -3.28407856E-09
   48.0299988      -3.38272543E-09
   48.0900002      -3.47131035E-09
   48.1500015      -3.55077656E-09
   48.2099991      -3.62151664E-09
   48.2700005      -3.68312625E-09
   48.3300018      -3.73422271E-09
   48.3899994      -3.77260578E-09
   48.4500008      -3.79590803E-09
   48.5099983      -3.80254139E-09
   48.5699997      -3.79247522E-09
   48.6300011      -3.76736153E-09
   48.6899986      -3.72983955E-09
   48.7500000      -3.68227848E-09
   48.8100014      -3.62556229E-09
   48.8699989      -3.55853991E-09
   48.9300003      -3.47846774E-09
   48.9900017      -3.38232509E-09
   49.0499992      -3.26847527E-09
   49.1100006      -3.13795478E-09
   49.1699982      -2.99477931E-09
   49.2299995      -2.84499690E-09
   49.2900009      -2.69470757E-09
   49.3499985      -2.54773580E-09
   49.4099998      -2.40390730E-09
   49.4700012      -2.25877472E-09
   49.5299988      -2.10511497E-09
   49.5900002      -1.93577421E-09
   49.6500015      -1.74675896E-09
   49.7099991      -1.53925728E-09
   49.7700005      -1.31968314E-09
   49.8300018      -1.09772325E-09
   49.8899994      -8.83278450E-10
   49.9500008      -6.83651857E-10
   50.0099983      -5.02093533E-10
   50.0699997      -3.38040124E-10
   50.1300011      -1.88543667E-10
   50.1899986      -4.99537425E-11
   50.2500000       8.09250722E-11
   50.3100014       2.06429207E-10
   50.3699989       3.28098160E-10
   50.4300003       4.46766124E-10
   50.4900017       5.62487223E-10
   50.5499992       6.74458323E-10
   50.6100006       7.81256948E-10