  -2.400000      0.0000000E+00
  -2.340000      0.0000000E+00
  -2.280000      0.0000000E+00
  -2.220000      0.0000000E+00
  -2.160000      0.0000000E+00
  -2.100000      0.0000000E+00
  -2.040000     -6.0477465E-22
  -1.980000     -5.7478891E-21
  -1.920000     -2.6305062E-20
  -1.860000     -7.2589105E-20
  -1.800000     -1.1399415E-19
  -1.740000     -6.5310498E-21
  -1.680000      5.3212596E-19
  -1.620000      1.7348484E-18
  -1.560000      3.2779803E-18
  -1.500000      3.6854461E-18
  -1.440000      3.6104712E-19
  -1.380000     -8.9157290E-18
  -1.320000     -2.3042014E-17
  -1.260000     -3.4958780E-17
  -1.200000     -3.2502084E-17
  -1.140000     -4.9897520E-18
  -1.080000      4.6355076E-17
  -1.020000      1.0142234E-16
 -0.9600000      1.2675749E-16
 -0.9000000      9.6587590E-17
 -0.8400000      1.9199527E-17
 -0.7800000     -5.2989544E-17
 -0.7200000     -4.9250142E-17
 -0.6600000      5.9703236E-17
 -0.6000000      2.0187831E-16
 -0.5400000      1.9723672E-16
 -0.4800000     -1.5902052E-16
 -0.4200000     -9.4042076E-16
 -0.3600000     -1.9424208E-15
 -0.3000000     -2.6553519E-15
 -0.2400000     -2.4259775E-15
 -0.1800000     -7.7370954E-16
 -0.1200000      2.2797621E-15
 -5.9999999E-02  6.0480727E-15
  0.0000000E+00  9.2999618E-15
  5.9999999E-02  1.0636785E-14
  0.1200000      8.9751670E-15
  0.1800000      3.9456984E-15
  0.2400000     -3.9124913E-15
  0.3000000     -1.3172258E-14
  0.3600000     -2.1707857E-14
  0.4200000     -2.7037871E-14
  0.4800000     -2.6863399E-14
  0.5400000     -1.9812482E-14
  0.6000000     -6.2280439E-15
  0.6600000      1.1387546E-14
  0.7200000      2.8721945E-14
  0.7800000      4.0974924E-14
  0.8400000      4.4769164E-14
  0.9000000      3.9730511E-14
  0.9600000      2.8737070E-14
   1.020000      1.6429346E-14
   1.080000      6.6123115E-15
   1.140000      3.0479382E-17
   1.200000     -5.9993506E-15
   1.260000     -1.5646760E-14
   1.320000     -3.1400219E-14
   1.380000     -5.1769380E-14
   1.440000     -7.1605353E-14
   1.500000     -8.5086540E-14
   1.560000     -8.9388302E-14
   1.620000     -8.6170715E-14
   1.680000     -7.9191475E-14
   1.740000     -6.9128697E-14
   1.800000     -4.9325981E-14
   1.860000     -6.6243745E-15
   1.920000      7.1156148E-14
   1.980000      1.8402828E-13
   2.040000      3.1154951E-13
   2.100000      4.1412422E-13
   2.160000      4.4623607E-13
   2.220000      3.7710693E-13
   2.280000      2.0881896E-13
   2.340000     -1.8527900E-14
   2.400000     -2.3952002E-13
   2.460000     -3.8986709E-13
   2.520000     -4.3474631E-13
   2.580000     -3.8528038E-13
   2.640000     -2.9456339E-13
   2.700000     -2.3440519E-13
   2.760000     -2.6314858E-13
   2.820000     -3.9875563E-13
   2.880000     -6.0811805E-13
   2.940000     -8.1541084E-13
   3.000000     -9.2392435E-13
   3.060000     -8.4155670E-13
   3.120000     -5.0161665E-13
   3.180000      1.2403118E-13
   3.240000      1.0170503E-12
   3.300000      2.1055668E-12
   3.360000      3.2560805E-12
   3.420000      4.2674449E-12
   3.480000      4.8737884E-12
   3.540000      4.7626790E-12
   3.600000      3.6092119E-12
   3.660000      1.1183563E-12
   3.720000     -2.9387293E-12
   3.780000     -8.7093457E-12
   3.840000     -1.6272346E-11
   3.900000     -2.5673687E-11
   3.960000     -3.6964470E-11
   4.020000     -5.0214343E-11
   4.080000     -6.5478609E-11
   4.140000     -8.2715418E-11
   4.200000     -1.0167497E-10
   4.260000     -1.2180305E-10
   4.320000     -1.4220619E-10
   4.380000     -1.6170847E-10
   4.440000     -1.7899596E-10
   4.500000     -1.9280652E-10
   4.560000     -2.0210023E-10
   4.620000     -2.0615093E-10
   4.680000     -2.0453310E-10
   4.740000     -1.9702594E-10
   4.800000     -1.8349591E-10
   4.860000     -1.6382860E-10
   4.920000     -1.3795493E-10
   4.980000     -1.0596606E-10
   5.040000     -6.8261036E-11
   5.100000     -2.5645002E-11
   5.160000      2.0689880E-11
   5.220000      6.9322187E-11
   5.280000      1.1885964E-10
   5.340000      1.6821569E-10
   5.400000      2.1681199E-10
   5.460000      2.6464095E-10
   5.520000      3.1217362E-10
   5.580000      3.6015052E-10
   5.640000      4.0932641E-10
   5.700000      4.6024584E-10
   5.760000      5.1310567E-10
   5.820000      5.6772453E-10
   5.880000      6.2360478E-10
   5.940000      6.8004657E-10
   6.000000      7.3626760E-10
   6.060000      7.9148771E-10
   6.120000      8.4495744E-10
   6.180000      8.9593222E-10
   6.240000      9.4361274E-10
   6.300000      9.8708230E-10
   6.360000      1.0252732E-09
   6.420000      1.0569816E-09
   6.480000      1.0809401E-09
   6.540000      1.0959336E-09
   6.600000      1.1009427E-09
   6.660000      1.0952866E-09
   6.720000      1.0787479E-09
   6.780000      1.0516673E-09
   6.840000      1.0150187E-09
   6.900000      9.7047892E-10
   6.960000      9.2051750E-10
   7.020000      8.6851293E-10
   7.080000      8.1886770E-10
   7.140000      7.7705536E-10
   7.200000      7.4950168E-10
   7.260000      7.4320583E-10
   7.320000      7.6506479E-10
   7.380000      8.2095730E-10
   7.440000      9.1474162E-10
   7.500000      1.0473800E-09
   7.560000      1.2163863E-09
   7.620000      1.4157012E-09
   7.680000      1.6359762E-09
   7.740000      1.8651511E-09
   7.800000      2.0891886E-09
   7.860000      2.2928852E-09
   7.920000      2.4607714E-09
   7.980000      2.5781703E-09
   8.040000      2.6324500E-09
   8.100000      2.6143845E-09
   8.160000      2.5193982E-09
   8.220000      2.3483866E-09
   8.280000      2.1078563E-09
   8.340000      1.8093017E-09
   8.400000      1.4679551E-09
   8.460000      1.1012042E-09
   8.520000      7.2700362E-10
   8.580000      3.6248787E-10
   8.640000      2.2836478E-11
   8.700000     -2.7968861E-10
   8.760000     -5.3660798E-10
   8.820000     -7.4396650E-10
   8.880000     -9.0279106E-10
   8.940000     -1.0190433E-09
   9.000000     -1.1029164E-09
   9.060000     -1.1675001E-09
   9.120000     -1.2270378E-09
   9.180000     -1.2951195E-09
   9.240000     -1.3831466E-09
   9.300000     -1.4992934E-09
   9.360000     -1.6480348E-09
   9.420000     -1.8301944E-09
   9.480000     -2.0434050E-09
   9.540000     -2.2828628E-09
   9.600000     -2.5422457E-09
   9.660000     -2.8146423E-09
   9.720000     -3.0933325E-09
   9.780000     -3.3722911E-09
   9.840000     -3.6463987E-09
   9.900000     -3.9114632E-09
   9.960000     -4.1642392E-09
   10.02000     -4.4026001E-09
   10.08000     -4.6258433E-09
   10.14000     -4.8349293E-09
   10.20000     -5.0323283E-09
   10.26000     -5.2212306E-09
   10.32000     -5.4041336E-09
   10.38000     -5.5811351E-09
   10.44000     -5.7485128E-09
   10.50000     -5.8981513E-09
   10.56000     -6.0181562E-09
   10.62000     -6.0946039E-09
   10.68000     -6.1140040E-09
   10.74000     -6.0658434E-09
   10.80000     -5.9445440E-09
   10.86000     -5.7503766E-09
   10.92000     -5.4890954E-09
   10.98000     -5.1704312E-09
   11.04000     -4.8058442E-09
   11.10000     -4.4062061E-09
   11.16000     -3.9801558E-09
   11.22000     -3.5337342E-09
   11.28000     -3.0714726E-09
   11.34000     -2.5985474E-09
   11.40000     -2.1230773E-09
   11.46000     -1.6574656E-09
   11.52000     -1.2179849E-09
   11.58000     -8.2253293E-10
   11.64000     -4.8730792E-10
   11.70000     -2.2366760E-10
   11.76000     -3.6359565E-11
   11.82000      7.6328555E-11
   11.88000      1.2082495E-10
   11.94000      1.0590476E-10
   12.00000      4.0754539E-11
   12.06000     -6.5935452E-11
   12.12000     -2.0595829E-10
   12.18000     -3.7126782E-10
   12.24000     -5.5398824E-10
   12.30000     -7.4700379E-10
   12.36000     -9.4486030E-10
   12.42000     -1.1444481E-09
   12.48000     -1.3450790E-09
   12.54000     -1.5479965E-09
   12.60000     -1.7557265E-09
   12.66000     -1.9717157E-09
   12.72000     -2.2003666E-09
   12.78000     -2.4471063E-09
   12.84000     -2.7178888E-09
   12.90000     -3.0177110E-09
   12.96000     -3.3482774E-09
   13.02000     -3.7055392E-09
   13.08000     -4.0781019E-09
   13.14000     -4.4472674E-09
   13.20000     -4.7888751E-09
   13.26000     -5.0764650E-09
   13.32000     -5.2848823E-09
   13.38000     -5.3934750E-09
   13.44000     -5.3882925E-09
   13.50000     -5.2630948E-09
   13.56000     -5.0192290E-09
   13.62000     -4.6645865E-09
   13.68000     -4.2119681E-09
   13.74000     -3.6772732E-09
   13.80000     -3.0780474E-09
   13.86000     -2.4328217E-09
   13.92000     -1.7613979E-09
   13.98000     -1.0857355E-09
   14.04000     -4.3071166E-10
   14.10000      1.7607839E-10
   14.16000      7.0594697E-10
   14.22000      1.1319690E-09
   14.28000      1.4322373E-09
   14.34000      1.5924232E-09
   14.40000      1.6067907E-09
   14.46000      1.4774443E-09
   14.52000      1.2122739E-09
   14.58000      8.2249219E-10
   14.64000      3.2066955E-10
   14.70000     -2.8015010E-10
   14.76000     -9.6615727E-10
   14.82000     -1.7216576E-09
   14.88000     -2.5277653E-09
   14.94000     -3.3616474E-09
   15.00000     -4.1969268E-09
   15.06000     -5.0054978E-09
   15.12000     -5.7604659E-09
   15.18000     -6.4393544E-09
   15.24000     -7.0263972E-09
   15.30000     -7.5129272E-09
   15.36000     -7.8955846E-09
   15.42000     -8.1730782E-09
   15.48000     -8.3429850E-09
   15.54000     -8.4001419E-09
   15.60000     -8.3374756E-09
   15.66000     -8.1488389E-09
   15.72000     -7.8324209E-09
   15.78000     -7.3929898E-09
   15.84000     -6.8418751E-09
   15.90000     -6.1948091E-09
   15.96000     -5.4688010E-09
   16.02000     -4.6796025E-09
   16.08000     -3.8408290E-09
   16.14000     -2.9647858E-09
   16.20000     -2.0641822E-09
   16.26000     -1.1535880E-09
   16.32000     -2.4983815E-10
   16.38000      6.2875555E-10
   16.44000      1.4639604E-09
   16.50000      2.2393414E-09
   16.56000      2.9416691E-09
   16.62000      3.5617840E-09
   16.68000      4.0948147E-09
   16.74000      4.5396793E-09
   16.80000      4.8978794E-09
   16.86000      5.1718541E-09
   16.92000      5.3635008E-09
   16.98000      5.4736402E-09
   17.04000      5.5029221E-09
   17.10000      5.4540097E-09
   17.16000      5.3340492E-09
   17.22000      5.1560822E-09
   17.28000      4.9383835E-09
   17.34000      4.7016520E-09
   17.40000      4.4651065E-09
   17.46000      4.2430832E-09
   17.52000      4.0435215E-09
   17.58000      3.8687715E-09
   17.64000      3.7180719E-09
   17.70000      3.5903880E-09
   17.76000      3.4863861E-09
   17.82000      3.4089567E-09
   17.88000      3.3624759E-09
   17.94000      3.3514589E-09
   18.00000      3.3793068E-09
   18.06000      3.4475625E-09
   18.12000      3.5557839E-09
   18.18000      3.7019827E-09
   18.24000      3.8834909E-09
   18.30000      4.0980397E-09
   18.36000      4.3447037E-09
   18.42000      4.6242494E-09
   18.48000      4.9385616E-09
   18.54000      5.2892197E-09
   18.60000      5.6758247E-09
   18.66000      6.0949494E-09
   18.72000      6.5404215E-09
   18.78000      7.0049464E-09
   18.84000      7.4823188E-09
   18.90000      7.9690743E-09
   18.96000      8.4646690E-09
   19.02000      8.9701055E-09
   19.08000      9.4857411E-09
   19.14000      1.0009453E-08
   19.20000      1.0535999E-08
   19.26000      1.1057680E-08
   19.32000      1.1565696E-08
   19.38000      1.2051327E-08
   19.44000      1.2506416E-08
   19.50000      1.2923262E-08
   19.56000      1.3294388E-08
   19.62000      1.3612673E-08
   19.68000      1.3871880E-08
   19.74000      1.4067219E-08
   19.80000      1.4195495E-08
   19.86000      1.4254709E-08
   19.92000      1.4243478E-08
   19.98000      1.4160785E-08
   20.04000      1.4006448E-08
   20.10000      1.3782037E-08
   20.16000      1.3491585E-08
   20.22000      1.3141347E-08
   20.28000      1.2738345E-08
   20.34000      1.2288131E-08
   20.40000      1.1792728E-08
   20.46000      1.1249713E-08
   20.52000      1.0652911E-08
   20.58000      9.9944302E-09
   20.64000      9.2672696E-09
   20.70000      8.4675840E-09
   20.76000      7.5959461E-09
   20.82000      6.6574009E-09
   20.88000      5.6604819E-09
   20.94000      4.6156003E-09
   21.00000      3.5333072E-09
   21.06000      2.4228921E-09
   21.12000      1.2916982E-09
   21.18000      1.4531421E-10
   21.24000     -1.0115045E-09
   21.30000     -2.1736104E-09
   21.36000     -3.3344898E-09
   21.42000     -4.4859343E-09
   21.48000     -5.6183929E-09
   21.54000     -6.7216943E-09
   21.60000     -7.7857107E-09
   21.66000     -8.8007539E-09
   21.72000     -9.7578470E-09
   21.78000     -1.0649218E-08
   21.84000     -1.1469248E-08
   21.90000     -1.2215594E-08
   21.96000     -1.2889885E-08
   22.02000     -1.3497266E-08
   22.08000     -1.4044629E-08
   22.14000     -1.4538050E-08
   22.20000     -1.4980563E-08
   22.26000     -1.5371242E-08
   22.32000     -1.5705952E-08
   22.38000     -1.5979138E-08
   22.44000     -1.6185528E-08
   22.50000     -1.6320733E-08
   22.56000     -1.6380579E-08
   22.62000     -1.6359866E-08
   22.68000     -1.6251700E-08
   22.74000     -1.6048192E-08
   22.80000     -1.5742478E-08
   22.86000     -1.5331144E-08
   22.92000     -1.4815933E-08
   22.98000     -1.4203928E-08
   23.04000     -1.3506288E-08
   23.10000     -1.2736234E-08
   23.16000     -1.1907195E-08
   23.22000     -1.1031633E-08
   23.28000     -1.0120604E-08
   23.34000     -9.1836778E-09
   23.40000     -8.2289295E-09
   23.46000     -7.2629014E-09
   23.52000     -6.2906831E-09
   23.58000     -5.3162177E-09
   23.64000     -4.3427475E-09
   23.70000     -3.3731078E-09
   23.76000     -2.4096594E-09
   23.82000     -1.4539080E-09
   23.88000     -5.0621590E-10
   23.94000      4.3393489E-10
   24.00000      1.3669080E-09
   24.06000      2.2913567E-09
   24.12000      3.2027661E-09
   24.18000      4.0927510E-09
   24.24000      4.9494551E-09
   24.30000      5.7589364E-09
   24.36000      6.5071033E-09
   24.42000      7.1816952E-09
   24.48000      7.7739486E-09
   24.54000      8.2797253E-09
   24.60000      8.6999821E-09
   24.66000      9.0404191E-09
   24.72000      9.3102308E-09
   24.78000      9.5201473E-09
   24.84000      9.6802477E-09
   24.90000      9.7982742E-09
   24.96000      9.8790016E-09
   25.02000      9.9247366E-09
   25.08000      9.9364232E-09
   25.14000      9.9145234E-09
   25.20000      9.8589847E-09
   25.26000      9.7682253E-09
   25.32000      9.6376525E-09
   25.38000      9.4585522E-09
   25.44000      9.2179979E-09
   25.50000      8.8998648E-09
   25.56000      8.4865492E-09
   25.62000      7.9608515E-09
   25.68000      7.3076469E-09
   25.74000      6.5153243E-09
   25.80000      5.5771339E-09
   25.86000      4.4924637E-09
   25.92000      3.2677954E-09
   25.98000      1.9169515E-09
   26.04000      4.6039886E-10
   26.10000     -1.0762349E-09
   26.16000     -2.6639428E-09
   26.22000     -4.2718891E-09
   26.28000     -5.8684799E-09
   26.34000     -7.4221260E-09
   26.40000     -8.9020205E-09
   26.46000     -1.0279140E-08
   26.52000     -1.1527303E-08
   26.58000     -1.2623904E-08
   26.64000     -1.3550101E-08
   26.70000     -1.4290658E-08
   26.76000     -1.4834044E-08
   26.82000     -1.5173379E-08
   26.88000     -1.5308258E-08
   26.94000     -1.5246711E-08
   27.00000     -1.5006128E-08
   27.06000     -1.4612175E-08
   27.12000     -1.4095582E-08
   27.18000     -1.3487770E-08
   27.24000     -1.2816809E-08
   27.30000     -1.2105031E-08
   27.36000     -1.1368723E-08
   27.42000     -1.0619361E-08
   27.48000     -9.8652437E-09
   27.54000     -9.1124956E-09
   27.60000     -8.3650082E-09
   27.66000     -7.6235516E-09
   27.72000     -6.8846502E-09
   27.78000     -6.1398402E-09
   27.84000     -5.3756790E-09
   27.90000     -4.5746873E-09
   27.96000     -3.7172441E-09
   28.02000     -2.7843032E-09
   28.08000     -1.7605282E-09
   28.14000     -6.3710248E-10
   28.20000      5.8664601E-10
   28.26000      1.9033810E-09
   28.32000      3.2994982E-09
   28.38000      4.7575353E-09
   28.44000      6.2579621E-09
   28.50000      7.7794793E-09
   28.56000      9.2979446E-09
   28.62000      1.0785062E-08
   28.68000      1.2208306E-08
   28.74000      1.3533006E-08
   28.80000      1.4726224E-08
   28.86000      1.5761076E-08
   28.92000      1.6619726E-08
   28.98000      1.7294017E-08
   29.04000      1.7783830E-08
   29.10000      1.8094257E-08
   29.16000      1.8232964E-08
   29.22000      1.8208464E-08
   29.28000      1.8029418E-08
   29.34000      1.7704462E-08
   29.40000      1.7242259E-08
   29.46000      1.6651777E-08
   29.52000      1.5943096E-08
   29.58000      1.5128716E-08
   29.64000      1.4224752E-08
   29.70000      1.3250982E-08
   29.76000      1.2228963E-08
   29.82000      1.1178376E-08
   29.88000      1.0112946E-08
   29.94000      9.0378593E-09
   30.00000      7.9501836E-09
   30.06000      6.8423920E-09
   30.12000      5.7075931E-09
   30.18000      4.5442161E-09
   30.24000      3.3582264E-09
   30.30000      2.1622089E-09
   30.36000      9.7213215E-10
   30.42000     -1.9651401E-10
   30.48000     -1.3315847E-09
   30.54000     -2.4253339E-09
   30.60000     -3.4738272E-09
   30.66000     -4.4754955E-09
   30.72000     -5.4296558E-09
   30.78000     -6.3354801E-09
   30.84000     -7.1915016E-09
   30.90000     -7.9955313E-09
   30.96000     -8.7448413E-09
   31.02000     -9.4365395E-09
   31.08000     -1.0068002E-08
   31.14000     -1.0637232E-08
   31.20000     -1.1142947E-08
   31.26000     -1.1584321E-08
   31.32000     -1.1960486E-08
   31.38000     -1.2270024E-08
   31.44000     -1.2510689E-08
   31.50000     -1.2679441E-08
   31.56000     -1.2772785E-08
   31.62000     -1.2787367E-08
   31.68000     -1.2720817E-08
   31.74000     -1.2572859E-08
   31.80000     -1.2346493E-08
   31.86000     -1.2048872E-08
   31.92000     -1.1691286E-08
   31.98000     -1.1287895E-08
   32.04000     -1.0853400E-08
   32.10000     -1.0400488E-08
   32.16000     -9.9381987E-09
   32.22000     -9.4720178E-09
   32.28000     -9.0056522E-09
   32.34000     -8.5434779E-09
   32.40000     -8.0922664E-09
   32.46000     -7.6611668E-09
   32.52000     -7.2598945E-09
   32.58000     -6.8961086E-09
   32.64000     -6.5733161E-09
   32.70000     -6.2902838E-09
   32.76000     -6.0420469E-09
   32.82000     -5.8218466E-09
   32.88000     -5.6231166E-09
   32.94000     -5.4409655E-09
   33.00000     -5.2731171E-09
   33.06000     -5.1204827E-09
   33.12000     -4.9873328E-09
   33.18000     -4.8807101E-09
   33.24000     -4.8087143E-09
   33.30000     -4.7778270E-09
   33.36000     -4.7902464E-09
   33.42000     -4.8426680E-09
   33.48000     -4.9275419E-09
   33.54000     -5.0366098E-09
   33.60000     -5.1651146E-09
   33.66000     -5.3144489E-09
   33.72000     -5.4915974E-09
   33.78000     -5.7054086E-09
   33.84000     -5.9614913E-09
   33.90000     -6.2583165E-09
   33.96000     -6.5864598E-09
   34.02000     -6.9312045E-09
   34.08000     -7.2769799E-09
   34.14000     -7.6113453E-09
   34.20000     -7.9268334E-09
   34.26000     -8.2203719E-09
   34.32000     -8.4912930E-09
   34.38000     -8.7393568E-09
   34.44000     -8.9636423E-09
   34.50000     -9.1622070E-09
   34.56000     -9.3318677E-09
   34.62000     -9.4676560E-09
   34.68000     -9.5622310E-09
   34.74000     -9.6060964E-09
   34.80000     -9.5893249E-09
   34.86000     -9.5045456E-09
   34.92000     -9.3500150E-09
   34.98000     -9.1311056E-09
   35.04000     -8.8591978E-09
   35.10000     -8.5482688E-09
   35.16000     -8.2107183E-09
   35.22000     -7.8543829E-09
   35.28000     -7.4820283E-09
   35.34000     -7.0932651E-09
   35.40000     -6.6876136E-09
   35.46000     -6.2670096E-09
   35.52000     -5.8365632E-09
   35.58000     -5.4033822E-09
   35.64000     -4.9741868E-09
   35.70000     -4.5528252E-09
   35.76000     -4.1385708E-09
   35.82000     -3.7256362E-09
   35.88000     -3.3039420E-09
   35.94000     -2.8609883E-09
   36.00000     -2.3846232E-09
   36.06000     -1.8663060E-09
   36.12000     -1.3041836E-09
   36.18000     -7.0504125E-10
   36.24000     -8.4253778E-11
   36.30000      5.3660826E-10
   36.36000      1.1340393E-09
   36.42000      1.6874718E-09
   36.48000      2.1831927E-09
   36.54000      2.6160383E-09
   36.60000      2.9883951E-09
   36.66000      3.3069738E-09
   36.72000      3.5785372E-09
   36.78000      3.8060768E-09
   36.84000      3.9867496E-09
   36.90000      4.1123576E-09
   36.96000      4.1723509E-09
   37.02000      4.1584989E-09
   37.08000      4.0696366E-09
   37.14000      3.9146566E-09
   37.20000      3.7122694E-09
   37.26000      3.4871457E-09
   37.32000      3.2634517E-09
   37.38000      3.0579714E-09
   37.44000      2.8754155E-09
   37.50000      2.7078166E-09
   37.56000      2.5384050E-09
   37.62000      2.3486095E-09
   37.68000      2.1256537E-09
   37.74000      1.8680113E-09
   37.80000      1.5868525E-09
   37.86000      1.3030725E-09
   37.92000      1.0410182E-09
   37.98000      8.2106844E-10
   38.04000      6.5355321E-10
   38.10000      5.3605864E-10
   38.16000      4.5511864E-10
   38.22000      3.9188502E-10
   38.28000      3.2996475E-10
   38.34000      2.6268729E-10
   38.40000      1.9702495E-10
   38.46000      1.5242839E-10
   38.52000      1.5469249E-10
   38.58000      2.2693819E-10
   38.64000      3.8103576E-10
   38.70000      6.1270911E-10
   38.76000      9.0214713E-10
   38.82000      1.2198450E-09
   38.88000      1.5355213E-09
   38.94000      1.8270553E-09
   39.00000      2.0866799E-09
   39.06000      2.3227884E-09
   39.12000      2.5571141E-09
   39.18000      2.8182248E-09
   39.24000      3.1330807E-09
   39.30000      3.5188574E-09
   39.36000      3.9773704E-09
   39.42000      4.4940220E-09
   39.48000      5.0421161E-09
   39.54000      5.5915916E-09
   39.60000      6.1193948E-09
   39.66000      6.6175949E-09
   39.72000      7.0958293E-09
   39.78000      7.5767792E-09
   39.84000      8.0862987E-09
   39.90000      8.6422380E-09
   39.96000      9.2466221E-09
   40.02000      9.8842934E-09
   40.08000      1.0528255E-08
   40.14000      1.1149070E-08
   40.20000      1.1724290E-08
   40.26000      1.2244344E-08
   40.32000      1.2713313E-08
   40.38000      1.3145174E-08
   40.44000      1.3557598E-08
   40.50000      1.3965665E-08
   40.56000      1.4377242E-08
   40.62000      1.4790930E-08
   40.68000      1.5196795E-08
   40.74000      1.5579605E-08
   40.80000      1.5923909E-08
   40.86000      1.6219714E-08
   40.92000      1.6466979E-08
   40.98000      1.6677212E-08
   41.04000      1.6871036E-08
   41.10000      1.7072132E-08
   41.16000      1.7299396E-08
   41.22000      1.7560016E-08
   41.28000      1.7845968E-08
   41.34000      1.8135164E-08
   41.40000      1.8396801E-08
   41.46000      1.8599090E-08
   41.52000      1.8716845E-08
   41.58000      1.8736667E-08
   41.64000      1.8658318E-08
   41.70000      1.8491939E-08
   41.76000      1.8252058E-08
   41.82000      1.7950279E-08
   41.88000      1.7589192E-08
   41.94000      1.7159875E-08
   42.00000      1.6644396E-08
   42.06000      1.6022840E-08
   42.12000      1.5282550E-08
   42.18000      1.4425997E-08
   42.24000      1.3473977E-08
   42.30000      1.2462547E-08
   42.36000      1.1434610E-08
   42.42000      1.0429270E-08
   42.48000      9.4728989E-09
   42.54000      8.5750553E-09
   42.60000      7.7303284E-09
   42.66000      6.9249850E-09
   42.72000      6.1456986E-09
   42.78000      5.3872564E-09
   42.84000      4.6567981E-09
   42.90000      3.9734034E-09
   42.96000      3.3632812E-09
   43.02000      2.8520604E-09
   43.08000      2.4565676E-09
   43.14000      2.1787829E-09
   43.20000      2.0041864E-09
   43.26000      1.9053970E-09
   43.32000      1.8501453E-09
   43.38000      1.8108884E-09
   43.44000      1.7725664E-09
   43.50000      1.7355993E-09
   43.56000      1.7130850E-09
   43.62000      1.7234799E-09
   43.68000      1.7817746E-09
   43.74000      1.8925619E-09
   43.80000      2.0473760E-09
   43.86000      2.2268503E-09
   43.92000      2.4064686E-09
   43.98000      2.5636686E-09
   44.04000      2.6839870E-09
   44.10000      2.7645770E-09
   44.16000      2.8143814E-09
   44.22000      2.8511853E-09
   44.28000      2.8965388E-09
   44.34000      2.9700682E-09
   44.40000      3.0848684E-09
   44.46000      3.2453220E-09
   44.52000      3.4478815E-09
   44.58000      3.6842329E-09
   44.64000      3.9453938E-09
   44.70000      4.2250377E-09
   44.76000      4.5208752E-09
   44.82000      4.8339155E-09
   44.88000      5.1663531E-09
   44.94000      5.5192029E-09
   45.00000      5.8905556E-09
   45.06000      6.2747625E-09
   45.12000      6.6624422E-09
   45.18000      7.0411357E-09
   45.24000      7.3966149E-09
   45.30000      7.7148723E-09
   45.36000      7.9845419E-09
   45.42000      8.1989810E-09
   45.48000      8.3570058E-09
   45.54000      8.4615932E-09
   45.60000      8.5168450E-09
   45.66000      8.5245375E-09
   45.72000      8.4820106E-09
   45.78000      8.3826155E-09
   45.84000      8.2186435E-09
   45.90000      7.9853884E-09
   45.96000      7.6844122E-09
   46.02000      7.3246307E-09
   46.08000      6.9209585E-09
   46.14000      6.4913714E-09
   46.20000      6.0536065E-09
   46.26000      5.6224088E-09
   46.32000      5.2076001E-09
   46.38000      4.8129198E-09
   46.44000      4.4357247E-09
   46.50000      4.0679606E-09
   46.56000      3.6987751E-09
   46.62000      3.3184993E-09
   46.68000      2.9227425E-09
   46.74000      2.5147837E-09
   46.80000      2.1048621E-09
   46.86000      1.7063675E-09
   46.92000      1.3305936E-09
   46.98000      9.8258757E-10
   47.04000      6.6014921E-10
   47.10000      3.5636735E-10
   47.16000      6.4225361E-11
   47.22000     -2.1917965E-10
   47.28000     -4.9084387E-10
   47.34000     -7.4305839E-10
   47.40000     -9.6659369E-10
   47.46000     -1.1540645E-09
   47.52000     -1.3019822E-09
   47.58000     -1.4110033E-09
   47.64000     -1.4848480E-09
   47.70000     -1.5287387E-09
   47.76000     -1.5479856E-09
   47.82000     -1.5469130E-09
   47.88000     -1.5281095E-09
   47.94000     -1.4920866E-09
   48.00000     -1.4376031E-09
   48.06000     -1.3628120E-09
   48.12000     -1.2669449E-09
   48.18000     -1.1517478E-09
   48.24000     -1.0217621E-09
   48.30000     -8.8304042E-10
   48.36000     -7.4076478E-10
   48.42000     -5.9695549E-10
   48.48000     -4.4951179E-10
   48.54000     -2.9312511E-10
   48.60000     -1.2156663E-10
   48.66000      6.9896471E-11
   48.72000      2.8319239E-10
   48.78000      5.1776450E-10
   48.84000      7.7208573E-10
   48.90000      1.0453334E-09
   48.96000      1.3382512E-09
   49.02000      1.6528399E-09
   49.08000      1.9912367E-09
   49.14000      2.3545568E-09
   49.20000      2.7423863E-09
   49.26000      3.1531830E-09
   49.32000      3.5853494E-09
   49.38000      4.0384669E-09
   49.44000      4.5141788E-09
   49.50000      5.0164246E-09
   49.56000      5.5510214E-09
   49.62000      6.1248424E-09
   49.68000      6.7449970E-09
   49.74000      7.4184037E-09
   49.80000      8.1519635E-09
   49.86000      8.9532159E-09
   49.92000      9.8310355E-09
   49.98000      1.0795809E-08
   50.04000      1.1858761E-08
   50.10000      1.3030596E-08
   50.16000      1.4320095E-08
   50.22000      1.5733464E-08
   50.28000      1.7274818E-08
   50.34000      1.8947473E-08
   50.40000      2.0755088E-08
   50.46000      2.2701609E-08
   50.52000      2.4789687E-08
   50.58000      2.7018151E-08
   50.64000      2.9379962E-08
   50.70000      3.1861827E-08
   50.76000      3.4445819E-08
   50.82000      3.7111985E-08
   50.88000      3.9840121E-08
   50.94000      4.2609177E-08
   51.00000      4.5393985E-08
   51.06000      4.8160388E-08
   51.12000      5.0861015E-08
   51.18000      5.3433464E-08
   51.24000      5.5801497E-08
   51.30000      5.7878328E-08
   51.36000      5.9570151E-08
   51.42000      6.0778305E-08
   51.48000      6.1399327E-08
   51.54000      6.1323405E-08
   51.60000      6.0432413E-08
   51.66000      5.8598534E-08
   51.72000      5.5684037E-08
   51.78000      5.1542241E-08
   51.84000      4.6019501E-08
   51.90000      3.8958060E-08
   51.96000      3.0199548E-08
   52.02000      1.9588695E-08
   52.08000      6.9764714E-09
   52.14000     -7.7782403E-09
   52.20000     -2.4808578E-08
   52.26000     -4.4240569E-08
   52.32000     -6.6193437E-08
   52.38000     -9.0777888E-08
   52.44000     -1.1809178E-07
   52.50000     -1.4821416E-07
   52.56000     -1.8119906E-07
   52.62000     -2.1707082E-07
   52.68000     -2.5582122E-07
   52.74000     -2.9740764E-07
   52.80000     -3.4175122E-07
   52.86000     -3.8873418E-07
   52.92000     -4.3819699E-07
   52.98000     -4.8993684E-07
   53.04000     -5.4370730E-07
   53.10000     -5.9921996E-07
   53.16000     -6.5614552E-07
   53.22000     -7.1411370E-07
   53.28000     -7.7271079E-07
   53.34000     -8.3147694E-07
   53.40000     -8.8990498E-07
   53.46000     -9.4744337E-07
   53.52000     -1.0035028E-06
   53.58000     -1.0574652E-06
   53.64000     -1.1086935E-06
   53.70000     -1.1565381E-06
   53.76000     -1.2003424E-06
   53.82000     -1.2394457E-06
   53.88000     -1.2731883E-06
   53.94000     -1.3009161E-06
   54.00000     -1.3219883E-06
   54.06000     -1.3357848E-06
   54.12000     -1.3417150E-06
   54.18000     -1.3392265E-06
   54.24000     -1.3278133E-06
   54.30000     -1.3070236E-06
   54.36000     -1.2764665E-06
   54.42000     -1.2358161E-06
   54.48000     -1.1848149E-06
   54.54000     -1.1232765E-06
   54.60000     -1.0510892E-06
   54.66000     -9.6821952E-07
   54.72000     -8.7471727E-07
   54.78000     -7.7071661E-07
   54.84000     -6.5643673E-07
   54.90000     -5.3218014E-07
   54.96000     -3.9833128E-07
   55.02000     -2.5535610E-07
   55.08000     -1.0380197E-07
   55.14000      5.5704284E-08
   55.20000      2.2246263E-07
   55.26000      3.9571020E-07
   55.32000      5.7463399E-07
   55.38000      7.5838170E-07
   55.44000      9.4606901E-07
   55.50000      1.1367831E-06
   55.56000      1.3295867E-06