  -2.400000      0.0000000E+00
  -2.340000      0.0000000E+00
  -2.280000      0.0000000E+00
  -2.220000      0.0000000E+00
  -2.160000      0.0000000E+00
  -2.100000      0.0000000E+00
  -2.040000     -5.3649408E-22
  -1.980000     -4.4534701E-21
  -1.920000     -1.7539282E-20
  -1.860000     -3.9965299E-20
  -1.800000     -4.1872829E-20
  -1.740000      6.2611188E-20
  -1.680000      3.9384716E-19
  -1.620000      9.7869425E-19
  -1.560000      1.5239895E-18
  -1.500000      1.2471188E-18
  -1.440000     -9.5300119E-19
  -1.380000     -5.7754379E-18
  -1.320000     -1.2429338E-17
  -1.260000     -1.7913857E-17
  -1.200000     -1.7627591E-17
  -1.140000     -7.6221707E-18
  -1.080000      1.2715737E-17
  -1.020000      4.0155053E-17
 -0.9600000      7.1314768E-17
 -0.9000000      1.0887519E-16
 -0.8400000      1.6313182E-16
 -0.7800000      2.3924067E-16
 -0.7200000      3.0703563E-16
 -0.6600000      2.6770426E-16
 -0.6000000     -4.7913954E-17
 -0.5400000     -8.0888878E-16
 -0.4800000     -2.0287079E-15
 -0.4200000     -3.3756705E-15
 -0.3600000     -4.0733200E-15
 -0.3000000     -3.0438328E-15
 -0.2400000      6.2177560E-16
 -0.1800000      6.9595048E-15
 -0.1200000      1.4505673E-14
 -5.9999999E-02  2.0187585E-14
  0.0000000E+00  2.0076709E-14
  5.9999999E-02  1.0990760E-14
  0.1200000     -7.5720129E-15
  0.1800000     -3.2071120E-14
  0.2400000     -5.5035312E-14
  0.3000000     -6.7033672E-14
  0.3600000     -6.0031068E-14
  0.4200000     -3.0858705E-14
  0.4800000      1.6730405E-14
  0.5400000      7.2444431E-14
  0.6000000      1.2220787E-13
  0.6600000      1.5211329E-13
  0.7200000      1.5190778E-13
  0.7800000      1.1681144E-13
  0.8400000      4.7622639E-14
  0.9000000     -4.9821567E-14
  0.9600000     -1.6449473E-13
   1.020000     -2.7892033E-13
   1.080000     -3.6802091E-13
   1.140000     -4.0057202E-13
   1.200000     -3.4554220E-13
   1.260000     -1.8348846E-13
   1.320000      8.0103730E-14
   1.380000      4.0541005E-13
   1.440000      7.1909194E-13
   1.500000      9.2883025E-13
   1.560000      9.4962027E-13
   1.620000      7.3404840E-13
   1.680000      2.9533328E-13
   1.740000     -2.8707237E-13
   1.800000     -8.8385440E-13
   1.860000     -1.3503863E-12
   1.920000     -1.5681218E-12
   1.980000     -1.4781983E-12
   2.040000     -1.0953289E-12
   2.100000     -4.9792771E-13
   2.160000      1.9988199E-13
   2.220000      8.8156967E-13
   2.280000      1.4528558E-12
   2.340000      1.8493607E-12
   2.400000      2.0286151E-12
   2.460000      1.9567865E-12
   2.520000      1.6037405E-12
   2.580000      9.5527590E-13
   2.640000      4.0324762E-14
   2.700000     -1.0408955E-12
   2.760000     -2.1076324E-12
   2.820000     -2.9235752E-12
   2.880000     -3.2570877E-12
   2.940000     -2.9596668E-12
   3.000000     -2.0326390E-12
   3.060000     -6.5164378E-13
   3.120000      8.6767193E-13
   3.180000      2.1562743E-12
   3.240000      2.9021191E-12
   3.300000      2.9449037E-12
   3.360000      2.3215136E-12
   3.420000      1.2481790E-12
   3.480000      4.9803345E-14
   3.540000     -9.3514215E-13
   3.600000     -1.4420142E-12
   3.660000     -1.3381705E-12
   3.720000     -6.4830303E-13
   3.780000      4.4200589E-13
   3.840000      1.5899989E-12
   3.900000      2.3012050E-12
   3.960000      1.9461325E-12
   4.020000     -1.9184255E-13
   4.080000     -4.8202831E-12
   4.140000     -1.2494078E-11
   4.200000     -2.3451477E-11
   4.260000     -3.7478277E-11
   4.320000     -5.3852901E-11
   4.380000     -7.1406547E-11
   4.440000     -8.8696848E-11
   4.500000     -1.0425443E-10
   4.560000     -1.1683715E-10
   4.620000     -1.2562712E-10
   4.680000     -1.3033107E-10
   4.740000     -1.3118109E-10
   4.800000     -1.2886447E-10
   4.860000     -1.2442027E-10
   4.920000     -1.1912878E-10
   4.980000     -1.1439488E-10
   5.040000     -1.1161055E-10
   5.100000     -1.1198598E-10
   5.160000     -1.1636601E-10
   5.220000     -1.2508089E-10
   5.280000     -1.3789644E-10
   5.340000     -1.5410985E-10
   5.400000     -1.7278697E-10
   5.460000     -1.9307538E-10
   5.520000     -2.1448754E-10
   5.580000     -2.3705254E-10
   5.640000     -2.6128610E-10
   5.700000     -2.8800071E-10
   5.760000     -3.1803621E-10
   5.820000     -3.5200454E-10
   5.880000     -3.9010842E-10
   5.940000     -4.3203413E-10
   6.000000     -4.7687149E-10
   6.060000     -5.2300764E-10
   6.120000     -5.6798233E-10
   6.180000     -6.0835209E-10
   6.240000     -6.3965688E-10
   6.300000     -6.5658212E-10
   6.360000     -6.5336397E-10
   6.420000     -6.2441285E-10
   6.480000     -5.6507243E-10
   6.540000     -4.7240717E-10
   6.600000     -3.4592018E-10
   6.660000     -1.8813258E-10
   6.720000     -4.9637226E-12
   6.780000      1.9415332E-10
   6.840000      3.9650655E-10
   6.900000      5.8676730E-10
   6.960000      7.4810202E-10
   7.020000      8.6364815E-10
   7.080000      9.1814961E-10
   7.140000      8.9946844E-10
   7.200000      7.9969825E-10
   7.260000      6.1572214E-10
   7.320000      3.4923148E-10
   7.380000      6.3945906E-12
   7.440000     -4.0255196E-10
   7.500000     -8.6356372E-10
   7.560000     -1.3588338E-09
   7.620000     -1.8667707E-09
   7.680000     -2.3622135E-09
   7.740000     -2.8172322E-09
   7.800000     -3.2027321E-09
   7.860000     -3.4908529E-09
   7.920000     -3.6578589E-09
   7.980000     -3.6870216E-09
   8.040000     -3.5709085E-09
   8.100000     -3.3125918E-09
   8.160000     -2.9255074E-09
   8.220000     -2.4319815E-09
   8.280000     -1.8607095E-09
   8.340000     -1.2436659E-09
   8.400000     -6.1300842E-10
   8.460000      1.5151967E-12
   8.520000      5.7428551E-10
   8.580000      1.0845403E-09
   8.640000      1.5162531E-09
   8.700000      1.8575433E-09
   8.760000      2.1000972E-09
   8.820000      2.2390125E-09
   8.880000      2.2732132E-09
   8.940000      2.2062365E-09
   9.000000      2.0468678E-09
   9.060000      1.8089943E-09
   9.120000      1.5102233E-09
   9.180000      1.1692449E-09
   9.240000      8.0245333E-10
   9.300000      4.2075649E-10
   9.360000      2.7600089E-11
   9.420000     -3.8105463E-10
   9.480000     -8.1463575E-10
   9.540000     -1.2842433E-09
   9.600000     -1.7983082E-09
   9.660000     -2.3588063E-09
   9.720000     -2.9590370E-09
   9.780000     -3.5835421E-09
   9.840000     -4.2101989E-09
   9.900000     -4.8140167E-09
   9.960000     -5.3717963E-09
   10.02000     -5.8666276E-09
   10.08000     -6.2912173E-09
   10.14000     -6.6492793E-09
   10.20000     -6.9546502E-09
   10.26000     -7.2283646E-09
   10.32000     -7.4944912E-09
   10.38000     -7.7759097E-09
   10.44000     -8.0911740E-09
   10.50000     -8.4532292E-09
   10.56000     -8.8699945E-09
   10.62000     -9.3460688E-09
   10.68000     -9.8843822E-09
   10.74000     -1.0486628E-08
   10.80000     -1.1151944E-08
   10.86000     -1.1874198E-08
   10.92000     -1.2639050E-08
   10.98000     -1.3422411E-08
   11.04000     -1.4191599E-08
   11.10000     -1.4909689E-08
   11.16000     -1.5542332E-08
   11.22000     -1.6065336E-08
   11.28000     -1.6470699E-08
   11.34000     -1.6769143E-08
   11.40000     -1.6988045E-08
   11.46000     -1.7165162E-08
   11.52000     -1.7339790E-08
   11.58000     -1.7543957E-08
   11.64000     -1.7796157E-08
   11.70000     -1.8099342E-08
   11.76000     -1.8443494E-08
   11.82000     -1.8811470E-08
   11.88000     -1.9185947E-08
   11.94000     -1.9554932E-08
   12.00000     -1.9914093E-08
   12.06000     -2.0265482E-08
   12.12000     -2.0613523E-08
   12.18000     -2.0960190E-08
   12.24000     -2.1301354E-08
   12.30000     -2.1625761E-08
   12.36000     -2.1916980E-08
   12.42000     -2.2157595E-08
   12.48000     -2.2334179E-08
   12.54000     -2.2441434E-08
   12.60000     -2.2484160E-08
   12.66000     -2.2476476E-08
   12.72000     -2.2438368E-08
   12.78000     -2.2390445E-08
   12.84000     -2.2348166E-08
   12.90000     -2.2317137E-08
   12.96000     -2.2290838E-08
   13.02000     -2.2251667E-08
   13.08000     -2.2175316E-08
   13.14000     -2.2037433E-08
   13.20000     -2.1820791E-08
   13.26000     -2.1520762E-08
   13.32000     -2.1147411E-08
   13.38000     -2.0723418E-08
   13.44000     -2.0278495E-08
   13.50000     -1.9841996E-08
   13.56000     -1.9435999E-08
   13.62000     -1.9070919E-08
   13.68000     -1.8744711E-08
   13.74000     -1.8445576E-08
   13.80000     -1.8156934E-08
   13.86000     -1.7862908E-08
   13.92000     -1.7552560E-08
   13.98000     -1.7221739E-08
   14.04000     -1.6872278E-08
   14.10000     -1.6509160E-08
   14.16000     -1.6136832E-08
   14.22000     -1.5756038E-08
   14.28000     -1.5362295E-08
   14.34000     -1.4946465E-08
   14.40000     -1.4497260E-08
   14.46000     -1.4004760E-08
   14.52000     -1.3463808E-08
   14.58000     -1.2876117E-08
   14.64000     -1.2250399E-08
   14.70000     -1.1600410E-08
   14.76000     -1.0941495E-08
   14.82000     -1.0286632E-08
   14.88000     -9.6431467E-09
   14.94000     -9.0110106E-09
   15.00000     -8.3832132E-09
   15.06000     -7.7480351E-09
   15.12000     -7.0925221E-09
   15.18000     -6.4061418E-09
   15.24000     -5.6835829E-09
   15.30000     -4.9260160E-09
   15.36000     -4.1406669E-09
   15.42000     -3.3390830E-09
   15.48000     -2.5348268E-09
   15.54000     -1.7413045E-09
   15.60000     -9.7016817E-10
   15.66000     -2.3033037E-10
   15.72000      4.7262938E-10
   15.78000      1.1368934E-09
   15.84000      1.7646679E-09
   15.90000      2.3620128E-09
   15.96000      2.9379079E-09
   16.02000      3.5024665E-09
   16.08000      4.0646677E-09
   16.14000      4.6303916E-09
   16.20000      5.2016276E-09
   16.26000      5.7773386E-09
   16.32000      6.3557639E-09
   16.38000      6.9372232E-09
   16.44000      7.5261477E-09
   16.50000      8.1312983E-09
   16.56000      8.7638865E-09
   16.62000      9.4342170E-09
   16.68000      1.0148169E-08
   16.74000      1.0904937E-08
   16.80000      1.1697024E-08
   16.86000      1.2512498E-08
   16.92000      1.3338691E-08
   16.98000      1.4165825E-08
   17.04000      1.4989109E-08
   17.10000      1.5808396E-08
   17.16000      1.6625497E-08
   17.22000      1.7440190E-08
   17.28000      1.8246624E-08
   17.34000      1.9031733E-08
   17.40000      1.9776582E-08
   17.46000      2.0460469E-08
   17.52000      2.1066432E-08
   17.58000      2.1586212E-08
   17.64000      2.2022869E-08
   17.70000      2.2390040E-08
   17.76000      2.2708099E-08
   17.82000      2.2998545E-08
   17.88000      2.3278453E-08
   17.94000      2.3556650E-08
   18.00000      2.3832495E-08
   18.06000      2.4097211E-08
   18.12000      2.4336904E-08
   18.18000      2.4536140E-08
   18.24000      2.4681093E-08
   18.30000      2.4761595E-08
   18.36000      2.4771962E-08
   18.42000      2.4710713E-08
   18.48000      2.4579515E-08
   18.54000      2.4381695E-08
   18.60000      2.4120704E-08
   18.66000      2.3798846E-08
   18.72000      2.3416602E-08
   18.78000      2.2972648E-08
   18.84000      2.2464540E-08
   18.90000      2.1889836E-08
   18.96000      2.1247207E-08
   19.02000      2.0537195E-08
   19.08000      1.9762252E-08
   19.14000      1.8926064E-08
   19.20000      1.8032269E-08
   19.26000      1.7083012E-08
   19.32000      1.6077692E-08
   19.38000      1.5012324E-08
   19.44000      1.3879652E-08
   19.50000      1.2670026E-08
   19.56000      1.1372818E-08
   19.62000      9.9781472E-09
   19.68000      8.4786231E-09
   19.74000      6.8709110E-09
   19.80000      5.1569100E-09
   19.86000      3.3443464E-09
   19.92000      1.4465418E-09
   19.98000     -5.1882160E-10
   20.04000     -2.5319347E-09
   20.10000     -4.5737720E-09
   20.16000     -6.6290324E-09
   20.22000     -8.6882741E-09
   20.28000     -1.0748483E-08
   20.34000     -1.2811704E-08
   20.40000     -1.4881905E-08
   20.46000     -1.6960831E-08
   20.52000     -1.9043961E-08
   20.58000     -2.1117737E-08
   20.64000     -2.3158972E-08
   20.70000     -2.5136817E-08
   20.76000     -2.7017053E-08
   20.82000     -2.8767788E-08
   20.88000     -3.0365197E-08
   20.94000     -3.1797807E-08
   21.00000     -3.3068087E-08
   21.06000     -3.4190759E-08
   21.12000     -3.5188275E-08
   21.18000     -3.6084689E-08
   21.24000     -3.6899745E-08
   21.30000     -3.7644799E-08
   21.36000     -3.8321527E-08
   21.42000     -3.8923467E-08
   21.48000     -3.9439410E-08
   21.54000     -3.9857429E-08
   21.60000     -4.0168160E-08
   21.66000     -4.0366686E-08
   21.72000     -4.0452765E-08
   21.78000     -4.0429708E-08
   21.84000     -4.0302567E-08
   21.90000     -4.0076102E-08
   21.96000     -3.9753246E-08
   22.02000     -3.9334459E-08
   22.08000     -3.8818204E-08
   22.14000     -3.8202476E-08
   22.20000     -3.7486885E-08
   22.26000     -3.6674535E-08
   22.32000     -3.5772885E-08
   22.38000     -3.4793167E-08
   22.44000     -3.3748336E-08
   22.50000     -3.2650270E-08
   22.56000     -3.1507156E-08
   22.62000     -3.0321896E-08
   22.68000     -2.9092080E-08
   22.74000     -2.7811421E-08
   22.80000     -2.6472145E-08
   22.86000     -2.5067596E-08
   22.92000     -2.3594390E-08
   22.98000     -2.2053626E-08
   23.04000     -2.0450987E-08
   23.10000     -1.8795840E-08
   23.16000     -1.7099763E-08
   23.22000     -1.5374948E-08
   23.28000     -1.3633002E-08
   23.34000     -1.1884396E-08
   23.40000     -1.0138435E-08
   23.46000     -8.4033562E-09
   23.52000     -6.6861041E-09
   23.58000     -4.9915125E-09
   23.64000     -3.3211589E-09
   23.70000     -1.6725117E-09
   23.76000     -3.9139577E-11
   23.82000      1.5875674E-09
   23.88000      3.2153107E-09
   23.94000      4.8471729E-09
   24.00000      6.4783312E-09
   24.06000      8.0941032E-09
   24.12000      9.6698081E-09
   24.18000      1.1172381E-08
   24.24000      1.2563336E-08
   24.30000      1.3802541E-08
   24.36000      1.4852279E-08
   24.42000      1.5681117E-08
   24.48000      1.6267126E-08
   24.54000      1.6599907E-08
   24.60000      1.6681057E-08
   24.66000      1.6522872E-08
   24.72000      1.6145593E-08
   24.78000      1.5573670E-08
   24.84000      1.4831802E-08
   24.90000      1.3941392E-08
   24.96000      1.2917860E-08
   25.02000      1.1769067E-08
   25.08000      1.0494981E-08
   25.14000      9.0885690E-09
   25.20000      7.5378175E-09
   25.26000      5.8284844E-09
   25.32000      3.9470169E-09
   25.38000      1.8829751E-09
   25.44000     -3.6948211E-10
   25.50000     -2.8110525E-09
   25.56000     -5.4372760E-09
   25.62000     -8.2384437E-09
   25.68000     -1.1199018E-08
   25.74000     -1.4296618E-08
   25.80000     -1.7501119E-08
   25.86000     -2.0774552E-08
   25.92000     -2.4072339E-08
   25.98000     -2.7345829E-08
   26.04000     -3.0545628E-08
   26.10000     -3.3624911E-08
   26.16000     -3.6541923E-08
   26.22000     -3.9261106E-08
   26.28000     -4.1752774E-08
   26.34000     -4.3991463E-08
   26.40000     -4.5953488E-08
   26.46000     -4.7614414E-08
   26.52000     -4.8947264E-08
   26.58000     -4.9922271E-08
   26.64000     -5.0508376E-08
   26.70000     -5.0676306E-08
   26.76000     -5.0402239E-08
   26.82000     -4.9670888E-08
   26.88000     -4.8477073E-08
   26.94000     -4.6825591E-08
   27.00000     -4.4729870E-08
   27.06000     -4.2210477E-08
   27.12000     -3.9294246E-08
   27.18000     -3.6014075E-08
   27.24000     -3.2408927E-08
   27.30000     -2.8523084E-08
   27.36000     -2.4404109E-08
   27.42000     -2.0099746E-08
   27.48000     -1.5654557E-08
   27.54000     -1.1107343E-08
   27.60000     -6.4899779E-09
   27.66000     -1.8276430E-09
   27.72000      2.8600911E-09
   27.78000      7.5579072E-09
   27.84000      1.2253355E-08
   27.90000      1.6935275E-08
   27.96000      2.1591802E-08
   28.02000      2.6208021E-08
   28.08000      3.0763889E-08
   28.14000      3.5233278E-08
   28.20000      3.9584751E-08
   28.26000      4.3783970E-08
   28.32000      4.7796792E-08
   28.38000      5.1591829E-08
   28.44000      5.5141470E-08
   28.50000      5.8421175E-08
   28.56000      6.1407739E-08
   28.62000      6.4077668E-08
   28.68000      6.6406528E-08
   28.74000      6.8369658E-08
   28.80000      6.9943781E-08
   28.86000      7.1108623E-08
   28.92000      7.1848028E-08
   28.98000      7.2150065E-08
   29.04000      7.2006465E-08
   29.10000      7.1411748E-08
   29.16000      7.0362645E-08
   29.22000      6.8858022E-08
   29.28000      6.6899453E-08
   29.34000      6.4492440E-08
   29.40000      6.1647746E-08
   29.46000      5.8382604E-08
   29.52000      5.4721099E-08
   29.58000      5.0693490E-08
   29.64000      4.6334158E-08
   29.70000      4.1678817E-08
   29.76000      3.6761779E-08
   29.82000      3.1614331E-08
   29.88000      2.6264958E-08
   29.94000      2.0741426E-08
   30.00000      1.5073939E-08
   30.06000      9.2981391E-09
   30.12000      3.4565282E-09
   30.18000     -2.4024567E-09
   30.24000     -8.2277198E-09
   30.30000     -1.3970280E-08
   30.36000     -1.9588114E-08
   30.42000     -2.5049554E-08
   30.48000     -3.0334057E-08
   30.54000     -3.5429967E-08
   30.60000     -4.0329631E-08
   30.66000     -4.5023270E-08
   30.72000     -4.9493288E-08
   30.78000     -5.3710860E-08
   30.84000     -5.7635997E-08
   30.90000     -6.1221272E-08
   30.96000     -6.4418316E-08
   31.02000     -6.7185269E-08
   31.08000     -6.9493097E-08
   31.14000     -7.1329211E-08
   31.20000     -7.2697276E-08
   31.26000     -7.3613869E-08
   31.32000     -7.4102680E-08
   31.38000     -7.4188399E-08
   31.44000     -7.3891719E-08
   31.50000     -7.3227042E-08
   31.56000     -7.2203335E-08
   31.62000     -7.0827930E-08
   31.68000     -6.9111749E-08
   31.74000     -6.7074247E-08
   31.80000     -6.4745805E-08
   31.86000     -6.2166670E-08
   31.92000     -5.9382117E-08
   31.98000     -5.6435638E-08
   32.04000     -5.3362271E-08
   32.10000     -5.0184660E-08
   32.16000     -4.6913147E-08
   32.22000     -4.3549864E-08
   32.28000     -4.0095113E-08
   32.34000     -3.6553811E-08
   32.40000     -3.2939738E-08
   32.46000     -2.9276592E-08
   32.52000     -2.5595895E-08
   32.58000     -2.1933035E-08
   32.64000     -1.8322915E-08
   32.70000     -1.4796679E-08
   32.76000     -1.1380253E-08
   32.82000     -8.0948857E-09
   32.88000     -4.9591660E-09
   32.94000     -1.9916873E-09
   33.00000      7.8674878E-10
   33.06000      3.3523349E-09
   33.12000      5.6794405E-09
   33.18000      7.7436795E-09
   33.24000      9.5260440E-09
   33.30000      1.1016795E-08
   33.36000      1.2217744E-08
   33.42000      1.3142089E-08
   33.48000      1.3811722E-08
   33.54000      1.4252794E-08
   33.60000      1.4490764E-08
   33.66000      1.4546202E-08
   33.72000      1.4432248E-08
   33.78000      1.4154164E-08
   33.84000      1.3710878E-08
   33.90000      1.3098039E-08
   33.96000      1.2311832E-08
   34.02000      1.1352550E-08
   34.08000      1.0226931E-08
   34.14000      8.9485281E-09
   34.20000      7.5359869E-09
   34.26000      6.0099050E-09
   34.32000      4.3895607E-09
   34.38000      2.6909319E-09
   34.44000      9.2693259E-10
   34.50000     -8.9020319E-10
   34.56000     -2.7454614E-09
   34.62000     -4.6181530E-09
   34.68000     -6.4810917E-09
   34.74000     -8.3025791E-09
   34.80000     -1.0050894E-08
   34.86000     -1.1700050E-08
   34.92000     -1.3235144E-08
   34.98000     -1.4655652E-08
   35.04000     -1.5975550E-08
   35.10000     -1.7219932E-08
   35.16000     -1.8418756E-08
   35.22000     -1.9599179E-08
   35.28000     -2.0778552E-08
   35.34000     -2.1960151E-08
   35.40000     -2.3133040E-08
   35.46000     -2.4276209E-08
   35.52000     -2.5365626E-08
   35.58000     -2.6381771E-08
   35.64000     -2.7315046E-08
   35.70000     -2.8167252E-08
   35.76000     -2.8948833E-08
   35.82000     -2.9673247E-08
   35.88000     -3.0350797E-08
   35.94000     -3.0984324E-08
   36.00000     -3.1568412E-08
   36.06000     -3.2092284E-08
   36.12000     -3.2545262E-08
   36.18000     -3.2922767E-08
   36.24000     -3.3230485E-08
   36.30000     -3.3484913E-08
   36.36000     -3.3709529E-08
   36.42000     -3.3927360E-08
   36.48000     -3.4152119E-08
   36.54000     -3.4380893E-08
   36.60000     -3.4591231E-08
   36.66000     -3.4744147E-08
   36.72000     -3.4792595E-08
   36.78000     -3.4692800E-08
   36.84000     -3.4414725E-08
   36.90000     -3.3948069E-08
   36.96000     -3.3301795E-08
   37.02000     -3.2497468E-08
   37.08000     -3.1558919E-08
   37.14000     -3.0501919E-08
   37.20000     -2.9327483E-08
   37.26000     -2.8021086E-08
   37.32000     -2.6558157E-08
   37.38000     -2.4914105E-08
   37.44000     -2.3075581E-08
   37.50000     -2.1049059E-08
   37.56000     -1.8863336E-08
   37.62000     -1.6564277E-08
   37.68000     -1.4202678E-08
   37.74000     -1.1818791E-08
   37.80000     -9.4287635E-09
   37.86000     -7.0182113E-09
   37.92000     -4.5460342E-09
   37.98000     -1.9579924E-09
   38.04000      7.9414109E-10
   38.10000      3.7343755E-09
   38.16000      6.8516641E-09
   38.22000      1.0100326E-08
   38.28000      1.3411588E-08
   38.34000      1.6712255E-08
   38.40000      1.9944070E-08
   38.46000      2.3077369E-08
   38.52000      2.6114591E-08
   38.58000      2.9082697E-08
   38.64000      3.2017162E-08
   38.70000      3.4942861E-08
   38.76000      3.7858303E-08
   38.82000      4.0728715E-08
   38.88000      4.3490786E-08
   38.94000      4.6068116E-08
   39.00000      4.8392586E-08
   39.06000      5.0424639E-08
   39.12000      5.2165305E-08
   39.18000      5.3655441E-08
   39.24000      5.4961955E-08
   39.30000      5.6155464E-08
   39.36000      5.7286925E-08
   39.42000      5.8371242E-08
   39.48000      5.9383403E-08
   39.54000      6.0268576E-08
   39.60000      6.0962549E-08
   39.66000      6.1415705E-08
   39.72000      6.1612404E-08
   39.78000      6.1579257E-08
   39.84000      6.1379296E-08
   39.90000      6.1093935E-08
   39.96000      6.0798556E-08
   40.02000      6.0540060E-08
   40.08000      6.0324339E-08
   40.14000      6.0118140E-08
   40.20000      5.9864931E-08
   40.26000      5.9509134E-08
   40.32000      5.9019779E-08
   40.38000      5.8404911E-08
   40.44000      5.7711389E-08
   40.50000      5.7010080E-08
   40.56000      5.6372006E-08
   40.62000      5.5843934E-08
   40.68000      5.5432025E-08
   40.74000      5.5098926E-08
   40.80000      5.4775036E-08
   40.86000      5.4380003E-08
   40.92000      5.3847334E-08
   40.98000      5.3144319E-08
   41.04000      5.2280985E-08
   41.10000      5.1305193E-08
   41.16000      5.0285344E-08
   41.22000      4.9286022E-08
   41.28000      4.8344496E-08
   41.34000      4.7455913E-08
   41.40000      4.6572495E-08
   41.46000      4.5617284E-08
   41.52000      4.4507996E-08
   41.58000      4.3182915E-08
   41.64000      4.1620002E-08
   41.70000      3.9843020E-08
   41.76000      3.7912937E-08
   41.82000      3.5908080E-08
   41.88000      3.3899820E-08
   41.94000      3.1931744E-08
   42.00000      3.0008600E-08
   42.06000      2.8098070E-08
   42.12000      2.6144532E-08
   42.18000      2.4090371E-08
   42.24000      2.1898341E-08
   42.30000      1.9567871E-08
   42.36000      1.7139861E-08
   42.42000      1.4687963E-08
   42.48000      1.2298778E-08
   42.54000      1.0047418E-08
   42.60000      7.9768521E-09
   42.66000      6.0883196E-09
   42.72000      4.3460706E-09
   42.78000      2.6943672E-09
   42.84000      1.0802261E-09
   42.90000     -5.2638194E-10
   42.96000     -2.1215738E-09
   43.02000     -3.6686290E-09
   43.08000     -5.1094693E-09
   43.14000     -6.3817400E-09
   43.20000     -7.4357129E-09
   43.26000     -8.2462019E-09
   43.32000     -8.8167464E-09
   43.38000     -9.1756265E-09
   43.44000     -9.3652641E-09
   43.50000     -9.4281889E-09
   43.56000     -9.3937507E-09
   43.62000     -9.2698773E-09
   43.68000     -9.0429442E-09
   43.74000     -8.6862428E-09
   43.80000     -8.1742684E-09
   43.86000     -7.4974853E-09
   43.92000     -6.6716095E-09
   43.98000     -5.7374376E-09
   44.04000     -4.7510174E-09
   44.10000     -3.7679193E-09
   44.16000     -2.8276999E-09
   44.22000     -1.9443374E-09
   44.28000     -1.1057882E-09
   44.34000     -2.8218125E-10
   44.40000      5.6085231E-10
   44.46000      1.4485488E-09
   44.52000      2.3874136E-09
   44.58000      3.3622081E-09
   44.64000      4.3398845E-09
   44.70000      5.2788485E-09
   44.76000      6.1405694E-09
   44.82000      6.8999508E-09
   44.88000      7.5511988E-09
   44.94000      8.1072367E-09
   45.00000      8.5927887E-09
   45.06000      9.0335153E-09
   45.12000      9.4451051E-09
   45.18000      9.8263309E-09
   45.24000      1.0158547E-08
   45.30000      1.0411601E-08
   45.36000      1.0553756E-08
   45.42000      1.0561899E-08
   45.48000      1.0428638E-08
   45.54000      1.0164330E-08
   45.60000      9.7939807E-09
   45.66000      9.3504271E-09
   45.72000      8.8659293E-09
   45.78000      8.3643092E-09
   45.84000      7.8554443E-09
   45.90000      7.3333548E-09
   45.96000      6.7784218E-09
   46.02000      6.1633205E-09
   46.08000      5.4611613E-09
   46.14000      4.6535518E-09
   46.20000      3.7361181E-09
   46.26000      2.7198515E-09
   46.32000      1.6280820E-09
   46.38000      4.9040344E-10
   46.44000     -6.6424860E-10
   46.50000     -1.8132347E-09
   46.56000     -2.9432989E-09
   46.62000     -4.0509467E-09
   46.68000     -5.1407545E-09
   46.74000     -6.2225287E-09
   46.80000     -7.3080741E-09
   46.86000     -8.4080822E-09
   46.92000     -9.5295523E-09
   46.98000     -1.0674145E-08
   47.04000     -1.1837818E-08
   47.10000     -1.3011805E-08
   47.16000     -1.4184586E-08
   47.22000     -1.5344114E-08
   47.28000     -1.6479529E-08
   47.34000     -1.7581902E-08
   47.40000     -1.8644064E-08
   47.46000     -1.9659970E-08
   47.52000     -2.0624107E-08
   47.58000     -2.1531282E-08
   47.64000     -2.2376749E-08
   47.70000     -2.3156465E-08
   47.76000     -2.3867285E-08
   47.82000     -2.4507029E-08
   47.88000     -2.5074460E-08
   47.94000     -2.5569150E-08
   48.00000     -2.5991145E-08
   48.06000     -2.6340288E-08
   48.12000     -2.6615185E-08
   48.18000     -2.6812099E-08
   48.24000     -2.6924253E-08
   48.30000     -2.6942006E-08
   48.36000     -2.6854130E-08
   48.42000     -2.6649950E-08
   48.48000     -2.6321743E-08
   48.54000     -2.5866756E-08
   48.60000     -2.5288179E-08
   48.66000     -2.4594890E-08
   48.72000     -2.3799958E-08
   48.78000     -2.2918286E-08
   48.84000     -2.1963814E-08
   48.90000     -2.0946972E-08
   48.96000     -1.9872985E-08
   49.02000     -1.8741638E-08
   49.08000     -1.7548718E-08
   49.14000     -1.6288869E-08
   49.20000     -1.4959058E-08
   49.26000     -1.3561462E-08
   49.32000     -1.2104700E-08
   49.38000     -1.0602816E-08
   49.44000     -9.0722230E-09
   49.50000     -7.5276265E-09
   49.56000     -5.9783170E-09
   49.62000     -4.4261830E-09
   49.68000     -2.8662026E-09
   49.74000     -1.2893003E-09
   49.80000      3.1334929E-10
   49.86000      1.9460256E-09
   49.92000      3.6056433E-09
   49.98000      5.2814215E-09
   50.04000      6.9571979E-09
   50.10000      8.6156522E-09
   50.16000      1.0243006E-08
   50.22000      1.1832598E-08
   50.28000      1.3386166E-08
   50.34000      1.4912473E-08
   50.40000      1.6423913E-08
   50.46000      1.7932397E-08
   50.52000      1.9445922E-08
   50.58000      2.0966921E-08
   50.64000      2.2492626E-08
   50.70000      2.4017103E-08
   50.76000      2.5534085E-08
   50.82000      2.7039700E-08
   50.88000      2.8534329E-08
   50.94000      3.0023163E-08
   51.00000      3.1515295E-08
   51.06000      3.3021550E-08
   51.12000      3.4551597E-08
   51.18000      3.6111185E-08
   51.24000      3.7700506E-08
   51.30000      3.9314415E-08
   51.36000      4.0944485E-08
   51.42000      4.2582219E-08
   51.48000      4.4222020E-08
   51.54000      4.5862731E-08
   51.60000      4.7507125E-08
   51.66000      4.9159972E-08
   51.72000      5.0825907E-08
   51.78000      5.2508444E-08
   51.84000      5.4210631E-08
   51.90000      5.5936940E-08
   51.96000      5.7694919E-08
   52.02000      5.9495424E-08
   52.08000      6.1350853E-08
   52.14000      6.3271941E-08
   52.20000      6.5264310E-08
   52.26000      6.7326184E-08
   52.32000      6.9447943E-08
   52.38000      7.1613428E-08
   52.44000      7.3802241E-08
   52.50000      7.5992126E-08
   52.56000      7.8160639E-08
   52.62000      8.0285602E-08
   52.68000      8.2344116E-08
   52.74000      8.4310265E-08
   52.80000      8.6151893E-08
   52.86000      8.7827445E-08
   52.92000      8.9283766E-08
   52.98000      9.0456034E-08
   53.04000      9.1269889E-08
   53.10000      9.1645212E-08
   53.16000      9.1500340E-08
   53.22000      9.0755506E-08
   53.28000      8.9334705E-08
   53.34000      8.7166001E-08
   53.40000      8.4180840E-08
   53.46000      8.0312780E-08
   53.52000      7.5495976E-08
   53.58000      6.9663308E-08
   53.64000      6.2744647E-08
   53.70000      5.4665836E-08
   53.76000      4.5349619E-08
   53.82000      3.4719051E-08
   53.88000      2.2703150E-08
   53.94000      9.2432151E-09
   54.00000     -5.7022578E-09
   54.06000     -2.2155788E-08
   54.12000     -4.0122487E-08
   54.18000     -5.9593965E-08
   54.24000     -8.0552617E-08
   54.30000     -1.0297452E-07
   54.36000     -1.2682992E-07
   54.42000     -1.5208155E-07
   54.48000     -1.7868139E-07
   54.54000     -2.0656680E-07
   54.60000     -2.3565697E-07
   54.66000     -2.6585039E-07
   54.72000     -2.9702449E-07
   54.78000     -3.2903819E-07
   54.84000     -3.6173722E-07
   54.90000     -3.9496121E-07
   54.96000     -4.2854998E-07
   55.02000     -4.6234635E-07
   55.08000     -4.9619439E-07
   55.14000     -5.2993363E-07
   55.20000     -5.6339218E-07
   55.26000     -5.9638234E-07
   55.32000     -6.2870197E-07
   55.38000     -6.6014195E-07
   55.44000     -6.9049787E-07
   55.50000     -7.1958215E-07
   55.56000     -7.4723295E-07