  -2.400000      0.0000000E+00
  -2.340000      0.0000000E+00
  -2.280000      0.0000000E+00
  -2.220000      0.0000000E+00
  -2.160000      0.0000000E+00
  -2.100000      0.0000000E+00
  -2.040000      7.4438486E-23
  -1.980000      4.0066172E-22
  -1.920000      2.5104497E-22
  -1.860000     -5.2615590E-21
  -1.800000     -2.8462839E-20
  -1.740000     -8.3239482E-20
  -1.680000     -1.5846908E-19
  -1.620000     -1.7283664E-19
  -1.560000      5.7663549E-20
  -1.500000      7.8423996E-19
  -1.440000      2.1742763E-18
  -1.380000      4.0406284E-18
  -1.320000      5.5037707E-18
  -1.260000      4.7017087E-18
  -1.200000     -1.2242424E-18
  -1.140000     -1.5434224E-17
  -1.080000     -3.9384236E-17
  -1.020000     -6.9194519E-17
 -0.9600000     -9.1299061E-17
 -0.9000000     -8.0377180E-17
 -0.8400000     -4.2949347E-18
 -0.7800000      1.6010945E-16
 -0.7200000      4.0187179E-16
 -0.6600000      6.5170609E-16
 -0.6000000      7.7669840E-16
 -0.5400000      6.1114502E-16
 -0.4800000      2.7230185E-17
 -0.4200000     -9.7421801E-16
 -0.3600000     -2.1942388E-15
 -0.3000000     -3.2334475E-15
 -0.2400000     -3.5821358E-15
 -0.1800000     -2.7883550E-15
 -0.1200000     -6.5104773E-16
 -5.9999999E-02  2.6309400E-15
  0.0000000E+00  6.4095898E-15
  5.9999999E-02  9.6627994E-15
  0.1200000      1.1191356E-14
  0.1800000      9.9221634E-15
  0.2400000      5.2888301E-15
  0.3000000     -2.3791070E-15
  0.3600000     -1.1599644E-14
  0.4200000     -1.9818545E-14
  0.4800000     -2.4001521E-14
  0.5400000     -2.1728855E-14
  0.6000000     -1.2472306E-14
  0.6600000      1.5485336E-15
  0.7200000      1.5568823E-14
  0.7800000      2.3826815E-14
  0.8400000      2.2079562E-14
  0.9000000      1.0046066E-14
  0.9600000     -7.5094663E-15
   1.020000     -2.1919600E-14
   1.080000     -2.3864377E-14
   1.140000     -7.5429385E-15
   1.200000      2.5998558E-14
   1.260000      6.7887312E-14
   1.320000      1.0333177E-13
   1.380000      1.1581380E-13
   1.440000      9.2226899E-14
   1.500000      2.7546755E-14
   1.560000     -7.2007870E-14
   1.620000     -1.8799686E-13
   1.680000     -2.9153427E-13
   1.740000     -3.4835790E-13
   1.800000     -3.2725683E-13
   1.860000     -2.1066510E-13
   1.920000     -4.5258766E-15
   1.980000      2.5661398E-13
   2.040000      5.1279407E-13
   2.100000      6.9108960E-13
   2.160000      7.2464826E-13
   2.220000      5.7269635E-13
   2.280000      2.3529052E-13
   2.340000     -2.4133541E-13
   2.400000     -7.6952225E-13
   2.460000     -1.2329809E-12
   2.520000     -1.5049522E-12
   2.580000     -1.4701933E-12
   2.640000     -1.0502326E-12
   2.700000     -2.3015658E-13
   2.760000      9.1836391E-13
   2.820000      2.2268372E-12
   2.880000      3.4419368E-12
   2.940000      4.2639178E-12
   3.000000      4.4058646E-12
   3.060000      3.6583943E-12
   3.120000      1.9404125E-12
   3.180000     -6.7827552E-13
   3.240000     -3.9839152E-12
   3.300000     -7.6426096E-12
   3.360000     -1.1220725E-11
   3.420000     -1.4185505E-11
   3.480000     -1.5883631E-11
   3.540000     -1.5513067E-11
   3.600000     -1.2115094E-11
   3.660000     -4.6123981E-12
   3.720000      8.0956873E-12
   3.780000      2.6992132E-11
   3.840000      5.2787653E-11
   3.900000      8.5794656E-11
   3.960000      1.2586594E-10
   4.020000      1.7241363E-10
   4.080000      2.2449667E-10
   4.140000      2.8094144E-10
   4.200000      3.4045000E-10
   4.260000      4.0165857E-10
   4.320000      4.6313439E-10
   4.380000      5.2332916E-10
   4.440000      5.8053096E-10
   4.500000      6.3286193E-10
   4.560000      6.7835021E-10
   4.620000      7.1507406E-10
   4.680000      7.4134282E-10
   4.740000      7.5586415E-10
   4.800000      7.5785178E-10
   4.860000      7.4705325E-10
   4.920000      7.2370571E-10
   4.980000      6.8844730E-10
   5.040000      6.4221661E-10
   5.100000      5.8615912E-10
   5.160000      5.2154731E-10
   5.220000      4.4971510E-10
   5.280000      3.7200545E-10
   5.340000      2.8973685E-10
   5.400000      2.0419286E-10
   5.460000      1.1662910E-10
   5.520000      2.8281317E-11
   5.580000     -5.9646989E-11
   5.640000     -1.4602908E-10
   5.700000     -2.2988302E-10
   5.760000     -3.1043776E-10
   5.820000     -3.8717130E-10
   5.880000     -4.5981410E-10
   5.940000     -5.2833904E-10
   6.000000     -5.9297267E-10
   6.060000     -6.5424821E-10
   6.120000     -7.1307660E-10
   6.180000     -7.7076973E-10
   6.240000     -8.2893359E-10
   6.300000     -8.8918473E-10
   6.360000     -9.5272379E-10
   6.420000     -1.0198857E-09
   6.480000     -1.0898302E-09
   6.540000     -1.1605096E-09
   6.600000     -1.2289569E-09
   6.660000     -1.2918175E-09
   6.720000     -1.3459526E-09
   6.780000     -1.3889327E-09
   6.840000     -1.4192993E-09
   6.900000     -1.4365767E-09
   6.960000     -1.4411186E-09
   7.020000     -1.4339069E-09
   7.080000     -1.4164034E-09
   7.140000     -1.3904780E-09
   7.200000     -1.3583774E-09
   7.260000     -1.3226734E-09
   7.320000     -1.2861471E-09
   7.380000     -1.2516200E-09
   7.440000     -1.2217761E-09
   7.500000     -1.1990200E-09
   7.560000     -1.1853809E-09
   7.620000     -1.1824228E-09
   7.680000     -1.1911047E-09
   7.740000     -1.2115593E-09
   7.800000     -1.2428297E-09
   7.860000     -1.2826650E-09
   7.920000     -1.3275080E-09
   7.980000     -1.3727711E-09
   8.040000     -1.4134008E-09
   8.100000     -1.4446311E-09
   8.160000     -1.4627516E-09
   8.220000     -1.4657113E-09
   8.280000     -1.4534263E-09
   8.340000     -1.4277417E-09
   8.400000     -1.3920665E-09
   8.460000     -1.3507450E-09
   8.520000     -1.3082586E-09
   8.580000     -1.2683806E-09
   8.640000     -1.2334472E-09
   8.700000     -1.2039373E-09
   8.760000     -1.1785302E-09
   8.820000     -1.1546942E-09
   8.880000     -1.1296709E-09
   8.940000     -1.1015260E-09
   9.000000     -1.0698420E-09
   9.060000     -1.0357195E-09
   9.120000     -1.0010279E-09
   9.180000     -9.6720054E-10
   9.240000     -9.3413477E-10
   9.300000     -8.9977453E-10
   9.360000     -8.6068097E-10
   9.420000     -8.1343432E-10
   9.480000     -7.5628187E-10
   9.540000     -6.9025918E-10
   9.600000     -6.1920402E-10
   9.660000     -5.4855676E-10
   9.720000     -4.8340215E-10
   9.780000     -4.2656742E-10
   9.840000     -3.7758355E-10
   9.900000     -3.3293829E-10
   9.960000     -2.8748690E-10
   10.02000     -2.3640656E-10
   10.08000     -1.7689605E-10
   10.14000     -1.0899646E-10
   10.20000     -3.5330686E-11
   10.26000      3.9986323E-11
   10.32000      1.1272838E-10
   10.38000      1.7967181E-10
   10.44000      2.3909552E-10
   10.50000      2.9063163E-10
   10.56000      3.3469472E-10
   10.62000      3.7183992E-10
   10.68000      4.0235579E-10
   10.74000      4.2623882E-10
   10.80000      4.4349818E-10
   10.86000      4.5457546E-10
   10.92000      4.6059562E-10
   10.98000      4.6322335E-10
   11.04000      4.6407367E-10
   11.10000      4.6386125E-10
   11.16000      4.6167170E-10
   11.22000      4.5478743E-10
   11.28000      4.3933510E-10
   11.34000      4.1167469E-10
   11.40000      3.7006367E-10
   11.46000      3.1590180E-10
   11.52000      2.5394387E-10
   11.58000      1.9127101E-10
   11.64000      1.3536954E-10
   11.70000      9.2108578E-11
   11.76000      6.4491766E-11
   11.82000      5.2709372E-11
   11.88000      5.5385332E-11
   11.94000      7.1310784E-11
   12.00000      1.0068923E-10
   12.06000      1.4514487E-10
   12.12000      2.0636814E-10
   12.18000      2.8399624E-10
   12.24000      3.7380218E-10
   12.30000      4.6725751E-10
   12.36000      5.5302818E-10
   12.42000      6.2016764E-10
   12.48000      6.6201311E-10
   12.54000      6.7937989E-10
   12.60000      6.8175116E-10
   12.66000      6.8576234E-10
   12.72000      7.1117462E-10
   12.78000      7.7542150E-10
   12.84000      8.8838648E-10
   12.90000      1.0490950E-09
   12.96000      1.2454452E-09
   13.02000      1.4571108E-09
   13.08000      1.6606795E-09
   13.14000      1.8353291E-09
   13.20000      1.9672046E-09
   13.26000      2.0512085E-09
   13.32000      2.0899336E-09
   13.38000      2.0905266E-09
   13.44000      2.0609550E-09
   13.50000      2.0071691E-09
   13.56000      1.9320963E-09
   13.62000      1.8365153E-09
   13.68000      1.7210912E-09
   13.74000      1.5884617E-09
   13.80000      1.4443943E-09
   13.86000      1.2975067E-09
   13.92000      1.1576506E-09
   13.98000      1.0335443E-09
   14.04000      9.3048319E-10
   14.10000      8.4892376E-10
   14.16000      7.8447038E-10
   14.22000      7.2936757E-10
   14.28000      6.7510986E-10
   14.34000      6.1535949E-10
   14.40000      5.4816646E-10
   14.46000      4.7665227E-10
   14.52000      4.0784096E-10
   14.58000      3.5003939E-10
   14.64000      3.0977462E-10
   14.70000      2.8949218E-10
   14.76000      2.8688416E-10
   14.82000      2.9598607E-10
   14.88000      3.0941649E-10
   14.94000      3.2070824E-10
   15.00000      3.2578920E-10
   15.06000      3.2322053E-10
   15.12000      3.1345671E-10
   15.18000      2.9780428E-10
   15.24000      2.7773189E-10
   15.30000      2.5481578E-10
   15.36000      2.3115326E-10
   15.42000      2.0982036E-10
   15.48000      1.9499595E-10
   15.54000      1.9162909E-10
   15.60000      2.0478436E-10
   15.66000      2.3890406E-10
   15.72000      2.9716141E-10
   15.78000      3.8096107E-10
   15.84000      4.8959936E-10
   15.90000      6.2015398E-10
   15.96000      7.6775070E-10
   16.02000      9.2632724E-10
   16.08000      1.0898249E-09
   16.14000      1.2534916E-09
   16.20000      1.4148179E-09
   16.26000      1.5737012E-09
   16.32000      1.7317164E-09
   16.38000      1.8907294E-09
   16.44000      2.0513309E-09
   16.50000      2.2116027E-09
   16.56000      2.3665756E-09
   16.62000      2.5085396E-09
   16.68000      2.6281921E-09
   16.74000      2.7164602E-09
   16.80000      2.7666611E-09
   16.86000      2.7764187E-09
   16.92000      2.7486065E-09
   16.98000      2.6906886E-09
   17.04000      2.6123332E-09
   17.10000      2.5219904E-09
   17.16000      2.4237967E-09
   17.22000      2.3163276E-09
   17.28000      2.1940210E-09
   17.34000      2.0508419E-09
   17.40000      1.8845274E-09
   17.46000      1.6992734E-09
   17.52000      1.5053822E-09
   17.58000      1.3158706E-09
   17.64000      1.1416186E-09
   17.70000      9.8738961E-10
   17.76000      8.5059348E-10
   17.82000      7.2323275E-10
   17.88000      5.9590327E-10
   17.94000      4.6185589E-10
   18.00000      3.1937508E-10
   18.06000      1.7181014E-10
   18.12000      2.5798612E-11
   18.18000     -1.1113759E-10
   18.24000     -2.3259071E-10
   18.30000     -3.3446657E-10
   18.36000     -4.1557160E-10
   18.42000     -4.7790905E-10
   18.48000     -5.2673077E-10
   18.54000     -5.7006244E-10
   18.60000     -6.1742117E-10
   18.66000     -6.7784384E-10
   18.72000     -7.5785384E-10
   18.78000     -8.6019897E-10
   18.84000     -9.8388153E-10
   18.90000     -1.1253372E-09
   18.96000     -1.2800538E-09
   19.02000     -1.4438183E-09
   19.08000     -1.6131924E-09
   19.14000     -1.7854097E-09
   19.20000     -1.9582147E-09
   19.26000     -2.1300115E-09
   19.32000     -2.3002296E-09
   19.38000     -2.4694391E-09
   19.44000     -2.6388214E-09
   19.50000     -2.8090721E-09
   19.56000     -2.9793392E-09
   19.62000     -3.1469169E-09
   19.68000     -3.3080176E-09
   19.74000     -3.4592322E-09
   19.80000     -3.5988159E-09
   19.86000     -3.7270262E-09
   19.92000     -3.8453591E-09
   19.98000     -3.9552268E-09
   20.04000     -4.0569184E-09
   20.10000     -4.1493666E-09
   20.16000     -4.2306034E-09
   20.22000     -4.2983230E-09
   20.28000     -4.3500270E-09
   20.34000     -4.3827657E-09
   20.40000     -4.3930131E-09
   20.46000     -4.3772537E-09
   20.52000     -4.3333372E-09
   20.58000     -4.2619037E-09
   20.64000     -4.1668136E-09
   20.70000     -4.0539265E-09
   20.76000     -3.9285375E-09
   20.82000     -3.7927066E-09
   20.88000     -3.6439274E-09
   20.94000     -3.4759051E-09
   21.00000     -3.2810366E-09
   21.06000     -3.0532834E-09
   21.12000     -2.7900593E-09
   21.18000     -2.4924969E-09
   21.24000     -2.1644821E-09
   21.30000     -1.8114255E-09
   21.36000     -1.4395563E-09
   21.42000     -1.0558262E-09
   21.48000     -6.6786571E-10
   21.54000     -2.8339070E-10
   21.60000      9.1031460E-11
   21.66000      4.5128640E-10
   21.72000      7.9627971E-10
   21.78000      1.1273473E-09
   21.84000      1.4468249E-09
   21.90000      1.7566127E-09
   21.96000      2.0574888E-09
   22.02000      2.3493241E-09
   22.08000      2.6317042E-09
   22.14000      2.9042835E-09
   22.20000      3.1665752E-09
   22.26000      3.4175029E-09
   22.32000      3.6553298E-09
   22.38000      3.8783003E-09
   22.44000      4.0856705E-09
   22.50000      4.2783119E-09
   22.56000      4.4582360E-09
   22.62000      4.6271325E-09
   22.68000      4.7848170E-09
   22.74000      4.9287099E-09
   22.80000      5.0548814E-09
   22.86000      5.1601199E-09
   22.92000      5.2437450E-09
   22.98000      5.3079532E-09
   23.04000      5.3564446E-09
   23.10000      5.3922000E-09
   23.16000      5.4158207E-09
   23.22000      5.4254055E-09
   23.28000      5.4178870E-09
   23.34000      5.3908082E-09
   23.40000      5.3433955E-09
   23.46000      5.2764824E-09
   23.52000      5.1917648E-09
   23.58000      5.0913296E-09
   23.64000      4.9779860E-09
   23.70000      4.8560476E-09
   23.76000      4.7315902E-09
   23.82000      4.6114166E-09
   23.88000      4.5009210E-09
   23.94000      4.4020489E-09
   24.00000      4.3127679E-09
   24.06000      4.2286468E-09
   24.12000      4.1457615E-09
   24.18000      4.0631631E-09
   24.24000      3.9833257E-09
   24.30000      3.9102352E-09
   24.36000      3.8463153E-09
   24.42000      3.7901433E-09
   24.48000      3.7363979E-09
   24.54000      3.6780270E-09
   24.60000      3.6092465E-09
   24.66000      3.5275567E-09
   24.72000      3.4337475E-09
   24.78000      3.3302232E-09
   24.84000      3.2189795E-09
   24.90000      3.1005742E-09
   24.96000      2.9745331E-09
   25.02000      2.8405895E-09
   25.08000      2.6996698E-09
   25.14000      2.5539399E-09
   25.20000      2.4060680E-09
   25.26000      2.2584845E-09
   25.32000      2.1133362E-09
   25.38000      1.9731803E-09
   25.44000      1.8417753E-09
   25.50000      1.7241908E-09
   25.56000      1.6259366E-09
   25.62000      1.5515570E-09
   25.68000      1.5035223E-09
   25.74000      1.4820051E-09
   25.80000      1.4854541E-09
   25.86000      1.5113136E-09
   25.92000      1.5562480E-09
   25.98000      1.6157804E-09
   26.04000      1.6839120E-09
   26.10000      1.7534822E-09
   26.16000      1.8175764E-09
   26.22000      1.8714832E-09
   26.28000      1.9141599E-09
   26.34000      1.9483042E-09
   26.40000      1.9788990E-09
   26.46000      2.0109845E-09
   26.52000      2.0477962E-09
   26.58000      2.0900774E-09
   26.64000      2.1365900E-09
   26.70000      2.1851720E-09
   26.76000      2.2335944E-09
   26.82000      2.2798965E-09
   26.88000      2.3224633E-09
   26.94000      2.3603062E-09
   27.00000      2.3936999E-09
   27.06000      2.4247673E-09
   27.12000      2.4573177E-09
   27.18000      2.4955378E-09
   27.24000      2.5418865E-09
   27.30000      2.5952367E-09
   27.36000      2.6504101E-09
   27.42000      2.6996130E-09
   27.48000      2.7352354E-09
   27.54000      2.7527054E-09
   27.60000      2.7520166E-09
   27.66000      2.7372689E-09
   27.72000      2.7145879E-09
   27.78000      2.6895264E-09
   27.84000      2.6651388E-09
   27.90000      2.6413969E-09
   27.96000      2.6158680E-09
   28.02000      2.5850573E-09
   28.08000      2.5457434E-09
   28.14000      2.4958706E-09
   28.20000      2.4348976E-09
   28.26000      2.3636844E-09
   28.32000      2.2840339E-09
   28.38000      2.1979856E-09
   28.44000      2.1070083E-09
   28.50000      2.0113389E-09
   28.56000      1.9097577E-09
   28.62000      1.7999684E-09
   28.68000      1.6794840E-09
   28.74000      1.5466577E-09
   28.80000      1.4014097E-09
   28.86000      1.2453538E-09
   28.92000      1.0813350E-09
   28.98000      9.1264529E-10
   29.04000      7.4227319E-10
   29.10000      5.7243371E-10
   29.16000      4.0444456E-10
   29.22000      2.3888921E-10
   29.28000      7.5977710E-11
   29.34000     -8.3972912E-11
   29.40000     -2.4004670E-10
   29.46000     -3.9041353E-10
   29.52000     -5.3242660E-10
   29.58000     -6.6326544E-10
   29.64000     -7.8099233E-10
   29.70000     -8.8557817E-10
   29.76000     -9.7933239E-10
   29.82000     -1.0663579E-09
   29.88000     -1.1511250E-09
   29.94000     -1.2367524E-09
   30.00000     -1.3238092E-09
   30.06000     -1.4102455E-09
   30.12000     -1.4925056E-09
   30.18000     -1.5672935E-09
   30.24000     -1.6331618E-09
   30.30000     -1.6912304E-09
   30.36000     -1.7448113E-09
   30.42000     -1.7982332E-09
   30.48000     -1.8554447E-09
   30.54000     -1.9189283E-09
   30.60000     -1.9891877E-09
   30.66000     -2.0647577E-09
   30.72000     -2.1425512E-09
   30.78000     -2.2183757E-09
   30.84000     -2.2875544E-09
   30.90000     -2.3456510E-09
   30.96000     -2.3892339E-09
   31.02000     -2.4165130E-09
   31.08000     -2.4276330E-09
   31.14000     -2.4244826E-09
   31.20000     -2.4100761E-09
   31.26000     -2.3877444E-09
   31.32000     -2.3604505E-09
   31.38000     -2.3304492E-09
   31.44000     -2.2993067E-09
   31.50000     -2.2681006E-09
   31.56000     -2.2375457E-09
   31.62000     -2.2078912E-09
   31.68000     -2.1786317E-09
   31.74000     -2.1482598E-09
   31.80000     -2.1143343E-09
   31.86000     -2.0740054E-09
   31.92000     -2.0249045E-09
   31.98000     -1.9660567E-09
   32.04000     -1.8984045E-09
   32.10000     -1.8246691E-09
   32.16000     -1.7485765E-09
   32.22000     -1.6738023E-09
   32.28000     -1.6031279E-09
   32.34000     -1.5381872E-09
   32.40000     -1.4798502E-09
   32.46000     -1.4289145E-09
   32.52000     -1.3865996E-09
   32.58000     -1.3544580E-09
   32.64000     -1.3336859E-09
   32.70000     -1.3242109E-09
   32.76000     -1.3241035E-09
   32.82000     -1.3296995E-09
   32.88000     -1.3364068E-09
   32.94000     -1.3397801E-09
   33.00000     -1.3363125E-09
   33.06000     -1.3236032E-09
   33.12000     -1.2999830E-09
   33.18000     -1.2640168E-09
   33.24000     -1.2143468E-09
   33.30000     -1.1500615E-09
   33.36000     -1.0713597E-09
   33.42000     -9.8002917E-10
   33.48000     -8.7931773E-10
   33.54000     -7.7313017E-10
   33.60000     -6.6487932E-10
   33.66000     -5.5651239E-10
   33.72000     -4.4811480E-10
   33.78000     -3.3816219E-10
   33.84000     -2.2418396E-10
   33.90000     -1.0349405E-10
   33.96000      2.6235751E-11
   34.02000      1.6658097E-10
   34.08000      3.1806155E-10
   34.14000      4.7989906E-10
   34.20000      6.4994421E-10
   34.26000      8.2494117E-10
   34.32000      1.0011807E-09
   34.38000      1.1753500E-09
   34.44000      1.3452096E-09
   34.50000      1.5097614E-09
   34.56000      1.6688579E-09
   34.62000      1.8225368E-09
   34.68000      1.9705462E-09
   34.74000      2.1123892E-09
   34.80000      2.2478566E-09
   34.86000      2.3776465E-09
   34.92000      2.5035580E-09
   34.98000      2.6279725E-09
   35.04000      2.7527411E-09
   35.10000      2.8779645E-09
   35.16000      3.0012446E-09
   35.22000      3.1177796E-09
   35.28000      3.2213252E-09
   35.34000      3.3057306E-09
   35.40000      3.3666085E-09
   35.46000      3.4027079E-09
   35.52000      3.4166150E-09
   35.58000      3.4145109E-09
   35.64000      3.4048548E-09
   35.70000      3.3961454E-09
   35.76000      3.3942937E-09
   35.82000      3.4004819E-09
   35.88000      3.4104166E-09
   35.94000      3.4154910E-09
   36.00000      3.4056173E-09
   36.06000      3.3727208E-09
   36.12000      3.3135199E-09
   36.18000      3.2304770E-09
   36.24000      3.1305802E-09
   36.30000      3.0225447E-09
   36.36000      2.9136171E-09
   36.42000      2.8071889E-09
   36.48000      2.7019622E-09
   36.54000      2.5927405E-09
   36.60000      2.4723970E-09
   36.66000      2.3343261E-09
   36.72000      2.1746778E-09
   36.78000      1.9937734E-09
   36.84000      1.7962491E-09
   36.90000      1.5897441E-09
   36.96000      1.3823697E-09
   37.02000      1.1797573E-09
   37.08000      9.8284891E-10
   37.14000      7.8751922E-10
   37.20000      5.8644195E-10
   37.26000      3.7260017E-10
   37.32000      1.4297592E-10
   37.38000     -9.9230756E-11
   37.44000     -3.4487313E-10
   37.50000     -5.8149185E-10
   37.56000     -7.9714080E-10
   37.62000     -9.8383268E-10
   37.68000     -1.1394100E-09
   37.74000     -1.2674939E-09
   37.80000     -1.3759253E-09
   37.86000     -1.4744503E-09
   37.92000     -1.5722689E-09
   37.98000     -1.6758073E-09
   38.04000     -1.7869708E-09
   38.10000     -1.9022557E-09
   38.16000     -2.0132029E-09
   38.22000     -2.1084534E-09
   38.28000     -2.1770441E-09
   38.34000     -2.2118694E-09
   38.40000     -2.2119055E-09
   38.46000     -2.1821953E-09
   38.52000     -2.1315840E-09
   38.58000     -2.0692714E-09
   38.64000     -2.0017512E-09
   38.70000     -1.9313970E-09
   38.76000     -1.8569947E-09
   38.82000     -1.7755651E-09
   38.88000     -1.6843792E-09
   38.94000     -1.5822988E-09
   39.00000     -1.4702074E-09
   39.06000     -1.3507991E-09
   39.12000     -1.2280978E-09
   39.18000     -1.1068282E-09
   39.24000     -9.9152553E-10
   39.30000     -8.8533014E-10
   39.36000     -7.8876722E-10
   39.42000     -6.9914574E-10
   39.48000     -6.1116512E-10
   39.54000     -5.1879806E-10
   39.60000     -4.1780557E-10
   39.66000     -3.0780470E-10
   39.72000     -1.9295691E-10
   39.78000     -8.1008547E-11
   39.84000      1.8821812E-11
   39.90000      9.8195771E-11
   39.96000      1.5144400E-10
   40.02000      1.7643922E-10
   40.08000      1.7462656E-10
   40.14000      1.5043417E-10
   40.20000      1.1019880E-10
   40.26000      6.0667138E-11
   40.32000      7.2665363E-12
   40.38000     -4.7365296E-11
   40.44000     -1.0393403E-10
   40.50000     -1.6568792E-10
   40.56000     -2.3642791E-10
   40.62000     -3.1814559E-10
   40.68000     -4.0938411E-10
   40.74000     -5.0509735E-10
   40.80000     -5.9805089E-10
   40.86000     -6.8110917E-10
   40.92000     -7.4948786E-10
   40.98000     -8.0227741E-10
   41.04000     -8.4298535E-10
   41.10000     -8.7913954E-10
   41.16000     -9.2100921E-10
   41.22000     -9.7943587E-10
   41.28000     -1.0629304E-09
   41.34000     -1.1746897E-09
   41.40000     -1.3107103E-09
   41.46000     -1.4602076E-09
   41.52000     -1.6087758E-09
   41.58000     -1.7433879E-09
   41.64000     -1.8571840E-09
   41.70000     -1.9518120E-09
   41.76000     -2.0361512E-09
   41.82000     -2.1220323E-09
   41.88000     -2.2190543E-09
   41.94000     -2.3309139E-09
   42.00000     -2.4546711E-09
   42.06000     -2.5827347E-09
   42.12000     -2.7061122E-09
   42.18000     -2.8172658E-09
   42.24000     -2.9116876E-09
   42.30000     -2.9882985E-09
   42.36000     -3.0492688E-09
   42.42000     -3.0995988E-09
   42.48000     -3.1462404E-09
   42.54000     -3.1963303E-09
   42.60000     -3.2545966E-09
   42.66000     -3.3208620E-09
   42.72000     -3.3890593E-09
   42.78000     -3.4487495E-09
   42.84000     -3.4888781E-09
   42.90000     -3.5021634E-09
   42.96000     -3.4880130E-09
   43.02000     -3.4525549E-09
   43.08000     -3.4058654E-09
   43.14000     -3.3578391E-09
   43.20000     -3.3145962E-09
   43.26000     -3.2767109E-09
   43.32000     -3.2394671E-09
   43.38000     -3.1944987E-09
   43.44000     -3.1320178E-09
   43.50000     -3.0431504E-09
   43.56000     -2.9221467E-09
   43.62000     -2.7681291E-09
   43.68000     -2.5857088E-09
   43.74000     -2.3837785E-09
   43.80000     -2.1724214E-09
   43.86000     -1.9589705E-09
   43.92000     -1.7450579E-09
   43.98000     -1.5262946E-09
   44.04000     -1.2949526E-09
   44.10000     -1.0443293E-09
   44.16000     -7.7250106E-10
   44.22000     -4.8356902E-10
   44.28000     -1.8604542E-10
   44.34000      1.1029455E-10
   44.40000      3.9709092E-10
   44.46000      6.6829514E-10
   44.52000      9.1945085E-10
   44.58000      1.1466580E-09
   44.64000      1.3464972E-09
   44.70000      1.5171232E-09
   44.76000      1.6595357E-09
   44.82000      1.7777060E-09
   44.88000      1.8770638E-09
   44.94000      1.9621840E-09
   45.00000      2.0352662E-09
   45.06000      2.0965212E-09
   45.12000      2.1461635E-09
   45.18000      2.1864379E-09
   45.24000      2.2219975E-09
   45.30000      2.2581323E-09
   45.36000      2.2980076E-09
   45.42000      2.3409288E-09
   45.48000      2.3830307E-09
   45.54000      2.4200955E-09
   45.60000      2.4506595E-09
   45.66000      2.4773092E-09
   45.72000      2.5053066E-09
   45.78000      2.5395162E-09
   45.84000      2.5817284E-09
   45.90000      2.6300722E-09
   45.96000      2.6806761E-09
   46.02000      2.7301759E-09
   46.08000      2.7772589E-09
   46.14000      2.8223737E-09
   46.20000      2.8662128E-09
   46.26000      2.9084626E-09
   46.32000      2.9479084E-09
   46.38000      2.9837106E-09
   46.44000      3.0165730E-09
   46.50000      3.0485490E-09
   46.56000      3.0813661E-09
   46.62000      3.1144998E-09
   46.68000      3.1446765E-09
   46.74000      3.1675644E-09
   46.80000      3.1807725E-09
   46.86000      3.1861276E-09
   46.92000      3.1894789E-09
   46.98000      3.1978793E-09
   47.04000      3.2158041E-09
   47.10000      3.2427978E-09
   47.16000      3.2740441E-09
   47.22000      3.3034384E-09
   47.28000      3.3271428E-09
   47.34000      3.3454091E-09
   47.40000      3.3617260E-09
   47.46000      3.3801517E-09
   47.52000      3.4027492E-09
   47.58000      3.4286924E-09
   47.64000      3.4552603E-09
   47.70000      3.4796011E-09
   47.76000      3.4998435E-09
   47.82000      3.5149113E-09
   47.88000      3.5235916E-09
   47.94000      3.5240248E-09
   48.00000      3.5143624E-09
   48.06000      3.4942775E-09
   48.12000      3.4661580E-09
   48.18000      3.4348915E-09
   48.24000      3.4061067E-09
   48.30000      3.3838479E-09
   48.36000      3.3690990E-09
   48.42000      3.3600183E-09
   48.48000      3.3536107E-09
   48.54000      3.3476915E-09
   48.60000      3.3419687E-09
   48.66000      3.3378311E-09
   48.72000      3.3373340E-09
   48.78000      3.3422687E-09
   48.84000      3.3538508E-09
   48.90000      3.3728669E-09
   48.96000      3.3997167E-09
   49.02000      3.4339902E-09
   49.08000      3.4738421E-09
   49.14000      3.5158616E-09
   49.20000      3.5559391E-09
   49.26000      3.5908820E-09
   49.32000      3.6198280E-09
   49.38000      3.6444268E-09
   49.44000      3.6674876E-09
   49.50000      3.6908478E-09
   49.56000      3.7138024E-09
   49.62000      3.7331227E-09
   49.68000      3.7446442E-09
   49.74000      3.7453733E-09
   49.80000      3.7347982E-09
   49.86000      3.7147554E-09
   49.92000      3.6882732E-09
   49.98000      3.6584871E-09
   50.04000      3.6284800E-09
   50.10000      3.6019816E-09
   50.16000      3.5839982E-09
   50.22000      3.5803822E-09
   50.28000      3.5961571E-09
   50.34000      3.6335139E-09
   50.40000      3.6909111E-09
   50.46000      3.7641721E-09
   50.52000      3.8492205E-09
   50.58000      3.9449439E-09
   50.64000      4.0545145E-09
   50.70000      4.1843888E-09
   50.76000      4.3416177E-09
   50.82000      4.5310125E-09
   50.88000      4.7536393E-09
   50.94000      5.0071103E-09
   51.00000      5.2870730E-09
   51.06000      5.5887850E-09
   51.12000      5.9080278E-09
   51.18000      6.2413581E-09
   51.24000      6.5861876E-09
   51.30000      6.9410806E-09
   51.36000      7.3060717E-09
   51.42000      7.6824218E-09
   51.48000      8.0713862E-09
   51.54000      8.4722531E-09
   51.60000      8.8806127E-09
   51.66000      9.2878745E-09
   51.72000      9.6824548E-09
   51.78000      1.0052037E-08
   51.84000      1.0385709E-08
   51.90000      1.0674875E-08
   51.96000      1.0912618E-08
   52.02000      1.1092043E-08
   52.08000      1.1204534E-08
   52.14000      1.1238611E-08
   52.20000      1.1179511E-08
   52.26000      1.1009208E-08
   52.32000      1.0706620E-08
   52.38000      1.0248046E-08
   52.44000      9.6080877E-09
   52.50000      8.7611678E-09
   52.56000      7.6832567E-09
   52.62000      6.3530967E-09
   52.68000      4.7522524E-09
   52.74000      2.8638920E-09
   52.80000      6.7088474E-10
   52.86000     -1.8457729E-09
   52.92000     -4.7073545E-09
   52.98000     -7.9363716E-09
   53.04000     -1.1554506E-08
   53.10000     -1.5580273E-08
   53.16000     -2.0027231E-08
   53.22000     -2.4903210E-08
   53.28000     -3.0210714E-08
   53.34000     -3.5948233E-08
   53.40000     -4.2111946E-08
   53.46000     -4.8697082E-08
   53.52000     -5.5698226E-08
   53.58000     -6.3108324E-08
   53.64000     -7.0916691E-08
   53.70000     -7.9107039E-08
   53.76000     -8.7656296E-08
   53.82000     -9.6534791E-08
   53.88000     -1.0570725E-07
   53.94000     -1.1513357E-07
   54.00000     -1.2476862E-07
   54.06000     -1.3456082E-07
   54.12000     -1.4445085E-07
   54.18000     -1.5437151E-07
   54.24000     -1.6424956E-07
   54.30000     -1.7400852E-07
   54.36000     -1.8357140E-07
   54.42000     -1.9286132E-07
   54.48000     -2.0180023E-07
   54.54000     -2.1030675E-07
   54.60000     -2.1829460E-07
   54.66000     -2.2567318E-07
   54.72000     -2.3234946E-07
   54.78000     -2.3823023E-07
   54.84000     -2.4322333E-07
   54.90000     -2.4723806E-07
   54.96000     -2.5018539E-07
   55.02000     -2.5197954E-07
   55.08000     -2.5254070E-07
   55.14000     -2.5179801E-07
   55.20000     -2.4969080E-07
   55.26000     -2.4616710E-07
   55.32000     -2.4118089E-07
   55.38000     -2.3468969E-07
   55.44000     -2.2665481E-07
   55.50000     -2.1704410E-07
   55.56000     -2.0583586E-07