 -0.750000000       0.00000000    
 -0.689999998       0.00000000    
 -0.629999995       0.00000000    
 -0.569999993       0.00000000    
 -0.509999990       0.00000000    
 -0.449999988       0.00000000    
 -0.389999986       3.76433664E-23
 -0.330000013       1.99615964E-22
 -0.270000011       4.30083400E-23
 -0.209999993      -3.47941206E-21
 -0.150000006      -1.89914384E-20
  -9.00000036E-02  -5.96000563E-20
  -2.99999993E-02  -1.28029632E-19
   2.99999993E-02  -1.79626122E-19
   9.00000036E-02  -6.94949394E-20
  0.150000006       4.79000595E-19
  0.209999993       1.80580435E-18
  0.270000011       4.03871596E-18
  0.330000013       6.54028963E-18
  0.389999986       7.18423402E-18
  0.449999988       1.93006383E-18
  0.509999990      -1.44033718E-17
  0.569999993      -4.51412246E-17
  0.629999995      -8.62555289E-17
  0.689999998      -1.20051753E-16
  0.750000000      -1.12400835E-16
  0.810000002      -1.95705043E-17
  0.870000005       1.90991954E-16
  0.930000007       5.08189063E-16
  0.990000010       8.45581609E-16
   1.04999995       1.03169471E-15
   1.11000001       8.43763506E-16
   1.16999996       9.30849107E-17
   1.23000002      -1.25504491E-15
   1.28999996      -2.97120396E-15
   1.35000002      -4.52114085E-15
   1.40999997      -5.14545241E-15
   1.47000003      -4.07583233E-15
   1.52999997      -8.52332568E-16
   1.59000003       4.34656354E-15
   1.64999998       1.04859613E-14
   1.71000004       1.57004909E-14
   1.76999998       1.76608453E-14
   1.83000004       1.42897812E-14
   1.88999999       4.69535138E-15
   1.95000005      -9.97705794E-15
   2.00999999      -2.61927168E-14
   2.06999993      -3.85673549E-14
   2.13000011      -4.14371838E-14
   2.19000006      -3.11375715E-14
   2.25000000      -8.16933631E-15
   2.30999994       2.18274698E-14
   2.36999989       4.91368759E-14
   2.43000007       6.31344613E-14
   2.49000001       5.65779282E-14
   2.54999995       2.92431281E-14
   2.60999990      -1.09036688E-14
   2.67000008      -4.98963189E-14
   2.73000002      -7.27134282E-14
   2.78999996      -6.90138525E-14
   2.84999990      -3.72530308E-14
   2.91000009       1.44808363E-14
   2.97000003       7.10262741E-14
   3.02999997       1.14758734E-13
   3.08999991       1.30347488E-13
   3.15000010       1.08304716E-13
   3.21000004       4.70805205E-14
   3.26999998      -4.57960357E-14
   3.32999992      -1.53248060E-13
   3.39000010      -2.49534768E-13
   3.45000005      -3.03925586E-13
   3.50999999      -2.88148438E-13
   3.56999993      -1.86712516E-13
   3.63000011      -6.79902505E-15
   3.69000006       2.16941265E-13
   3.75000000       4.26427448E-13
   3.80999994       5.53641659E-13
   3.86999989       5.40295131E-13
   3.93000007       3.57698490E-13
   3.99000001       2.06667925E-14
   4.05000019      -4.08643442E-13
   4.11000013      -8.28150265E-13
   4.17000008      -1.11343877E-12
   4.23000002      -1.14329694E-12
   4.28999996      -8.30114135E-13
   4.34999990      -1.50407153E-13
   4.40999985       8.31771934E-13
   4.46999979       1.95751141E-12
   4.53000021       2.98921890E-12
   4.59000015       3.65157817E-12
   4.65000010       3.68928195E-12
   4.71000004       2.92550901E-12
   4.76999998       1.30326294E-12
   4.82999992      -1.10146354E-12
   4.88999987      -4.09249631E-12
   4.94999981      -7.37692286E-12
   5.01000023      -1.05782353E-11
   5.07000017      -1.32243374E-11
   5.13000011      -1.47114265E-11
   5.19000006      -1.42628834E-11
   5.25000000      -1.09132148E-11
   5.30999994      -3.54450193E-12
   5.36999989       9.01359976E-12
   5.42999983       2.78330674E-11
   5.48999977       5.37200978E-11
   5.55000019       8.70748335E-11
   5.61000013       1.27816091E-10
   5.67000008       1.75388301E-10
   5.73000002       2.28840738E-10
   5.78999996       2.86945551E-10
   5.84999990       3.48309992E-10
   5.90999985       4.11445822E-10
   5.96999979       4.74781270E-10
   6.03000021       5.36631406E-10
   6.09000015       5.95166638E-10
   6.15000010       6.48424314E-10
   6.21000004       6.94392710E-10
   6.26999998       7.31166294E-10
   6.32999992       7.57132745E-10
   6.38999987       7.71139486E-10
   6.44999981       7.72585995E-10
   6.51000023       7.61420760E-10
   6.57000017       7.38053230E-10
   6.63000011       7.03220093E-10
   6.69000006       6.57853605E-10
   6.75000000       6.02983163E-10
   6.80999994       5.39683132E-10
   6.86999989       4.69057015E-10
   6.92999983       3.92241961E-10
   6.98999977       3.10418358E-10
   7.05000019       2.24817970E-10
   7.11000013       1.36723480E-10
   7.17000008       4.74539262E-11
   7.23000002      -4.16722490E-11
   7.28999996      -1.29398381E-10
   7.34999990      -2.14606499E-10
   7.40999985      -2.96390745E-10
   7.46999979      -3.74109382E-10
   7.53000021      -4.47409693E-10
   7.59000015      -5.16241383E-10
   7.65000010      -5.80881454E-10
   7.71000004      -6.41981468E-10
   7.76999998      -7.00614344E-10
   7.82999992      -7.58261731E-10
   7.88999987      -8.16673673E-10
   7.94999981      -8.77566519E-10
   8.01000023      -9.42195322E-10
   8.06999969      -1.01091580E-09
   8.13000011      -1.08288778E-09
   8.18999958      -1.15605281E-09
   8.25000000      -1.22742416E-09
   8.31000042      -1.29361566E-09
   8.36999989      -1.35144773E-09
   8.43000031      -1.39844880E-09
   8.48999977      -1.43312751E-09
   8.55000019      -1.45499623E-09
   8.60999966      -1.46441859E-09
   8.67000008      -1.46240375E-09
   8.72999954      -1.45044499E-09
   8.78999996      -1.43043510E-09
   8.85000038      -1.40462830E-09
   8.90999985      -1.37558298E-09
   8.97000027      -1.34604239E-09
   9.02999973      -1.31875755E-09
   9.09000015      -1.29629807E-09
   9.14999962      -1.28090116E-09
   9.21000004      -1.27437827E-09
   9.27000046      -1.27804978E-09
   9.32999992      -1.29264743E-09
   9.39000034      -1.31814859E-09
   9.44999981      -1.35355771E-09
   9.51000023      -1.39672252E-09
   9.56999969      -1.44430823E-09
   9.63000011      -1.49202783E-09
   9.68999958      -1.53514823E-09
   9.75000000      -1.56918911E-09
   9.81000042      -1.59065794E-09
   9.86999989      -1.59763713E-09
   9.93000031      -1.59008762E-09
   9.98999977      -1.56980107E-09
   10.0500002      -1.54001756E-09
   10.1099997      -1.50478485E-09
   10.1700001      -1.46816759E-09
   10.2299995      -1.43344769E-09
   10.2900000      -1.40247636E-09
   10.3500004      -1.37534706E-09
   10.4099998      -1.35052125E-09
   10.4700003      -1.32542965E-09
   10.5299997      -1.29741040E-09
   10.5900002      -1.26467814E-09
   10.6499996      -1.22694654E-09
   10.7100000      -1.18541077E-09
   10.7700005      -1.14203869E-09
   10.8299999      -1.09843945E-09
   10.8900003      -1.05481524E-09
   10.9499998      -1.00952857E-09
   11.0100002      -9.59581303E-10
   11.0699997      -9.01884345E-10
   11.1300001      -8.34795233E-10
   11.1899996      -7.59214802E-10
   11.2500000      -6.78678391E-10
   11.3100004      -5.98305516E-10
   11.3699999      -5.22991095E-10
   11.4300003      -4.55586846E-10
   11.4899998      -3.95843497E-10
   11.5500002      -3.40564826E-10
   11.6099997      -2.84897689E-10
   11.6700001      -2.24207958E-10
   11.7299995      -1.55777571E-10
   11.7900000      -7.96860494E-11
   11.8500004       1.37411111E-12
   11.9099998       8.31483493E-11
   11.9700003       1.61223770E-10
   12.0299997       2.32214747E-10
   12.0900002       2.94340857E-10
   12.1499996       3.47317591E-10
   12.2100000       3.91768756E-10
   12.2700005       4.28522634E-10
   12.3299999       4.58132171E-10
   12.3900003       4.80800844E-10
   12.4499998       4.96674257E-10
   12.5100002       5.06274411E-10
   12.5699997       5.10773424E-10
   12.6300001       5.11867271E-10
   12.6899996       5.11202303E-10
   12.7500000       5.09548570E-10
   12.8100004       5.06109155E-10
   12.8699999       4.98382668E-10
   12.9300003       4.82814566E-10
   12.9899998       4.56130661E-10
   13.0500002       4.16883916E-10
   13.1099997       3.66559755E-10
   13.1700001       3.09692855E-10
   13.2299995       2.52846216E-10
   13.2900000       2.02820136E-10
   13.3500004       1.64838490E-10
   13.4099998       1.41500020E-10
   13.4700003       1.32928099E-10
   13.5299997       1.37965514E-10
   13.5900002       1.55728902E-10
   13.6499996       1.86636887E-10
   13.7100000       2.32272590E-10
   13.7700005       2.94031161E-10
   13.8299999       3.71154801E-10
   13.8900003       4.59159211E-10
   13.9499998       5.49605750E-10
   14.0100002       6.31678765E-10
   14.0699997       6.95287716E-10
   14.1300001       7.34729888E-10
   14.1899996       7.51596840E-10
   14.2500000       7.55729423E-10
   14.3100004       7.63600017E-10
   14.3699999       7.94343480E-10
   14.4300003       8.64488037E-10
   14.4899998       9.82967707E-10
   14.5500002       1.14801901E-09
   14.6099997       1.34702793E-09
   14.6700001       1.55944713E-09
   14.7299995       1.76187309E-09
   14.7900000       1.93363658E-09
   14.8500004       2.06112039E-09
   14.9099998       2.13953921E-09
   14.9700003       2.17190022E-09
   15.0299997       2.16589946E-09
   15.0900002       2.13018159E-09
   15.1499996       2.07143858E-09
   15.2100000       1.99328842E-09
   15.2700005       1.89701299E-09
   15.3299999       1.78348103E-09
   15.3900003       1.65517444E-09
   15.4499998       1.51735280E-09
   15.5100002       1.37783618E-09
   15.5699997       1.24549127E-09
   15.6300001       1.12798637E-09
   15.6899996       1.02963205E-09
   15.7500000       9.50089896E-10
   15.8100004       8.84462670E-10
   15.8699999       8.24851576E-10
   15.9300003       7.62978791E-10
   15.9899998       6.93063273E-10
   16.0499992       6.13960938E-10
   16.1100006       5.29755129E-10
   16.1700001       4.48498516E-10
   16.2299995       3.79512588E-10
   16.2900009       3.30237310E-10
   16.3500004       3.03820247E-10
   16.4099998       2.98316705E-10
   16.4699993       3.07675135E-10
   16.5300007       3.23935684E-10
   16.5900002       3.39638928E-10
   16.6499996       3.49511614E-10
   16.7099991       3.50988294E-10
   16.7700005       3.43741396E-10
   16.8299999       3.28795630E-10
   16.8899994       3.07822712E-10
   16.9500008       2.82910584E-10
   17.0100002       2.56718757E-10
   17.0699997       2.32705882E-10
   17.1299992       2.15142015E-10
   17.1900005       2.08813619E-10
   17.2500000       2.18517815E-10
   17.3099995       2.48499749E-10
   17.3700008       3.01920433E-10
   17.4300003       3.80359050E-10
   17.4899998       4.83365792E-10
   17.5499992       6.08188166E-10
   17.6100006       7.49893592E-10
   17.6700001       9.02070418E-10
   17.7299995       1.05807407E-09
   17.7900009       1.21248978E-09
   17.8500004       1.36228906E-09
   17.9099998       1.50720558E-09
   17.9699993       1.64914005E-09
   18.0300007       1.79077708E-09
   18.0900002       1.93387972E-09
   18.1499996       2.07780260E-09
   18.2099991       2.21866103E-09
   18.2700005       2.34940556E-09
   18.3299999       2.46086551E-09
   18.3899994       2.54362642E-09
   18.4500008       2.59036415E-09
   18.5100002       2.59798760E-09
   18.5699997       2.56875565E-09
   18.6299992       2.50969356E-09
   18.6900005       2.43018317E-09
   18.7500000       2.33846342E-09
   18.8099995       2.23847874E-09
   18.8700008       2.12862528E-09
   18.9300003       2.00322314E-09
   18.9899998       1.85623927E-09
   19.0499992       1.68555203E-09
   19.1100006       1.49559931E-09
   19.1700001       1.29693989E-09
   19.2299995       1.10277631E-09
   19.2900009       9.24047616E-10
   19.3500004       7.65446928E-10
   19.4099998       6.24223118E-10
   19.4699993       4.92191787E-10
   19.5300007       3.59815011E-10
   19.5900002       2.20349836E-10
   19.6499996       7.23072574E-11
   19.7099991      -8.04757858E-11
   19.7700005      -2.30655925E-10
   19.8299999      -3.69939995E-10
   19.8899994      -4.91316376E-10
   19.9500008      -5.90478222E-10
   20.0100002      -6.66507904E-10
   20.0699997      -7.22064908E-10
   20.1299992      -7.63142327E-10
   20.1900005      -7.98234645E-10
   20.2500000      -8.36815339E-10
   20.3099995      -8.87375007E-10
   20.3700008      -9.55658885E-10
   20.4300003      -1.04380860E-09
   20.4899998      -1.15072851E-09
   20.5499992      -1.27337052E-09
   20.6100006      -1.40818457E-09
   20.6700001      -1.55202173E-09
   20.7299995      -1.70226322E-09
   20.7900009      -1.85652105E-09
   20.8500004      -2.01248840E-09
   20.9099998      -2.16826135E-09
   20.9699993      -2.32291852E-09
   21.0300007      -2.47680187E-09
   21.0900002      -2.63104050E-09
   21.1499996      -2.78641266E-09
   21.2099991      -2.94217539E-09
   21.2700005      -3.09564463E-09
   21.3299999      -3.24287663E-09
   21.3899994      -3.38010997E-09
   21.4500008      -3.50513685E-09
   21.5100002      -3.61783403E-09
   21.5699997      -3.71963682E-09
   21.6299992      -3.81240151E-09
   21.6900005      -3.89736687E-09
   21.7500000      -3.97468680E-09
   21.8099995      -4.04347844E-09
   21.8700008      -4.10197387E-09
   21.9300003      -4.14745305E-09
   21.9899998      -4.17608126E-09
   22.0499992      -4.18314894E-09
   22.1100006      -4.16411350E-09
   22.1700001      -4.11627710E-09
   22.2299995      -4.04027123E-09
   22.2900009      -3.94030364E-09
   22.3500004      -3.82266752E-09
   22.4099998      -3.69298325E-09
   22.4699993      -3.55348573E-09
   22.5300007      -3.40176776E-09
   22.5900002      -3.23163318E-09
   22.6499996      -3.03556291E-09
   22.7099991      -2.80749912E-09
   22.7700005      -2.54463961E-09
   22.8299999      -2.24771779E-09
   22.8899994      -1.92016181E-09
   22.9500008      -1.56703917E-09
   23.0100002      -1.19445731E-09
   23.0699997      -8.09441847E-10
   23.1299992      -4.19775575E-10
   23.1900005      -3.32916299E-11
   23.2500000       3.43367723E-10
   23.3099995       7.05943970E-10
   23.3700008       1.05297981E-09
   23.4300003       1.38515899E-09
   23.4899998       1.70394754E-09
   23.5499992       2.01034367E-09
   23.6100006       2.30439290E-09
   23.6700001       2.58552579E-09
   23.7299995       2.85321033E-09
   23.7900009       3.10728820E-09
   23.8500004       3.34777428E-09
   23.9099998       3.57444851E-09
   23.9699993       3.78679799E-09
   24.0300007       3.98455580E-09
   24.0900002       4.16847712E-09
   24.1499996       4.34061498E-09
   24.2099991       4.50359217E-09
   24.2700005       4.65908601E-09
   24.3299999       4.80644813E-09
   24.3899994       4.94248331E-09
   24.4500008       5.06275777E-09
   24.5100002       5.16378940E-09
   24.5699997       5.24481525E-09
   24.6299992       5.30802780E-09
   24.6900005       5.35711830E-09
   24.7500000       5.39503686E-09
   24.8099995       5.42234391E-09
   24.8700008       5.43705037E-09
   24.9300003       5.43586998E-09
   24.9899998       5.41592193E-09
   25.0499992       5.37583800E-09
   25.1100006       5.31585664E-09
   25.1700001       5.23731769E-09
   25.2299995       5.14232523E-09
   25.2900009       5.03400388E-09
   25.3500004       4.91698371E-09
   25.4099998       4.79732032E-09
   25.4699993       4.68128603E-09
   25.5300007       4.57336080E-09
   25.5900002       4.47455495E-09
   25.6499996       4.38226788E-09
   25.7099991       4.29205960E-09
   25.7700005       4.20044488E-09
   25.8299999       4.10706802E-09
   25.8899994       4.01487332E-09
   25.9500008       3.92811472E-09
   26.0100002       3.84941679E-09
   26.0699997       3.77769283E-09
   26.1299992       3.70816666E-09
   26.1900005       3.63440411E-09
   26.2500000       3.55104923E-09
   26.3099995       3.45564044E-09
   26.3700008       3.34864314E-09
   26.4300003       3.23203131E-09
   26.4899998       3.10760084E-09
   26.5499992       2.97614133E-09
   26.6100006       2.83779422E-09
   26.6700001       2.69302824E-09
   26.7299995       2.54332533E-09
   26.7900009       2.39106379E-09
   26.8500004       2.23882113E-09
   26.9099998       2.08880935E-09
   26.9699993       1.94300731E-09
   27.0300007       1.80392257E-09
   27.0900002       1.67534342E-09
   27.1499996       1.56235469E-09
   27.2099991       1.47040369E-09
   27.2700005       1.40387468E-09
   27.3299999       1.36498179E-09
   27.3899994       1.35353151E-09
   27.4500008       1.36747935E-09
   27.5100002       1.40368406E-09
   27.5699997       1.45825430E-09
   27.6299992       1.52637303E-09
   27.6900005       1.60206715E-09
   27.7500000       1.67857550E-09
   27.8099995       1.74958736E-09
   27.8700008       1.81093718E-09
   27.9300003       1.86186344E-09
   27.9899998       1.90504790E-09
   28.0499992       1.94530281E-09
   28.1100006       1.98753658E-09
   28.1700001       2.03497796E-09
   28.2299995       2.08840212E-09
   28.2900009       2.14643348E-09
   28.3500004       2.20644525E-09
   28.4099998       2.26543739E-09
   28.4699993       2.32059461E-09
   28.5300007       2.36965136E-09
   28.5900002       2.41136000E-09
   28.6499996       2.44611309E-09
   28.7099991       2.47635135E-09
   28.7700005       2.50621079E-09
   28.8299999       2.54014121E-09
   28.8899994       2.58088462E-09
   28.9500008       2.62775690E-09
   29.0100002       2.67624567E-09
   29.0699997       2.71934586E-09
   29.1299992       2.75014389E-09
   29.1900005       2.76446666E-09
   29.2500000       2.76232748E-09
   29.3099995       2.74753620E-09
   29.3700008       2.72575562E-09
   29.4300003       2.70201195E-09
   29.4899998       2.67880118E-09
   29.5499992       2.65550226E-09
   29.6100006       2.62910427E-09
   29.6700001       2.59569743E-09
   29.7299995       2.55199950E-09
   29.7900009       2.49636822E-09
   29.8500004       2.42909182E-09
   29.9099998       2.35203790E-09
   29.9699993       2.26788166E-09
   30.0300007       2.17916285E-09
   30.0900002       2.08741202E-09
   30.1499996       1.99259098E-09
   30.2099991       1.89303861E-09
   30.2700005       1.78599857E-09
   30.3299999       1.66859038E-09
   30.3899994       1.53888946E-09
   30.4500008       1.39671019E-09
   30.5100002       1.24378896E-09
   30.5699997       1.08331810E-09
   30.6299992       9.19038068E-10
   30.6900005       7.54259932E-10
   30.7500000       5.91175553E-10
   30.8099995       4.30671609E-10
   30.8700008       2.72658784E-10
   30.9300003       1.16762058E-10
   30.9899998      -3.68972491E-11
   31.0499992      -1.87130214E-10
   31.1100006      -3.31578071E-10
   31.1700001      -4.67202610E-10
   31.2299995      -5.91273086E-10
   31.2900009      -7.02514935E-10
   31.3500004      -8.01936462E-10
   31.4099998      -8.92891816E-10
   31.4699993      -9.80211579E-10
   31.5300007      -1.06864106E-09
   31.5900002      -1.16118049E-09
   31.6499996      -1.25802579E-09
   31.7099991      -1.35659062E-09
   31.7700005      -1.45262535E-09
   31.8299999      -1.54197544E-09
   31.8899994      -1.62225366E-09
   31.9500008      -1.69377035E-09
   32.0099983      -1.75941717E-09
   32.0699997      -1.82363857E-09
   32.1300011      -1.89095206E-09
   32.1899986      -1.96455985E-09
   32.2500000      -2.04545070E-09
   32.3100014      -2.13214646E-09
   32.3699989      -2.22103114E-09
   32.4300003      -2.30708985E-09
   32.4900017      -2.38487563E-09
   32.5499992      -2.44953524E-09
   32.6100006      -2.49772603E-09
   32.6699982      -2.52822629E-09
   32.7299995      -2.54206300E-09
   32.7900009      -2.54207233E-09
   32.8499985      -2.53199484E-09
   32.9099998      -2.51541366E-09
   32.9700012      -2.49492138E-09
   33.0299988      -2.47182363E-09
   33.0900002      -2.44642351E-09
   33.1500015      -2.41863907E-09
   33.2099991      -2.38853182E-09
   33.2700005      -2.35639752E-09
   33.3300018      -2.32236030E-09
   33.3899994      -2.28574937E-09
   33.4500008      -2.24473173E-09
   33.5099983      -2.19657359E-09
   33.5699997      -2.13854134E-09
   33.6300011      -2.06906137E-09
   33.6899986      -1.98854289E-09
   33.7500000      -1.89941729E-09
   33.8100014      -1.80536852E-09
   33.8699989      -1.71017867E-09
   33.9300003      -1.61682923E-09
   33.9900017      -1.52730484E-09
   34.0499992      -1.44309342E-09
   34.1100006      -1.36591249E-09
   34.1699982      -1.29804312E-09
   34.2299995      -1.24190846E-09
   34.2900009      -1.19904686E-09
   34.3499985      -1.16906218E-09
   34.4099998      -1.14921317E-09
   34.4700012      -1.13495446E-09
   34.5299988      -1.12119836E-09
   34.5900002      -1.10364629E-09
   34.6500015      -1.07952902E-09
   34.7099991      -1.04747866E-09
   34.7700005      -1.00678477E-09
   34.8300018      -9.56627111E-10
   34.8899994      -8.95823138E-10
   34.9500008      -8.23234647E-10
   35.0099983      -7.38523465E-10
   35.0699997      -6.42716491E-10
   35.1300011      -5.38174394E-10
   35.1899986      -4.27932273E-10
   35.2500000      -3.14746257E-10
   35.3100014      -2.00306230E-10
   35.3699989      -8.49174411E-11
   35.4300003       3.23361754E-11
   35.4900017       1.53155114E-10
   35.5499992       2.79544665E-10
   35.6100006       4.13391238E-10
   35.6699982       5.56060420E-10
   35.7299995       7.07975012E-10
   35.7900009       8.68251138E-10
   35.8499985       1.03459341E-09
   35.9099998       1.20362675E-09
   35.9700012       1.37164768E-09
   36.0299988       1.53552082E-09
   36.0900002       1.69331360E-09
   36.1500015       1.84438287E-09
   36.2099991       1.98893613E-09
   36.2700005       2.12739448E-09
   36.3300018       2.25998420E-09
   36.3899994       2.38679365E-09
   36.4500008       2.50818277E-09
   36.5099983       2.62517319E-09
   36.5699997       2.73942202E-09
   36.6300011       2.85264501E-09
   36.6899986       2.96570257E-09
   36.7500000       3.07777026E-09
   36.8100014       3.18600213E-09
   36.8699989       3.28585625E-09
   36.9300003       3.37198558E-09
   36.9900017       3.43944739E-09
   37.0499992       3.48494900E-09
   37.1100006       3.50788221E-09
   37.1699982       3.51089446E-09
   37.2299995       3.49971030E-09
   37.2900009       3.48198781E-09
   37.3499985       3.46526052E-09
   37.4099998       3.45445894E-09
   37.4700012       3.44989659E-09
   37.5299988       3.44667606E-09
   37.5900002       3.43602058E-09
   37.6500015       3.40822415E-09
   37.7099991       3.35612937E-09
   37.7700005       3.27769456E-09
   37.8300018       3.17658033E-09
   37.8899994       3.06055448E-09
   37.9500008       2.93846458E-09
   38.0099983       2.81707480E-09
   38.0699997       2.69896705E-09
   38.1300011       2.58211341E-09
   38.1899986       2.46101606E-09
   38.2500000       2.32881381E-09
   38.3100014       2.17961693E-09
   38.3699989       2.01044648E-09
   38.4300003       1.82231685E-09
   38.4900017       1.62015590E-09
   38.5499992       1.41144663E-09
   38.6100006       1.20382593E-09
   38.6699982       1.00235487E-09
   38.7299995       8.07528544E-10
   38.7900009       6.15033691E-10
   38.8499985       4.17627627E-10
   38.9099998       2.08539463E-10
   38.9700012      -1.50310927E-11
   39.0299988      -2.49903931E-10
   39.0900002      -4.87340002E-10
   39.1500015      -7.15696447E-10
   39.2099991      -9.24111454E-10
   39.2700005      -1.10567300E-09
   39.3300018      -1.25897093E-09
   39.3899994      -1.38780465E-09
   39.4500008      -1.49957013E-09
   39.5099983      -1.60309710E-09
   39.5699997      -1.70649295E-09
   39.6300011      -1.81521775E-09
   39.6899986      -1.93052552E-09
   39.7500000      -2.04859640E-09
   39.8100014      -2.16088281E-09
   39.8699989      -2.25602137E-09
   39.9300003      -2.32303776E-09
   39.9900017      -2.35478792E-09
   40.0499992      -2.35019360E-09
   40.1100006      -2.31421060E-09
   40.1699982      -2.25550756E-09
   40.2299995      -2.18297114E-09
   40.2900009      -2.10269047E-09
   40.3499985      -2.01670369E-09
   40.4099998      -1.92375471E-09
   40.4700012      -1.82126580E-09
   40.5299988      -1.70729741E-09
   40.5900002      -1.58161273E-09
   40.6500015      -1.44572876E-09
   40.7099991      -1.30243738E-09
   40.7700005      -1.15533927E-09
   40.8300018      -1.00853892E-09
   40.8899994      -8.66231031E-10
   40.9500008      -7.31867289E-10
   41.0099983      -6.07001560E-10
   41.0699997      -4.90410768E-10
   41.1300011      -3.78224008E-10
   41.1899986      -2.65368366E-10
   41.2500000      -1.47880458E-10
   41.3100014      -2.50538097E-11
   41.3699989       9.96081204E-11
   41.4300003       2.19058549E-10
   41.4900017       3.24623523E-10
   41.5499992       4.08280271E-10
   41.6100006       4.64452643E-10
   41.6699982       4.90916641E-10
   41.7299995       4.88875607E-10
   41.7900009       4.62448801E-10
   41.8499985       4.17721718E-10
   41.9099998       3.61385227E-10
   41.9700012       2.99078956E-10
   42.0299988       2.33863651E-10
   42.0900002       1.65480893E-10
   42.1500015       9.09278972E-11
   42.2099991       6.30995820E-12
   42.2700005      -9.07670328E-11
   42.3300018      -1.99378097E-10
   42.3899994      -3.14912874E-10
   42.4500008      -4.30321778E-10
   42.5099983      -5.38369183E-10
   42.5699997      -6.33926078E-10
   42.6300011      -7.15526638E-10
   42.6899986      -7.85890797E-10
   42.7500000      -8.51500759E-10
   42.8100014      -9.21395127E-10
   42.8699989      -1.00524600E-09
   42.9300003      -1.11082732E-09
   42.9900017      -1.24135668E-09
   43.0499992      -1.39367640E-09
   43.1100006      -1.55837698E-09
   43.1699982      -1.72238468E-09
   43.2299995      -1.87338056E-09
   43.2900009      -2.00428274E-09
   43.3499985      -2.11572204E-09
   43.4099998      -2.21526442E-09
   43.4700012      -2.31373054E-09
   43.5299988      -2.42040588E-09
   43.5900002      -2.53937893E-09
   43.6500015      -2.66847255E-09
   43.7099991      -2.80076584E-09
   43.7700005      -2.92750735E-09
   43.8300018      -3.04091463E-09
   43.8899994      -3.13595616E-09
   43.9500008      -3.21107763E-09
   44.0099983      -3.26829430E-09
   44.0699997      -3.31288308E-09
   44.1300011      -3.35244721E-09
   44.1899986      -3.39498896E-09
   44.2500000      -3.44612405E-09
   44.3100014      -3.50640295E-09
   44.3699989      -3.57017416E-09
   44.4300003      -3.62699870E-09
   44.4900017      -3.66537645E-09
   44.5499992      -3.67723052E-09
   44.6100006      -3.66105657E-09
   44.6699982      -3.62225827E-09
   44.7299995      -3.57065422E-09
   44.7900009      -3.51646867E-09
   44.8499985      -3.46663453E-09
   44.9099998      -3.42272699E-09
   44.9700012      -3.38085182E-09
   45.0299988      -3.33299832E-09
   45.0900002      -3.26918181E-09
   45.1500015      -3.17990190E-09
   45.2099991      -3.05862269E-09
   45.2700005      -2.90380497E-09
   45.3300018      -2.71971357E-09
   45.3899994      -2.51525334E-09
   45.4500008      -2.30079622E-09
   45.5099983      -2.08408601E-09
   45.5699997      -1.86713223E-09
   45.6300011      -1.64578362E-09
   45.6899986      -1.41236189E-09
   45.7500000      -1.16004217E-09
   45.8100014      -8.86670071E-10
   45.8699989      -5.96103167E-10
   45.9300003      -2.96700720E-10
   45.9900017       1.75256185E-12
   46.0499992       2.90721891E-10
   46.1100006       5.63906033E-10
   46.1699982       8.16672785E-10
   46.2299995       1.04518216E-09
   46.2900009       1.24638933E-09
   46.3499985       1.41907885E-09
   46.4099998       1.56494662E-09
   46.4700012       1.68848779E-09
   46.5299988       1.79530613E-09
   46.5900002       1.88977256E-09
   46.6500015       1.97363370E-09
   46.7099991       2.04660533E-09
   46.7700005       2.10854090E-09
   46.8300018       2.16152252E-09
   46.8899994       2.21018559E-09
   46.9500008       2.25985319E-09
   47.0099983       2.31371988E-09
   47.0699997       2.37113573E-09
   47.1300011       2.42834375E-09
   47.1899986       2.48129117E-09
   47.2500000       2.52861954E-09
   47.3100014       2.57278066E-09
   47.3699989       2.61853339E-09
   47.4300003       2.66992162E-09
   47.4900017       2.72784795E-09
   47.5499992       2.78983658E-09
   47.6100006       2.85194002E-09
   47.6699982       2.91123659E-09
   47.7299995       2.96709257E-09
   47.7900009       3.02046343E-09
   47.8499985       3.07208747E-09
   47.9099998       3.12122417E-09
   47.9700012       3.16602877E-09
   48.0299988       3.20519744E-09
   48.0900002       3.23938543E-09
   48.1500015       3.27099481E-09
   48.2099991       3.30225314E-09
   48.2700005       3.33299166E-09
   48.3300018       3.35998962E-09
   48.3899994       3.37873152E-09
   48.4500008       3.38661921E-09
   48.5099983       3.38544526E-09
   48.5699997       3.38124106E-09
   48.6300011       3.38133455E-09
   48.6899986       3.39038753E-09
   48.7500000       3.40794903E-09
   48.8100014       3.42908879E-09
   48.8699989       3.44765194E-09
   48.9300003       3.45997142E-09
   48.9900017       3.46669671E-09
   49.0499992       3.47177154E-09
   49.1100006       3.47950446E-09
   49.1699982       3.49180795E-09
   49.2299995       3.50730600E-09
   49.2900009       3.52255158E-09
   49.3499985       3.53414187E-09
   49.4099998       3.54014085E-09
   49.4700012       3.54000940E-09
   49.5299988       3.53352370E-09
   49.5900002       3.51990570E-09
   49.6500015       3.49806650E-09
   49.7099991       3.46783358E-09
   49.7700005       3.43111872E-09
   49.8300018       3.39194828E-09
   49.8899994       3.35509975E-09
   49.9500008       3.32413563E-09
   50.0099983       3.30009109E-09
   50.0699997       3.28161565E-09
   50.1300011       3.26636940E-09
   50.1899986       3.25267635E-09
   50.2500000       3.24040150E-09
   50.3100014       3.23070415E-09
   50.3699989       3.22512972E-09
   50.4300003       3.22485638E-09
   50.4900017       3.23055804E-09
   50.5499992       3.24269744E-09
   50.6100006       3.26166383E-09