 -0.750000000       0.00000000    
 -0.689999998       0.00000000    
 -0.629999995       0.00000000    
 -0.569999993       0.00000000    
 -0.509999990       0.00000000    
 -0.449999988       0.00000000    
 -0.389999986      -4.86185401E-22
 -0.330000013      -4.04571331E-21
 -0.270000011      -1.60149324E-20
 -0.209999993      -3.69388327E-20
 -0.150000006      -4.06758699E-20
  -9.00000036E-02   4.99262049E-20
  -2.99999993E-02   3.47605463E-19
   2.99999993E-02   8.93708474E-19
   9.00000036E-02   1.46124309E-18
  0.150000006       1.38778170E-18
  0.209999993      -3.38991772E-19
  0.270000011      -4.56708088E-18
  0.330000013      -1.11294637E-17
  0.389999986      -1.81128880E-17
  0.449999988      -2.18344249E-17
  0.509999990      -1.77192278E-17
  0.569999993      -1.47275837E-18
  0.629999995       3.05249333E-17
  0.689999998       8.18257650E-17
  0.750000000       1.55374814E-16
  0.810000002       2.47396883E-16
  0.870000005       3.32381393E-16
  0.930000007       3.43177384E-16
  0.990000010       1.62573469E-16
   1.04999995      -3.47703293E-16
   1.11000001      -1.26040715E-15
   1.16999996      -2.44881037E-15
   1.23000002      -3.46544112E-15
   1.28999996      -3.53725554E-15
   1.35000002      -1.77891382E-15
   1.40999997       2.35260415E-15
   1.47000003       8.48616645E-15
   1.52999997       1.49261368E-14
   1.59000003       1.87436008E-14
   1.64999998       1.65897196E-14
   1.71000004       6.14161482E-15
   1.76999998      -1.23014154E-14
   1.83000004      -3.48270946E-14
   1.88999999      -5.42342253E-14
   1.95000005      -6.19394537E-14
   2.00999999      -5.10309534E-14
   2.06999993      -1.93843066E-14
   2.13000011       2.84808018E-14
   2.19000006       8.17522997E-14
   2.25000000       1.25962473E-13
   2.30999994       1.47012827E-13
   2.36999989       1.35116622E-13
   2.43000007       8.73326883E-14
   2.49000001       8.15393471E-15
   2.54999995      -9.14160512E-14
   2.60999990      -1.95318574E-13
   2.67000008      -2.83703182E-13
   2.73000002      -3.34195914E-13
   2.78999996      -3.24314333E-13
   2.84999990      -2.36326312E-13
   2.91000009      -6.47472866E-14
   2.97000003       1.75410833E-13
   3.02999997       4.43527159E-13
   3.08999991       6.75847941E-13
   3.15000010       7.98192458E-13
   3.21000004       7.47537340E-13
   3.26999998       4.96420342E-13
   3.32999992       7.09511388E-14
   3.39000010      -4.46392001E-13
   3.45000005      -9.33437355E-13
   3.50999999      -1.26134519E-12
   3.56999993      -1.33364619E-12
   3.63000011      -1.11729853E-12
   3.69000006      -6.53806653E-13
   3.75000000      -4.58563478E-14
   3.80999994       5.75257019E-13
   3.86999989       1.08829265E-12
   3.93000007       1.41164738E-12
   3.99000001       1.51361855E-12
   4.05000019       1.40282198E-12
   4.11000013       1.10797233E-12
   4.17000008       6.60919128E-13
   4.23000002       9.37786632E-14
   4.28999996      -5.48487362E-13
   4.34999990      -1.18970946E-12
   4.40999985      -1.71436270E-12
   4.46999979      -1.98307104E-12
   4.53000021      -1.87399337E-12
   4.59000015      -1.33746399E-12
   4.65000010      -4.40336190E-13
   4.71000004       6.24203434E-13
   4.76999998       1.57428584E-12
   4.82999992       2.11833047E-12
   4.88999987       2.05066649E-12
   4.94999981       1.32975055E-12
   5.01000023       1.09351845E-13
   5.07000017      -1.29038804E-12
   5.13000011      -2.46365016E-12
   5.19000006      -3.02591632E-12
   5.25000000      -2.71584144E-12
   5.30999994      -1.46716244E-12
   5.36999989       5.59954860E-13
   5.42999983       2.98459174E-12
   5.48999977       5.23706556E-12
   5.55000019       6.60848329E-12
   5.61000013       6.31678087E-12
   5.67000008       3.59455478E-12
   5.73000002      -2.19737032E-12
   5.78999996      -1.14376477E-11
   5.84999990      -2.41167433E-11
   5.90999985      -3.97502135E-11
   5.96999979      -5.73701919E-11
   6.03000021      -7.56170543E-11
   6.09000015      -9.29256255E-11
   6.15000010      -1.07770549E-10
   6.21000004      -1.18915586E-10
   6.26999998      -1.25610994E-10
   6.32999992      -1.27700447E-10
   6.38999987      -1.25627481E-10
   6.44999981      -1.20357016E-10
   6.51000023      -1.13240209E-10
   6.57000017      -1.05849156E-10
   6.63000011      -9.97967889E-11
   6.69000006      -9.65492755E-11
   6.75000000      -9.72412706E-11
   6.80999994      -1.02518230E-10
   6.86999989      -1.12444817E-10
   6.92999983      -1.26520405E-10
   6.98999977      -1.43822260E-10
   7.05000019      -1.63257269E-10
   7.11000013      -1.83860580E-10
   7.17000008      -2.05054113E-10
   7.23000002      -2.26786076E-10
   7.28999996      -2.49512772E-10
   7.34999990      -2.74039097E-10
   7.40999985      -3.01278086E-10
   7.46999979      -3.32002675E-10
   7.53000021      -3.66640940E-10
   7.59000015      -4.05124018E-10
   7.65000010      -4.46762294E-10
   7.71000004      -4.90116447E-10
   7.76999998      -5.32856925E-10
   7.82999992      -5.71648340E-10
   7.88999987      -6.02130235E-10
   7.94999981      -6.19071017E-10
   8.01000023      -6.16741713E-10
   8.06999969      -5.89504390E-10
   8.13000011      -5.32554556E-10
   8.18999958      -4.42724774E-10
   8.25000000      -3.19248156E-10
   8.31000042      -1.64387989E-10
   8.36999989       1.61506798E-11
   8.43000031       2.13107310E-10
   8.48999977       4.13926282E-10
   8.55000019       6.03444572E-10
   8.60999966       7.65003783E-10
   8.67000008       8.81893558E-10
   8.72999954       9.38936595E-10
   8.78999996       9.23960464E-10
   8.85000038       8.28910440E-10
   8.90999985       6.50449417E-10
   8.97000027       3.90044469E-10
   9.02999973       5.36942435E-11
   9.09000015      -3.48462842E-10
   9.14999962      -8.02441003E-10
   9.21000004      -1.29051858E-09
   9.27000046      -1.79127868E-09
   9.32999992      -2.27985031E-09
   9.39000034      -2.72867684E-09
   9.44999981      -3.10904213E-09
   9.51000023      -3.39337003E-09
   9.56999969      -3.55803875E-09
   9.63000011      -3.58622909E-09
   9.68999958      -3.47024232E-09
   9.75000000      -3.21277982E-09
   9.81000042      -2.82689583E-09
   9.86999989      -2.33460740E-09
   9.93000031      -1.76443360E-09
   9.98999977      -1.14833432E-09
   10.0500002      -5.18616483E-10
   10.1099997       9.46650328E-11
   10.1700001       6.65445421E-10
   10.2299995       1.17240528E-09
   10.2900000       1.59889779E-09
   10.3500004       1.93242933E-09
   10.4099998       2.16416951E-09
   10.4700003       2.28887909E-09
   10.5299997       2.30537966E-09
   10.5900002       2.21734564E-09
   10.6499996       2.03390060E-09
   10.7100000       1.76941228E-09
   10.7700005       1.44205847E-09
   10.8299999       1.07116738E-09
   10.8900003       6.73836986E-10
   10.9499998       2.61737770E-10
   11.0100002      -1.60907482E-10
   11.0699997      -5.97431937E-10
   11.1300001      -1.05673459E-09
   11.1899996      -1.54963564E-09
   11.2500000      -2.08453588E-09
   11.3100004      -2.66355049E-09
   11.3699999      -3.28016636E-09
   11.4300003      -3.91906196E-09
   11.4899998      -4.55817473E-09
   11.5500002      -5.17253840E-09
   11.6099997      -5.73901815E-09
   11.6700001      -6.24083807E-09
   11.7299995      -6.67086741E-09
   11.7900000      -7.03291159E-09
   11.8500004      -7.34074268E-09
   11.9099998      -7.61517960E-09
   11.9700003      -7.88005039E-09
   12.0299997      -8.15814527E-09
   12.0900002      -8.46823411E-09
   12.1499996      -8.82379769E-09
   12.2100000      -9.23345578E-09
   12.2700005      -9.70244862E-09
   12.3299999      -1.02340660E-08
   12.3900003      -1.08300275E-08
   12.4499998      -1.14892726E-08
   12.5100002      -1.22054571E-08
   12.5699997      -1.29642288E-08
   12.6300001      -1.37417455E-08
   12.6899996      -1.45057379E-08
   12.7500000      -1.52196442E-08
   12.8100004      -1.58492242E-08
   12.8699999      -1.63700111E-08
   12.9300003      -1.67733649E-08
   12.9899998      -1.70691123E-08
   13.0500002      -1.72836483E-08
   13.1099997      -1.74537682E-08
   13.1700001      -1.76179533E-08
   13.2299995      -1.78075954E-08
   13.2900000      -1.80407813E-08
   13.3500004      -1.83202982E-08
   13.4099998      -1.86361486E-08
   13.4700003      -1.89713916E-08
   13.5299997      -1.93089811E-08
   13.5900002      -1.96372589E-08
   13.6499996      -1.99523136E-08
   13.7100000      -2.02567829E-08
   13.7700005      -2.05559409E-08
   13.8299999      -2.08529265E-08
   13.8900003      -2.11450164E-08
   13.9499998      -2.14224531E-08
   14.0100002      -2.16701679E-08
   14.0699997      -2.18718021E-08
   14.1300001      -2.20145999E-08
   14.1899996      -2.20935554E-08
   14.2500000      -2.21134737E-08
   14.3100004      -2.20882761E-08
   14.3699999      -2.20376375E-08
   14.4300003      -2.19817551E-08
   14.4899998      -2.19356089E-08
   14.5500002      -2.19042491E-08
   14.6099997      -2.18805205E-08
   14.6700001      -2.18461249E-08
   14.7299995      -2.17759943E-08
   14.7900000      -2.16450253E-08
   14.8500004      -2.14353406E-08
   14.9099998      -2.11419309E-08
   14.9700003      -2.07748503E-08
   15.0299997      -2.03572039E-08
   15.0900002      -1.99194439E-08
   15.1499996      -1.94917824E-08
   15.2100000      -1.90970137E-08
   15.2700005      -1.87459115E-08
   15.3299999      -1.84363884E-08
   15.3900003      -1.81562427E-08
   15.4499998      -1.78882882E-08
   15.5100002      -1.76159283E-08
   15.5699997      -1.73274657E-08
   15.6300001      -1.70179142E-08
   15.6899996      -1.66882081E-08
   15.7500000      -1.63424225E-08
   15.8100004      -1.59842166E-08
   15.8699999      -1.56138267E-08
   15.9300003      -1.52266395E-08
   15.9899998      -1.48137893E-08
   16.0499992      -1.43645478E-08
   16.1100006      -1.38697498E-08
   16.1700001      -1.33250726E-08
   16.2299995      -1.27331026E-08
   16.2900009      -1.21034240E-08
   16.3500004      -1.14506253E-08
   16.4099998      -1.07907363E-08
   16.4699993      -1.01371675E-08
   16.5300007      -9.49733447E-09
   16.5900002      -8.87095730E-09
   16.6499996      -8.25051405E-09
   16.7099991      -7.62365193E-09
   16.7700005      -6.97680447E-09
   16.8299999      -6.29895691E-09
   16.8899994      -5.58451418E-09
   16.9500008      -4.83460205E-09
   17.0100002      -4.05664036E-09
   17.0699997      -3.26257332E-09
   17.1299992      -2.46645615E-09
   17.1900005      -1.68213732E-09
   17.2500000      -9.21516863E-10
   17.3099995      -1.93498106E-10
   17.3700008       4.96554409E-10
   17.4300003       1.14709975E-09
   17.4899998       1.76053039E-09
   17.5499992       2.34293185E-09
   17.6100006       2.90319213E-09
   17.6700001       3.45132101E-09
   17.7299995       3.99625044E-09
   17.7900009       4.54382842E-09
   17.8500004       5.09588860E-09
   17.9099998       5.65098768E-09
   17.9699993       6.20671781E-09
   18.0300007       6.76271039E-09
   18.0900002       7.32297289E-09
   18.1499996       7.89637511E-09
   18.2099991       8.49482706E-09
   18.2700005       9.12974318E-09
   18.3299999       9.80819692E-09
   18.3899994       1.05304023E-08
   18.4500008       1.12896075E-08
   18.5100002       1.20744970E-08
   18.5699997       1.28730946E-08
   18.6299992       1.36765363E-08
   18.6900005       1.44811008E-08
   18.7500000       1.52876467E-08
   18.8099995       1.60986389E-08
   18.8700008       1.69139724E-08
   18.9300003       1.77273556E-08
   18.9899998       1.85248581E-08
   19.0499992       1.92865013E-08
   19.1100006       1.99905603E-08
   19.1700001       2.06192556E-08
   19.2299995       2.11638831E-08
   19.2900009       2.16275069E-08
   19.3500004       2.20242438E-08
   19.4099998       2.23752945E-08
   19.4699993       2.27030501E-08
   19.5300007       2.30252102E-08
   19.5900002       2.33506903E-08
   19.6499996       2.36783482E-08
   19.7099991       2.39984868E-08
   19.7700005       2.42962273E-08
   19.8299999       2.45554279E-08
   19.8899994       2.47619703E-08
   19.9500008       2.49057575E-08
   20.0100002       2.49812739E-08
   20.0699997       2.49870400E-08
   20.1299992       2.49243381E-08
   20.1900005       2.47956695E-08
   20.2500000       2.46032901E-08
   20.3099995       2.43481271E-08
   20.3700008       2.40293012E-08
   20.4300003       2.36443825E-08
   20.4899998       2.31902710E-08
   20.5499992       2.26643735E-08
   20.6100006       2.20656347E-08
   20.6700001       2.13949800E-08
   20.7299995       2.06550084E-08
   20.7900009       1.98490522E-08
   20.8500004       1.89799625E-08
   20.9099998       1.80489828E-08
   20.9699993       1.70550205E-08
   21.0300007       1.59943401E-08
   21.0900002       1.48606860E-08
   21.1499996       1.36457281E-08
   21.2099991       1.23398873E-08
   21.2700005       1.09335714E-08
   21.3299999       9.41886036E-09
   21.3899994       7.79142706E-09
   21.4500008       6.05231820E-09
   21.5100002       4.20905089E-09
   21.5699997       2.27555419E-09
   21.6299992       2.70740208E-10
   21.6900005      -1.78412751E-09
   21.7500000      -3.86871468E-09
   21.8099995      -5.96674798E-09
   21.8700008      -8.06815681E-09
   21.9300003      -1.01695656E-08
   21.9899998      -1.22728627E-08
   22.0499992      -1.43820431E-08
   22.1100006      -1.64990261E-08
   22.1700001      -1.86195148E-08
   22.2299995      -2.07300861E-08
   22.2900009      -2.28074999E-08
   22.3500004      -2.48207410E-08
   22.4099998      -2.67354583E-08
   22.4699993      -2.85198922E-08
   22.5300007      -3.01506802E-08
   22.5900002      -3.16169988E-08
   22.6499996      -3.29218253E-08
   22.7099991      -3.40799424E-08
   22.7700005      -3.51132812E-08
   22.8299999      -3.60449199E-08
   22.8899994      -3.68934430E-08
   22.9500008      -3.76691958E-08
   23.0100002      -3.83731837E-08
   23.0699997      -3.89986141E-08
   23.1299992      -3.95343243E-08
   23.1900005      -3.99687607E-08
   23.2500000      -4.02933473E-08
   23.3099995      -4.05043110E-08
   23.3700008      -4.06027389E-08
   23.4300003      -4.05931431E-08
   23.4899998      -4.04812468E-08
   23.5499992      -4.02717504E-08
   23.6100006      -3.99668814E-08
   23.6700001      -3.95661033E-08
   23.7299995      -3.90670181E-08
   23.7900009      -3.84671814E-08
   23.8500004      -3.77661635E-08
   23.9099998      -3.69671866E-08
   23.9699993      -3.60776973E-08
   24.0300007      -3.51086697E-08
   24.0900002      -3.40726345E-08
   24.1499996      -3.29811911E-08
   24.2099991      -3.18425570E-08
   24.2700005      -3.06600505E-08
   24.3299999      -2.94319360E-08
   24.3899994      -2.81526571E-08
   24.4500008      -2.68151013E-08
   24.5100002      -2.54132395E-08
   24.5699997      -2.39443416E-08
   24.6299992      -2.24102035E-08
   24.6900005      -2.08171791E-08
   24.7500000      -1.91751113E-08
   24.8099995      -1.74956973E-08
   24.8700008      -1.57908726E-08
   24.9300003      -1.40716843E-08
   24.9899998      -1.23478321E-08
   25.0499992      -1.06277067E-08
   25.1100006      -8.91847485E-09
   25.1700001      -7.22578974E-09
   25.2299995      -5.55302204E-09
   25.2900009      -3.90025834E-09
   25.3500004      -2.26368679E-09
   25.4099998      -6.36002806E-10
   25.4699993       9.91799198E-10
   25.5300007       2.62741162E-09
   25.5900002       4.27362767E-09
   25.6499996       5.92511729E-09
   25.7099991       7.56642571E-09
   25.7700005       9.17172205E-09
   25.8299999       1.07063531E-08
   25.8899994       1.21298962E-08
   25.9500008       1.34001539E-08
   26.0100002       1.44774930E-08
   26.0699997       1.53289559E-08
   26.1299992       1.59315938E-08
   26.1900005       1.62745781E-08
   26.2500000       1.63597349E-08
   26.3099995       1.62003850E-08
   26.3700008       1.58185944E-08
   26.4300003       1.52412891E-08
   26.4899998       1.44958854E-08
   26.5499992       1.36061074E-08
   26.6100006       1.25887274E-08
   26.6700001       1.14516867E-08
   26.7299995       1.01938706E-08
   26.7900009       8.80648887E-09
   26.8500004       7.27566052E-09
   26.9099998       5.58560087E-09
   26.9699993       3.72166387E-09
   27.0300007       1.67264746E-09
   27.0900002      -5.67882963E-10
   27.1499996      -3.00109027E-09
   27.2099991      -5.62270408E-09
   27.2700005      -8.42270609E-09
   27.3299999      -1.13846257E-08
   27.3899994      -1.44846304E-08
   27.4500008      -1.76909385E-08
   27.5100002      -2.09641087E-08
   27.5699997      -2.42585685E-08
   27.6299992      -2.75252443E-08
   27.6900005      -3.07148262E-08
   27.7500000      -3.37809212E-08
   27.8099995      -3.66824189E-08
   27.8700008      -3.93845703E-08
   27.9300003      -4.18586161E-08
   27.9899998      -4.40801031E-08
   28.0499992      -4.60263543E-08
   28.1100006      -4.76738258E-08
   28.1700001      -4.89962311E-08
   28.2299995      -4.99642425E-08
   28.2900009      -5.05470332E-08
   28.3500004      -5.07153821E-08
   28.4099998      -5.04453546E-08
   28.4699993      -4.97214145E-08
   28.5300007      -4.85379736E-08
   28.5900002      -4.68992916E-08
   28.6499996      -4.48181865E-08
   28.7099991      -4.23146425E-08
   28.7700005      -3.94149602E-08
   28.8299999      -3.61516328E-08
   28.8899994      -3.25633742E-08
   28.9500008      -2.86943465E-08
   29.0100002      -2.45921488E-08
   29.0699997      -2.03046699E-08
   29.1299992      -1.58766653E-08
   29.1900005      -1.13470771E-08
   29.2500000      -6.74777834E-09
   29.3099995      -2.10376405E-09
   29.3700008       2.56572474E-09
   29.4300003       7.24573734E-09
   29.4899998       1.19241070E-08
   29.5499992       1.65898246E-08
   29.6100006       2.12310844E-08
   29.6700001       2.58330672E-08
   29.7299995       3.03760146E-08
   29.7900009       3.48343434E-08
   29.8500004       3.91773973E-08
   29.9099998       4.33717169E-08
   29.9699993       4.73839492E-08
   30.0300007       5.11832461E-08
   30.0900002       5.47421983E-08
   30.1499996       5.80361004E-08
   30.2099991       6.10412698E-08
   30.2700005       6.37335233E-08
   30.3299999       6.60876296E-08
   30.3899994       6.80782222E-08
   30.4500008       6.96814837E-08
   30.5100002       7.08769434E-08
   30.5699997       7.16485573E-08
   30.6299992       7.19847293E-08
   30.6900005       7.18776363E-08
   30.7500000       7.13221198E-08
   30.8099995       7.03149325E-08
   30.8700008       6.88546322E-08
   30.9300003       6.69421780E-08
   30.9899998       6.45822880E-08
   31.0499992       6.17849878E-08
   31.1100006       5.85669930E-08
   31.1700001       5.49522916E-08
   31.2299995       5.09713409E-08
   31.2900009       4.66589896E-08
   31.3500004       4.20514112E-08
   31.4099998       3.71831028E-08
   31.4699993       3.20850511E-08
   31.5300007       2.67848641E-08
   31.5900002       2.13090026E-08
   31.6499996       1.56862203E-08
   31.7099991       9.95088811E-09
   31.7700005       4.14474721E-09
   31.8299999      -1.68388581E-09
   31.8899994      -7.48344764E-09
   31.9500008      -1.32041293E-08
   32.0099983      -1.88030356E-08
   32.0699997      -2.42478801E-08
   32.1300011      -2.95179561E-08
   32.1899986      -3.46018965E-08
   32.2500000      -3.94927113E-08
   32.3100014      -4.41813768E-08
   32.3699989      -4.86509251E-08
   32.4300003      -5.28727604E-08
   32.4900017      -5.68066554E-08
   32.5499992      -6.04045027E-08
   32.6100006      -6.36169375E-08
   32.6699982      -6.64010713E-08
   32.7299995      -6.87270330E-08
   32.7900009      -7.05817556E-08
   32.8499985      -7.19689339E-08
   32.9099998      -7.29055074E-08
   32.9700012      -7.34157979E-08
   33.0299988      -7.35250865E-08
   33.0900002      -7.32544336E-08
   33.1500015      -7.26182421E-08
   33.2099991      -7.16251378E-08
   33.2700005      -7.02818781E-08
   33.3300018      -6.85988510E-08
   33.3899994      -6.65951632E-08
   33.4500008      -6.43012541E-08
   33.5099983      -6.17576319E-08
   33.5699997      -5.90098779E-08
   33.6300011      -5.61014382E-08
   33.6899986      -5.30668132E-08
   33.7500000      -4.99275536E-08
   33.8100014      -4.66926515E-08
   33.8699989      -4.33629772E-08
   33.9300003      -3.99380760E-08
   33.9900017      -3.64227368E-08
   34.0499992      -3.28312524E-08
   34.1100006      -2.91881950E-08
   34.1699982      -2.55260471E-08
   34.2299995      -2.18809966E-08
   34.2900009      -1.82885245E-08
   34.3499985      -1.47801185E-08
   34.4099998      -1.13818786E-08
   34.4700012      -8.11505885E-09
   34.5299988      -4.99808106E-09
   34.5900002      -2.04919637E-09
   34.6500015       7.11196824E-10
   34.7099991       3.25956329E-09
   34.7700005       5.57020119E-09
   34.8300018       7.61820207E-09
   34.8899994       9.38368228E-09
   34.9500008       1.08559588E-08
   35.0099983       1.20362129E-08
   35.0699997       1.29376163E-08
   35.1300011       1.35827287E-08
   35.1899986       1.39988900E-08
   35.2500000       1.42129224E-08
   35.3100014       1.42465684E-08
   35.3699989       1.41137138E-08
   35.4300003       1.38198653E-08
   35.4900017       1.33637856E-08
   35.5499992       1.27407276E-08
   35.6100006       1.19463923E-08
   35.6699982       1.09806040E-08
   35.7299995       9.84967485E-09
   35.7900009       8.56680860E-09
   35.8499985       7.15040294E-09
   35.9099998       5.62096680E-09
   35.9700012       3.99787359E-09
   36.0299988       2.29738584E-09
   36.0900002       5.32829947E-10
   36.1500015      -1.28311595E-09
   36.2099991      -3.13507043E-09
   36.2700005      -5.00213959E-09
   36.3300018      -6.85714330E-09
   36.3899994      -8.66861871E-09
   36.4500008      -1.04053033E-08
   36.5099983      -1.20418822E-08
   36.5699997      -1.35643061E-08
   36.6300011      -1.49730290E-08
   36.6899986      -1.62830123E-08
   36.7500000      -1.75201844E-08
   36.8100014      -1.87149602E-08
   36.8699989      -1.98944043E-08
   36.9300003      -2.10751256E-08
   36.9900017      -2.22591048E-08
   37.0499992      -2.34338309E-08
   37.1100006      -2.45768739E-08
   37.1699982      -2.56633594E-08
   37.2299995      -2.66737992E-08
   37.2900009      -2.75994587E-08
   37.3499985      -2.84434787E-08
   37.4099998      -2.92175493E-08
   37.4700012      -2.99357268E-08
   37.5299988      -3.06079571E-08
   37.5900002      -3.12359063E-08
   37.6500015      -3.18126396E-08
   37.7099991      -3.23261560E-08
   37.7700005      -3.27653993E-08
   37.8300018      -3.31264296E-08
   37.8899994      -3.34163524E-08
   37.9500008      -3.36533468E-08
   38.0099983      -3.38622463E-08
   38.0699997      -3.40666730E-08
   38.1300011      -3.42800703E-08
   38.1899986      -3.44985871E-08
   38.2500000      -3.46985303E-08
   38.3100014      -3.48398252E-08
   38.3699989      -3.48747662E-08
   38.4300003      -3.47595233E-08
   38.4900017      -3.44645272E-08
   38.5499992      -3.39802106E-08
   38.6100006      -3.33161694E-08
   38.6699982      -3.24941745E-08
   38.7299995      -3.15376312E-08
   38.7900009      -3.04612904E-08
   38.8499985      -2.92648643E-08
   38.9099998      -2.79327743E-08
   38.9700012      -2.64401319E-08
   39.0299988      -2.47630627E-08
   39.0900002      -2.28899157E-08
   39.1500015      -2.08294750E-08
   39.2099991      -1.86128712E-08
   39.2700005      -1.62877516E-08
   39.3300018      -1.39057583E-08
   39.3899994      -1.15069634E-08
   39.4500008      -9.10647557E-09
   39.5099983      -6.68839473E-09
   39.5699997      -4.21007140E-09
   39.6300011      -1.61608216E-09
   39.6899986       1.14236998E-09
   39.7500000       4.08923118E-09
   39.8100014       7.21299953E-09
   39.8699989       1.04675610E-08
   39.9300003       1.37841845E-08
   39.9900017       1.70904322E-08
   40.0499992       2.03294537E-08
   40.1100006       2.34731914E-08
   40.1699982       2.65253028E-08
   40.2299995       2.95131262E-08
   40.2900009       3.24715721E-08
   40.3499985       3.54243497E-08
   40.4099998       3.83687819E-08
   40.4700012       4.12694270E-08
   40.5299988       4.40630252E-08
   40.5900002       4.66736800E-08
   40.6500015       4.90338046E-08
   40.7099991       5.11038678E-08
   40.7700005       5.28842143E-08
   40.8300018       5.44144356E-08
   40.8899994       5.57599336E-08
   40.9500008       5.69899612E-08
   41.0099983       5.81545052E-08
   41.0699997       5.92679328E-08
   41.1300011       6.03051262E-08
   41.1899986       6.12114093E-08
   41.2500000       6.19229539E-08
   41.3100014       6.23905407E-08
   41.3699989       6.25987582E-08
   41.4300003       6.25739744E-08
   41.4900017       6.23784544E-08
   41.5499992       6.20923117E-08
   41.6100006       6.17895139E-08
   41.6699982       6.15158839E-08
   41.7299995       6.12769924E-08
   41.7900009       6.10401187E-08
   41.8499985       6.07499047E-08
   41.9099998       6.03521144E-08
   41.9700012       5.98169052E-08
   42.0299988       5.91530132E-08
   42.0900002       5.84075615E-08
   42.1500015       5.76514125E-08
   42.2099991       5.69554715E-08
   42.2700005       5.63663676E-08
   42.3300018       5.58901512E-08
   42.3899994       5.54894797E-08
   42.4500008       5.50951285E-08
   42.5099983       5.46276588E-08
   42.5699997       5.40220988E-08
   42.6300011       5.32475788E-08
   42.6899986       5.23157766E-08
   42.7500000       5.12754497E-08
   42.8100014       5.01948243E-08
   42.8699989       4.91373662E-08
   42.9300003       4.81388476E-08
   42.9900017       4.71932680E-08
   43.0499992       4.62526515E-08
   43.1100006       4.52409914E-08
   43.1699982       4.40778294E-08
   43.2299995       4.27035367E-08
   43.2900009       4.10977634E-08
   43.3499985       3.92850232E-08
   43.4099998       3.73258722E-08
   43.4700012       3.52970737E-08
   43.5299988       3.32677033E-08
   43.5900002       3.12788835E-08
   43.6500015       2.93334477E-08
   43.7099991       2.73983485E-08
   43.7700005       2.54186645E-08
   43.8300018       2.33387283E-08
   43.8899994       2.11237516E-08
   43.9500008       1.87751379E-08
   44.0099983       1.63344414E-08
   44.0699997       1.38743044E-08
   44.1300011       1.14790533E-08
   44.1899986       9.22120247E-09
   44.2500000       7.14188575E-09
   44.3100014       5.24201837E-09
   44.3699989       3.48712303E-09
   44.4300003       1.82378468E-09
   44.4900017       2.01484190E-10
   44.5499992      -1.40803413E-09
   44.6100006      -3.00025627E-09
   44.6699982      -4.53894788E-09
   44.7299995      -5.96725380E-09
   44.7900009      -7.22428828E-09
   44.8499985      -8.26164026E-09
   44.9099998      -9.05506248E-09
   44.9700012      -9.60859747E-09
   45.0299988      -9.95062877E-09
   45.0900002      -1.01233875E-08
   45.1500015      -1.01690727E-08
   45.2099991      -1.01167679E-08
   45.2700005      -9.97440885E-09
   45.3300018      -9.72877245E-09
   45.3899994      -9.35388034E-09
   45.4500008      -8.82503493E-09
   45.5099983      -8.13319723E-09
   45.5699997      -7.29396454E-09
   45.6300011      -6.34730757E-09
   45.6899986      -5.34795896E-09
   45.7500000      -4.35012915E-09
   45.8100014      -3.39245365E-09
   45.8699989      -2.48873699E-09
   45.9300003      -1.62752167E-09
   45.9900017      -7.80012666E-10
   46.0499992       8.69935304E-11
   46.1100006       9.97834926E-10
   46.1699982       1.95857197E-09
   46.2299995       2.95398617E-09
   46.2900009       3.95141653E-09
   46.3499985       4.90991559E-09
   46.4099998       5.79177728E-09
   46.4700012       6.57282007E-09
   46.5299988       7.24811100E-09
   46.5900002       7.83117304E-09
   46.6500015       8.34686986E-09
   46.7099991       8.82046614E-09
   46.7700005       9.26687438E-09
   46.8300018       9.68405889E-09
   46.8899994       1.00529407E-08
   46.9500008       1.03435536E-08
   47.0099983       1.05249098E-08
   47.0699997       1.05748414E-08
   47.1300011       1.04865752E-08
   47.1899986       1.02703153E-08
   47.2500000       9.94995641E-09
   47.3100014       9.55638502E-09
   47.3699989       9.11943054E-09
   47.4300003       8.66046879E-09
   47.4900017       8.18736456E-09
   47.5499992       7.69293784E-09
   47.6100006       7.15742576E-09
   47.6699982       6.55446453E-09
   47.7299995       5.85902216E-09
   47.7900009       5.05492803E-09
   47.8499985       4.13967305E-09
   47.9099998       3.12507797E-09
   47.9700012       2.03394679E-09
   48.0299988       8.94225471E-10
   48.0900002      -2.67190908E-10
   48.1500015      -1.42918521E-09
   48.2099991      -2.57884802E-09
   48.2700005      -3.71175268E-09
   48.3300018      -4.83073848E-09
   48.3899994      -5.94383742E-09
   48.4500008      -7.06169967E-09
   48.5099983      -8.19475954E-09
   48.5699997      -9.35049993E-09
   48.6300011      -1.05314211E-08
   48.6899986      -1.17342935E-08
   48.7500000      -1.29509106E-08
   48.8100014      -1.41699230E-08
   48.8699989      -1.53789443E-08
   48.9300003      -1.65661049E-08
   48.9900017      -1.77207138E-08
   49.0499992      -1.88332638E-08
   49.1100006      -1.98953192E-08
   49.1699982      -2.08996607E-08
   49.2299995      -2.18407052E-08
   49.2900009      -2.27147723E-08
   49.3499985      -2.35198971E-08
   49.4099998      -2.42551188E-08
   49.4700012      -2.49196273E-08
   49.5299988      -2.55121915E-08
   49.5900002      -2.60311133E-08
   49.6500015      -2.64745168E-08
   49.7099991      -2.68404410E-08
   49.7700005      -2.71264913E-08
   49.8300018      -2.73289835E-08
   49.8899994      -2.74421428E-08
   49.9500008      -2.74578902E-08
   50.0099983      -2.73666529E-08
   50.0699997      -2.71590661E-08
   50.1300011      -2.68281060E-08
   50.1899986      -2.63709339E-08
   50.2500000      -2.57899533E-08
   50.3100014      -2.50927368E-08
   50.3699989      -2.42909124E-08
   50.4300003      -2.33981492E-08
   50.4900017      -2.24276775E-08
   50.5499992      -2.13898499E-08
   50.6100006      -2.02903863E-08