 -0.750000000       0.00000000    
 -0.689999998       0.00000000    
 -0.629999995       0.00000000    
 -0.569999993       0.00000000    
 -0.509999990       0.00000000    
 -0.449999988       0.00000000    
 -0.389999986      -5.38617464E-22
 -0.330000013      -5.13175501E-21
 -0.270000011      -2.35006746E-20
 -0.209999993      -6.47568876E-20
 -0.150000006      -1.01244064E-19
  -9.00000036E-02  -5.05073049E-21
  -2.99999993E-02   4.69161230E-19
   2.99999993E-02   1.50887391E-18
   9.00000036E-02   2.79621913E-18
  0.150000006       3.02422319E-18
  0.209999993       3.01252491E-20
  0.270000011      -7.77781469E-18
  0.330000013      -1.89007643E-17
  0.389999986      -2.69274073E-17
  0.449999988      -2.21904600E-17
  0.509999990       1.70796966E-18
  0.569999993       3.93358527E-17
  0.629999995       7.02364881E-17
  0.689999998       6.85949118E-17
  0.750000000       2.54306753E-17
  0.810000002      -3.01886149E-17
  0.870000005      -3.30972896E-17
  0.930000007       7.80050442E-17
  0.990000010       2.93862014E-16
   1.04999995       4.84035866E-16
   1.11000001       4.16596188E-16
   1.16999996      -1.26301017E-16
   1.23000002      -1.17462792E-15
   1.28999996      -2.43712872E-15
   1.35000002      -3.31674809E-15
   1.40999997      -3.11734552E-15
   1.47000003      -1.37065199E-15
   1.52999997       1.87660700E-15
   1.59000003       5.97077336E-15
   1.64999998       9.80208549E-15
   1.71000004       1.21058669E-14
   1.76999998       1.17567606E-14
   1.83000004       7.96657187E-15
   1.88999999       4.42719902E-16
   1.95000005      -1.03550201E-14
   2.00999999      -2.28277565E-14
   2.06999993      -3.39537629E-14
   2.13000011      -3.95572484E-14
   2.19000006      -3.54849444E-14
   2.25000000      -1.95462475E-14
   2.30999994       6.60813304E-15
   2.36999989       3.68774530E-14
   2.43000007       6.22380226E-14
   2.49000001       7.41875907E-14
   2.54999995       6.86045865E-14
   2.60999990       4.78896707E-14
   2.67000008       1.98906138E-14
   2.73000002      -6.13753763E-15
   2.78999996      -2.43873339E-14
   2.84999990      -3.52450680E-14
   2.91000009      -4.40717172E-14
   2.97000003      -5.66175152E-14
   3.02999997      -7.40096054E-14
   3.08999991      -9.08247612E-14
   3.15000010      -9.79228295E-14
   3.21000004      -8.84550815E-14
   3.26999998      -6.29291744E-14
   3.32999992      -2.93494714E-14
   3.39000010       2.43674629E-15
   3.45000005       2.87749289E-14
   3.50999999       5.66941039E-14
   3.56999993       1.00321823E-13
   3.63000011       1.69701262E-13
   3.69000006       2.58217764E-13
   3.75000000       3.37413908E-13
   3.80999994       3.65058678E-13
   3.86999989       3.04935602E-13
   3.93000007       1.49027017E-13
   3.99000001      -7.05154048E-14
   4.05000019      -2.88380322E-13
   4.11000013      -4.31393094E-13
   4.17000008      -4.51349299E-13
   4.23000002      -3.49686100E-13
   4.28999996      -1.81432831E-13
   4.34999990      -3.55609470E-14
   4.40999985       1.28807678E-16
   4.46999979      -1.25140431E-13
   4.53000021      -4.02394345E-13
   4.59000015      -7.60177674E-13
   4.65000010      -1.08006572E-12
   4.71000004      -1.22313412E-12
   4.76999998      -1.05977683E-12
   4.82999992      -4.98615038E-13
   4.88999987       4.86415921E-13
   4.94999981       1.83153904E-12
   5.01000023       3.36516470E-12
   5.07000017       4.80442075E-12
   5.13000011       5.77467197E-12
   5.19000006       5.85516358E-12
   5.25000000       4.64367433E-12
   5.30999994       1.82243391E-12
   5.36999989      -2.79751613E-12
   5.42999983      -9.27163468E-12
   5.48999977      -1.75605207E-11
   5.55000019      -2.75963297E-11
   5.61000013      -3.93457038E-11
   5.67000008      -5.28341954E-11
   5.73000002      -6.81090392E-11
   5.78999996      -8.51425805E-11
   5.84999990      -1.03707591E-10
   5.90999985      -1.23275098E-10
   5.96999979      -1.42984666E-10
   6.03000021      -1.61712727E-10
   6.09000015      -1.78225129E-10
   6.15000010      -1.91362579E-10
   6.21000004      -2.00190656E-10
   6.26999998      -2.04059616E-10
   6.32999992      -2.02560926E-10
   6.38999987      -1.95416600E-10
   6.44999981      -1.82372048E-10
   6.51000023      -1.63161817E-10
   6.57000017      -1.37581224E-10
   6.63000011      -1.05639393E-10
   6.69000006      -6.77212939E-11
   6.75000000      -2.46711124E-11
   6.80999994       2.22629189E-11
   6.86999989       7.16245535E-11
   6.92999983       1.22027971E-10
   6.98999977       1.72424686E-10
   7.05000019       2.22270452E-10
   7.11000013       2.71544259E-10
   7.17000008       3.20628052E-10
   7.23000002       3.70101588E-10
   7.28999996       4.20525309E-10
   7.34999990       4.72273554E-10
   7.40999985       5.25449351E-10
   7.46999979       5.79880088E-10
   7.53000021       6.35168640E-10
   7.59000015       6.90769386E-10
   7.65000010       7.46058160E-10
   7.71000004       8.00378708E-10
   7.76999998       8.53056348E-10
   7.82999992       9.03382147E-10
   7.88999987       9.50575618E-10
   7.94999981       9.93746752E-10
   8.01000023       1.03187359E-09
   8.06999969       1.06381659E-09
   8.13000011       1.08837594E-09
   8.18999958       1.10439069E-09
   8.25000000       1.11086296E-09
   8.31000042       1.10708920E-09
   8.36999989       1.09278031E-09
   8.43000031       1.06816422E-09
   8.48999977       1.03407849E-09
   8.55000019       9.92069427E-10
   8.60999966       9.44512135E-10
   8.67000008       8.94748386E-10
   8.72999954       8.47202974E-10
   8.78999996       8.07408751E-10
   8.85000038       7.81844922E-10
   8.90999985       7.77516329E-10
   8.97000027       8.01255673E-10
   9.02999973       8.58822236E-10
   9.09000015       9.53950807E-10
   9.14999962       1.08754572E-09
   9.21000004       1.25718669E-09
   9.27000046       1.45702106E-09
   9.32999992       1.67801051E-09
   9.39000034       1.90842586E-09
   9.44999981       2.13448037E-09
   9.51000023       2.34106246E-09
   9.56999969       2.51261278E-09
   9.63000011       2.63421907E-09
   9.68999958       2.69295475E-09
   9.75000000       2.67933631E-09
   9.81000042       2.58863397E-09
   9.86999989       2.42170106E-09
   9.93000031       2.18506835E-09
   9.98999977       1.89024085E-09
   10.0500002       1.55238322E-09
   10.1099997       1.18872501E-09
   10.1700001       8.17023782E-10
   10.2299995       4.54283167E-10
   10.2900000       1.15723528E-10
   10.3500004      -1.86125532E-10
   10.4099998      -4.42324843E-10
   10.4700003      -6.48392173E-10
   10.5299997      -8.04932010E-10
   10.5900002      -9.17741605E-10
   10.6499996      -9.97177674E-10
   10.7100000      -1.05678244E-09
   10.7700005      -1.11141207E-09
   10.8299999      -1.17527188E-09
   10.8900003      -1.26026634E-09
   10.9499998      -1.37492950E-09
   11.0100002      -1.52400326E-09
   11.0699997      -1.70856640E-09
   11.1300001      -1.92654581E-09
   11.1899996      -2.17344365E-09
   11.2500000      -2.44315657E-09
   11.3100004      -2.72878542E-09
   11.3699999      -3.02334358E-09
   11.4300003      -3.32028516E-09
   11.4899998      -3.61383634E-09
   11.5500002      -3.89918409E-09
   11.6099997      -4.17263424E-09
   11.6700001      -4.43183268E-09
   11.7299995      -4.67602312E-09
   11.7900000      -4.90616880E-09
   11.8500004      -5.12468734E-09
   11.9099998      -5.33459987E-09
   11.9700003      -5.53812685E-09
   12.0299997      -5.73505066E-09
   12.0900002      -5.92135851E-09
   12.1499996      -6.08871975E-09
   12.2100000      -6.22510354E-09
   12.2700005      -6.31651353E-09
   12.3299999      -6.34944231E-09
   12.3900003      -6.31340624E-09
   12.4499998      -6.20291329E-09
   12.5100002      -6.01835826E-09
   12.5699997      -5.76562664E-09
   12.6300001      -5.45453638E-09
   12.6899996      -5.09655962E-09
   12.7500000      -4.70251216E-09
   12.8100004      -4.28096270E-09
   12.8699999      -3.83792198E-09
   12.9300003      -3.37795480E-09
   12.9899998      -2.90629321E-09
   13.0500002      -2.43104048E-09
   13.1099997      -1.96441907E-09
   13.1700001      -1.52233215E-09
   13.2299995      -1.12220677E-09
   13.2900000      -7.79845410E-10
   13.3500004      -5.06478026E-10
   13.4099998      -3.07108367E-10
   13.4700003      -1.80640669E-10
   13.5299997      -1.21463464E-10
   13.5900002      -1.21592500E-10
   13.6499996      -1.72415734E-10
   13.7100000      -2.65526490E-10
   13.7700005      -3.92767874E-10
   13.8299999      -5.46051648E-10
   13.8900003      -7.17510495E-10
   13.9499998      -9.00154840E-10
   14.0100002      -1.08874054E-09
   14.0699997      -1.28034006E-09
   14.1300001      -1.47429680E-09
   14.1899996      -1.67166092E-09
   14.2500000      -1.87455251E-09
   14.3100004      -2.08589390E-09
   14.3699999      -2.30958963E-09
   14.4300003      -2.55074384E-09
   14.4899998      -2.81526269E-09
   14.5500002      -3.10839643E-09
   14.6099997      -3.43234086E-09
   14.6700001      -3.78364406E-09
   14.7299995      -4.15145029E-09
   14.7900000      -4.51740068E-09
   14.8500004      -4.85740603E-09
   14.9099998      -5.14482945E-09
   14.9700003      -5.35418865E-09
   15.0299997      -5.46446399E-09
   15.0900002      -5.46138823E-09
   15.1499996      -5.33847633E-09
   15.2100000      -5.09687759E-09
   15.2700005      -4.74429918E-09
   15.3299999      -4.29337144E-09
   15.3900003      -3.75989551E-09
   15.4499998      -3.16147464E-09
   15.5100002      -2.51690890E-09
   15.5699997      -1.84645899E-09
   15.6300001      -1.17262888E-09
   15.6899996      -5.20766208E-10
   15.7500000       8.12803158E-11
   15.8100004       6.04863160E-10
   15.8699999       1.02337872E-09
   15.9300003       1.31544653E-09
   15.9899998       1.46737256E-09
   16.0499992       1.47408374E-09
   16.1100006       1.33832434E-09
   16.1700001       1.06857001E-09
   16.2299995       6.76535383E-10
   16.2900009       1.75178774E-10
   16.3500004      -4.22207463E-10
   16.4099998      -1.10171494E-09
   16.4699993      -1.84769011E-09
   16.5300007      -2.64140776E-09
   16.5900002      -3.46029205E-09
   16.6499996      -4.27829638E-09
   16.7099991      -5.06768716E-09
   16.7700005      -5.80192960E-09
   16.8299999      -6.45882769E-09
   16.8899994      -7.02277081E-09
   16.9500008      -7.48513074E-09
   17.0100002      -7.84256216E-09
   17.0699997      -8.09388911E-09
   17.1299992      -8.23702795E-09
   17.1900005      -8.26740987E-09
   17.2500000      -8.17871637E-09
   17.3099995      -7.96554467E-09
   17.3700008      -7.62663799E-09
   17.4300003      -7.16704784E-09
   17.4899998      -6.59813715E-09
   17.5499992      -5.93554716E-09
   17.6100006      -5.19620391E-09
   17.6700001      -4.39586634E-09
   17.7299995      -3.54823748E-09
   17.7900009      -2.66573741E-09
   17.8500004      -1.76115789E-09
   17.9099998      -8.49098070E-10
   17.9699993       5.36303640E-11
   18.0300007       9.28799204E-10
   18.0900002       1.75835946E-09
   18.1499996       2.52620413E-09
   18.2099991       3.21957572E-09
   18.2700005       3.82983556E-09
   18.3299999       4.35250813E-09
   18.3899994       4.78660311E-09
   18.4500008       5.13334486E-09
   18.5100002       5.39462386E-09
   18.5699997       5.57176794E-09
   18.6299992       5.66528380E-09
   18.6900005       5.67593750E-09
   18.7500000       5.60691404E-09
   18.8099995       5.46609913E-09
   18.8700008       5.26724708E-09
   18.9300003       5.02913755E-09
   18.9899998       4.77273154E-09
   19.0499992       4.51733806E-09
   19.1100006       4.27731761E-09
   19.1700001       4.06061451E-09
   19.2299995       3.86953092E-09
   19.2900009       3.70314024E-09
   19.3500004       3.56010399E-09
   19.4099998       3.44071593E-09
   19.4699993       3.34756645E-09
   19.5300007       3.28494609E-09
   19.5900002       3.25757576E-09
   19.6499996       3.26932570E-09
   19.7099991       3.32236327E-09
   19.7700005       3.41690298E-09
   19.8299999       3.55155638E-09
   19.8899994       3.72415809E-09
   19.9500008       3.93285182E-09
   20.0100002       4.17705115E-09
   20.0699997       4.45779413E-09
   20.1299992       4.77715645E-09
   20.1900005       5.13679632E-09
   20.2500000       5.53622437E-09
   20.3099995       5.97169914E-09
   20.3700008       6.43645404E-09
   20.4300003       6.92232494E-09
   20.4899998       7.42204520E-09
   20.5499992       7.93105670E-09
   20.6100006       8.44788950E-09
   20.6700001       8.97293617E-09
   20.7299995       9.50628998E-09
   20.7900009       1.00458140E-08
   20.8500004       1.05863389E-08
   20.9099998       1.11201990E-08
   20.9699993       1.16385710E-08
   21.0300007       1.21327428E-08
   21.0900002       1.25947368E-08
   21.1499996       1.30172459E-08
   21.2099991       1.33933433E-08
   21.2700005       1.37164378E-08
   21.3299999       1.39806451E-08
   21.3899994       1.41812819E-08
   21.4500008       1.43150869E-08
   21.5100002       1.43799719E-08
   21.5699997       1.43745549E-08
   21.6299992       1.42979379E-08
   21.6900005       1.41500935E-08
   21.7500000       1.39326843E-08
   21.8099995       1.36497462E-08
   21.8700008       1.33074849E-08
   21.9300003       1.29129134E-08
   21.9899998       1.24716451E-08
   22.0499992       1.19857804E-08
   22.1100006       1.14528467E-08
   22.1700001       1.08663674E-08
   22.2299995       1.02179074E-08
   22.2900009       9.49980983E-09
   22.3500004       8.70767636E-09
   22.4099998       7.84180276E-09
   22.4699993       6.90727919E-09
   22.5300007       5.91292881E-09
   22.5900002       4.86955543E-09
   22.6499996       3.78809606E-09
   22.7099991       2.67817479E-09
   22.7700005       1.54742219E-09
   22.8299999       4.01655376E-10
   22.8899994      -7.54245333E-10
   22.9500008      -1.91516714E-09
   23.0100002      -3.07479087E-09
   23.0699997      -4.22517354E-09
   23.1299992      -5.35694467E-09
   23.1900005      -6.45991305E-09
   23.2500000      -7.52372653E-09
   23.3099995      -8.53840998E-09
   23.3700008      -9.49483425E-09
   23.4300003      -1.03853592E-08
   23.4899998      -1.12047660E-08
   23.5499992      -1.19512364E-08
   23.6100006      -1.26268622E-08
   23.6700001      -1.32370861E-08
   23.7299995      -1.37889566E-08
   23.7900009      -1.42886760E-08
   23.8500004      -1.47394408E-08
   23.9099998      -1.51404791E-08
   23.9699993      -1.54876449E-08
   24.0300007      -1.57750666E-08
   24.0900002      -1.59968057E-08
   24.1499996      -1.61476201E-08
   24.2099991      -1.62225611E-08
   24.2700005      -1.62159761E-08
   24.3299999      -1.61209179E-08
   24.3899994      -1.59297535E-08
   24.4500008      -1.56359885E-08
   24.5100002      -1.52365427E-08
   24.5699997      -1.47334056E-08
   24.6299992      -1.41338692E-08
   24.6900005      -1.34493412E-08
   24.7500000      -1.26933282E-08
   24.8099995      -1.18794956E-08
   24.8700008      -1.10203890E-08
   24.9300003      -1.01269109E-08
   24.9899998      -9.20826704E-09
   25.0499992      -8.27200974E-09
   25.1100006      -7.32405336E-09
   25.1700001      -6.36874953E-09
   25.2299995      -5.40917044E-09
   25.2900009      -4.44758363E-09
   25.3500004      -3.48588536E-09
   25.4099998      -2.52576426E-09
   25.4699993      -1.56855151E-09
   25.5300007      -6.15037243E-10
   25.5900002       3.34335781E-10
   25.6499996       1.27864819E-09
   25.7099991       2.21517737E-09
   25.7700005       3.13808424E-09
   25.8299999       4.03773681E-09
   25.8899994       4.90107288E-09
   25.9500008       5.71299008E-09
   26.0100002       6.45838893E-09
   26.0699997       7.12432380E-09
   26.1299992       7.70183117E-09
   26.1900005       8.18712742E-09
   26.2500000       8.58202398E-09
   26.3099995       8.89345131E-09
   26.3700008       9.13209153E-09
   26.4300003       9.31030364E-09
   26.4899998       9.43984269E-09
   26.5499992       9.53000701E-09
   26.6100006       9.58680424E-09
   26.6700001       9.61325153E-09
   26.7299995       9.61041291E-09
   26.7900009       9.57837809E-09
   26.8500004       9.51650048E-09
   26.9099998       9.42265466E-09
   26.9699993       9.29190858E-09
   27.0300007       9.11536713E-09
   27.0900002       8.87989948E-09
   27.1499996       8.56897309E-09
   27.2099991       8.16434920E-09
   27.2700005       7.64810348E-09
   27.3299999       7.00452274E-09
   27.3899994       6.22170582E-09
   27.4500008       5.29292166E-09
   27.5100002       4.21777813E-09
   27.5699997       3.00305003E-09
   27.6299992       1.66289371E-09
   27.6900005       2.18213350E-10
   27.7500000      -1.30474576E-09
   27.8099995      -2.87620350E-09
   27.8700008      -4.46456738E-09
   27.9300003      -6.03775696E-09
   27.9899998      -7.56414842E-09
   28.0499992      -9.01336694E-09
   28.1100006      -1.03571365E-08
   28.1700001      -1.15701368E-08
   28.2299995      -1.26306468E-08
   28.2900009      -1.35207960E-08
   28.3500004      -1.42265515E-08
   28.4099998      -1.47378794E-08
   28.4699993      -1.50495438E-08
   28.5300007      -1.51625859E-08
   28.5900002      -1.50859165E-08
   28.6499996      -1.48370232E-08
   28.7099991      -1.44409409E-08
   28.7700005      -1.39273491E-08
   28.8299999      -1.33265274E-08
   28.8899994      -1.26655300E-08
   28.9500008      -1.19658141E-08
   29.0100002      -1.12428342E-08
   29.0699997      -1.05072031E-08
   29.1299992      -9.76635395E-09
   29.1900005      -9.02568598E-09
   29.2500000      -8.28862934E-09
   29.3099995      -7.55579155E-09
   29.3700008      -6.82375179E-09
   29.4300003      -6.08419981E-09
   29.4899998      -5.32390398E-09
   29.5499992      -4.52570026E-09
   29.6100006      -3.67047526E-09
   29.6700001      -2.73987943E-09
   29.7299995      -1.71930725E-09
   29.7900009      -6.00460903E-10
   29.8500004       6.17213003E-10
   29.9099998       1.92664484E-09
   29.9699993       3.31464700E-09
   30.0300007       4.76399942E-09
   30.0900002       6.25503205E-09
   30.1499996       7.76597453E-09
   30.2099991       9.27217236E-09
   30.2700005       1.07451275E-08
   30.3299999       1.21526398E-08
   30.3899994       1.34608369E-08
   30.4500008       1.46378270E-08
   30.5100002       1.56577329E-08
   30.5699997       1.65035186E-08
   30.6299992       1.71676042E-08
   30.6900005       1.76502919E-08
   30.7500000       1.79569870E-08
   30.8099995       1.80954665E-08
   30.8700008       1.80741218E-08
   30.9300003       1.79012343E-08
   30.9899998       1.75849646E-08
   31.0499992       1.71335959E-08
   31.1100006       1.65560046E-08
   31.1700001       1.58623941E-08
   31.2299995       1.50653747E-08
   31.2900009       1.41808654E-08
   31.3500004       1.32280000E-08
   31.4099998       1.22273596E-08
   31.4699993       1.11976490E-08
   31.5300007       1.01519770E-08
   31.5900002       9.09542663E-09
   31.6499996       8.02533329E-09
   31.7099991       6.93447655E-09
   31.7700005       5.81597970E-09
   31.8299999       4.66785455E-09
   31.8899994       3.49532892E-09
   31.9500008       2.31018982E-09
   32.0099983       1.12780152E-09
   32.0699997      -3.66391119E-11
   32.1300011      -1.17098731E-09
   32.1899986      -2.26727992E-09
   32.2500000      -3.32120464E-09
   32.3100014      -4.33065983E-09
   32.3699989      -5.29428856E-09
   32.4300003      -6.21052365E-09
   32.4900017      -7.07722636E-09
   32.5499992      -7.89173260E-09
   32.6100006      -8.65106653E-09
   32.6699982      -9.35222033E-09
   32.7299995      -9.99244332E-09
   32.7900009      -1.05695159E-08
   32.8499985      -1.10818883E-08
   32.9099998      -1.15285843E-08
   32.9700012      -1.19088668E-08
   33.0299988      -1.22217525E-08
   33.0900002      -1.24655841E-08
   33.1500015      -1.26378410E-08
   33.2099991      -1.27353292E-08
   33.2700005      -1.27548025E-08
   33.3300018      -1.26939916E-08
   33.3899994      -1.25528894E-08
   33.4500008      -1.23349668E-08
   33.5099983      -1.20478534E-08
   33.5699997      -1.17030137E-08
   33.6300011      -1.13142651E-08
   33.6899986      -1.08954659E-08
   33.7500000      -1.04582432E-08
   33.8100014      -1.00107389E-08
   33.8699989      -9.55795887E-09
   33.9300003      -9.10355080E-09
   33.9900017      -8.65201688E-09
   34.0499992      -8.21011703E-09
   34.1100006      -7.78662912E-09
   34.1699982      -7.39055084E-09
   34.2299995      -7.02865943E-09
   34.2900009      -6.70367539E-09
   34.3499985      -6.41387787E-09
   34.4099998      -6.15420648E-09
   34.4700012      -5.91820193E-09
   34.5299988      -5.69994851E-09
   34.5900002      -5.49548229E-09
   34.6500015      -5.30362021E-09
   34.7099991      -5.12636289E-09
   34.7700005      -4.96889596E-09
   34.8300018      -4.83888662E-09
   34.8899994      -4.74481121E-09
   34.9500008      -4.69344430E-09
   35.0099983      -4.68740335E-09
   35.0699997      -4.72401673E-09
   35.1300011      -4.79646500E-09
   35.1899986      -4.89702146E-09
   35.2500000      -5.02097608E-09
   35.3100014      -5.16916376E-09
   35.3699989      -5.34757749E-09
   35.4300003      -5.56401059E-09
   35.4900017      -5.82331605E-09
   35.5499992      -6.12367845E-09
   35.6100006      -6.45574394E-09
   35.6699982      -6.80493084E-09
   35.7299995      -7.15559079E-09
   35.7900009      -7.49491136E-09
   35.8499985      -7.81489984E-09
   35.9099998      -8.11205769E-09
   35.9700012      -8.38558378E-09
   36.0299988      -8.63541683E-09
   36.0900002      -8.86096796E-09
   36.1500015      -9.06058251E-09
   36.2099991      -9.23119892E-09
   36.2700005      -9.36783895E-09
   36.3300018      -9.46314582E-09
   36.3899994      -9.50773948E-09
   36.4500008      -9.49196899E-09
   36.5099983      -9.40883549E-09
   36.5699997      -9.25692500E-09
   36.6300011      -9.04178954E-09
   36.6899986      -8.77479067E-09
   36.7500000      -8.46968184E-09
   36.8100014      -8.13845347E-09
   36.8699989      -7.78836906E-09
   36.9300003      -7.42150474E-09
   36.9900017      -7.03677694E-09
   37.0499992      -6.63315936E-09
   37.1100006      -6.21235774E-09
   37.1699982      -5.77964165E-09
   37.2299995      -5.34260369E-09
   37.2900009      -4.90857444E-09
   37.3499985      -4.48189930E-09
   37.4099998      -4.06207512E-09
   37.4700012      -3.64326147E-09
   37.5299988      -3.21518789E-09
   37.5900002      -2.76523027E-09
   37.6500015      -2.28133201E-09
   37.7099991      -1.75531001E-09
   37.7700005      -1.18587473E-09
   37.8300018      -5.80472226E-10
   37.8899994       4.48612397E-11
   37.9500008       6.67966404E-10
   38.0099983       1.26488187E-09
   38.0699997       1.81479032E-09
   38.1300011       2.30400943E-09
   38.1899986       2.72771739E-09
   38.2500000       3.08889803E-09
   38.3100014       3.39496387E-09
   38.3699989       3.65330255E-09
   38.4300003       3.86732557E-09
   38.4900017       4.03440614E-09
   38.5499992       4.14648538E-09
   38.6100006       4.19325996E-09
   38.6699982       4.16696855E-09
   38.7299995       4.06711775E-09
   38.7900009       3.90329991E-09
   38.8499985       3.69471675E-09
   38.9099998       3.46613205E-09
   38.9700012       3.24134586E-09
   39.0299988       3.03642267E-09
   39.0900002       2.85521229E-09
   39.1500015       2.68899436E-09
   39.2099991       2.52055332E-09
   39.2700005       2.33127961E-09
   39.3300018       2.10873430E-09
   39.3899994       1.85194604E-09
   39.4500008       1.57260471E-09
   39.5099983       1.29180922E-09
   39.5699997       1.03358744E-09
   39.6300011       8.17455770E-10
   39.6899986       6.52559062E-10
   39.7500000       5.35402778E-10
   39.8100014       4.52022419E-10
   39.8699989       3.83970050E-10
   39.9300003       3.16135534E-10
   39.9900017       2.43626175E-10
   40.0499992       1.75069015E-10
   40.1100006       1.30861322E-10
   40.1699982       1.36746475E-10
   40.2299995       2.14929172E-10
   40.2900009       3.75987602E-10
   40.3499985       6.14585383E-10
   40.4099998       9.10531817E-10
   40.4700012       1.23472976E-09
   40.5299988       1.55784541E-09
   40.5900002       1.85879478E-09
   40.6500015       2.13049778E-09
   40.7099991       2.38143683E-09
   40.7700005       2.63284683E-09
   40.8300018       2.91242275E-09
   40.8899994       3.24619331E-09
   40.9500008       3.65065089E-09
   41.0099983       4.12738688E-09
   41.0699997       4.66211647E-09
   41.1300011       5.22889776E-09
   41.1899986       5.79861048E-09
   41.2500000       6.34895070E-09
   41.3100014       6.87216906E-09
   41.3699989       7.37728456E-09
   41.4300003       7.88559795E-09
   41.4900017       8.42117931E-09
   41.5499992       9.00024411E-09
   41.6100006       9.62384039E-09
   41.6699982       1.02767572E-08
   41.7299995       1.09327578E-08
   41.7900009       1.15635617E-08
   41.8499985       1.21477610E-08
   41.9099998       1.26763489E-08
   41.9700012       1.31534108E-08
   42.0299988       1.35925280E-08
   42.0900002       1.40108449E-08
   42.1500015       1.44229491E-08
   42.2099991       1.48362851E-08
   42.2700005       1.52490127E-08
   42.3300018       1.56506808E-08
   42.3899994       1.60255329E-08
   42.4500008       1.63577685E-08
   42.5099983       1.66374114E-08
   42.5699997       1.68648580E-08
   42.6300011       1.70523187E-08
   42.6899986       1.72211401E-08
   42.7500000       1.73955250E-08
   42.8100014       1.75946244E-08
   42.8699989       1.78257888E-08
   42.9300003       1.80812876E-08
   42.9900017       1.83396143E-08
   43.0499992       1.85707929E-08
   43.1100006       1.87438545E-08
   43.1699982       1.88340881E-08
   43.2299995       1.88280058E-08
   43.2900009       1.87246627E-08
   43.3499985       1.85331253E-08
   43.4099998       1.82668103E-08
   43.4700012       1.79365340E-08
   43.5299988       1.75446271E-08
   43.5900002       1.70824990E-08
   43.6500015       1.65329972E-08
   43.7099991       1.58772018E-08
   43.7700005       1.51033568E-08
   43.8300018       1.42144909E-08
   43.8899994       1.32314737E-08
   43.9500008       1.21899806E-08
   44.0099983       1.11323102E-08
   44.0699997       1.00970849E-08
   44.1300011       9.11064024E-09
   44.1899986       8.18308443E-09
   44.2500000       7.31004768E-09
   44.3100014       6.47901155E-09
   44.3699989       5.67764369E-09
   44.4300003       4.90121543E-09
   44.4900017       4.15677448E-09
   44.5499992       3.46289353E-09
   44.6100006       2.84514079E-09
   44.6699982       2.32863107E-09
   44.7299995       1.92993843E-09
   44.7900009       1.65105374E-09
   44.8499985       1.47764867E-09
   44.9099998       1.38261746E-09
   44.9700012       1.33396849E-09
   45.0299988       1.30435562E-09
   45.0900002       1.27872901E-09
   45.1500015       1.25721833E-09
   45.2099991       1.25227206E-09
   45.2700005       1.28140032E-09
   45.3300018       1.35855394E-09
   45.3899994       1.48747392E-09
   45.4500008       1.65926384E-09
   45.5099983       1.85461246E-09
   45.5699997       2.04940420E-09
   45.6300011       2.22154450E-09
   45.6899986       2.35682296E-09
   45.7500000       2.45227394E-09
   45.8100014       2.51636401E-09
   45.8699989       2.56618593E-09
   45.9300003       2.62256328E-09
   45.9900017       2.70450751E-09
   46.0499992       2.82470181E-09
   46.1100006       2.98739566E-09
   46.1699982       3.18926574E-09
   46.2299995       3.42266770E-09
   46.2900009       3.67975472E-09
   46.3499985       3.95569488E-09
   46.4099998       4.24978897E-09
   46.4700012       4.56437421E-09
   46.5299988       4.90238339E-09
   46.5900002       5.26481880E-09
   46.6500015       5.64907898E-09
   46.7099991       6.04844086E-09
   46.7700005       6.45245990E-09
   46.8300018       6.84797152E-09
   46.8899994       7.22057436E-09
   46.9500008       7.55656338E-09
   47.0099983       7.84509346E-09
   47.0699997       8.07990652E-09
   47.1300011       8.25974222E-09
   47.1899986       8.38689118E-09
   47.2500000       8.46426396E-09
   47.3100014       8.49226112E-09
   47.3699989       8.46712034E-09
   47.4300003       8.38175662E-09
   47.4900017       8.22885315E-09
   47.5499992       8.00473554E-09
   47.6100006       7.71218911E-09
   47.6699982       7.36098782E-09
   47.7299995       6.96615965E-09
   47.7900009       6.54500187E-09
   47.8499985       6.11412654E-09
   47.9099998       5.68727687E-09
   47.9700012       5.27392885E-09
   48.0299988       4.87837948E-09
   48.0900002       4.49931159E-09
   48.1500015       4.13034096E-09
   48.2099991       3.76212395E-09
   48.2700005       3.38598327E-09
   48.3300018       2.99790370E-09
   48.3899994       2.60105071E-09
   48.4500008       2.20527907E-09
   48.5099983       1.82350279E-09
   48.5699997       1.46652956E-09
   48.6300011       1.13893039E-09
   48.6899986       8.38057679E-10
   48.7500000       5.56628132E-10
   48.8100014       2.87364632E-10
   48.8699989       2.71767504E-11
   48.9300003      -2.21177063E-10
   48.9900017      -4.50452314E-10
   49.0499992      -6.52177812E-10
   49.1100006      -8.19926349E-10
   49.1699982      -9.51122958E-10
   49.2299995      -1.04703368E-09
   49.2900009      -1.11156562E-09
   49.3499985      -1.14980048E-09
   49.4099998      -1.16682120E-09
   49.4700012      -1.16684895E-09
   49.5299988      -1.15252263E-09
   49.5900002      -1.12438558E-09
   49.6500015      -1.08097475E-09
   49.7099991      -1.01987030E-09
   49.7700005      -9.39530898E-10
   49.8300018      -8.41071268E-10
   49.8899994      -7.28871741E-10
   49.9500008      -6.09398032E-10
   50.0099983      -4.88619478E-10
   50.0699997      -3.69324515E-10
   50.1300011      -2.49792492E-10
   50.1899986      -1.24546970E-10
   50.2500000       1.32691904E-11
   50.3100014       1.69249059E-10
   50.3699989       3.46200235E-10
   50.4300003       5.44366940E-10
   50.4900017       7.62957142E-10
   50.5499992       1.00186281E-09
   50.6100006       1.26254562E-09