  -2.400000      0.0000000E+00
  -2.340000      0.0000000E+00
  -2.280000      0.0000000E+00
  -2.220000      0.0000000E+00
  -2.160000      0.0000000E+00
  -2.100000      0.0000000E+00
  -2.040000     -2.9340261E-22
  -1.980000     -2.8785314E-21
  -1.920000     -1.3718984E-20
  -1.860000     -3.9790493E-20
  -1.800000     -6.6536392E-20
  -1.740000     -7.1926093E-21
  -1.680000      3.3834877E-19
  -1.620000      1.1934982E-18
  -1.560000      2.4276645E-18
  -1.500000      2.9176943E-18
  -1.440000      1.6221071E-19
  -1.380000     -8.8037833E-18
  -1.320000     -2.4294448E-17
  -1.260000     -3.9355761E-17
  -1.200000     -3.7190815E-17
  -1.140000      3.7654374E-18
  -1.080000      9.3595916E-17
  -1.020000      2.0817882E-16
 -0.9600000      2.7613136E-16
 -0.9000000      1.9711019E-16
 -0.8400000     -9.7901590E-17
 -0.7800000     -5.6394268E-16
 -0.7200000     -9.9182645E-16
 -0.6600000     -1.0559476E-15
 -0.6000000     -4.8613984E-16
 -0.5400000      6.9772232E-16
 -0.4800000      2.0376843E-15
 -0.4200000      2.7398174E-15
 -0.3600000      2.0787855E-15
 -0.3000000     -5.2845704E-17
 -0.2400000     -2.7956263E-15
 -0.1800000     -4.5247285E-15
 -0.1200000     -3.6903870E-15
 -5.9999999E-02  5.2636358E-17
  0.0000000E+00  5.1276008E-15
  5.9999999E-02  8.3977819E-15
  0.1200000      6.7428837E-15
  0.1800000     -8.2643766E-16
  0.2400000     -1.1784331E-14
  0.3000000     -2.0585675E-14
  0.3600000     -2.1242118E-14
  0.4200000     -1.0838338E-14
  0.4800000      8.0486002E-15
  0.5400000      2.7795059E-14
  0.6000000      3.9300760E-14
  0.6600000      3.6962644E-14
  0.7200000      2.2132717E-14
  0.7800000      2.6688009E-15
  0.8400000     -1.1620371E-14
  0.9000000     -1.5185317E-14
  0.9600000     -1.0747758E-14
   1.020000     -8.2094137E-15
   1.080000     -1.8524451E-14
   1.140000     -4.5875321E-14
   1.200000     -8.2949611E-14
   1.260000     -1.1263218E-13
   1.320000     -1.1571882E-13
   1.380000     -8.0559725E-14
   1.440000     -9.2293269E-15
   1.500000      8.3170829E-14
   1.560000      1.7534241E-13
   1.620000      2.4840931E-13
   1.680000      2.9122896E-13
   1.740000      2.9986864E-13
   1.800000      2.7284132E-13
   1.860000      2.0654935E-13
   1.920000      9.5038228E-14
   1.980000     -6.5079242E-14
   2.040000     -2.6747677E-13
   2.100000     -4.9137192E-13
   2.160000     -7.0224946E-13
   2.220000     -8.5759920E-13
   2.280000     -9.1448908E-13
   2.340000     -8.3594096E-13
   2.400000     -5.9585279E-13
   2.460000     -1.8506307E-13
   2.520000      3.7890229E-13
   2.580000      1.0397773E-12
   2.640000      1.6950977E-12
   2.700000      2.2030045E-12
   2.760000      2.4095285E-12
   2.820000      2.1930817E-12
   2.880000      1.5119107E-12
   2.940000      4.3440875E-13
   3.000000     -8.6392585E-13
   3.060000     -2.1400104E-12
   3.120000     -3.1461249E-12
   3.180000     -3.6924248E-12
   3.240000     -3.6857488E-12
   3.300000     -3.1334165E-12
   3.360000     -2.1177131E-12
   3.420000     -7.5972188E-13
   3.480000      8.0665742E-13
   3.540000      2.4388753E-12
   3.600000      3.9712266E-12
   3.660000      5.1964895E-12
   3.720000      5.8605417E-12
   3.780000      5.6785123E-12
   3.840000      4.3678746E-12
   3.900000      1.6840028E-12
   3.960000     -2.5569653E-12
   4.020000     -8.4744564E-12
   4.080000     -1.6133223E-11
   4.140000     -2.5553117E-11
   4.200000     -3.6707682E-11
   4.260000     -4.9511846E-11
   4.320000     -6.3812053E-11
   4.380000     -7.9397822E-11
   4.440000     -9.6046081E-11
   4.500000     -1.1359091E-10
   4.560000     -1.3199185E-10
   4.620000     -1.5136602E-10
   4.680000     -1.7196020E-10
   4.740000     -1.9406561E-10
   4.800000     -2.1790615E-10
   4.860000     -2.4354521E-10
   4.920000     -2.7084551E-10
   4.980000     -2.9948580E-10
   5.040000     -3.2900632E-10
   5.100000     -3.5883960E-10
   5.160000     -3.8830081E-10
   5.220000     -4.1654991E-10
   5.280000     -4.4257711E-10
   5.340000     -4.6527313E-10
   5.400000     -4.8361154E-10
   5.460000     -4.9690524E-10
   5.520000     -5.0503568E-10
   5.580000     -5.0853072E-10
   5.640000     -5.0841020E-10
   5.700000     -5.0581472E-10
   5.760000     -5.0153809E-10
   5.820000     -4.9564919E-10
   5.880000     -4.8736709E-10
   5.940000     -4.7525334E-10
   6.000000     -4.5764958E-10
   6.060000     -4.3317955E-10
   6.120000     -4.0110723E-10
   6.180000     -3.6141207E-10
   6.240000     -3.1457312E-10
   6.300000     -2.6118407E-10
   6.360000     -2.0158684E-10
   6.420000     -1.3568795E-10
   6.480000     -6.3021866E-11
   6.540000      1.6992683E-11
   6.600000      1.0473881E-10
   6.660000      2.0017071E-10
   6.720000      3.0274500E-10
   6.780000      4.1150156E-10
   6.840000      5.2521354E-10
   6.900000      6.4251493E-10
   6.960000      7.6195861E-10
   7.020000      8.8202845E-10
   7.080000      1.0011750E-09
   7.140000      1.1179409E-09
   7.200000      1.2311822E-09
   7.260000      1.3403155E-09
   7.320000      1.4454693E-09
   7.380000      1.5474253E-09
   7.440000      1.6473177E-09
   7.500000      1.7461648E-09
   7.560000      1.8443971E-09
   7.620000      1.9415782E-09
   7.680000      2.0364435E-09
   7.740000      2.1272635E-09
   7.800000      2.2124020E-09
   7.860000      2.2908599E-09
   7.920000      2.3625886E-09
   7.980000      2.4284585E-09
   8.040000      2.4898914E-09
   8.100000      2.5482978E-09
   8.160000      2.6045230E-09
   8.220000      2.6584992E-09
   8.280000      2.7092129E-09
   8.340000      2.7549953E-09
   8.400000      2.7940419E-09
   8.460000      2.8249953E-09
   8.520000      2.8474318E-09
   8.580000      2.8621148E-09
   8.640000      2.8709606E-09
   8.700000      2.8767437E-09
   8.760000      2.8826372E-09
   8.820000      2.8917211E-09
   8.880000      2.9065705E-09
   8.940000      2.9289828E-09
   9.000000      2.9598202E-09
   9.060000      2.9989127E-09
   9.120000      3.0449756E-09
   9.180000      3.0955665E-09
   9.240000      3.1471910E-09
   9.300000      3.1956675E-09
   9.360000      3.2367908E-09
   9.420000      3.2671581E-09
   9.480000      3.2848708E-09
   9.540000      3.2897958E-09
   9.600000      3.2832077E-09
   9.660000      3.2669163E-09
   9.720000      3.2422609E-09
   9.780000      3.2094531E-09
   9.840000      3.1675997E-09
   9.900000      3.1153786E-09
   9.960000      3.0519811E-09
   10.02000      2.9777738E-09
   10.08000      2.8942801E-09
   10.14000      2.8034715E-09
   10.20000      2.7067466E-09
   10.26000      2.6041551E-09
   10.32000      2.4942621E-09
   10.38000      2.3746727E-09
   10.44000      2.2428710E-09
   10.50000      2.0969175E-09
   10.56000      1.9357120E-09
   10.62000      1.7588746E-09
   10.68000      1.5665363E-09
   10.74000      1.3593130E-09
   10.80000      1.1384926E-09
   10.86000      9.0618779E-10
   10.92000      6.6513267E-10
   10.98000      4.1802065E-10
   11.04000      1.6664500E-10
   11.10000     -8.8645244E-11
   11.16000     -3.4875003E-10
   11.22000     -6.1485717E-10
   11.28000     -8.8716667E-10
   11.34000     -1.1639747E-09
   11.40000     -1.4416052E-09
   11.46000     -1.7151857E-09
   11.52000     -1.9797868E-09
   11.58000     -2.2313094E-09
   11.64000     -2.4667717E-09
   11.70000     -2.6841251E-09
   11.76000     -2.8820544E-09
   11.82000     -3.0601377E-09
   11.88000     -3.2193406E-09
   11.94000     -3.3623799E-09
   12.00000     -3.4934018E-09
   12.06000     -3.6167711E-09
   12.12000     -3.7353924E-09
   12.18000     -3.8494039E-09
   12.24000     -3.9560275E-09
   12.30000     -4.0507828E-09
   12.36000     -4.1295154E-09
   12.42000     -4.1902393E-09
   12.48000     -4.2339043E-09
   12.54000     -4.2638009E-09
   12.60000     -4.2840314E-09
   12.66000     -4.2978692E-09
   12.72000     -4.3067327E-09
   12.78000     -4.3100603E-09
   12.84000     -4.3059116E-09
   12.90000     -4.2918944E-09
   12.96000     -4.2660737E-09
   13.02000     -4.2276866E-09
   13.08000     -4.1775765E-09
   13.14000     -4.1182204E-09
   13.20000     -4.0532178E-09
   13.26000     -3.9862416E-09
   13.32000     -3.9197756E-09
   13.38000     -3.8542249E-09
   13.44000     -3.7879504E-09
   13.50000     -3.7183365E-09
   13.56000     -3.6433874E-09
   13.62000     -3.5629260E-09
   13.68000     -3.4786389E-09
   13.74000     -3.3928536E-09
   13.80000     -3.3067382E-09
   13.86000     -3.2190133E-09
   13.92000     -3.1259719E-09
   13.98000     -3.0228324E-09
   14.04000     -2.9056701E-09
   14.10000     -2.7729197E-09
   14.16000     -2.6258404E-09
   14.22000     -2.4680484E-09
   14.28000     -2.3047275E-09
   14.34000     -2.1420745E-09
   14.40000     -1.9870401E-09
   14.46000     -1.8469474E-09
   14.52000     -1.7285468E-09
   14.58000     -1.6365648E-09
   14.64000     -1.5724214E-09
   14.70000     -1.5339888E-09
   14.76000     -1.5167815E-09
   14.82000     -1.5160601E-09
   14.88000     -1.5286509E-09
   14.94000     -1.5533623E-09
   15.00000     -1.5897327E-09
   15.06000     -1.6359404E-09
   15.12000     -1.6872667E-09
   15.18000     -1.7361392E-09
   15.24000     -1.7737347E-09
   15.30000     -1.7921225E-09
   15.36000     -1.7856853E-09
   15.42000     -1.7512035E-09
   15.48000     -1.6870274E-09
   15.54000     -1.5924010E-09
   15.60000     -1.4677696E-09
   15.66000     -1.3159931E-09
   15.72000     -1.1435083E-09
   15.78000     -9.6033170E-10
   15.84000     -7.7851187E-10
   15.90000     -6.0970029E-10
   15.96000     -4.6312726E-10
   16.02000     -3.4496600E-10
   16.08000     -2.5907437E-10
   16.14000     -2.0814793E-10
   16.20000     -1.9412559E-10
   16.26000     -2.1738072E-10
   16.32000     -2.7527891E-10
   16.38000     -3.6128212E-10
   16.44000     -4.6547108E-10
   16.50000     -5.7637767E-10
   16.56000     -6.8311101E-10
   16.62000     -7.7660578E-10
   16.68000     -8.4952506E-10
   16.74000     -8.9535257E-10
   16.80000     -9.0775110E-10
   16.86000     -8.8094110E-10
   16.92000     -8.1095236E-10
   16.98000     -6.9685746E-10
   17.04000     -5.4109861E-10
   17.10000     -3.4876407E-10
   17.16000     -1.2653767E-10
   17.22000      1.1769341E-10
   17.28000      3.7418021E-10
   17.34000      6.3021938E-10
   17.40000      8.6984292E-10
   17.46000      1.0751637E-09
   17.52000      1.2291430E-09
   17.58000      1.3184726E-09
   17.64000      1.3350644E-09
   17.70000      1.2755073E-09
   17.76000      1.1392089E-09
   17.82000      9.2678698E-10
   17.88000      6.3999056E-10
   17.94000      2.8320854E-10
   18.00000     -1.3464173E-10
   18.06000     -5.9942279E-10
   18.12000     -1.0930618E-09
   18.18000     -1.5962242E-09
   18.24000     -2.0908608E-09
   18.30000     -2.5612936E-09
   18.36000     -2.9936302E-09
   18.42000     -3.3744982E-09
   18.48000     -3.6904697E-09
   18.54000     -3.9288532E-09
   18.60000     -4.0793431E-09
   18.66000     -4.1352699E-09
   18.72000     -4.0935078E-09
   18.78000     -3.9531391E-09
   18.84000     -3.7140198E-09
   18.90000     -3.3764980E-09
   18.96000     -2.9426863E-09
   19.02000     -2.4184703E-09
   19.08000     -1.8148247E-09
   19.14000     -1.1474742E-09
   19.20000     -4.3512488E-10
   19.26000      3.0249930E-10
   19.32000      1.0455302E-09
   19.38000      1.7733973E-09
   19.44000      2.4637072E-09
   19.50000      3.0919687E-09
   19.56000      3.6330239E-09
   19.62000      4.0638350E-09
   19.68000      4.3663051E-09
   19.74000      4.5288333E-09
   19.80000      4.5462420E-09
   19.86000      4.4188573E-09
   19.92000      4.1519526E-09
   19.98000      3.7561954E-09
   20.04000      3.2486502E-09
   20.10000      2.6531748E-09
   20.16000      1.9992714E-09
   20.22000      1.3195132E-09
   20.28000      6.4665845E-10
   20.34000      1.1775476E-11
   20.40000     -5.5609600E-10
   20.46000     -1.0293856E-09
   20.52000     -1.3818232E-09
   20.58000     -1.5895876E-09
   20.64000     -1.6336235E-09
   20.70000     -1.5020432E-09
   20.76000     -1.1914520E-09
   20.82000     -7.0684941E-10
   20.88000     -6.0765108E-11
   20.94000      7.2734679E-10
   21.00000      1.6310230E-09
   21.06000      2.6166347E-09
   21.12000      3.6443712E-09
   21.18000      4.6711377E-09
   21.24000      5.6548672E-09
   21.30000      6.5586265E-09
   21.36000      7.3527757E-09
   21.42000      8.0145757E-09
   21.48000      8.5262055E-09
   21.54000      8.8731129E-09
   21.60000      9.0441832E-09
   21.66000      9.0337755E-09
   21.72000      8.8442365E-09
   21.78000      8.4870981E-09
   21.84000      7.9820781E-09
   21.90000      7.3544539E-09
   21.96000      6.6322547E-09
   22.02000      5.8444383E-09
   22.08000      5.0200288E-09
   22.14000      4.1872048E-09
   22.20000      3.3713605E-09
   22.26000      2.5922688E-09
   22.32000      1.8617743E-09
   22.38000      1.1837683E-09
   22.44000      5.5713495E-10
   22.50000     -1.9502126E-11
   22.56000     -5.4373411E-10
   22.62000     -1.0083275E-09
   22.68000     -1.4037836E-09
   22.74000     -1.7229648E-09
   22.80000     -1.9651030E-09
   22.86000     -2.1370306E-09
   22.92000     -2.2512168E-09
   22.98000     -2.3219358E-09
   23.04000     -2.3615441E-09
   23.10000     -2.3782194E-09
   23.16000     -2.3753544E-09
   23.22000     -2.3520828E-09
   23.28000     -2.3045583E-09
   23.34000     -2.2281603E-09
   23.40000     -2.1208970E-09
   23.46000     -1.9874689E-09
   23.52000     -1.8422361E-09
   23.58000     -1.7087970E-09
   23.64000     -1.6149018E-09
   23.70000     -1.5838043E-09
   23.76000     -1.6255350E-09
   23.82000     -1.7323791E-09
   23.88000     -1.8812343E-09
   23.94000     -2.0422530E-09
   24.00000     -2.1900286E-09
   24.06000     -2.3123996E-09
   24.12000     -2.4132951E-09
   24.18000     -2.5090292E-09
   24.24000     -2.6203064E-09
   24.30000     -2.7634970E-09
   24.36000     -2.9441918E-09
   24.42000     -3.1545317E-09
   24.48000     -3.3744316E-09
   24.54000     -3.5761629E-09
   24.60000     -3.7314871E-09
   24.66000     -3.8200390E-09
   24.72000     -3.8367109E-09
   24.78000     -3.7950789E-09
   24.84000     -3.7243799E-09
   24.90000     -3.6597889E-09
   24.96000     -3.6289380E-09
   25.02000     -3.6400940E-09
   25.08000     -3.6774792E-09
   25.14000     -3.7063854E-09
   25.20000     -3.6863015E-09
   25.26000     -3.5865180E-09
   25.32000     -3.3976200E-09
   25.38000     -3.1343779E-09
   25.44000     -2.8295306E-09
   25.50000     -2.5216900E-09
   25.56000     -2.2423678E-09
   25.62000     -2.0065789E-09
   25.68000     -1.8094822E-09
   25.74000     -1.6293604E-09
   25.80000     -1.4356814E-09
   25.86000     -1.2000357E-09
   25.92000     -9.0705077E-10
   25.98000     -5.6190796E-10
   26.04000     -1.9136311E-10
   26.10000      1.6320324E-10
   26.16000      4.5923215E-10
   26.22000      6.6831535E-10
   26.28000      7.8718232E-10
   26.34000      8.3931673E-10
   26.40000      8.6600083E-10
   26.46000      9.1027652E-10
   26.52000      1.0004807E-09
   26.58000      1.1400118E-09
   26.64000      1.3069456E-09
   26.70000      1.4627721E-09
   26.76000      1.5661044E-09
   26.82000      1.5861146E-09
   26.88000      1.5115864E-09
   26.94000      1.3536406E-09
   27.00000      1.1421271E-09
   27.06000      9.1687258E-10
   27.12000      7.1577294E-10
   27.18000      5.6258481E-10
   27.24000      4.5812232E-10
   27.30000      3.7856382E-10
   27.36000      2.8287228E-10
   27.42000      1.2794403E-10
   27.48000     -1.1361941E-10
   27.54000     -4.4023493E-10
   27.60000     -8.1847612E-10
   27.66000     -1.1923353E-09
   27.72000     -1.5010485E-09
   27.78000     -1.6982893E-09
   27.84000     -1.7653250E-09
   27.90000     -1.7138376E-09
   27.96000     -1.5786903E-09
   28.02000     -1.4045697E-09
   28.08000     -1.2317201E-09
   28.14000     -1.0849980E-09
   28.20000     -9.6848340E-10
   28.26000     -8.6616131E-10
   28.32000     -7.4816864E-10
   28.38000     -5.8134075E-10
   28.44000     -3.4170788E-10
   28.50000     -2.5288143E-11
   28.56000      3.4703421E-10
   28.62000      7.3353235E-10
   28.68000      1.0843497E-09
   28.74000      1.3587522E-09
   28.80000      1.5401729E-09
   28.86000      1.6427050E-09
   28.92000      1.7061882E-09
   28.98000      1.7819195E-09
   29.04000      1.9148472E-09
   29.10000      2.1290412E-09
   29.16000      2.4211766E-09
   29.22000      2.7631637E-09
   29.28000      3.1118434E-09
   29.34000      3.4220522E-09
   29.40000      3.6593402E-09
   29.46000      3.8093275E-09
   29.52000      3.8814463E-09
   29.58000      3.9056380E-09
   29.64000      3.9220160E-09
   29.70000      3.9658157E-09
   29.76000      4.0524446E-09
   29.82000      4.1686090E-09
   29.88000      4.2740820E-09
   29.94000      4.3146193E-09
   30.00000      4.2416115E-09
   30.06000      4.0307029E-09
   30.12000      3.6918197E-09
   30.18000      3.2667484E-09
   30.24000      2.8157614E-09
   30.30000      2.3990201E-09
   30.36000      2.0597795E-09
   30.42000      1.8146254E-09
   30.48000      1.6526300E-09
   30.54000      1.5422592E-09
   30.60000      1.4431957E-09
   30.66000      1.3197941E-09
   30.72000      1.1529026E-09
   30.78000      9.4685981E-10
   30.84000      7.2896983E-10
   30.90000      5.4042237E-10
   30.96000      4.2064824E-10
   31.02000      3.9038067E-10
   31.08000      4.4036053E-10
   31.14000      5.3115834E-10
   31.20000      6.0511762E-10
   31.26000      6.0595673E-10
   31.32000      4.9797405E-10
   31.38000      2.7705793E-10
   31.44000     -3.0349685E-11
   31.50000     -3.7876827E-10
   31.56000     -7.2006162E-10
   31.62000     -1.0182083E-09
   31.68000     -1.2580341E-09
   31.74000     -1.4466959E-09
   31.80000     -1.6091497E-09
   31.86000     -1.7797136E-09
   31.92000     -1.9917057E-09
   31.98000     -2.2671025E-09
   32.04000     -2.6086575E-09
   32.10000     -2.9973424E-09
   32.16000     -3.3971432E-09
   32.22000     -3.7667185E-09
   32.28000     -4.0740797E-09
   32.34000     -4.3083079E-09
   32.40000     -4.4829793E-09
   32.46000     -4.6295847E-09
   32.52000     -4.7839577E-09
   32.58000     -4.9719473E-09
   32.64000     -5.2005049E-09
   32.70000     -5.4571996E-09
   32.76000     -5.7169500E-09
   32.82000     -5.9518932E-09
   32.88000     -6.1400827E-09
   32.94000     -6.2705485E-09
   33.00000     -6.3444849E-09
   33.06000     -6.3734622E-09
   33.12000     -6.3754171E-09
   33.18000     -6.3687091E-09
   33.24000     -6.3648868E-09
   33.30000     -6.3620842E-09
   33.36000     -6.3421086E-09
   33.42000     -6.2737993E-09
   33.48000     -6.1227263E-09
   33.54000     -5.8638476E-09
   33.60000     -5.4915357E-09
   33.66000     -5.0220734E-09
   33.72000     -4.4872861E-09
   33.78000     -3.9224002E-09
   33.84000     -3.3539802E-09
   33.90000     -2.7932767E-09
   33.96000     -2.2370836E-09
   34.02000     -1.6743184E-09
   34.08000     -1.0943233E-09
   34.14000     -4.9320648E-10
   34.20000      1.2342194E-10
   34.26000      7.4095885E-10
   34.32000      1.3384621E-09
   34.38000      1.8927813E-09
   34.44000      2.3839528E-09
   34.50000      2.8011675E-09
   34.56000      3.1473217E-09
   34.62000      3.4393310E-09
   34.68000      3.7023360E-09
   34.74000      3.9587738E-09
   34.80000      4.2165818E-09
   34.86000      4.4622839E-09
   34.92000      4.6630304E-09
   34.98000      4.7773798E-09
   35.04000      4.7700603E-09
   35.10000      4.6238573E-09
   35.16000      4.3433364E-09
   35.22000      3.9493853E-09
   35.28000      3.4680383E-09
   35.34000      2.9192602E-09
   35.40000      2.3104840E-09
   35.46000      1.6367532E-09
   35.52000      8.8624635E-10
   35.58000      4.8317305E-11
   35.64000     -8.7882573E-10
   35.70000     -1.8828725E-09
   35.76000     -2.9359255E-09
   35.82000     -3.9976156E-09
   35.88000     -5.0228572E-09
   35.94000     -5.9727130E-09
   36.00000     -6.8248909E-09
   36.06000     -7.5793114E-09
   36.12000     -8.2552791E-09
   36.18000     -8.8801810E-09
   36.24000     -9.4738883E-09
   36.30000     -1.0035754E-08
   36.36000     -1.0540457E-08
   36.42000     -1.0945010E-08
   36.48000     -1.1203984E-08
   36.54000     -1.1286196E-08
   36.60000     -1.1185753E-08
   36.66000     -1.0923300E-08
   36.72000     -1.0537836E-08
   36.78000     -1.0073123E-08
   36.84000     -9.5640784E-09
   36.90000     -9.0276009E-09
   36.96000     -8.4601446E-09
   37.02000     -7.8422069E-09
   37.08000     -7.1482500E-09
   37.14000     -6.3592713E-09
   37.20000     -5.4742966E-09
   37.26000     -4.5166879E-09
   37.32000     -3.5322116E-09
   37.38000     -2.5784717E-09
   37.44000     -1.7089660E-09
   37.50000     -9.5788399E-10
   37.56000     -3.3207123E-10
   37.62000      1.8624674E-10
   37.68000      6.2719618E-10
   37.74000      1.0169839E-09
   37.80000      1.3647521E-09
   37.86000      1.6577888E-09
   37.92000      1.8661688E-09
   37.98000      1.9538171E-09
   38.04000      1.8909729E-09
   38.10000      1.6635948E-09
   38.16000      1.2773991E-09
   38.22000      7.5641254E-10
   38.28000      1.3714935E-10
   38.34000     -5.4010413E-10
   38.40000     -1.2411602E-09
   38.46000     -1.9466191E-09
   38.52000     -2.6564657E-09
   38.58000     -3.3880767E-09
   38.64000     -4.1671600E-09
   38.70000     -5.0142823E-09
   38.76000     -5.9322876E-09
   38.82000     -6.9003003E-09
   38.88000     -7.8774791E-09
   38.94000     -8.8152552E-09
   39.00000     -9.6727915E-09
   39.06000     -1.0428922E-08
   39.12000     -1.1085695E-08
   39.18000     -1.1662710E-08
   39.24000     -1.2185486E-08
   39.30000     -1.2673191E-08
   39.36000     -1.3130427E-08
   39.42000     -1.3545356E-08
   39.48000     -1.3893717E-08
   39.54000     -1.4146466E-08
   39.60000     -1.4278313E-08
   39.66000     -1.4274777E-08
   39.72000     -1.4136001E-08
   39.78000     -1.3876283E-08
   39.84000     -1.3519221E-08
   39.90000     -1.3089670E-08
   39.96000     -1.2605136E-08
   40.02000     -1.2069925E-08
   40.08000     -1.1474691E-08
   40.14000     -1.0801878E-08
   40.20000     -1.0034872E-08
   40.26000     -9.1668158E-09
   40.32000     -8.2050882E-09
   40.38000     -7.1694606E-09
   40.44000     -6.0849397E-09
   40.50000     -4.9727040E-09
   40.56000     -3.8431942E-09
   40.62000     -2.6941840E-09
   40.68000     -1.5142905E-09
   40.74000     -2.9011679E-10
   40.80000      9.8596853E-10
   40.86000      2.3103053E-09
   40.92000      3.6664587E-09
   40.98000      5.0280944E-09
   41.04000      6.3651568E-09
   41.10000      7.6513320E-09
   41.16000      8.8703320E-09
   41.22000      1.0018793E-08
   41.28000      1.1104579E-08
   41.34000      1.2140878E-08
   41.40000      1.3138180E-08
   41.46000      1.4097266E-08
   41.52000      1.5006156E-08
   41.58000      1.5842437E-08
   41.64000      1.6580140E-08
   41.70000      1.7198344E-08
   41.76000      1.7687944E-08
   41.82000      1.8053921E-08
   41.88000      1.8312289E-08
   41.94000      1.8483266E-08
   42.00000      1.8583492E-08
   42.06000      1.8620343E-08
   42.12000      1.8590264E-08
   42.18000      1.8481478E-08
   42.24000      1.8279776E-08
   42.30000      1.7975227E-08
   42.36000      1.7567519E-08
   42.42000      1.7068176E-08
   42.48000      1.6498957E-08
   42.54000      1.5886915E-08
   42.60000      1.5257598E-08
   42.66000      1.4628514E-08
   42.72000      1.4004999E-08
   42.78000      1.3379902E-08
   42.84000      1.2737351E-08
   42.90000      1.2059465E-08
   42.96000      1.1333831E-08
   43.02000      1.0559199E-08
   43.08000      9.7473736E-09
   43.14000      8.9205532E-09
   43.20000      8.1049665E-09
   43.26000      7.3229645E-09
   43.32000      6.5863768E-09
   43.38000      5.8935781E-09
   43.44000      5.2314024E-09
   43.50000      4.5813571E-09
   43.56000      3.9279651E-09
   43.62000      3.2662408E-09
   43.68000      2.6055194E-09
   43.74000      1.9681137E-09
   43.80000      1.3831007E-09
   43.86000      8.7727081E-10
   43.92000      4.6629067E-10
   43.98000      1.4909264E-10
   44.04000     -9.2565587E-11
   44.10000     -2.8912917E-10
   44.16000     -4.7437015E-10
   44.22000     -6.7539274E-10
   44.28000     -9.0468716E-10
   44.34000     -1.1567928E-09
   44.40000     -1.4106910E-09
   44.46000     -1.6371983E-09
   44.52000     -1.8089265E-09
   44.58000     -1.9094328E-09
   44.64000     -1.9383717E-09
   44.70000     -1.9108195E-09
   44.76000     -1.8510508E-09
   44.82000     -1.7831169E-09
   44.88000     -1.7218074E-09
   44.94000     -1.6674129E-09
   45.00000     -1.6061914E-09
   45.06000     -1.5161778E-09
   45.12000     -1.3759039E-09
   45.18000     -1.1725617E-09
   45.24000     -9.0654823E-10
   45.30000     -5.9090188E-10
   45.36000     -2.4619112E-10
   45.42000      1.0694835E-10
   45.48000      4.5478532E-10
   45.54000      7.9459944E-10
   45.60000      1.1347773E-09
   45.66000      1.4911571E-09
   45.72000      1.8809654E-09
   45.78000      2.3161943E-09
   45.84000      2.7982414E-09
   45.90000      3.3152385E-09
   45.96000      3.8428905E-09
   46.02000      4.3488693E-09
   46.08000      4.7999200E-09
   46.14000      5.1699276E-09
   46.20000      5.4466214E-09
   46.26000      5.6346430E-09
   46.32000      5.7536762E-09
   46.38000      5.8319709E-09
   46.44000      5.8973666E-09
   46.50000      5.9690155E-09
   46.56000      6.0528249E-09
   46.62000      6.1421850E-09
   46.68000      6.2233818E-09
   46.74000      6.2832068E-09
   46.80000      6.3155361E-09
   46.86000      6.3242984E-09
   46.92000      6.3219425E-09
   46.98000      6.3243935E-09
   47.04000      6.3446719E-09
   47.10000      6.3875665E-09
   47.16000      6.4470287E-09
   47.22000      6.5068715E-09
   47.28000      6.5443957E-09
   47.34000      6.5358887E-09
   47.40000      6.4626353E-09
   47.46000      6.3159198E-09
   47.52000      6.0995937E-09
   47.58000      5.8292344E-09
   47.64000      5.5278160E-09
   47.70000      5.2190021E-09
   47.76000      4.9201723E-09
   47.82000      4.6375881E-09
   47.88000      4.3653685E-09
   47.94000      4.0884851E-09
   48.00000      3.7884327E-09
   48.06000      3.4493182E-09
   48.12000      3.0622593E-09
   48.18000      2.6269715E-09
   48.24000      2.1506359E-09
   48.30000      1.6449965E-09
   48.36000      1.1228352E-09
   48.42000      5.9473260E-10
   48.48000      6.6712601E-11
   48.54000     -4.6077478E-10
   48.60000     -9.9214337E-10
   48.66000     -1.5341282E-09
   48.72000     -2.0919471E-09
   48.78000     -2.6654774E-09
   48.84000     -3.2471408E-09
   48.90000     -3.8227328E-09
   48.96000     -4.3751531E-09
   49.02000     -4.8895425E-09
   49.08000     -5.3575371E-09
   49.14000     -5.7787344E-09
   49.20000     -6.1589343E-09
   49.26000     -6.5062835E-09
   49.32000     -6.8273756E-09
   49.38000     -7.1249775E-09
   49.44000     -7.3978885E-09
   49.50000     -7.6421989E-09
   49.56000     -7.8527691E-09
   49.62000     -8.0241609E-09
   49.68000     -8.1510780E-09
   49.74000     -8.2288674E-09
   49.80000     -8.2543883E-09
   49.86000     -8.2269453E-09
   49.92000     -8.1484819E-09
   49.98000     -8.0225302E-09
   50.04000     -7.8521873E-09
   50.10000     -7.6381905E-09
   50.16000     -7.3782078E-09
   50.22000     -7.0677175E-09
   50.28000     -6.7017396E-09
   50.34000     -6.2761338E-09
   50.40000     -5.7875513E-09
   50.46000     -5.2321796E-09
   50.52000     -4.6043356E-09
   50.58000     -3.8960235E-09
   50.64000     -3.0977350E-09
   50.70000     -2.1996809E-09
   50.76000     -1.1922231E-09
   50.82000     -6.4831925E-11
   50.88000      1.1959573E-09
   50.94000      2.6083173E-09
   51.00000      4.1955763E-09
   51.06000      5.9853504E-09
   51.12000      8.0084384E-09
   51.18000      1.0298717E-08
   51.24000      1.2894326E-08
   51.30000      1.5839118E-08
   51.36000      1.9182711E-08
   51.42000      2.2978226E-08
   51.48000      2.7278427E-08
   51.54000      3.2132384E-08
   51.60000      3.7584744E-08
   51.66000      4.3678373E-08
   51.72000      5.0458809E-08
   51.78000      5.7978070E-08
   51.84000      6.6295478E-08
   51.90000      7.5475043E-08
   51.96000      8.5580950E-08
   52.02000      9.6673311E-08
   52.08000      1.0880584E-07
   52.14000      1.2202558E-07
   52.20000      1.3637332E-07
   52.26000      1.5188338E-07
   52.32000      1.6858202E-07
   52.38000      1.8648456E-07
   52.44000      2.0559197E-07
   52.50000      2.2588726E-07
   52.56000      2.4733177E-07
   52.62000      2.6986092E-07
   52.68000      2.9337971E-07
   52.74000      3.1775855E-07
   52.80000      3.4283030E-07
   52.86000      3.6838935E-07
   52.92000      3.9419206E-07
   52.98000      4.1995776E-07
   53.04000      4.4536932E-07
   53.10000      4.7007148E-07
   53.16000      4.9366707E-07
   53.22000      5.1571163E-07
   53.28000      5.3570812E-07
   53.34000      5.5310232E-07
   53.40000      5.6728197E-07
   53.46000      5.7757990E-07
   53.52000      5.8328112E-07
   53.58000      5.8363236E-07
   53.64000      5.7785098E-07
   53.70000      5.6513255E-07
   53.76000      5.4465488E-07
   53.82000      5.1558169E-07
   53.88000      4.7706681E-07
   53.94000      4.2826198E-07
   54.00000      3.6832793E-07
   54.06000      2.9644895E-07
   54.12000      2.1184884E-07
   54.18000      1.1380816E-07
   54.24000      1.6827104E-09
   54.30000     -1.2507695E-07
   54.36000     -2.6690657E-07
   54.42000     -4.2411236E-07
   54.48000     -5.9685959E-07
   54.54000     -7.8516632E-07
   54.60000     -9.8889745E-07
   54.66000     -1.2077560E-06
   54.72000     -1.4412691E-06
   54.78000     -1.6887715E-06
   54.84000     -1.9493916E-06
   54.90000     -2.2220461E-06
   54.96000     -2.5054471E-06
   55.02000     -2.7981107E-06
   55.08000     -3.0983690E-06
   55.14000     -3.4043744E-06
   55.20000     -3.7141003E-06
   55.26000     -4.0253444E-06
   55.32000     -4.3357436E-06
   55.38000     -4.6427931E-06
   55.44000     -4.9438795E-06
   55.50000     -5.2363057E-06
   55.56000     -5.5173127E-06