 -0.750000000       0.00000000    
 -0.689999998       0.00000000    
 -0.629999995       0.00000000    
 -0.569999993       0.00000000    
 -0.509999990       0.00000000    
 -0.449999988       0.00000000    
 -0.389999986       1.23658667E-22
 -0.330000013       4.89738784E-22
 -0.270000011      -1.56874419E-21
 -0.209999993      -1.96063648E-20
 -0.150000006      -8.39870726E-20
  -9.00000036E-02  -2.15654426E-19
  -2.99999993E-02  -3.28821173E-19
   2.99999993E-02  -8.08186736E-20
   9.00000036E-02   1.16463732E-18
  0.150000006       3.94861779E-18
  0.209999993       7.68422086E-18
  0.270000011       9.32292852E-18
  0.330000013       2.98165999E-18
  0.389999986      -1.76399111E-17
  0.449999988      -5.31019976E-17
  0.509999990      -9.03164828E-17
  0.569999993      -9.88468854E-17
  0.629999995      -3.93001053E-17
  0.689999998       1.12176001E-16
  0.750000000       3.30217594E-16
  0.810000002       5.18020310E-16
  0.870000005       5.23615916E-16
  0.930000007       2.10106589E-16
  0.990000010      -4.36868783E-16
   1.04999995      -1.22094897E-15
   1.11000001      -1.74293980E-15
   1.16999996      -1.55496847E-15
   1.23000002      -4.31700374E-16
   1.28999996       1.37103950E-15
   1.35000002       3.05730698E-15
   1.40999997       3.56926428E-15
   1.47000003       2.16827221E-15
   1.52999997      -9.42635227E-16
   1.59000003      -4.36160939E-15
   1.64999998      -5.92767463E-15
   1.71000004      -3.85241553E-15
   1.76999998       1.93240403E-15
   1.83000004       9.02332848E-15
   1.88999999       1.31215907E-14
   1.95000005       1.00714428E-14
   2.00999999      -1.40869202E-15
   2.06999993      -1.77902703E-14
   2.13000011      -3.10865191E-14
   2.19000006      -3.20441034E-14
   2.25000000      -1.51523403E-14
   2.30999994       1.69534017E-14
   2.36999989       5.24287780E-14
   2.43000007       7.39863222E-14
   2.49000001       6.65593408E-14
   2.54999995       2.55312078E-14
   2.60999990      -3.87669328E-14
   2.67000008      -1.03289488E-13
   2.73000002      -1.41067537E-13
   2.78999996      -1.32884155E-13
   2.84999990      -7.62801823E-14
   2.91000009       1.27000724E-14
   2.97000003       1.06106374E-13
   3.02999997       1.75845924E-13
   3.08999991       2.04755131E-13
   3.15000010       1.91561136E-13
   3.21000004       1.47678988E-13
   3.26999998       8.82195521E-14
   3.32999992       2.26131522E-14
   3.39000010      -4.97648628E-14
   3.45000005      -1.36534257E-13
   3.50999999      -2.43544632E-13
   3.56999993      -3.65211333E-13
   3.63000011      -4.79236551E-13
   3.69000006      -5.48867484E-13
   3.75000000      -5.32421871E-13
   3.80999994      -3.96814526E-13
   3.86999989      -1.30404951E-13
   3.93000007       2.49122608E-13
   3.99000001       6.94464722E-13
   4.05000019       1.13633083E-12
   4.11000013       1.49699816E-12
   4.17000008       1.70585280E-12
   4.23000002       1.71205021E-12
   4.28999996       1.49021550E-12
   4.34999990       1.03788202E-12
   4.40999985       3.67402208E-13
   4.46999979      -5.01452992E-13
   4.53000021      -1.54125204E-12
   4.59000015      -2.70522146E-12
   4.65000010      -3.90652658E-12
   4.71000004      -4.99738662E-12
   4.76999998      -5.76032277E-12
   4.82999992      -5.92220760E-12
   4.88999987      -5.19553151E-12
   4.94999981      -3.34298583E-12
   5.01000023      -2.54065893E-13
   5.07000017       3.98202912E-12
   5.13000011       9.02406188E-12
   5.19000006       1.42622173E-11
   5.25000000       1.88481730E-11
   5.30999994       2.17748840E-11
   5.36999989       2.19977404E-11
   5.42999983       1.85755578E-11
   5.48999977       1.07992990E-11
   5.55000019      -1.72565499E-12
   5.61000013      -1.90680076E-11
   5.67000008      -4.10341171E-11
   5.73000002      -6.72884248E-11
   5.78999996      -9.74968370E-11
   5.84999990      -1.31456790E-10
   5.90999985      -1.69188427E-10
   5.96999979      -2.10976556E-10
   6.03000021      -2.57365268E-10
   6.09000015      -3.09108572E-10
   6.15000010      -3.67078729E-10
   6.21000004      -4.32132941E-10
   6.26999998      -5.04947750E-10
   6.32999992      -5.85851312E-10
   6.38999987      -6.74698408E-10
   6.44999981      -7.70836506E-10
   6.51000023      -8.73187300E-10
   6.57000017      -9.80427184E-10
   6.63000011      -1.09120701E-09
   6.69000006      -1.20433219E-09
   6.75000000      -1.31883804E-09
   6.80999994      -1.43394396E-09
   6.86999989      -1.54892787E-09
   6.92999983      -1.66299685E-09
   6.98999977      -1.77522808E-09
   7.05000019      -1.88461335E-09
   7.11000013      -1.99017269E-09
   7.17000008      -2.09107243E-09
   7.23000002      -2.18666618E-09
   7.28999996      -2.27643060E-09
   7.34999990      -2.35982811E-09
   7.40999985      -2.43617504E-09
   7.46999979      -2.50460341E-09
   7.53000021      -2.56415111E-09
   7.59000015      -2.61394617E-09
   7.65000010      -2.65338751E-09
   7.71000004      -2.68222111E-09
   7.76999998      -2.70046474E-09
   7.82999992      -2.70821965E-09
   7.88999987      -2.70548850E-09
   7.94999981      -2.69211586E-09
   8.01000023      -2.66790878E-09
   8.06999969      -2.63288480E-09
   8.13000011      -2.58750887E-09
   8.18999958      -2.53276866E-09
   8.25000000      -2.47001819E-09
   8.31000042      -2.40065612E-09
   8.36999989      -2.32579667E-09
   8.43000031      -2.24611352E-09
   8.48999977      -2.16193952E-09
   8.55000019      -2.07356710E-09
   8.60999966      -1.98157113E-09
   8.67000008      -1.88697702E-09
   8.72999954      -1.79118209E-09
   8.78999996      -1.69568082E-09
   8.85000038      -1.60175306E-09
   8.90999985      -1.51025958E-09
   8.97000027      -1.42160772E-09
   9.02999973      -1.33582179E-09
   9.09000015      -1.25260335E-09
   9.14999962      -1.17131349E-09
   9.21000004      -1.09091247E-09
   9.27000046      -1.00998343E-09
   9.32999992      -9.26944688E-10
   9.39000034      -8.40432224E-10
   9.44999981      -7.49688700E-10
   9.51000023      -6.54728161E-10
   9.56999969      -5.56142576E-10
   9.63000011      -4.54627364E-10
   9.68999958      -3.50512341E-10
   9.75000000      -2.43632697E-10
   9.81000042      -1.33710626E-10
   9.86999989      -2.11029631E-11
   9.93000031       9.25083760E-11
   9.98999977       2.03967745E-10
   10.0500002       3.09292092E-10
   10.1099997       4.04942690E-10
   10.1700001       4.89165486E-10
   10.2299995       5.62721758E-10
   10.2900000       6.28574970E-10
   10.3500004       6.90602409E-10
   10.4099998       7.51905205E-10
   10.4700003       8.13520640E-10
   10.5299997       8.74155970E-10
   10.5900002       9.31045518E-10
   10.6499996       9.81448256E-10
   10.7100000       1.02396536E-09
   10.7700005       1.05895515E-09
   10.8299999       1.08781628E-09
   10.8900003       1.11155063E-09
   10.9499998       1.12944532E-09
   11.0100002       1.13871124E-09
   11.0699997       1.13543686E-09
   11.1300001       1.11651821E-09
   11.1899996       1.08165721E-09
   11.2500000       1.03439612E-09
   11.3100004       9.81559167E-10
   11.3699999       9.31213273E-10
   11.4300003       8.89976315E-10
   11.4899998       8.60824967E-10
   11.5500002       8.42334869E-10
   11.6099997       8.29632196E-10
   11.6700001       8.16581969E-10
   11.7299995       7.98248190E-10
   11.7900000       7.72638509E-10
   11.8500004       7.41153749E-10
   11.9099998       7.07750969E-10
   11.9700003       6.77311096E-10
   12.0299997       6.53890275E-10
   12.0900002       6.39430120E-10
   12.1499996       6.33244901E-10
   12.2100000       6.32349839E-10
   12.2700005       6.32514374E-10
   12.3299999       6.29793273E-10
   12.3900003       6.22153051E-10
   12.4499998       6.10678397E-10
   12.5100002       5.99817807E-10
   12.5699997       5.96336702E-10
   12.6300001       6.07115747E-10
   12.6899996       6.36502129E-10
   12.7500000       6.84304169E-10
   12.8100004       7.45426443E-10
   12.8699999       8.11520351E-10
   12.9300003       8.74102901E-10
   12.9899998       9.27827259E-10
   13.0500002       9.72410152E-10
   13.1099997       1.01227771E-09
   13.1700001       1.05406772E-09
   13.2299995       1.10316956E-09
   13.2900000       1.16097942E-09
   13.3500004       1.22420118E-09
   13.4099998       1.28651312E-09
   13.4700003       1.34174771E-09
   13.5299997       1.38698164E-09
   13.5900002       1.42398626E-09
   13.6499996       1.45830392E-09
   13.7100000       1.49637291E-09
   13.7700005       1.54207203E-09
   13.8299999       1.59432512E-09
   13.8900003       1.64690228E-09
   13.9499998       1.69052528E-09
   14.0100002       1.71632397E-09
   14.0699997       1.71909975E-09
   14.1300001       1.69897607E-09
   14.1899996       1.66079339E-09
   14.2500000       1.61164826E-09
   14.3100004       1.55780056E-09
   14.3699999       1.50239066E-09
   14.4300003       1.44493850E-09
   14.4899998       1.38268330E-09
   14.5500002       1.31292788E-09
   14.6099997       1.23510868E-09
   14.6700001       1.15154664E-09
   14.7299995       1.06657483E-09
   14.7900000       9.84606618E-10
   14.8500004       9.08226661E-10
   14.9099998       8.37303227E-10
   14.9700003       7.69516006E-10
   15.0299997       7.01917302E-10
   15.0900002       6.32629171E-10
   15.1499996       5.61790281E-10
   15.2100000       4.91345908E-10
   15.2700005       4.23926033E-10
   15.3299999       3.61503522E-10
   15.3900003       3.04549802E-10
   15.4499998       2.52051380E-10
   15.5100002       2.02270145E-10
   15.5699997       1.53800805E-10
   15.6300001       1.06443118E-10
   15.6899996       6.16070250E-11
   15.7500000       2.22195214E-11
   15.8100004      -7.75892371E-12
   15.8699999      -2.40992296E-11
   15.9300003      -2.32813647E-11
   15.9899998      -3.57361623E-12
   16.0499992       3.40455060E-11
   16.1100006       8.55255103E-11
   16.1700001       1.44305734E-10
   16.2299995       2.02858841E-10
   16.2900009       2.54793076E-10
   16.3500004       2.96697805E-10
   16.4099998       3.28879202E-10
   16.4699993       3.54555579E-10
   16.5300007       3.77794102E-10
   16.5900002       4.01112810E-10
   16.6499996       4.23882651E-10
   16.7099991       4.42301529E-10
   16.7700005       4.50950249E-10
   16.8299999       4.45175563E-10
   16.8899994       4.23172414E-10
   16.9500008       3.86831817E-10
   17.0100002       3.41051493E-10
   17.0699997       2.91920765E-10
   17.1299992       2.44634007E-10
   17.1900005       2.01987149E-10
   17.2500000       1.63943040E-10
   17.3099995       1.28253866E-10
   17.3700008       9.17486712E-11
   17.4300003       5.17454725E-11
   17.4899998       7.10962842E-12
   17.5499992      -4.13428354E-11
   17.6100006      -9.11856701E-11
   17.6700001      -1.39336237E-10
   17.7299995      -1.83280321E-10
   17.7900009      -2.22079716E-10
   17.8500004      -2.56691446E-10
   17.9099998      -2.89376773E-10
   17.9699993      -3.22405824E-10
   18.0300007      -3.56669028E-10
   18.0900002      -3.90943861E-10
   18.1499996      -4.22290425E-10
   18.2099991      -4.47471116E-10
   18.2700005      -4.64713545E-10
   18.3299999      -4.74913053E-10
   18.3899994      -4.81650442E-10
   18.4500008      -4.90026686E-10
   18.5100002      -5.04913555E-10
   18.5699997      -5.29438104E-10
   18.6299992      -5.64268909E-10
   18.6900005      -6.07767892E-10
   18.7500000      -6.56675381E-10
   18.8099995      -7.06938619E-10
   18.8700008      -7.54522556E-10
   18.9300003      -7.96273159E-10
   18.9899998      -8.30873592E-10
   19.0499992      -8.59638138E-10
   19.1100006      -8.86598794E-10
   19.1700001      -9.17413312E-10
   19.2299995      -9.57165680E-10
   19.2900009      -1.00787623E-09
   19.3500004      -1.06696607E-09
   19.4099998      -1.12763743E-09
   19.4699993      -1.18119270E-09
   19.5300007      -1.22022992E-09
   19.5900002      -1.24112198E-09
   19.6499996      -1.24455857E-09
   19.7099991      -1.23401345E-09
   19.7700005      -1.21312027E-09
   19.8299999      -1.18341548E-09
   19.8899994      -1.14351018E-09
   19.9500008      -1.08980669E-09
   20.0100002      -1.01806674E-09
   20.0699997      -9.24924970E-10
   20.1299992      -8.08843437E-10
   20.1900005      -6.70553668E-10
   20.2500000      -5.13257992E-10
   20.3099995      -3.42618045E-10
   20.3700008      -1.66182235E-10
   20.4300003       8.12487404E-12
   20.4899998       1.74308804E-10
   20.5499992       3.30508731E-10
   20.6100006       4.79834006E-10
   20.6700001       6.29036601E-10
   20.7299995       7.85372101E-10
   20.7900009       9.53126467E-10
   20.8500004       1.13158616E-09
   20.9099998       1.31543254E-09
   20.9699993       1.49712431E-09
   21.0300007       1.66973890E-09
   21.0900002       1.82869375E-09
   21.1499996       1.97175654E-09
   21.2099991       2.09799800E-09
   21.2700005       2.20693930E-09
   21.3299999       2.29868014E-09
   21.3899994       2.37469244E-09
   21.4500008       2.43818699E-09
   21.5100002       2.49315968E-09
   21.5699997       2.54231791E-09
   21.6299992       2.58521538E-09
   21.6900005       2.61811750E-09
   21.7500000       2.63610467E-09
   21.8099995       2.63636157E-09
   21.8700008       2.62063105E-09
   21.9300003       2.59522337E-09
   21.9899998       2.56853849E-09
   22.0499992       2.54769428E-09
   22.1100006       2.53637089E-09
   22.1700001       2.53500043E-09
   22.2299995       2.54268606E-09
   22.2900009       2.55901855E-09
   22.3500004       2.58419774E-09
   22.4099998       2.61735722E-09
   22.4699993       2.65457523E-09
   22.5300007       2.68850675E-09
   22.5900002       2.71045453E-09
   22.6499996       2.71387113E-09
   22.7099991       2.69707212E-09
   22.7700005       2.66334865E-09
   22.8299999       2.61839506E-09
   22.8899994       2.56679944E-09
   22.9500008       2.50991827E-09
   23.0100002       2.44637244E-09
   23.0699997       2.37447861E-09
   23.1299992       2.29462827E-09
   23.1900005       2.20985097E-09
   23.2500000       2.12435736E-09
   23.3099995       2.04145945E-09
   23.3700008       1.96267846E-09
   23.4300003       1.88877003E-09
   23.4899998       1.82169935E-09
   23.5499992       1.76567827E-09
   23.6100006       1.72601022E-09
   23.6700001       1.70621317E-09
   23.7299995       1.70537429E-09
   23.7900009       1.71772452E-09
   23.8500004       1.73491432E-09
   23.9099998       1.74954973E-09
   23.9699993       1.75765225E-09
   24.0300007       1.75856762E-09
   24.0900002       1.75279369E-09
   24.1499996       1.73974446E-09
   24.2099991       1.71741554E-09
   24.2700005       1.68428782E-09
   24.3299999       1.64188907E-09
   24.3899994       1.59574531E-09
   24.4500008       1.55358260E-09
   24.5100002       1.52176893E-09
   24.5699997       1.50245361E-09
   24.6299992       1.49350121E-09
   24.6900005       1.49130086E-09
   24.7500000       1.49436874E-09
   24.8099995       1.50497004E-09
   24.8700008       1.52736312E-09
   24.9300003       1.56372226E-09
   24.9899998       1.61054015E-09
   25.0499992       1.65805314E-09
   25.1100006       1.69317960E-09
   25.1700001       1.70410663E-09
   25.2299995       1.68371250E-09
   25.2900009       1.63007685E-09
   25.3500004       1.54450919E-09
   25.4099998       1.42915213E-09
   25.4699993       1.28610600E-09
   25.5300007       1.11841691E-09
   25.5900002       9.31521971E-10
   25.6499996       7.33297367E-10
   25.7099991       5.32047795E-10
   25.7700005       3.33595263E-10
   25.8299999       1.39582887E-10
   25.8899994      -5.16515511E-11
   25.9500008      -2.42193821E-10
   26.0100002      -4.31805369E-10
   26.0699997      -6.17414397E-10
   26.1299992      -7.95271848E-10
   26.1900005      -9.64136881E-10
   26.2500000      -1.12700782E-09
   26.3099995      -1.28994937E-09
   26.3700008      -1.45871804E-09
   26.4300003      -1.63551284E-09
   26.4899998      -1.81803927E-09
   26.5499992      -2.00130956E-09
   26.6100006      -2.18057394E-09
   26.6700001      -2.35307240E-09
   26.7299995      -2.51741628E-09
   26.7900009      -2.67144729E-09
   26.8500004      -2.81072210E-09
   26.9099998      -2.92929281E-09
   26.9699993      -3.02254088E-09
   27.0300007      -3.09002313E-09
   27.0900002      -3.13605719E-09
   27.1499996      -3.16739235E-09
   27.2099991      -3.18955040E-09
   27.2700005      -3.20454641E-09
   27.3299999      -3.21174909E-09
   27.3899994      -3.21126237E-09
   27.4500008      -3.20718696E-09
   27.5100002      -3.20800808E-09
   27.5699997      -3.22334470E-09
   27.6299992      -3.25895377E-09
   27.6900005      -3.31327699E-09
   27.7500000      -3.37791151E-09
   27.8099995      -3.44179263E-09
   27.8700008      -3.49647622E-09
   27.9300003      -3.53933993E-09
   27.9899998      -3.57310359E-09
   28.0499992      -3.60257824E-09
   28.1100006      -3.63114494E-09
   28.1700001      -3.65917074E-09
   28.2299995      -3.68479536E-09
   28.2900009      -3.70579101E-09
   28.3500004      -3.72078524E-09
   28.4099998      -3.72917741E-09
   28.4699993      -3.73051012E-09
   28.5300007      -3.72457798E-09
   28.5900002      -3.71266862E-09
   28.6499996      -3.69886632E-09
   28.7099991      -3.68966568E-09
   28.7700005      -3.69103792E-09
   28.8299999      -3.70410258E-09
   28.8899994      -3.72212194E-09
   28.9500008      -3.73134856E-09
   29.0100002      -3.71612741E-09
   29.0699997      -3.66595465E-09
   29.1299992      -3.58074703E-09
   29.1900005      -3.47145312E-09
   29.2500000      -3.35579298E-09
   29.3099995      -3.25162874E-09
   29.3700008      -3.17147442E-09
   29.4300003      -3.12049431E-09
   29.4899998      -3.09796966E-09
   29.5499992      -3.10034221E-09
   29.6100006      -3.12370774E-09
   29.6700001      -3.16482907E-09
   29.7299995      -3.22120930E-09
   29.7900009      -3.29124594E-09
   29.8500004      -3.37479245E-09
   29.9099998      -3.47336271E-09
   29.9699993      -3.58889918E-09
   30.0300007      -3.72099307E-09
   30.0900002      -3.86396071E-09
   30.1499996      -4.00602618E-09
   30.2099991      -4.13208090E-09
   30.2700005      -4.22938395E-09
   30.3299999      -4.29346958E-09
   30.3899994      -4.33097425E-09
   30.4500008      -4.35750014E-09
   30.5100002      -4.39130599E-09
   30.5699997      -4.44582238E-09
   30.6299992      -4.52447679E-09
   30.6900005      -4.61989424E-09
   30.7500000      -4.71724437E-09
   30.8099995      -4.79973394E-09
   30.8700008      -4.85384888E-09
   30.9300003      -4.87271956E-09
   30.9899998      -4.85715113E-09
   31.0499992      -4.81458517E-09
   31.1100006      -4.75643080E-09
   31.1700001      -4.69425876E-09
   31.2299995      -4.63564698E-09
   31.2900009      -4.58105021E-09
   31.3500004      -4.52324933E-09
   31.4099998      -4.45025394E-09
   31.4699993      -4.35095604E-09
   31.5300007      -4.22120472E-09
   31.5900002      -4.06734779E-09
   31.6499996      -3.90529520E-09
   31.7099991      -3.75532005E-09
   31.7700005      -3.63497477E-09
   31.8299999      -3.55333163E-09
   31.8899994      -3.50889029E-09
   31.9500008      -3.49148355E-09
   32.0099983      -3.48666185E-09
   32.0699997      -3.48030449E-09
   32.1300011      -3.46180884E-09
   32.1899986      -3.42541884E-09
   32.2500000      -3.37017658E-09
   32.3100014      -3.29913763E-09
   32.3699989      -3.21806737E-09
   32.4300003      -3.13349147E-09
   32.4900017      -3.05015524E-09
   32.5499992      -2.96855629E-09
   32.6100006      -2.88368618E-09
   32.6699982      -2.78592727E-09
   32.7299995      -2.66414135E-09
   32.7900009      -2.50986076E-09
   32.8499985      -2.32085284E-09
   32.9099998      -2.10256368E-09
   32.9700012      -1.86689597E-09
   33.0299988      -1.62886526E-09
   33.0900002      -1.40235845E-09
   33.1500015      -1.19631893E-09
   33.2099991      -1.01238795E-09
   33.2700005      -8.44632586E-10
   33.3300018      -6.81592505E-10
   33.3899994      -5.10387066E-10
   33.4500008      -3.21913995E-10
   33.5099983      -1.15441073E-10
   33.5699997       9.93920571E-11
   33.6300011       3.04530956E-10
   33.6899986       4.79264406E-10
   33.7500000       6.07810968E-10
   33.8100014       6.85635770E-10
   33.8699989       7.21700588E-10
   33.9300003       7.35570049E-10
   33.9900017       7.50594531E-10
   34.0499992       7.86079979E-10
   34.1100006       8.51599125E-10
   34.1699982       9.45395651E-10
   34.2299995       1.05692599E-09
   34.2900009       1.17200305E-09
   34.3499985       1.27837718E-09
   34.4099998       1.36993239E-09
   34.4700012       1.44849777E-09
   34.5299988       1.52308111E-09
   34.5900002       1.60688884E-09
   34.6500015       1.71291459E-09
   34.7099991       1.84928817E-09
   34.7700005       2.01587658E-09
   34.8300018       2.20350849E-09
   34.8899994       2.39641951E-09
   34.9500008       2.57720645E-09
   35.0099983       2.73236700E-09
   35.0699997       2.85608448E-09
   35.1300011       2.95070257E-09
   35.1899986       3.02394199E-09
   35.2500000       3.08451220E-09
   35.3100014       3.13841886E-09
   35.3699989       3.18763971E-09
   35.4300003       3.23135718E-09
   35.4900017       3.26854477E-09
   35.5499992       3.30020766E-09
   35.6100006       3.33014794E-09
   35.6699982       3.36425110E-09
   35.7299995       3.40912765E-09
   35.7900009       3.47100682E-09
   35.8499985       3.55514174E-09
   35.9099998       3.66531050E-09
   35.9700012       3.80285714E-09
   36.0299988       3.96526989E-09
   36.0900002       4.14508650E-09
   36.1500015       4.33024816E-09
   36.2099991       4.50647297E-09
   36.2700005       4.66107686E-09
   36.3300018       4.78659290E-09
   36.3899994       4.88237673E-09
   36.4500008       4.95331154E-09
   36.5099983       5.00625896E-09
   36.5699997       5.04613995E-09
   36.6300011       5.07368370E-09
   36.6899986       5.08587394E-09
   36.7500000       5.07854248E-09
   36.8100014       5.04941644E-09
   36.8699989       4.99980235E-09
   36.9300003       4.93407093E-09
   36.9900017       4.85746821E-09
   37.0499992       4.77372675E-09
   37.1100006       4.68391637E-09
   37.1699982       4.58709204E-09
   37.2299995       4.48216753E-09
   37.2900009       4.36973968E-09
   37.3499985       4.25267110E-09
   37.4099998       4.13497814E-09
   37.4700012       4.01946565E-09
   37.5299988       3.90516464E-09
   37.5900002       3.78567355E-09
   37.6500015       3.64916475E-09
   37.7099991       3.48024098E-09
   37.7700005       3.26328076E-09
   37.8300018       2.98644531E-09
   37.8899994       2.64521716E-09
   37.9500008       2.24426988E-09
   38.0099983       1.79679183E-09
   38.0699997       1.32117850E-09
   38.1300011       8.36055725E-10
   38.1899986       3.55462243E-10
   38.2500000      -1.13828363E-10
   38.3100014      -5.71668601E-10
   38.3699989      -1.02089270E-09
   38.4300003      -1.46243850E-09
   38.4900017      -1.89164218E-09
   38.5499992      -2.29753927E-09
   38.6100006      -2.66549138E-09
   38.6699982      -2.98183234E-09
   38.7299995      -3.23833627E-09
   38.7900009      -3.43459217E-09
   38.8499985      -3.57753449E-09
   38.9099998      -3.67872821E-09
   38.9700012      -3.75078857E-09
   39.0299988      -3.80427378E-09
   39.0900002      -3.84578591E-09
   39.1500015      -3.87735222E-09
   39.2099991      -3.89687305E-09
   39.2700005      -3.89944432E-09
   39.3300018      -3.87945054E-09
   39.3899994      -3.83316490E-09
   39.4500008      -3.76116560E-09
   39.5099983      -3.66958997E-09
   39.5699997      -3.56938545E-09
   39.6300011      -3.47347551E-09
   39.6899986      -3.39272210E-09
   39.7500000      -3.33223937E-09
   39.8100014      -3.28954286E-09
   39.8699989      -3.25522787E-09
   39.9300003      -3.21581117E-09
   39.9900017      -3.15761706E-09
   40.0499992      -3.07042125E-09
   40.1100006      -2.94992786E-09
   40.1699982      -2.79864665E-09
   40.2299995      -2.62508060E-09
   40.2900009      -2.44130960E-09
   40.3499985      -2.25929675E-09
   40.4099998      -2.08670636E-09
   40.4700012      -1.92357219E-09
   40.5299988      -1.76134374E-09
   40.5900002      -1.58526059E-09
   40.6500015      -1.37966416E-09
   40.7099991      -1.13433751E-09
   40.7700005      -8.49143811E-10
   40.8300018      -5.34730926E-10
   40.8899994      -2.08782311E-10
   40.9500008       1.10602277E-10
   41.0099983       4.11456286E-10
   41.0699997       6.91592394E-10
   41.1300011       9.57993906E-10
   41.1899986       1.22260657E-09
   41.2500000       1.49665458E-09
   41.3100014       1.78589143E-09
   41.3699989       2.08837192E-09
   41.4300003       2.39504527E-09
   41.4900017       2.69243872E-09
   41.5499992       2.96629721E-09
   41.6100006       3.20514615E-09
   41.6699982       3.40302297E-09
   41.7299995       3.56083185E-09
   41.7900009       3.68594333E-09
   41.8499985       3.78997100E-09
   41.9099998       3.88521038E-09
   41.9700012       3.98079392E-09
   42.0299988       4.07986889E-09
   42.0900002       4.17878399E-09
   42.1500015       4.26845803E-09
   42.2099991       4.33724923E-09
   42.2700005       4.37421654E-09
   42.3300018       4.37180780E-09
   42.3899994       4.32754188E-09
   42.4500008       4.24469881E-09
   42.5099983       4.13209911E-09
   42.5699997       4.00286737E-09
   42.6300011       3.87197208E-09
   42.6899986       3.75269993E-09
   42.7500000       3.65295594E-09
   42.8100014       3.57291197E-09
   42.8699989       3.50541329E-09
   42.9300003       3.43949980E-09
   42.9900017       3.36583694E-09
   43.0499992       3.28165806E-09
   43.1100006       3.19280247E-09
   43.1699982       3.11177462E-09
   43.2299995       3.05271786E-09
   43.2900009       3.02573788E-09
   43.3499985       3.03321412E-09
   43.4099998       3.06953707E-09
   43.4700012       3.12388160E-09
   43.5299988       3.18421312E-09
   43.5900002       3.24052318E-09
   43.6500015       3.28619421E-09
   43.7099991       3.31770189E-09
   43.7700005       3.33367400E-09
   43.8300018       3.33423489E-09
   43.8899994       3.32080741E-09
   43.9500008       3.29583982E-09
   44.0099983       3.26184635E-09
   44.0699997       3.21974025E-09
   44.1300011       3.16721604E-09
   44.1899986       3.09826409E-09
   44.2500000       3.00444003E-09
   44.3100014       2.87756374E-09
   44.3699989       2.71269984E-09
   44.4300003       2.51012722E-09
   44.4900017       2.27562502E-09
   44.5499992       2.01930828E-09
   44.6100006       1.75383563E-09
   44.6699982       1.49272128E-09
   44.7299995       1.24892363E-09
   44.7900009       1.03338627E-09
   44.8499985       8.53257187E-10
   44.9099998       7.10113524E-10
   44.9700012       5.99173655E-10
   45.0299988       5.10540055E-10
   45.0900002       4.32714226E-10
   45.1500015       3.57318897E-10
   45.2099991       2.82964291E-10
   45.2700005       2.16248394E-10
   45.3300018       1.69121911E-10
   45.3899994       1.53646401E-10
   45.4500008       1.76507572E-10
   45.5099983       2.35734210E-10
   45.5699997       3.20898003E-10
   45.6300011       4.16342266E-10
   45.6899986       5.05724074E-10
   45.7500000       5.75978820E-10
   45.8100014       6.19618579E-10
   45.8699989       6.35344222E-10
   45.9300003       6.27547181E-10
   45.9900017       6.05128392E-10
   46.0499992       5.79574555E-10
   46.1100006       5.62051905E-10
   46.1699982       5.59790769E-10
   46.2299995       5.72951464E-10
   46.2900009       5.93709137E-10
   46.3499985       6.08782469E-10
   46.4099998       6.05043016E-10
   46.4700012       5.76000414E-10
   46.5299988       5.26024668E-10
   46.5900002       4.69916828E-10
   46.6500015       4.27636537E-10
   46.7099991       4.16474522E-10
   46.7700005       4.44307591E-10
   46.8300018       5.06993392E-10
   46.8899994       5.90803184E-10
   46.9500008       6.78306411E-10
   47.0099983       7.54696527E-10
   47.0699997       8.11849088E-10
   47.1300011       8.49029680E-10
   47.1899986       8.70989558E-10
   47.2500000       8.85131246E-10
   47.3100014       8.99151142E-10
   47.3699989       9.19556375E-10
   47.4300003       9.50619361E-10
   47.4900017       9.93265026E-10
   47.5499992       1.04401632E-09
   47.6100006       1.09479315E-09
   47.6699982       1.13440579E-09
   47.7299995       1.15180754E-09
   47.7900009       1.14005927E-09
   47.8499985       1.09925991E-09
   47.9099998       1.03696407E-09
   47.9700012       9.65729052E-10
   48.0299988       8.98793040E-10
   48.0900002       8.45693404E-10
   48.1500015       8.09504686E-10
   48.2099991       7.86477605E-10
   48.2700005       7.67772679E-10
   48.3300018       7.42289286E-10
   48.3899994       6.99512226E-10
   48.4500008       6.31677211E-10
   48.5099983       5.35009093E-10
   48.5699997       4.10058237E-10
   48.6300011       2.61212579E-10
   48.6899986       9.54638868E-11
   48.7500000      -7.93983074E-11
   48.8100014      -2.56798111E-10
   48.8699989      -4.33069886E-10
   48.9300003      -6.08343265E-10
   48.9900017      -7.86344712E-10
   49.0499992      -9.73158998E-10
   49.1100006      -1.17525545E-09
   49.1699982      -1.39723921E-09
   49.2299995      -1.63985037E-09
   49.2900009      -1.89877158E-09
   49.3499985      -2.16476037E-09
   49.4099998      -2.42538700E-09
   49.4700012      -2.66816214E-09
   49.5299988      -2.88418489E-09
   49.5900002      -3.07094217E-09
   49.6500015      -3.23294924E-09
   49.7099991      -3.37963701E-09
   49.7700005      -3.52109120E-09
   49.8300018      -3.66330277E-09
   49.8899994      -3.80495058E-09
   49.9500008      -3.93712929E-09
   50.0099983      -4.04614919E-09
   50.0699997      -4.11820711E-09
   50.1300011      -4.14402779E-09
   50.1899986      -4.12176959E-09
   50.2500000      -4.05736689E-09
   50.3100014      -3.96250099E-09
   50.3699989      -3.85107723E-09
   50.4300003      -3.73527742E-09
   50.4900017      -3.62211705E-09
   50.5499992      -3.51126994E-09
   50.6100006      -3.39478134E-09