 -0.750000000       0.00000000    
 -0.689999998       0.00000000    
 -0.629999995       0.00000000    
 -0.569999993       0.00000000    
 -0.509999990       0.00000000    
 -0.449999988       0.00000000    
 -0.389999986      -4.94640375E-22
 -0.330000013      -4.27505358E-21
 -0.270000011      -1.73171182E-20
 -0.209999993      -3.91172710E-20
 -0.150000006      -3.21795133E-20
  -9.00000036E-02   1.10585841E-19
  -2.99999993E-02   5.19520503E-19
   2.99999993E-02   1.11223253E-18
   9.00000036E-02   1.19260833E-18
  0.150000006      -7.25691445E-19
  0.209999993      -6.11398845E-18
  0.270000011      -1.40971594E-17
  0.330000013      -1.83952263E-17
  0.389999986      -6.51027869E-18
  0.449999988       3.46204931E-17
  0.509999990       1.04563855E-16
  0.569999993       1.72025536E-16
  0.629999995       1.68295666E-16
  0.689999998       9.18117127E-18
  0.750000000      -3.47049621E-16
  0.810000002      -8.23764846E-16
  0.870000005      -1.18004310E-15
  0.930000007      -1.05429047E-15
  0.990000010      -1.28808883E-16
   1.04999995       1.62320322E-15
   1.11000001       3.72865809E-15
   1.16999996       5.20386423E-15
   1.23000002       4.85147141E-15
   1.28999996       1.82801547E-15
   1.35000002      -3.73724574E-15
   1.40999997      -1.04036424E-14
   1.47000003      -1.56396468E-14
   1.52999997      -1.66491424E-14
   1.59000003      -1.15327280E-14
   1.64999998      -2.83617283E-16
   1.71000004       1.48702834E-14
   1.76999998       2.99809853E-14
   1.83000004       4.05307535E-14
   1.88999999       4.26804113E-14
   1.95000005       3.40814481E-14
   2.00999999       1.40730272E-14
   2.06999993      -1.64168165E-14
   2.13000011      -5.46618550E-14
   2.19000006      -9.52369151E-14
   2.25000000      -1.28770557E-13
   2.30999994      -1.41556688E-13
   2.36999989      -1.17607543E-13
   2.43000007      -4.40977008E-14
   2.49000001       8.05496755E-14
   2.54999995       2.38838544E-13
   2.60999990       3.91019492E-13
   2.67000008       4.80579714E-13
   2.73000002       4.49729799E-13
   2.78999996       2.61791565E-13
   2.84999990      -7.69953220E-14
   2.91000009      -5.05824983E-13
   2.97000003      -9.15546285E-13
   3.02999997      -1.17457303E-12
   3.08999991      -1.16835458E-12
   3.15000010      -8.39647091E-13
   3.21000004      -2.14844012E-13
   3.26999998       5.94203668E-13
   3.32999992       1.41446219E-12
   3.39000010       2.05377707E-12
   3.45000005       2.34626316E-12
   3.50999999       2.18714760E-12
   3.56999993       1.54998497E-12
   3.63000011       4.88213257E-13
   3.69000006      -8.71121209E-13
   3.75000000      -2.33462099E-12
   3.80999994      -3.65119393E-12
   3.86999989      -4.53105825E-12
   3.93000007      -4.68698301E-12
   3.99000001      -3.90253585E-12
   4.05000019      -2.11619546E-12
   4.11000013       5.06862944E-13
   4.17000008       3.55137187E-12
   4.23000002       6.40407736E-12
   4.28999996       8.38312666E-12
   4.34999990       8.91429031E-12
   4.40999985       7.69925703E-12
   4.46999979       4.81772565E-12
   4.53000021       7.26000531E-13
   4.59000015      -3.84770948E-12
   4.65000010      -8.07373612E-12
   4.71000004      -1.11992542E-11
   4.76999998      -1.26819293E-11
   4.82999992      -1.22531664E-11
   4.88999987      -9.91856250E-12
   4.94999981      -5.92543506E-12
   5.01000023      -7.27977682E-13
   5.07000017       5.03863791E-12
   5.13000011       1.05895162E-11
   5.19000006       1.50559409E-11
   5.25000000       1.76081823E-11
   5.30999994       1.76297848E-11
   5.36999989       1.49031447E-11
   5.42999983       9.74332941E-12
   5.48999977       3.02025440E-12
   5.55000019      -3.95988971E-12
   5.61000013      -9.69648233E-12
   5.67000008      -1.27997396E-11
   5.73000002      -1.22790294E-11
   5.78999996      -7.74245598E-12
   5.84999990       5.32216903E-13
   5.90999985       1.16557900E-11
   5.96999979       2.42844460E-11
   6.03000021       3.68317599E-11
   6.09000015       4.76961214E-11
   6.15000010       5.54756102E-11
   6.21000004       5.91521415E-11
   6.26999998       5.82296919E-11
   6.32999992       5.28107315E-11
   6.38999987       4.35970982E-11
   6.44999981       3.18115152E-11
   6.51000023       1.90518712E-11
   6.57000017       7.10390557E-12
   6.63000011      -2.25972409E-12
   6.69000006      -7.47722630E-12
   6.75000000      -7.39182066E-12
   6.80999994      -1.44851492E-12
   6.86999989       1.01150009E-11
   6.92999983       2.61256329E-11
   6.98999977       4.44568653E-11
   7.05000019       6.22179530E-11
   7.11000013       7.61906094E-11
   7.17000008       8.34654984E-11
   7.23000002       8.21301777E-11
   7.28999996       7.17959373E-11
   7.34999990       5.37655961E-11
   7.40999985       3.07482824E-11
   7.46999979       6.18515395E-12
   7.53000021      -1.66031546E-11
   7.59000015      -3.51697664E-11
   7.65000010      -4.83648052E-11
   7.71000004      -5.63390272E-11
   7.76999998      -6.02086922E-11
   7.82999992      -6.15807752E-11
   7.88999987      -6.21516658E-11
   7.94999981      -6.35017108E-11
   8.01000023      -6.70689893E-11
   8.06999969      -7.41761028E-11
   8.13000011      -8.59643051E-11
   8.18999958      -1.03167898E-10
   8.25000000      -1.25789476E-10
   8.31000042      -1.52837409E-10
   8.36999989      -1.82297025E-10
   8.43000031      -2.11416953E-10
   8.48999977      -2.37246139E-10
   8.55000019      -2.57237204E-10
   8.60999966      -2.69703510E-10
   8.67000008      -2.73996492E-10
   8.72999954      -2.70411860E-10
   8.78999996      -2.59957778E-10
   8.85000038      -2.44154835E-10
   8.90999985      -2.24973221E-10
   8.97000027      -2.04886774E-10
   9.02999973      -1.86922616E-10
   9.09000015      -1.74569040E-10
   9.14999962      -1.71485978E-10
   9.21000004      -1.81087950E-10
   9.27000046      -2.06159173E-10
   9.32999992      -2.48654097E-10
   9.39000034      -3.09741205E-10
   9.44999981      -3.90021987E-10
   9.51000023      -4.89783492E-10
   9.56999969      -6.09166495E-10
   9.63000011      -7.48222539E-10
   9.68999958      -9.06923814E-10
   9.75000000      -1.08520215E-09
   9.81000042      -1.28301947E-09
   9.86999989      -1.50036827E-09
   9.93000031      -1.73706449E-09
   9.98999977      -1.99228456E-09
   10.0500002      -2.26397345E-09
   10.1099997      -2.54840704E-09
   10.1700001      -2.84019186E-09
   10.2299995      -3.13279847E-09
   10.2900000      -3.41942341E-09
   10.3500004      -3.69374931E-09
   10.4099998      -3.95018818E-09
   10.4700003      -4.18345936E-09
   10.5299997      -4.38777281E-09
   10.5900002      -4.55618654E-09
   10.6499996      -4.68069317E-09
   10.7100000      -4.75325024E-09
   10.7700005      -4.76743844E-09
   10.8299999      -4.72005413E-09
   10.8900003      -4.61188998E-09
   10.9499998      -4.44733583E-09
   11.0100002      -4.23297086E-09
   11.0699997      -3.97581124E-09
   11.1300001      -3.68197983E-09
   11.1899996      -3.35629480E-09
   11.2500000      -3.00278513E-09
   11.3100004      -2.62566369E-09
   11.3699999      -2.23013141E-09
   11.4300003      -1.82253457E-09
   11.4899998      -1.40979373E-09
   11.5500002      -9.98403360E-10
   11.6099997      -5.93508298E-10
   11.6700001      -1.98506239E-10
   11.7299995       1.84641857E-10
   11.7900000       5.54540802E-10
   11.8500004       9.09332720E-10
   11.9099998       1.24598865E-09
   11.9700003       1.56026336E-09
   12.0299997       1.84737914E-09
   12.0900002       2.10316653E-09
   12.1499996       2.32516673E-09
   12.2100000       2.51317678E-09
   12.2700005       2.66895639E-09
   12.3299999       2.79520074E-09
   12.3900003       2.89425062E-09
   12.4499998       2.96714231E-09
   12.5100002       3.01341996E-09
   12.5699997       3.03171244E-09
   12.6300001       3.02067416E-09
   12.6899996       2.97972202E-09
   12.7500000       2.90919622E-09
   12.8100004       2.80998291E-09
   12.8699999       2.68299583E-09
   12.9300003       2.52897747E-09
   12.9899998       2.34880448E-09
   13.0500002       2.14405160E-09
   13.1099997       1.91733696E-09
   13.1700001       1.67207237E-09
   13.2299995       1.41167944E-09
   13.2900000       1.13875309E-09
   13.3500004       8.54762983E-10
   13.4099998       5.60551106E-10
   13.4700003       2.57326466E-10
   13.5299997      -5.25478619E-11
   13.5900002      -3.65601632E-10
   13.6499996      -6.78229917E-10
   13.7100000      -9.88022886E-10
   13.7700005      -1.29457534E-09
   13.8299999      -1.59918145E-09
   13.8900003      -1.90355620E-09
   13.9499998      -2.20842100E-09
   14.0100002      -2.51297361E-09
   14.0699997      -2.81575341E-09
   14.1300001      -3.11650705E-09
   14.1899996      -3.41793660E-09
   14.2500000      -3.72615405E-09
   14.3100004      -4.04932887E-09
   14.3699999      -4.39503722E-09
   14.4300003      -4.76755746E-09
   14.4899998      -5.16641441E-09
   14.5500002      -5.58682034E-09
   14.6099997      -6.02167738E-09
   14.6700001      -6.46414522E-09
   14.7299995      -6.90962176E-09
   14.7900000      -7.35648076E-09
   14.8500004      -7.80554643E-09
   14.9099998      -8.25880608E-09
   14.9700003      -8.71799966E-09
   15.0299997      -9.18351972E-09
   15.0900002      -9.65379243E-09
   15.1499996      -1.01251114E-08
   15.2100000      -1.05918403E-08
   15.2700005      -1.10469056E-08
   15.3299999      -1.14824958E-08
   15.3900003      -1.18907808E-08
   15.4499998      -1.22644899E-08
   15.5100002      -1.25972033E-08
   15.5699997      -1.28834072E-08
   15.6300001      -1.31185143E-08
   15.6899996      -1.32990525E-08
   15.7500000      -1.34231257E-08
   15.8100004      -1.34910048E-08
   15.8699999      -1.35056117E-08
   15.9300003      -1.34726221E-08
   15.9899998      -1.34000828E-08
   16.0499992      -1.32976039E-08
   16.1100006      -1.31752929E-08
   16.1700001      -1.30426230E-08
   16.2299995      -1.29074191E-08
   16.2900009      -1.27751374E-08
   16.3500004      -1.26486501E-08
   16.4099998      -1.25286599E-08
   16.4699993      -1.24146906E-08
   16.5300007      -1.23063399E-08
   16.5900002      -1.22042865E-08
   16.6499996      -1.21106272E-08
   16.7099991      -1.20284200E-08
   16.7700005      -1.19607364E-08
   16.8299999      -1.19097940E-08
   16.8899994      -1.18766215E-08
   16.9500008      -1.18613368E-08
   17.0100002      -1.18636851E-08
   17.0699997      -1.18832970E-08
   17.1299992      -1.19193553E-08
   17.1900005      -1.19697683E-08
   17.2500000      -1.20303261E-08
   17.3099995      -1.20943309E-08
   17.3700008      -1.21529355E-08
   17.4300003      -1.21960158E-08
   17.4899998      -1.22132322E-08
   17.5499992      -1.21949997E-08
   17.6100006      -1.21332766E-08
   17.6700001      -1.20222214E-08
   17.7299995      -1.18585932E-08
   17.7900009      -1.16416006E-08
   17.8500004      -1.13718581E-08
   17.9099998      -1.10495000E-08
   17.9699993      -1.06720952E-08
   18.0300007      -1.02334363E-08
   18.0900002      -9.72410064E-09
   18.1499996      -9.13388742E-09
   18.2099991      -8.45519832E-09
   18.2700005      -7.68583064E-09
   18.3299999      -6.82991885E-09
   18.3899994      -5.89684435E-09
   18.4500008      -4.89905760E-09
   18.5100002      -3.85031784E-09
   18.5699997      -2.76538925E-09
   18.6299992      -1.66109704E-09
   18.6900005      -5.57645596E-10
   18.7500000       5.21130139E-10
   18.8099995       1.54919000E-09
   18.8700008       2.50090237E-09
   18.9300003       3.35365002E-09
   18.9899998       4.08939149E-09
   19.0499992       4.69500394E-09
   19.1100006       5.16207566E-09
   19.1700001       5.48705081E-09
   19.2299995       5.67202063E-09
   19.2900009       5.72561509E-09
   19.3500004       5.66297720E-09
   19.4099998       5.50421930E-09
   19.4699993       5.27173505E-09
   19.5300007       4.98755481E-09
   19.5900002       4.67197481E-09
   19.6499996       4.34379555E-09
   19.7099991       4.02138056E-09
   19.7700005       3.72311382E-09
   19.8299999       3.46626994E-09
   19.8899994       3.26447336E-09
   19.9500008       3.12505399E-09
   20.0100002       3.04788972E-09
   20.0699997       3.02659431E-09
   20.1299992       3.05162939E-09
   20.1900005       3.11396553E-09
   20.2500000       3.20783289E-09
   20.3099995       3.33181971E-09
   20.3700008       3.48853035E-09
   20.4300003       3.68352748E-09
   20.4899998       3.92418320E-09
   20.5499992       4.21862145E-09
   20.6100006       4.57466509E-09
   20.6700001       4.99883024E-09
   20.7299995       5.49574963E-09
   20.7900009       6.06848705E-09
   20.8500004       6.71975497E-09
   20.9099998       7.45333040E-09
   20.9699993       8.27447977E-09
   21.0300007       9.18855037E-09
   21.0900002       1.01979261E-08
   21.1499996       1.12986616E-08
   21.2099991       1.24785853E-08
   21.2700005       1.37179272E-08
   21.3299999       1.49921799E-08
   21.3899994       1.62756884E-08
   21.4500008       1.75441901E-08
   21.5100002       1.87754665E-08
   21.5699997       1.99485939E-08
   21.6299992       2.10431246E-08
   21.6900005       2.20393872E-08
   21.7500000       2.29200534E-08
   21.8099995       2.36720261E-08
   21.8700008       2.42874556E-08
   21.9300003       2.47633754E-08
   21.9899998       2.51004977E-08
   22.0499992       2.53023043E-08
   22.1100006       2.53752717E-08
   22.1700001       2.53299763E-08
   22.2299995       2.51818317E-08
   22.2900009       2.49502357E-08
   22.3500004       2.46556908E-08
   22.4099998       2.43158613E-08
   22.4699993       2.39422384E-08
   22.5300007       2.35389077E-08
   22.5900002       2.31036861E-08
   22.6499996       2.26308003E-08
   22.7099991       2.21136567E-08
   22.7700005       2.15467484E-08
   22.8299999       2.09264819E-08
   22.8899994       2.02514663E-08
   22.9500008       1.95226963E-08
   23.0100002       1.87435418E-08
   23.0699997       1.79191524E-08
   23.1299992       1.70548429E-08
   23.1900005       1.61539226E-08
   23.2500000       1.52159494E-08
   23.3099995       1.42366279E-08
   23.3700008       1.32097666E-08
   23.4300003       1.21305579E-08
   23.4899998       1.09986482E-08
   23.5499992       9.81940396E-09
   23.6100006       8.60273808E-09
   23.6700001       7.36000061E-09
   23.7299995       6.10028161E-09
   23.7900009       4.82753082E-09
   23.8500004       3.53937279E-09
   23.9099998       2.22781282E-09
   23.9699993       8.81574924E-10
   24.0300007      -5.10385456E-10
   24.0900002      -1.95482119E-09
   24.1499996      -3.45051276E-09
   24.2099991      -4.98619945E-09
   24.2700005      -6.54127863E-09
   24.3299999      -8.08967116E-09
   24.3899994      -9.60594093E-09
   24.4500008      -1.10715552E-08
   24.5100002      -1.24787682E-08
   24.5699997      -1.38304754E-08
   24.6299992      -1.51361288E-08
   24.6900005      -1.64055383E-08
   24.7500000      -1.76432682E-08
   24.8099995      -1.88458085E-08
   24.8700008      -2.00023536E-08
   24.9300003      -2.10983675E-08
   24.9899998      -2.21203056E-08
   25.0499992      -2.30596502E-08
   25.1100006      -2.39152058E-08
   25.1700001      -2.46931293E-08
   25.2299995      -2.54047752E-08
   25.2900009      -2.60627608E-08
   25.3500004      -2.66760214E-08
   25.4099998      -2.72451093E-08
   25.4699993      -2.77594125E-08
   25.5300007      -2.81977464E-08
   25.5900002      -2.85328561E-08
   25.6499996      -2.87388424E-08
   25.7099991      -2.87991213E-08
   25.7700005      -2.87119590E-08
   25.8299999      -2.84913533E-08
   25.8899994      -2.81627344E-08
   25.9500008      -2.77549486E-08
   26.0100002      -2.72913212E-08
   26.0699997      -2.67829456E-08
   26.1299992      -2.62264006E-08
   26.1900005      -2.56066492E-08
   26.2500000      -2.49040379E-08
   26.3099995      -2.41031142E-08
   26.3700008      -2.32002133E-08
   26.4300003      -2.22070042E-08
   26.4899998      -2.11484448E-08
   26.5499992      -2.00553067E-08
   26.6100006      -1.89536671E-08
   26.6700001      -1.78551165E-08
   26.7299995      -1.67516525E-08
   26.7900009      -1.56176743E-08
   26.8500004      -1.44189132E-08
   26.9099998      -1.31253008E-08
   26.9699993      -1.17230741E-08
   27.0300007      -1.02216164E-08
   27.0900002      -8.65245120E-09
   27.1499996      -7.06076753E-09
   27.2099991      -5.49256551E-09
   27.2700005      -3.98196898E-09
   27.3299999      -2.54309596E-09
   27.3899994      -1.16918808E-09
   27.4500008       1.60768385E-10
   27.5100002       1.47020196E-09
   27.5699997       2.77195511E-09
   27.6299992       4.05868983E-09
   27.6900005       5.30027711E-09
   27.7500000       6.44942899E-09
   27.8099995       7.45390505E-09
   27.8700008       8.27107183E-09
   27.9300003       8.87952467E-09
   27.9899998       9.28344690E-09
   28.0499992       9.50802637E-09
   28.1100006       9.58769331E-09
   28.1700001       9.55159063E-09
   28.2299995       9.41158529E-09
   28.2900009       9.15696763E-09
   28.3500004       8.75740902E-09
   28.4099998       8.17283041E-09
   28.4699993       7.36670902E-09
   28.5300007       6.31852526E-09
   28.5900002       5.03156317E-09
   28.6499996       3.53374530E-09
   28.7099991       1.87119653E-09
   28.7700005       9.63308600E-11
   28.8299999      -1.74597836E-09
   28.8899994      -3.62967034E-09
   28.9500008      -5.55218493E-09
   29.0100002      -7.53049889E-09
   29.0699997      -9.58948032E-09
   29.1299992      -1.17465824E-08
   29.1900005      -1.39986112E-08
   29.2500000      -1.63158003E-08
   29.3099995      -1.86457179E-08
   29.3700008      -2.09256417E-08
   29.4300003      -2.30986856E-08
   29.4899998      -2.51275090E-08
   29.5499992      -2.70005600E-08
   29.6100006      -2.87287261E-08
   29.6700001      -3.03340322E-08
   29.7299995      -3.18347375E-08
   29.7900009      -3.32322934E-08
   29.8500004      -3.45047759E-08
   29.9099998      -3.56089132E-08
   29.9699993      -3.64900288E-08
   30.0300007      -3.70967008E-08
   30.0900002      -3.73952389E-08
   30.1499996      -3.73792197E-08
   30.2099991      -3.70706843E-08
   30.2700005      -3.65123043E-08
   30.3299999      -3.57528585E-08
   30.3899994      -3.48308085E-08
   30.4500008      -3.37617188E-08
   30.5100002      -3.25339720E-08
   30.5699997      -3.11145918E-08
   30.6299992      -2.94631466E-08
   30.6900005      -2.75488823E-08
   30.7500000      -2.53648871E-08
   30.8099995      -2.29342838E-08
   30.8700008      -2.03062047E-08
   30.9300003      -1.75431083E-08
   30.9899998      -1.47039438E-08
   31.0499992      -1.18291581E-08
   31.1100006      -8.93272656E-09
   31.1700001      -6.00384809E-09
   31.2299995      -3.01756309E-09
   31.2900009       4.96125953E-11
   31.3500004       3.20460702E-09
   31.4099998       6.42864784E-09
   31.4699993       9.67729274E-09
   31.5300007       1.28896271E-08
   31.5900002       1.60033480E-08
   31.6499996       1.89703311E-08
   31.7099991       2.17670841E-08
   31.7700005       2.43963161E-08
   31.8299999       2.68790696E-08
   31.8899994       2.92402742E-08
   31.9500008       3.14929984E-08
   32.0099983       3.36270993E-08
   32.0699997       3.56063126E-08
   32.1300011       3.73748712E-08
   32.1899986       3.88711747E-08
   32.2500000       4.00437870E-08
   32.3100014       4.08643253E-08
   32.3699989       4.13331271E-08
   32.4300003       4.14760919E-08
   32.4900017       4.13342178E-08
   32.5499992       4.09494127E-08
   32.6100006       4.03512281E-08
   32.6699982       3.95485564E-08
   32.7299995       3.85286789E-08
   32.7900009       3.72638311E-08
   32.8499985       3.57231400E-08
   32.9099998       3.38862236E-08
   32.9700012       3.17541549E-08
   33.0299988       2.93539255E-08
   33.0900002       2.67346465E-08
   33.1500015       2.39561917E-08
   33.2099991       2.10738307E-08
   33.2700005       1.81240640E-08
   33.3300018       1.51168464E-08
   33.3899994       1.20373436E-08
   33.4500008       8.85694629E-09
   33.5099983       5.54979529E-09
   33.5699997       2.10883311E-09
   33.6300011      -1.44447532E-09
   33.6899986      -5.06034903E-09
   33.7500000      -8.67078320E-09
   33.8100014      -1.22059571E-08
   33.8699989      -1.56112918E-08
   33.9300003      -1.88594367E-08
   33.9900017      -2.19534169E-08
   34.0499992      -2.49201690E-08
   34.1100006      -2.77969523E-08
   34.1699982      -3.06152295E-08
   34.2299995      -3.33874652E-08
   34.2900009      -3.61011452E-08
   34.3499985      -3.87219181E-08
   34.4099998      -4.12046894E-08
   34.4700012      -4.35085710E-08
   34.5299988      -4.56101716E-08
   34.5900002      -4.75102233E-08
   34.6500015      -4.92307244E-08
   34.7099991      -5.08033295E-08
   34.7700005      -5.22530108E-08
   34.8300018      -5.35829159E-08
   34.8899994      -5.47660441E-08
   34.9500008      -5.57471402E-08
   35.0099983      -5.64545992E-08
   35.0699997      -5.68187701E-08
   35.1300011      -5.67907819E-08
   35.1899986      -5.63557769E-08
   35.2500000      -5.55362938E-08
   35.3100014      -5.43847491E-08
   35.3699989      -5.29676711E-08
   35.4300003      -5.13469196E-08
   35.4900017      -4.95643633E-08
   35.5499992      -4.76349449E-08
   35.6100006      -4.55501876E-08
   35.6699982      -4.32904201E-08
   35.7299995      -4.08407814E-08
   35.7900009      -3.82049983E-08
   35.8499985      -3.54118690E-08
   35.9099998      -3.25122542E-08
   35.9700012      -2.95679534E-08
   36.0299988      -2.66366129E-08
   36.0900002      -2.37581279E-08
   36.1500015      -2.09473274E-08
   36.2099991      -1.81955517E-08
   36.2700005      -1.54807491E-08
   36.3300018      -1.27828690E-08
   36.3899994      -1.00993667E-08
   36.4500008      -7.45528528E-09
   36.5099983      -4.90378715E-09
   36.5699997      -2.51607957E-09
   36.6300011      -3.63497399E-10
   36.6899986       1.50235901E-09
   36.7500000       3.06436454E-09
   36.8100014       4.34401626E-09
   36.8699989       5.39341327E-09
   36.9300003       6.27812557E-09
   36.9900017       7.05743108E-09
   37.0499992       7.76906361E-09
   37.1100006       8.42340686E-09
   37.1699982       9.00805386E-09
   37.2299995       9.49977963E-09
   37.2900009       9.87869253E-09
   37.3499985       1.01393924E-08
   37.4099998       1.02957323E-08
   37.4700012       1.03782991E-08
   37.5299988       1.04259463E-08
   37.5900002       1.04742677E-08
   37.6500015       1.05445812E-08
   37.7099991       1.06369624E-08
   37.7700005       1.07299121E-08
   37.8300018       1.07873452E-08
   37.8899994       1.07710143E-08
   37.9500008       1.06541069E-08
   38.0099983       1.04308144E-08
   38.0699997       1.01178399E-08
   38.1300011       9.74708581E-09
   38.1899986       9.35250455E-09
   38.2500000       8.95669583E-09
   38.3100014       8.56278515E-09
   38.3699989       8.15452061E-09
   38.4300003       7.70369901E-09
   38.4900017       7.18099136E-09
   38.5499992       6.56538068E-09
   38.6100006       5.84882054E-09
   38.6699982       5.03535258E-09
   38.7299995       4.13625578E-09
   38.7900009       3.16384230E-09
   38.8499985       2.12625229E-09
   38.9099998       1.02463027E-09
   38.9700012      -1.46801113E-10
   39.0299988      -1.39788492E-09
   39.0900002      -2.73752265E-09
   39.1500015      -4.16786472E-09
   39.2099991      -5.67976599E-09
   39.2700005      -7.25176852E-09
   39.3300018      -8.85395046E-09
   39.3899994      -1.04559748E-08
   39.4500008      -1.20364936E-08
   39.5099983      -1.35899105E-08
   39.5699997      -1.51271955E-08
   39.6300011      -1.66700005E-08
   39.6899986      -1.82402893E-08
   39.7500000      -1.98497894E-08
   39.8100014      -2.14934754E-08
   39.8699989      -2.31494308E-08
   39.9300003      -2.47845495E-08
   39.9900017      -2.63633950E-08
   40.0499992      -2.78566201E-08
   40.1100006      -2.92461273E-08
   40.1699982      -3.05255838E-08
   40.2299995      -3.16965796E-08
   40.2900009      -3.27619070E-08
   40.3499985      -3.37182300E-08
   40.4099998      -3.45506699E-08
   40.4700012      -3.52315688E-08
   40.5299988      -3.57245895E-08
   40.5900002      -3.59934695E-08
   40.6500015      -3.60126684E-08
   40.7099991      -3.57758161E-08
   40.7700005      -3.52981750E-08
   40.8300018      -3.46114675E-08
   40.8899994      -3.37527837E-08
   40.9500008      -3.27519665E-08
   41.0099983      -3.16228430E-08
   41.0699997      -3.03620951E-08
   41.1300011      -2.89560678E-08
   41.1899986      -2.73925185E-08
   41.2500000      -2.56721133E-08
   41.3100014      -2.38148825E-08
   41.3699989      -2.18591314E-08
   41.4300003      -1.98534522E-08
   41.4900017      -1.78450055E-08
   41.5499992      -1.58683697E-08
   41.6100006      -1.39387168E-08
   41.6699982      -1.20514345E-08
   41.7299995      -1.01881659E-08
   41.7900009      -8.32724290E-09
   41.8499985      -6.45509335E-09
   41.9099998      -4.57476590E-09
   41.9700012      -2.70841660E-09
   42.0299988      -8.92468877E-10
   42.0900002       8.33284719E-10
   42.1500015       2.43895415E-09
   42.2099991       3.91527122E-09
   42.2700005       5.27743049E-09
   42.3300018       6.56019239E-09
   42.3899994       7.80577558E-09
   42.4500008       9.04905750E-09
   42.5099983       1.03058237E-08
   42.5699997       1.15687557E-08
   42.6300011       1.28128077E-08
   42.6899986       1.40080072E-08
   42.7500000       1.51347166E-08
   42.8100014       1.61955214E-08
   42.8699989       1.72190475E-08
   42.9300003       1.82540667E-08
   42.9900017       1.93556904E-08
   43.0499992       2.05683417E-08
   43.1100006       2.19113261E-08
   43.1699982       2.33720492E-08
   43.2299995       2.49093581E-08
   43.2900009       2.64661963E-08
   43.3499985       2.79875376E-08
   43.4099998       2.94377642E-08
   43.4700012       3.08116803E-08
   43.5299988       3.21352864E-08
   43.5900002       3.34558976E-08
   43.6500015       3.48247511E-08
   43.7099991       3.62780597E-08
   43.7700005       3.78230460E-08
   43.8300018       3.94339459E-08
   43.8899994       4.10595113E-08
   43.9500008       4.26393569E-08
   44.0099983       4.41232579E-08
   44.0699997       4.54864200E-08
   44.1300011       4.67350851E-08
   44.1899986       4.79005315E-08
   44.2500000       4.90235870E-08
   44.3100014       5.01352524E-08
   44.3699989       5.12403098E-08
   44.4300003       5.23095345E-08
   44.4900017       5.32831237E-08
   44.5499992       5.40840226E-08
   44.6100006       5.46367254E-08
   44.6699982       5.48854828E-08
   44.7299995       5.48062857E-08
   44.7900009       5.44092771E-08
   44.8499985       5.37311564E-08
   44.9099998       5.28206066E-08
   44.9700012       5.17216030E-08
   45.0299988       5.04602404E-08
   45.0900002       4.90393290E-08
   45.1500015       4.74421959E-08
   45.2099991       4.56440503E-08
   45.2700005       4.36264820E-08
   45.3300018       4.13898071E-08
   45.3899994       3.89587669E-08
   45.4500008       3.63797419E-08
   45.5099983       3.37107373E-08
   45.5699997       3.10079074E-08
   45.6300011       2.83134654E-08
   45.6899986       2.56490384E-08
   45.7500000       2.30164865E-08
   45.8100014       2.04054729E-08
   45.8699989       1.78048545E-08
   45.9300003       1.52137627E-08
   45.9900017       1.26484867E-08
   46.0499992       1.01427720E-08
   46.1100006       7.74146081E-09
   46.1699982       5.48972379E-09
   46.2299995       3.42171136E-09
   46.2900009       1.55265556E-09
   46.3499985      -1.22859292E-10
   46.4099998      -1.62606029E-09
   46.4700012      -2.98467340E-09
   46.5299988      -4.22278967E-09
   46.5900002      -5.35362199E-09
   46.6500015      -6.37741904E-09
   46.7099991      -7.28459648E-09
   46.7700005      -8.06216338E-09
   46.8300018      -8.70056382E-09
   46.8899994      -9.19835763E-09
   46.9500008      -9.56340251E-09
   47.0099983      -9.81063142E-09
   47.0699997      -9.95765781E-09
   47.1300011      -1.00199014E-08
   47.1899986      -1.00068638E-08
   47.2500000      -9.92064031E-09
   47.3100014      -9.75711156E-09
   47.3699989      -9.50941459E-09
   47.4300003      -9.17252141E-09
   47.4900017      -8.74726336E-09
   47.5499992      -8.24214652E-09
   47.6100006      -7.67206743E-09
   47.6699982      -7.05429271E-09
   47.7299995      -6.40331077E-09
   47.7900009      -5.72683101E-09
   47.8499985      -5.02481923E-09
   47.9099998      -4.29215996E-09
   47.9700012      -3.52390117E-09
   48.0299988      -2.72084577E-09
   48.0900002      -1.89308458E-09
   48.1500015      -1.05996212E-09
   48.2099991      -2.46498266E-10
   48.2700005       5.22272892E-10
   48.3300018       1.22683597E-09
   48.3899994       1.85658078E-09
   48.4500008       2.40999309E-09
   48.5099983       2.89186919E-09
   48.5699997       3.30886341E-09
   48.6300011       3.66517550E-09
   48.6899986       3.95997990E-09
   48.7500000       4.18741664E-09
   48.8100014       4.33890879E-09
   48.8699989       4.40670034E-09
   48.9300003       4.38710757E-09
   48.9900017       4.28223590E-09
   49.0499992       4.09962198E-09
   49.1100006       3.85013488E-09
   49.1699982       3.54507579E-09
   49.2299995       3.19356475E-09
   49.2900009       2.80102963E-09
   49.3499985       2.36916109E-09
   49.4099998       1.89725968E-09
   49.4700012       1.38461997E-09
   49.5299988       8.33370650E-10
   49.5900002       2.50966053E-10
   49.6500015      -3.48646972E-10
   49.7099991      -9.46060896E-10
   49.7700005      -1.51991419E-09
   49.8300018      -2.05211936E-09
   49.8899994      -2.53299581E-09
   49.9500008      -2.96405700E-09
   50.0099983      -3.35682948E-09
   50.0699997      -3.72771281E-09
   50.1300011      -4.09077616E-09
   50.1899986      -4.45153869E-09
   50.2500000      -4.80447193E-09
   50.3100014      -5.13525578E-09
   50.3699989      -5.42658185E-09
   50.4300003      -5.66470293E-09
   50.4900017      -5.84380766E-09
   50.5499992      -5.96659522E-09
   50.6100006      -6.04135053E-09