 -0.750000000       0.00000000    
 -0.689999998       0.00000000    
 -0.629999995       0.00000000    
 -0.569999993       0.00000000    
 -0.509999990       0.00000000    
 -0.449999988       0.00000000    
 -0.389999986      -2.93857654E-22
 -0.330000013      -2.88338985E-21
 -0.270000011      -1.37411841E-20
 -0.209999993      -3.98418489E-20
 -0.150000006      -6.65668105E-20
  -9.00000036E-02  -7.01072808E-21
  -2.99999993E-02   3.38937230E-19
   2.99999993E-02   1.19400068E-18
   9.00000036E-02   2.42593979E-18
  0.150000006       2.91053032E-18
  0.209999993       1.50201640E-19
  0.270000011      -8.80724014E-18
  0.330000013      -2.42587291E-17
  0.389999986      -3.92503156E-17
  0.449999988      -3.70352881E-17
  0.509999990       3.84028815E-18
  0.569999993       9.33476233E-17
  0.629999995       2.07401417E-16
  0.689999998       2.74963597E-16
  0.750000000       1.96331371E-16
  0.810000002      -9.69462957E-17
  0.870000005      -5.60118642E-16
  0.930000007      -9.85601714E-16
  0.990000010      -1.05059445E-15
   1.04999995      -4.87387999E-16
   1.11000001       6.84625868E-16
   1.16999996       2.01300175E-15
   1.23000002       2.71365152E-15
   1.28999996       2.07048607E-15
   1.35000002      -2.32267055E-17
   1.40999997      -2.72232429E-15
   1.47000003      -4.43009116E-15
   1.52999997      -3.62628527E-15
   1.59000003       2.39902660E-17
   1.64999998       4.97075737E-15
   1.71000004       8.14211013E-15
   1.76999998       6.49584062E-15
   1.83000004      -9.11032745E-16
   1.88999999      -1.15814756E-14
   1.95000005      -2.00869967E-14
   2.00999999      -2.06059314E-14
   2.06999993      -1.03580644E-14
   2.13000011       8.06501150E-15
   2.19000006       2.71900405E-14
   2.25000000       3.81931086E-14
   2.30999994       3.57535589E-14
   2.36999989       2.13622861E-14
   2.43000007       2.77277125E-15
   2.49000001      -1.05384510E-14
   2.54999995      -1.34423468E-14
   2.60999990      -8.96725321E-15
   2.67000008      -7.04926018E-15
   2.73000002      -1.83835050E-14
   2.78999996      -4.67389053E-14
   2.84999990      -8.44628051E-14
   2.91000009      -1.14355804E-13
   2.97000003      -1.17400732E-13
   3.02999997      -8.22232975E-14
   3.08999991      -1.09787235E-14
   3.15000010       8.15400671E-14
   3.21000004       1.74659793E-13
   3.26999998       2.50056757E-13
   3.32999992       2.96514657E-13
   3.39000010       3.09000845E-13
   3.45000005       2.83992556E-13
   3.50999999       2.15658885E-13
   3.56999993       9.68216528E-14
   3.63000011      -7.49655465E-14
   3.69000006      -2.89840011E-13
   3.75000000      -5.21671302E-13
   3.80999994      -7.30767009E-13
   3.86999989      -8.72133637E-13
   3.93000007      -9.04991793E-13
   3.99000001      -7.99411752E-13
   4.05000019      -5.39301351E-13
   4.11000013      -1.24804721E-13
   4.17000008       4.21963056E-13
   4.23000002       1.04746463E-12
   4.28999996       1.65914277E-12
   4.34999990       2.12914430E-12
   4.40999985       2.31668829E-12
   4.46999979       2.10777121E-12
   4.53000021       1.45990349E-12
   4.59000015       4.32771901E-13
   4.65000010      -8.11711863E-13
   4.71000004      -2.04454617E-12
   4.76999998      -3.02866478E-12
   4.82999992      -3.57923695E-12
   4.88999987      -3.60223917E-12
   4.94999981      -3.09938815E-12
   5.01000023      -2.14422707E-12
   5.07000017      -8.47380217E-13
   5.13000011       6.68291540E-13
   5.19000006       2.27071335E-12
   5.25000000       3.80267172E-12
   5.30999994       5.06178042E-12
   5.36999989       5.79350890E-12
   5.42999983       5.70625535E-12
   5.48999977       4.50418826E-12
   5.55000019       1.92357068E-12
   5.61000013      -2.24236276E-12
   5.67000008      -8.13616622E-12
   5.73000002      -1.58406968E-11
   5.78999996      -2.53825554E-11
   5.84999990      -3.67250848E-11
   5.90999985      -4.97538399E-11
   5.96999979      -6.42702905E-11
   6.03000021      -8.00132877E-11
   6.09000015      -9.67171343E-11
   6.15000010      -1.14193939E-10
   6.21000004      -1.32408071E-10
   6.26999998      -1.51505031E-10
   6.32999992      -1.71772804E-10
   6.38999987      -1.93543848E-10
   6.44999981      -2.17076038E-10
   6.51000023      -2.42461246E-10
   6.57000017      -2.69593931E-10
   6.63000011      -2.98196939E-10
   6.69000006      -3.27867428E-10
   6.75000000      -3.58096608E-10
   6.80999994      -3.88240606E-10
   6.86999989      -4.17466006E-10
   6.92999983      -4.44732057E-10
   6.98999977      -4.68875105E-10
   7.05000019      -4.88814045E-10
   7.11000013      -5.03824205E-10
   7.17000008      -5.13760479E-10
   7.23000002      -5.19103982E-10
   7.28999996      -5.20763321E-10
   7.34999990      -5.19674526E-10
   7.40999985      -5.16348575E-10
   7.46999979      -5.10562259E-10
   7.53000021      -5.01340580E-10
   7.59000015      -4.87254292E-10
   7.65000010      -4.66909678E-10
   7.71000004      -4.39417558E-10
   7.76999998      -4.04633799E-10
   7.82999992      -3.63070324E-10
   7.88999987      -3.15529936E-10
   7.94999981      -2.62641298E-10
   8.01000023      -2.04508563E-10
   8.06999969      -1.40623499E-10
   8.13000011      -7.00591113E-11
   8.18999958       8.16358179E-12
   8.25000000       9.47049036E-11
   8.31000042       1.89675928E-10
   8.36999989       2.92600943E-10
   8.43000031       4.02525929E-10
   8.48999977       5.18170673E-10
   8.55000019       6.38034736E-10
   8.60999966       7.60433605E-10
   8.67000008       8.83515483E-10
   8.72999954       1.00534270E-09
   8.78999996       1.12409493E-09
   8.85000038       1.23837618E-09
   8.90999985       1.34752265E-09
   8.97000027       1.45177226E-09
   9.02999973       1.55217950E-09
   9.09000015       1.65025460E-09
   9.14999962       1.74741976E-09
   9.21000004       1.84446491E-09
   9.27000046       1.94120098E-09
   9.32999992       2.03644990E-09
   9.39000034       2.12838791E-09
   9.44999981       2.21511987E-09
   9.51000023       2.29528019E-09
   9.56999969       2.36843967E-09
   9.63000011       2.43516585E-09
   9.68999958       2.49671928E-09
   9.75000000       2.55449817E-09
   9.81000042       2.60943644E-09
   9.86999989       2.66158851E-09
   9.93000031       2.71005574E-09
   9.98999977       2.75330270E-09
   10.0500002       2.78975265E-09
   10.1099997       2.81845947E-09
   10.1700001       2.83960677E-09
   10.2299995       2.85465096E-09
   10.2900000       2.86604895E-09
   10.3500004       2.87668045E-09
   10.4099998       2.88919177E-09
   10.4700003       2.90551361E-09
   10.5299997       2.92671554E-09
   10.5900002       2.95318370E-09
   10.6499996       2.98493652E-09
   10.7100000       3.02181968E-09
   10.7700005       3.06340220E-09
   10.8299999       3.10859027E-09
   10.8900003       3.15520721E-09
   10.9499998       3.19987503E-09
   11.0100002       3.23844174E-09
   11.0699997       3.26691652E-09
   11.1300001       3.28255312E-09
   11.1899996       3.28457883E-09
   11.2500000       3.27416005E-09
   11.3100004       3.25357252E-09
   11.3699999       3.22494853E-09
   11.4300003       3.18923643E-09
   11.4899998       3.14589488E-09
   11.5500002       3.09346748E-09
   11.6099997       3.03068393E-09
   11.6700001       2.95744074E-09
   11.7299995       2.87509039E-09
   11.7900000       2.78585843E-09
   11.8500004       2.69171196E-09
   11.9099998       2.59329647E-09
   11.9700003       2.48949017E-09
   12.0299997       2.37775466E-09
   12.0900002       2.25501995E-09
   12.1499996       2.11861217E-09
   12.2100000       1.96681293E-09
   12.2700005       1.79894888E-09
   12.3299999       1.61520486E-09
   12.3900003       1.41643941E-09
   12.4499998       1.20412325E-09
   12.5100002       9.80289738E-10
   12.5699997       7.47279405E-10
   12.6300001       5.07196729E-10
   12.6899996       2.61272226E-10
   12.7500000       9.52434225E-12
   12.8100004      -2.48956911E-10
   12.8699999      -5.15113840E-10
   12.9300003      -7.88813515E-10
   12.9899998      -1.06810316E-09
   13.0500002      -1.34921929E-09
   13.1099997      -1.62730407E-09
   13.1700001      -1.89738802E-09
   13.2299995      -2.15510343E-09
   13.2900000      -2.39687514E-09
   13.3500004      -2.61975885E-09
   13.4099998      -2.82136847E-09
   13.4700003      -3.00021274E-09
   13.5299997      -3.15636028E-09
   13.5900002      -3.29193184E-09
   13.6499996      -3.41085338E-09
   13.7100000      -3.51768303E-09
   13.7700005      -3.61590513E-09
   13.8299999      -3.70652464E-09
   13.8900003      -3.78774034E-09
   13.9499998      -3.85593513E-09
   14.0100002      -3.90753074E-09
   14.0699997      -3.94080457E-09
   14.1300001      -3.95682198E-09
   14.1899996      -3.95915123E-09
   14.2500000      -3.95261335E-09
   14.3100004      -3.94171629E-09
   14.3699999      -3.92939370E-09
   14.4300003      -3.91640009E-09
   14.4899998      -3.90140853E-09
   14.5500002      -3.88167898E-09
   14.6099997      -3.85412058E-09
   14.6700001      -3.81653686E-09
   14.7299995      -3.76870490E-09
   14.7900000      -3.71282938E-09
   14.8500004      -3.65301922E-09
   14.9099998      -3.59378016E-09
   14.9700003      -3.53811336E-09
   15.0299997      -3.48615914E-09
   15.0900002      -3.43521078E-09
   15.1499996      -3.38123063E-09
   15.2100000      -3.32112671E-09
   15.2700005      -3.25450111E-09
   15.3299999      -3.18381255E-09
   15.3900003      -3.11278647E-09
   15.4499998      -3.04396064E-09
   15.5100002      -2.97680347E-09
   15.5699997      -2.90750313E-09
   15.6300001      -2.83054780E-09
   15.6899996      -2.74119372E-09
   15.7500000      -2.63750444E-09
   15.8100004      -2.52106491E-09
   15.8699999      -2.39634024E-09
   15.9300003      -2.26937802E-09
   15.9899998      -2.14667017E-09
   16.0499992      -2.03451234E-09
   16.1100006      -1.93862304E-09
   16.1700001      -1.86357285E-09
   16.2299995      -1.81192195E-09
   16.2900009      -1.78349757E-09
   16.3500004      -1.77549087E-09
   16.4099998      -1.78366555E-09
   16.4699993      -1.80420467E-09
   16.5300007      -1.83512261E-09
   16.5900002      -1.87626781E-09
   16.6499996      -1.92777572E-09
   16.7099991      -1.98784744E-09
   16.7700005      -2.05125783E-09
   16.8299999      -2.10957918E-09
   16.8899994      -2.15304929E-09
   16.9500008      -2.17299667E-09
   17.0100002      -2.16348806E-09
   17.0699997      -2.12151186E-09
   17.1299992      -2.04608130E-09
   17.1900005      -1.93733096E-09
   17.2500000      -1.79652437E-09
   17.3099995      -1.62702340E-09
   17.3700008      -1.43537737E-09
   17.4300003      -1.23147126E-09
   17.4899998      -1.02727560E-09
   17.5499992      -8.34717184E-10
   17.6100006      -6.63794797E-10
   17.6700001      -5.21833465E-10
   17.7299995      -4.13899554E-10
   17.7900009      -3.43560957E-10
   17.8500004      -3.13010728E-10
   17.9099998      -3.22213839E-10
   17.9699993      -3.67666592E-10
   18.0300007      -4.41850390E-10
   18.0900002      -5.34103484E-10
   18.1499996      -6.32682573E-10
   18.2099991      -7.26948168E-10
   18.2700005      -8.08523359E-10
   18.3299999      -8.71006378E-10
   18.3899994      -9.08828124E-10
   18.4500008      -9.16374254E-10
   18.5100002      -8.88170426E-10
   18.5699997      -8.20042145E-10
   18.6299992      -7.10404013E-10
   18.6900005      -5.60795299E-10
   18.7500000      -3.75447951E-10
   18.8099995      -1.60480865E-10
   18.8700008       7.64187602E-11
   18.9300003       3.25483196E-10
   18.9899998       5.74062464E-10
   19.0499992       8.06585077E-10
   19.1100006       1.00598663E-09
   19.1700001       1.15630416E-09
   19.2299995       1.24520461E-09
   19.2900009       1.26511512E-09
   19.3500004       1.21249943E-09
   19.4099998       1.08607712E-09
   19.4699993       8.85494733E-10
   19.5300007       6.11580009E-10
   19.5900002       2.68082945E-10
   19.6499996      -1.36382808E-10
   19.7099991      -5.87753901E-10
   19.7700005      -1.06798370E-09
   19.8299999      -1.55788726E-09
   19.8899994      -2.03979389E-09
   19.9500008      -2.49865595E-09
   20.0100002      -2.92139823E-09
   20.0699997      -3.29550320E-09
   20.1299992      -3.60821328E-09
   20.1900005      -3.84708487E-09
   20.2500000      -4.00146982E-09
   20.3099995      -4.06377509E-09
   20.3700008      -4.02957534E-09
   20.4300003      -3.89662924E-09
   20.4899998      -3.66380615E-09
   20.5499992      -3.33101524E-09
   20.6100006      -2.90046209E-09
   20.6700001      -2.37844788E-09
   20.7299995      -1.77640613E-09
   20.7900009      -1.11034060E-09
   20.8500004      -3.98962113E-10
   20.9099998       3.38259698E-10
   20.9699993       1.08189735E-09
   21.0300007       1.81192106E-09
   21.0900002       2.50646526E-09
   21.1499996       3.14139204E-09
   21.2099991       3.69152420E-09
   21.2700005       4.13326973E-09
   21.3299999       4.44744108E-09
   21.3899994       4.62103555E-09
   21.4500008       4.64757210E-09
   21.5100002       4.52658844E-09
   21.5699997       4.26330260E-09
   21.6299992       3.86896382E-09
   21.6900005       3.36148931E-09
   21.7500000       2.76540568E-09
   21.8099995       2.11040896E-09
   21.8700008       1.42877399E-09
   21.9300003       7.52704343E-10
   21.9899998       1.12790000E-10
   22.0499992      -4.62086397E-10
   22.1100006      -9.44123779E-10
   22.1700001      -1.30653388E-09
   22.2299995      -1.52486967E-09
   22.2900009      -1.57952218E-09
   22.3500004      -1.45825840E-09
   22.4099998      -1.15764520E-09
   22.4699993      -6.82988166E-10
   22.5300007      -4.74102112E-11
   22.5900002       7.28941740E-10
   22.6499996       1.61910063E-09
   22.7099991       2.58939514E-09
   22.7700005       3.60053631E-09
   22.8299999       4.61035032E-09
   22.8899994       5.57771163E-09
   22.9500008       6.46623111E-09
   23.0100002       7.24618987E-09
   23.0699997       7.89422128E-09
   23.1299992       8.39164827E-09
   23.1900005       8.72318484E-09
   23.2500000       8.87730778E-09
   23.3099995       8.84826257E-09
   23.3700008       8.63840910E-09
   23.4300003       8.25930790E-09
   23.4899998       7.73075381E-09
   23.5499992       7.07828063E-09
   23.6100006       6.33042418E-09
   23.6700001       5.51678081E-09
   23.7299995       4.66685846E-09
   23.7900009       3.80890608E-09
   23.8500004       2.96796321E-09
   23.9099998       2.16334817E-09
   23.9699993       1.40684786E-09
   24.0300007       7.03050951E-10
   24.0900002       5.22442749E-11
   24.1499996      -5.45325340E-10
   24.2099991      -1.08607667E-09
   24.2700005      -1.56252888E-09
   24.3299999      -1.96586591E-09
   24.3899994      -2.29010610E-09
   24.4500008      -2.53546406E-09
   24.5100002      -2.70910672E-09
   24.5699997      -2.82310930E-09
   24.6299992      -2.89090707E-09
   24.6900005      -2.92400215E-09
   24.7500000      -2.93004021E-09
   24.8099995      -2.91233970E-09
   24.8700008      -2.87038948E-09
   24.9300003      -2.80104495E-09
   24.9899998      -2.70063683E-09
   25.0499992      -2.56822030E-09
   25.1100006      -2.40937292E-09
   25.1700001      -2.23882468E-09
   25.2299995      -2.07979634E-09
   25.2900009      -1.95898875E-09
   25.3500004      -1.89838234E-09
   25.4099998      -1.90717553E-09
   25.4699993      -1.97778438E-09
   25.5300007      -2.08825557E-09
   25.5900002      -2.21041385E-09
   25.6499996      -2.32025488E-09
   25.7099991      -2.40610398E-09
   25.7700005      -2.47132537E-09
   25.8299999      -2.53106314E-09
   25.8899994      -2.60499711E-09
   25.9500008      -2.70924194E-09
   26.0100002      -2.85008994E-09
   26.0699997      -3.02107050E-09
   26.1299992      -3.20368887E-09
   26.1900005      -3.37160833E-09
   26.2500000      -3.49763085E-09
   26.3099995      -3.56210816E-09
   26.3700008      -3.56036622E-09
   26.4300003      -3.50605522E-09
   26.4899998      -3.42800188E-09
   26.5499992      -3.36047523E-09
   26.6100006      -3.32994254E-09
   26.6700001      -3.34367756E-09
   26.7299995      -3.38546302E-09
   26.7900009      -3.42078788E-09
   26.8500004      -3.40966788E-09
   26.9099998      -3.32173156E-09
   26.9699993      -3.14730952E-09
   27.0300007      -2.90030155E-09
   27.0900002      -2.61234634E-09
   27.1499996      -2.32127761E-09
   27.2099991      -2.05852313E-09
   27.2700005      -1.83967941E-09
   27.3299999      -1.66075109E-09
   27.3899994      -1.50060275E-09
   27.4500008      -1.32865718E-09
   27.5100002      -1.11579013E-09
   27.5699997      -8.45481851E-10
   27.6299992      -5.21691690E-10
   27.6900005      -1.70201422E-10
   27.7500000       1.68110276E-10
   27.8099995       4.50589732E-10
   27.8700008       6.48118170E-10
   27.9300003       7.56239127E-10
   27.9899998       7.97126753E-10
   28.0499992       8.11146317E-10
   28.1100006       8.41301084E-10
   28.1700001       9.16946130E-10
   28.2299995       1.04325126E-09
   28.2900009       1.20009713E-09
   28.3500004       1.35001299E-09
   28.4099998       1.45143086E-09
   28.4699993       1.47227630E-09
   28.5300007       1.39971135E-09
   28.5900002       1.24370925E-09
   28.6499996       1.03399944E-09
   28.7099991       8.11314849E-10
   28.7700005       6.14998774E-10
   28.8299999       4.70152861E-10
   28.8899994       3.78375414E-10
   28.9500008       3.15953957E-10
   29.0100002       2.41430209E-10
   29.0699997       1.10957077E-10
   29.1299992      -1.03786368E-10
   29.1900005      -4.02207351E-10
   29.2500000      -7.51746998E-10
   29.3099995      -1.09683207E-09
   29.3700008      -1.37641920E-09
   29.4300003      -1.54319790E-09
   29.4899998      -1.57721869E-09
   29.5499992      -1.48953960E-09
   29.6100006      -1.31576339E-09
   29.6700001      -1.10290965E-09
   29.7299995      -8.94576080E-10
   29.7900009      -7.18800186E-10
   29.8500004      -5.81413029E-10
   29.9099998      -4.66036487E-10
   29.9699993      -3.40564299E-10
   30.0300007      -1.68727671E-10
   30.0900002       7.61369093E-11
   30.1499996       3.99361960E-10
   30.2099991       7.79832476E-10
   30.2700005       1.17443011E-09
   30.3299999       1.53149438E-09
   30.3899994       1.80877857E-09
   30.4500008       1.98892702E-09
   30.5100002       2.08609574E-09
   30.5699997       2.14093498E-09
   30.6299992       2.20602558E-09
   30.6900005       2.32764608E-09
   30.7500000       2.53072074E-09
   30.8099995       2.81183943E-09
   30.8700008       3.14172932E-09
   30.9300003       3.47527362E-09
   30.9899998       3.76534048E-09
   31.0499992       3.97637967E-09
   31.1100006       4.09432488E-09
   31.1700001       4.13022816E-09
   31.2299995       4.11622336E-09
   31.2900009       4.09423739E-09
   31.3500004       4.10027656E-09
   31.4099998       4.14944612E-09
   31.4699993       4.22762358E-09
   31.5300007       4.29396030E-09
   31.5900002       4.29428848E-09
   31.6499996       4.18077706E-09
   31.7099991       3.93019617E-09
   31.7700005       3.55354901E-09
   31.8299999       3.09347303E-09
   31.8899994       2.61093014E-09
   31.9500008       2.16672347E-09
   32.0099983       1.80462512E-09
   32.0699997       1.54131585E-09
   32.1300011       1.36523148E-09
   32.1899986       1.24344834E-09
   32.2500000       1.13391663E-09
   32.3100014       9.99586636E-10
   32.3699989       8.20777613E-10
   32.4300003       6.02249917E-10
   32.4900017       3.72234021E-10
   32.5499992       1.72690043E-10
   32.6100006       4.32370841E-11
   32.6699982       4.31033291E-12
   32.7299995       4.63978508E-11
   32.7900009       1.30435704E-10
   32.8499985       1.99932570E-10
   32.9099998       2.00199690E-10
   32.9700012       9.68569391E-11
   33.0299988      -1.13745229E-10
   33.0900002      -4.05689010E-10
   33.1500015      -7.34641348E-10
   33.2099991      -1.05368714E-09
   33.2700005      -1.32774980E-09
   33.3300018      -1.54236490E-09
   33.3899994      -1.70546455E-09
   33.4500008      -1.84307714E-09
   33.5099983      -1.99078487E-09
   33.5699997      -2.18293894E-09
   33.6300011      -2.44185983E-09
   33.6899986      -2.76981438E-09
   33.7500000      -3.14676818E-09
   33.8100014      -3.53577589E-09
   33.8699989      -3.89514776E-09
   33.9300003      -4.19325019E-09
   33.9900017      -4.41990977E-09
   34.0499992      -4.58934712E-09
   34.1100006      -4.73324802E-09
   34.1699982      -4.88718754E-09
   34.2299995      -5.07656406E-09
   34.2900009      -5.30797273E-09
   34.3499985      -5.56880630E-09
   34.4099998      -5.83383963E-09
   34.4700012      -6.07487260E-09
   34.5299988      -6.26931662E-09
   34.5900002      -6.40535802E-09
   34.6500015      -6.48336584E-09
   34.7099991      -6.51428911E-09
   34.7700005      -6.51567955E-09
   34.8300018      -6.50567422E-09
   34.8899994      -6.49571286E-09
   34.9500008      -6.48399068E-09
   35.0099983      -6.45265708E-09
   35.0699997      -6.37117514E-09
   35.1300011      -6.20580876E-09
   35.1899986      -5.93192917E-09
   35.2500000      -5.54377610E-09
   35.3100014      -5.05703612E-09
   35.3699989      -4.50291804E-09
   35.4300003      -3.91659682E-09
   35.4900017      -3.32546124E-09
   35.5499992      -2.74224510E-09
   35.6100006      -2.16519602E-09
   35.6699982      -1.58389946E-09
   35.7299995      -9.87225857E-10
   35.7900009      -3.69959591E-10
   35.8499985       2.63711386E-10
   35.9099998       8.99945507E-10
   35.9700012       1.51758994E-09
   36.0299988       2.09258366E-09
   36.0900002       2.60396105E-09
   36.1500015       3.04033065E-09
   36.2099991       3.40454154E-09
   36.2700005       3.71374398E-09
   36.3300018       3.99326616E-09
   36.3899994       4.26560387E-09
   36.4500008       4.53884752E-09
   36.5099983       4.80008566E-09
   36.5699997       5.01753572E-09
   36.6300011       5.15101561E-09
   36.6899986       5.16616616E-09
   36.7500000       5.04590059E-09
   36.8100014       4.79409223E-09
   36.8699989       4.43046932E-09
   36.9300003       3.97990041E-09
   36.9900017       3.46138940E-09
   37.0499992       2.88145396E-09
   37.1100006       2.23393526E-09
   37.1699982       1.50538104E-09
   37.2299995       6.83376244E-10
   37.2900009      -2.35177433E-10
   37.3499985      -1.23830102E-09
   37.4099998      -2.29742736E-09
   37.4700012      -3.37105233E-09
   37.5299988      -4.41325243E-09
   37.5900002      -5.38501421E-09
   37.6500015      -6.26455998E-09
   37.7099991      -7.05222369E-09
   37.7700005      -7.76689557E-09
   37.8300018      -8.43449222E-09
   37.8899994      -9.07280651E-09
   37.9500008      -9.67930269E-09
   38.0099983      -1.02275814E-08
   38.0699997      -1.06743903E-08
   38.1300011      -1.09742881E-08
   38.1899986      -1.10956595E-08
   38.2500000      -1.10315073E-08
   38.3100014      -1.08010694E-08
   38.3699989      -1.04423599E-08
   38.4300003      -9.99911887E-09
   38.4900017      -9.50715240E-09
   38.5499992      -8.98456243E-09
   38.6100006      -8.42863646E-09
   38.6699982      -7.82007792E-09
   38.7299995      -7.13327708E-09
   38.7900009      -6.34954889E-09
   38.8499985      -5.46904166E-09
   38.9099998      -4.51681048E-09
   38.9700012      -3.54007001E-09
   39.0299988      -2.59676081E-09
   39.0900002      -1.73929393E-09
   39.1500015      -9.99839656E-10
   39.2099991      -3.83310245E-10
   39.2700005       1.29012648E-10
   39.3300018       5.66966862E-10
   39.3899994       9.55752477E-10
   39.4500008       1.30365174E-09
   39.5099983       1.59785440E-09
   39.5699997       1.80908089E-09
   39.6300011       1.90207516E-09
   39.6899986       1.84739934E-09
   39.7500000       1.63053981E-09
   39.8100014       1.25619026E-09
   39.8699989       7.47374884E-10
   39.9300003       1.40102457E-10
   39.9900017      -5.25259281E-10
   40.0499992      -1.21415122E-09
   40.1100006      -1.90692795E-09
   40.1699982      -2.60369348E-09
   40.2299995      -3.32225514E-09
   40.2900009      -4.08883283E-09
   40.3499985      -4.92439023E-09
   40.4099998      -5.83200688E-09
   40.4700012      -6.79093759E-09
   40.5299988      -7.76037723E-09
   40.5900002      -8.69162786E-09
   40.6500015      -9.54345936E-09
   40.7099991      -1.02941247E-08
   40.7700005      -1.09451941E-08
   40.8300018      -1.15162910E-08
   40.8899994      -1.20336834E-08
   40.9500008      -1.25178188E-08
   41.0099983      -1.29745503E-08
   41.0699997      -1.33926230E-08
   41.1300011      -1.37473677E-08
   41.1899986      -1.40085756E-08
   41.2500000      -1.41496992E-08
   41.3100014      -1.41555940E-08
   41.3699989      -1.40266581E-08
   41.4300003      -1.37781511E-08
   41.4900017      -1.34347866E-08
   41.5499992      -1.30221700E-08
   41.6100006      -1.25579724E-08
   41.6699982      -1.20462236E-08
   41.7299995      -1.14771197E-08
   41.7900009      -1.08326299E-08
   41.8499985      -1.00956230E-08
   41.9099998      -9.25861077E-09
   41.9700012      -8.32828917E-09
   42.0299988      -7.32395433E-09
   42.0900002      -6.27063201E-09
   42.1500015      -5.19004262E-09
   42.2099991      -4.09333856E-09
   42.2700005      -2.97858271E-09
   42.3300018      -1.83379589E-09
   42.3899994      -6.44138909E-10
   42.4500008       5.99729821E-10
   42.5099983       1.89531657E-09
   42.5699997       3.22627014E-09
   42.6300011       4.56532856E-09
   42.6899986       5.88113735E-09
   42.7500000       7.14648873E-09
   42.8100014       8.34502867E-09
   42.8699989       9.47397627E-09
   42.9300003       1.05418234E-08
   42.9900017       1.15618342E-08
   43.0499992       1.25438584E-08
   43.1100006       1.34876519E-08
   43.1699982       1.43803840E-08
   43.2299995       1.51993635E-08
   43.2900009       1.59189177E-08
   43.3499985       1.65186567E-08
   43.4099998       1.69899455E-08
   43.4700012       1.73380759E-08
   43.5299988       1.75794348E-08
   43.5900002       1.77349229E-08
   43.6500015       1.78221953E-08
   43.7099991       1.78496915E-08
   43.7700005       1.78145623E-08
   43.8300018       1.77051618E-08
   43.8899994       1.75070340E-08
   43.9500008       1.72100716E-08
   44.0099983       1.68142869E-08
   44.0699997       1.63320202E-08
   44.1300011       1.57859379E-08
   44.1899986       1.52034616E-08
   44.2500000       1.46096166E-08
   44.3100014       1.40206158E-08
   44.3699989       1.34402551E-08
   44.4300003       1.28601654E-08
   44.4900017       1.22637935E-08
   44.5499992       1.16329000E-08
   44.6100006       1.09546088E-08
   44.6699982       1.02268869E-08
   44.7299995       9.46065981E-09
   44.7900009       8.67768346E-09
   44.8499985       7.90461030E-09
   44.9099998       7.16501170E-09
   44.9700012       6.47210996E-09
   45.0299988       5.82497517E-09
   45.0900002       5.20990628E-09
   45.1500015       4.60677319E-09
   45.2099991       3.99809919E-09
   45.2700005       3.37741013E-09
   45.3300018       2.75353851E-09
   45.3899994       2.14910734E-09
   45.4500008       1.59369373E-09
   45.5099983       1.11419363E-09
   45.5699997       7.25868587E-10
   45.6300011       4.27141239E-10
   45.6899986       1.99754741E-10
   45.7500000       1.40705191E-11
   45.8100014      -1.62279176E-10
   45.8699989      -3.55029034E-10
   45.9300003      -5.75957781E-10
   45.9900017      -8.19751378E-10
   46.0499992      -1.06607556E-09
   46.1100006      -1.28638156E-09
   46.1699982      -1.45343926E-09
   46.2299995      -1.55049262E-09
   46.2900009      -1.57677982E-09
   46.3499985      -1.54725477E-09
   46.4099998      -1.48644941E-09
   46.4700012      -1.41875545E-09
   46.5299988      -1.35894418E-09
   46.5900002      -1.30671474E-09
   46.6500015      -1.24737831E-09
   46.7099991      -1.15819454E-09
   46.7700005      -1.01754372E-09
   46.8300018      -8.13118517E-10
   46.8899994      -5.46010570E-10
   46.9500008      -2.29507705E-10
   47.0099983       1.16385103E-10
   47.0699997       4.72215655E-10
   47.1300011       8.25393420E-10
   47.1899986       1.17358590E-09
   47.2500000       1.52451540E-09
   47.3100014       1.89260763E-09
   47.3699989       2.29362662E-09
   47.4300003       2.73869327E-09
   47.4900017       3.22913052E-09
   47.5499992       3.75351483E-09
   47.6100006       4.28802904E-09
   47.6699982       4.80056528E-09
   47.7299995       5.25791632E-09
   47.7900009       5.63419000E-09
   47.8499985       5.91775873E-09
   47.9099998       6.11420115E-09
   47.9700012       6.24395513E-09
   48.0299988       6.33534292E-09
   48.0900002       6.41547349E-09
   48.1500015       6.50236620E-09
   48.2099991       6.60108990E-09
   48.2700005       6.70500633E-09
   48.3300018       6.80112633E-09
   48.3899994       6.87708823E-09
   48.4500008       6.92693680E-09
   48.5099983       6.95367142E-09
   48.5699997       6.96800040E-09
   48.6300011       6.98414215E-09
   48.6899986       7.01431180E-09
   48.7500000       7.06372871E-09
   48.8100014       7.12757675E-09
   48.8699989       7.19078752E-09
   48.9300003       7.23082882E-09
   48.9900017       7.22296090E-09
   49.0499992       7.14667747E-09
   49.1100006       6.99150604E-09
   49.1699982       6.76021950E-09
   49.2299995       6.46815446E-09
   49.2900009       6.13858964E-09
   49.3499985       5.79563864E-09
   49.4099998       5.45710632E-09
   49.4700012       5.12982234E-09
   49.5299988       4.80892082E-09
   49.5900002       4.48094362E-09
   49.6500015       4.12923606E-09
   49.7099991       3.73949050E-09
   49.7700005       3.30363958E-09
   49.8300018       2.82128765E-09
   49.8899994       2.29885488E-09
   49.9500008       1.74719561E-09
   50.0099983       1.17854171E-09
   50.0699997       6.03474160E-10
   50.1300011       2.85121250E-11
   50.1899986      -5.45091083E-10
   50.2500000      -1.12082754E-09
   50.3100014      -1.70455761E-09
   50.3699989      -2.30086217E-09
   50.4300003      -2.90945090E-09
   50.4900017      -3.52321772E-09
   50.5499992      -4.12900603E-09
   50.6100006      -4.71096939E-09