  -2.400000      0.0000000E+00
  -2.340000      0.0000000E+00
  -2.280000      0.0000000E+00
  -2.220000      0.0000000E+00
  -2.160000      0.0000000E+00
  -2.100000      0.0000000E+00
  -2.040000     -4.9516069E-22
  -1.980000     -4.2834235E-21
  -1.920000     -1.7369006E-20
  -1.860000     -3.9290462E-20
  -1.800000     -3.2478840E-20
  -1.740000      1.1063277E-19
  -1.680000      5.2135560E-19
  -1.620000      1.1177188E-18
  -1.560000      1.2006578E-18
  -1.500000     -7.2535545E-19
  -1.440000     -6.1442107E-18
  -1.380000     -1.4181107E-17
  -1.320000     -1.8517004E-17
  -1.260000     -6.5585467E-18
  -1.200000      3.4873584E-17
  -1.140000      1.0536100E-16
  -1.080000      1.7334046E-16
  -1.020000      1.6944713E-16
 -0.9600000      8.6505986E-18
 -0.9000000     -3.5113206E-16
 -0.8400000     -8.3215635E-16
 -0.7800000     -1.1902876E-15
 -0.7200000     -1.0593242E-15
 -0.6600000     -1.1832717E-16
 -0.6000000      1.6570780E-15
 -0.5400000      3.7822787E-15
 -0.4800000      5.2541746E-15
 -0.4200000      4.8569526E-15
 -0.3600000      1.7450747E-15
 -0.3000000     -3.9230458E-15
 -0.2400000     -1.0644218E-14
 -0.1800000     -1.5812342E-14
 -0.1200000     -1.6589588E-14
 -5.9999999E-02 -1.1118760E-14
  0.0000000E+00  4.5625387E-16
  5.9999999E-02  1.5683330E-14
  0.1200000      3.0420697E-14
  0.1800000      4.0127457E-14
  0.2400000      4.1214479E-14
  0.3000000      3.1837102E-14
  0.3600000      1.1907506E-14
  0.4200000     -1.7310067E-14
  0.4800000     -5.3279684E-14
  0.5400000     -9.1386276E-14
  0.6000000     -1.2346064E-13
  0.6600000     -1.3686814E-13
  0.7200000     -1.1595191E-13
  0.7800000     -4.7098677E-14
  0.8400000      7.3050845E-14
  0.9000000      2.2909967E-13
  0.9600000      3.8273096E-13
   1.020000      4.7738040E-13
   1.080000      4.5353676E-13
   1.140000      2.7177094E-13
   1.200000     -6.4220073E-14
   1.260000     -4.9472660E-13
   1.320000     -9.0967739E-13
   1.380000     -1.1750254E-12
   1.440000     -1.1735592E-12
   1.500000     -8.4668600E-13
   1.560000     -2.2155484E-13
   1.620000      5.8762093E-13
   1.680000      1.4055114E-12
   1.740000      2.0397206E-12
   1.800000      2.3272671E-12
   1.860000      2.1686815E-12
   1.920000      1.5425937E-12
   1.980000      5.0381362E-13
   2.040000     -8.2549354E-13
   2.100000     -2.2629852E-12
   2.160000     -3.5713971E-12
   2.220000     -4.4716934E-12
   2.280000     -4.6783046E-12
   2.340000     -3.9640739E-12
   2.400000     -2.2459009E-12
   2.460000      3.3689552E-13
   2.520000      3.3895879E-12
   2.580000      6.3052315E-12
   2.640000      8.3896648E-12
   2.700000      9.0401540E-12
   2.760000      7.9224882E-12
   2.820000      5.0850977E-12
   2.880000      9.6829196E-13
   2.940000     -3.6952828E-12
   3.000000     -8.0532239E-12
   3.060000     -1.1319857E-11
   3.120000     -1.2920469E-11
   3.180000     -1.2563234E-11
   3.240000     -1.0243446E-11
   3.300000     -6.2095242E-12
   3.360000     -9.2348503E-13
   3.420000      4.9694441E-12
   3.480000      1.0673576E-11
   3.540000      1.5306457E-11
   3.600000      1.8017580E-11
   3.660000      1.8160126E-11
   3.720000      1.5478960E-11
   3.780000      1.0253362E-11
   3.840000      3.3329580E-12
   3.900000     -3.9667371E-12
   3.960000     -1.0097948E-11
   4.020000     -1.3588940E-11
   4.080000     -1.3348665E-11
   4.140000     -8.8930634E-12
   4.200000     -4.4531940E-13
   4.260000      1.1100616E-11
   4.320000      2.4331594E-11
   4.380000      3.7541883E-11
   4.440000      4.8991144E-11
   4.500000      5.7155315E-11
   4.560000      6.0939517E-11
   4.620000      5.9828462E-11
   4.680000      5.3956818E-11
   4.740000      4.4092285E-11
   4.800000      3.1538827E-11
   4.860000      1.7981843E-11
   4.920000      5.3034703E-12
   4.980000     -4.6100155E-12
   5.040000     -1.0063063E-11
   5.100000     -9.7570450E-12
   5.160000     -3.0154028E-12
   5.220000      9.9892065E-12
   5.280000      2.8063109E-11
   5.340000      4.8965314E-11
   5.400000      6.9614571E-11
   5.460000      8.6563527E-11
   5.520000      9.6677791E-11
   5.580000      9.7856195E-11
   5.640000      8.9571760E-11
   5.700000      7.3038200E-11
   5.760000      5.0918353E-11
   5.820000      2.6649504E-11
   5.880000      3.5998849E-12
   5.940000     -1.5672656E-11
   6.000000     -2.9842327E-11
   6.060000     -3.8839511E-11
   6.120000     -4.3559573E-11
   6.180000     -4.5443850E-11
   6.240000     -4.6124830E-11
   6.300000     -4.7237599E-11
   6.360000     -5.0371558E-11
   6.420000     -5.7043599E-11
   6.480000     -6.8568366E-11
   6.540000     -8.5783283E-11
   6.600000     -1.0870654E-10
   6.660000     -1.3629091E-10
   6.720000     -1.6643208E-10
   6.780000     -1.9629207E-10
   6.840000     -2.2285682E-10
   6.900000     -2.4353866E-10
   6.960000     -2.5661759E-10
   7.020000     -2.6140146E-10
   7.080000     -2.5812527E-10
   7.140000     -2.4772481E-10
   7.200000     -2.3165229E-10
   7.260000     -2.1183140E-10
   7.320000     -1.9072972E-10
   7.380000     -1.7142809E-10
   7.440000     -1.5754993E-10
   7.500000     -1.5298857E-10
   7.560000     -1.6148792E-10
   7.620000     -1.8621824E-10
   7.680000     -2.2949413E-10
   7.740000     -2.9270814E-10
   7.800000     -3.7645051E-10
   7.860000     -4.8072241E-10
   7.920000     -6.0515548E-10
   7.980000     -7.4920908E-10
   8.040000     -9.1236074E-10
   8.100000     -1.0942949E-09
   8.160000     -1.2950294E-09
   8.220000     -1.5148541E-09
   8.280000     -1.7539763E-09
   8.340000     -2.0118935E-09
   8.400000     -2.2866944E-09
   8.460000     -2.5746092E-09
   8.520000     -2.8700771E-09
   8.580000     -3.1663709E-09
   8.640000     -3.4565113E-09
   8.700000     -3.7340153E-09
   8.760000     -3.9930756E-09
   8.820000     -4.2280908E-09
   8.880000     -4.4328696E-09
   8.940000     -4.6001052E-09
   9.000000     -4.7216329E-09
   9.060000     -4.7896038E-09
   9.120000     -4.7981805E-09
   9.180000     -4.7450195E-09
   9.240000     -4.6318243E-09
   9.300000     -4.4636974E-09
   9.360000     -4.2475672E-09
   9.420000     -3.9904280E-09
   9.480000     -3.6981516E-09
   9.540000     -3.3753005E-09
   9.600000     -3.0258203E-09
   9.660000     -2.6540561E-09
   9.720000     -2.2654281E-09
   9.780000     -1.8663537E-09
   9.840000     -1.4634484E-09
   9.900000     -1.0624280E-09
   9.960000     -6.6728240E-10
   10.02000     -2.8013644E-10
   10.08000      9.8125327E-11
   10.14000      4.6675513E-10
   10.20000      8.2405022E-10
   10.26000      1.1667497E-09
   10.32000      1.4901784E-09
   10.38000      1.7890788E-09
   10.44000      2.0587769E-09
   10.50000      2.2961888E-09
   10.56000      2.5002427E-09
   10.62000      2.6715470E-09
   10.68000      2.8114902E-09
   10.74000      2.9212128E-09
   10.80000      3.0009368E-09
   10.86000      3.0499343E-09
   10.92000      3.0670628E-09
   10.98000      3.0514906E-09
   11.04000      3.0031928E-09
   11.10000      2.9229812E-09
   11.16000      2.8121914E-09
   11.22000      2.6723557E-09
   11.28000      2.5051714E-09
   11.34000      2.3127791E-09
   11.40000      2.0980542E-09
   11.46000      1.8645130E-09
   11.52000      1.6156746E-09
   11.58000      1.3541362E-09
   11.64000      1.0809408E-09
   11.70000      7.9574758E-10
   11.76000      4.9786752E-10
   11.82000      1.8764336E-10
   11.88000     -1.3263900E-10
   11.94000     -4.5890849E-10
   12.00000     -7.8649431E-10
   12.06000     -1.1116397E-09
   12.12000     -1.4324173E-09
   12.18000     -1.7485047E-09
   12.24000     -2.0600497E-09
   12.30000     -2.3664992E-09
   12.36000     -2.6663447E-09
   12.42000     -2.9581431E-09
   12.48000     -3.2423062E-09
   12.54000     -3.5225398E-09
   12.60000     -3.8059023E-09
   12.66000     -4.1012123E-09
   12.72000     -4.4164556E-09
   12.78000     -4.7564366E-09
   12.84000     -5.1217466E-09
   12.90000     -5.5094032E-09
   12.96000     -5.9146350E-09
   13.02000     -6.3328356E-09
   13.08000     -6.7608221E-09
   13.14000     -7.1970954E-09
   13.20000     -7.6413507E-09
   13.26000     -8.0937346E-09
   13.32000     -8.5542000E-09
   13.38000     -9.0220054E-09
   13.44000     -9.4952313E-09
   13.50000     -9.9702584E-09
   13.56000     -1.0441378E-08
   13.62000     -1.0900839E-08
   13.68000     -1.1339513E-08
   13.74000     -1.1748035E-08
   13.80000     -1.2118007E-08
   13.86000     -1.2442788E-08
   13.92000     -1.2717651E-08
   13.98000     -1.2939485E-08
   14.04000     -1.3106443E-08
   14.10000     -1.3217917E-08
   14.16000     -1.3274930E-08
   14.22000     -1.3280715E-08
   14.28000     -1.3241080E-08
   14.34000     -1.3164248E-08
   14.40000     -1.3060117E-08
   14.46000     -1.2939110E-08
   14.52000     -1.2810901E-08
   14.58000     -1.2683307E-08
   14.64000     -1.2561570E-08
   14.70000     -1.2448148E-08
   14.76000     -1.2343121E-08
   14.82000     -1.2245114E-08
   14.88000     -1.2152515E-08
   14.94000     -1.2064578E-08
   15.00000     -1.1982016E-08
   15.06000     -1.1906921E-08
   15.12000     -1.1842109E-08
   15.18000     -1.1790302E-08
   15.24000     -1.1753561E-08
   15.30000     -1.1733120E-08
   15.36000     -1.1729512E-08
   15.42000     -1.1742637E-08
   15.48000     -1.1771568E-08
   15.54000     -1.1814073E-08
   15.60000     -1.1866142E-08
   15.66000     -1.1921796E-08
   15.72000     -1.1973317E-08
   15.78000     -1.2011796E-08
   15.84000     -1.2027798E-08
   15.90000     -1.2012035E-08
   15.96000     -1.1956072E-08
   16.02000     -1.1853113E-08
   16.08000     -1.1698686E-08
   16.14000     -1.1490846E-08
   16.20000     -1.1229473E-08
   16.26000     -1.0914641E-08
   16.32000     -1.0544611E-08
   16.38000     -1.0114497E-08
   16.44000     -9.6164916E-09
   16.50000     -9.0418535E-09
   16.56000     -8.3838660E-09
   16.62000     -7.6404136E-09
   16.68000     -6.8149926E-09
   16.74000     -5.9159229E-09
   16.80000     -4.9545443E-09
   16.86000     -3.9437191E-09
   16.92000     -2.8975469E-09
   16.98000     -1.8322216E-09
   17.04000     -7.6707307E-10
   17.10000      2.7535899E-10
   17.16000      1.2707065E-09
   17.22000      2.1951174E-09
   17.28000      3.0274667E-09
   17.34000      3.7505479E-09
   17.40000      4.3511790E-09
   17.46000      4.8199738E-09
   17.52000      5.1516515E-09
   17.58000      5.3461733E-09
   17.64000      5.4100635E-09
   17.70000      5.3568430E-09
   17.76000      5.2058380E-09
   17.82000      4.9796505E-09
   17.88000      4.7014108E-09
   17.94000      4.3930584E-09
   18.00000      4.0751051E-09
   18.06000      3.7672456E-09
   18.12000      3.4885330E-09
   18.18000      3.2561807E-09
   18.24000      3.0831264E-09
   18.30000      2.9755609E-09
   18.36000      2.9319356E-09
   18.42000      2.9442686E-09
   18.48000      3.0013623E-09
   18.54000      3.0925917E-09
   18.60000      3.2108112E-09
   18.66000      3.3536161E-09
   18.72000      3.5231282E-09
   18.78000      3.7250178E-09
   18.84000      3.9674024E-09
   18.90000      4.2598227E-09
   18.96000      4.6121809E-09
   19.02000      5.0336211E-09
   19.08000      5.5316485E-09
   19.14000      6.1119443E-09
   19.20000      6.7789920E-09
   19.26000      7.5370048E-09
   19.32000      8.3901783E-09
   19.38000      9.3415249E-09
   19.44000      1.0390404E-08
   19.50000      1.1529879E-08
   19.56000      1.2745375E-08
   19.62000      1.4015586E-08
   19.68000      1.5315287E-08
   19.74000      1.6618644E-08
   19.80000      1.7901455E-08
   19.86000      1.9141574E-08
   19.92000      2.0318080E-08
   19.98000      2.1410516E-08
   20.04000      2.2399329E-08
   20.10000      2.3267582E-08
   20.16000      2.4002984E-08
   20.22000      2.4598922E-08
   20.28000      2.5053961E-08
   20.34000      2.5370312E-08
   20.40000      2.5552527E-08
   20.46000      2.5607378E-08
   20.52000      2.5544837E-08
   20.58000      2.5379052E-08
   20.64000      2.5127944E-08
   20.70000      2.4810898E-08
   20.76000      2.4445191E-08
   20.82000      2.4042778E-08
   20.88000      2.3608873E-08
   20.94000      2.3142798E-08
   21.00000      2.2640336E-08
   21.06000      2.2096321E-08
   21.12000      2.1506384E-08
   21.18000      2.0867647E-08
   21.24000      2.0178847E-08
   21.30000      1.9440387E-08
   21.36000      1.8654406E-08
   21.42000      1.7824442E-08
   21.48000      1.6954312E-08
   21.54000      1.6046330E-08
   21.60000      1.5099809E-08
   21.66000      1.4110790E-08
   21.72000      1.3073604E-08
   21.78000      1.1983747E-08
   21.84000      1.0840721E-08
   21.90000      9.6494110E-09
   21.96000      8.4192457E-09
   22.02000      7.1614910E-09
   22.08000      5.8857861E-09
   22.14000      4.5972470E-09
   22.20000      3.2950171E-09
   22.26000      1.9725759E-09
   22.32000      6.1965932E-10
   22.38000     -7.7456386E-10
   22.44000     -2.2176121E-09
   22.50000     -3.7099601E-09
   22.56000     -5.2426552E-09
   22.62000     -6.7974724E-09
   22.68000     -8.3501401E-09
   22.74000     -9.8759685E-09
   22.80000     -1.1355960E-08
   22.86000     -1.2780980E-08
   22.92000     -1.4152201E-08
   22.98000     -1.5477635E-08
   23.04000     -1.6766302E-08
   23.10000     -1.8022556E-08
   23.16000     -1.9242904E-08
   23.22000     -2.0416293E-08
   23.28000     -2.1527411E-08
   23.34000     -2.2561382E-08
   23.40000     -2.3508127E-08
   23.46000     -2.4365047E-08
   23.52000     -2.5137412E-08
   23.58000     -2.5836437E-08
   23.64000     -2.6475369E-08
   23.70000     -2.7064418E-08
   23.76000     -2.7605756E-08
   23.82000     -2.8090289E-08
   23.88000     -2.8497752E-08
   23.94000     -2.8800820E-08
   24.00000     -2.8972485E-08
   24.06000     -2.8994382E-08
   24.12000     -2.8863077E-08
   24.18000     -2.8591758E-08
   24.24000     -2.8206481E-08
   24.30000     -2.7738125E-08
   24.36000     -2.7212895E-08
   24.42000     -2.6644715E-08
   24.48000     -2.6032177E-08
   24.54000     -2.5361011E-08
   24.60000     -2.4611182E-08
   24.66000     -2.3766143E-08
   24.72000     -2.2820977E-08
   24.78000     -2.1786441E-08
   24.84000     -2.0687155E-08
   24.90000     -1.9554207E-08
   24.96000     -1.8414530E-08
   25.02000     -1.7280859E-08
   25.08000     -1.6146302E-08
   25.14000     -1.4986023E-08
   25.20000     -1.3765998E-08
   25.26000     -1.2455966E-08
   25.32000     -1.1041885E-08
   25.38000     -9.5332062E-09
   25.44000     -7.9621714E-09
   25.50000     -6.3752621E-09
   25.56000     -4.8199107E-09
   25.62000     -3.3312189E-09
   25.68000     -1.9233735E-09
   25.74000     -5.8870392E-10
   25.80000      6.9538431E-10
   25.86000      1.9540864E-09
   25.92000      3.2018141E-09
   25.98000      4.4324775E-09
   26.04000      5.6169553E-09
   26.10000      6.7088344E-09
   26.16000      7.6565678E-09
   26.22000      8.4178540E-09
   26.28000      8.9711003E-09
   26.34000      9.3198187E-09
   26.40000      9.4883692E-09
   26.46000      9.5106509E-09
   26.52000      9.4158841E-09
   26.58000      9.2166239E-09
   26.64000      8.9031529E-09
   26.70000      8.4460234E-09
   26.76000      7.8056637E-09
   26.82000      6.9457089E-09
   26.88000      5.8456657E-09
   26.94000      4.5089239E-09
   27.00000      2.9636251E-09
   27.06000      1.2560915E-09
   27.12000     -5.6124505E-10
   27.18000     -2.4436642E-09
   27.24000     -4.3652273E-09
   27.30000     -6.3232117E-09
   27.36000     -8.3340641E-09
   27.42000     -1.0421966E-08
   27.48000     -1.2603931E-08
   27.54000     -1.4876919E-08
   27.60000     -1.7211914E-08
   27.66000     -1.9557470E-08
   27.72000     -2.1851525E-08
   27.78000     -2.4037078E-08
   27.84000     -2.6075842E-08
   27.90000     -2.7954783E-08
   27.96000     -2.9683267E-08
   28.02000     -3.1282166E-08
   28.08000     -3.2769162E-08
   28.14000     -3.4145689E-08
   28.20000     -3.5390364E-08
   28.26000     -3.6461010E-08
   28.32000     -3.7304687E-08
   28.38000     -3.7872159E-08
   28.44000     -3.8131979E-08
   28.50000     -3.8079364E-08
   28.56000     -3.7736800E-08
   28.62000     -3.7146059E-08
   28.68000     -3.6354049E-08
   28.74000     -3.5397271E-08
   28.80000     -3.4290117E-08
   28.86000     -3.3021113E-08
   28.92000     -3.1558635E-08
   28.98000     -2.9864147E-08
   29.04000     -2.7908490E-08
   29.10000     -2.5685416E-08
   29.16000     -2.3217588E-08
   29.22000     -2.0552887E-08
   29.28000     -1.7752336E-08
   29.34000     -1.4873959E-08
   29.40000     -1.1958250E-08
   29.46000     -9.0203685E-09
   29.52000     -6.0515983E-09
   29.58000     -3.0293827E-09
   29.64000      6.7800376E-11
   29.70000      3.2460632E-09
   29.76000      6.4873071E-09
   29.82000      9.7490540E-09
   29.88000      1.2972930E-08
   29.94000      1.6098790E-08
   30.00000      1.9079534E-08
   30.06000      2.1891351E-08
   30.12000      2.4535709E-08
   30.18000      2.7032277E-08
   30.24000      2.9405237E-08
   30.30000      3.1667799E-08
   30.36000      3.3810611E-08
   30.42000      3.5798294E-08
   30.48000      3.7575539E-08
   30.54000      3.9080675E-08
   30.60000      4.0261909E-08
   30.66000      4.1090683E-08
   30.72000      4.1567542E-08
   30.78000      4.1718987E-08
   30.84000      4.1586599E-08
   30.90000      4.1212530E-08
   30.96000      4.0626091E-08
   31.02000      3.9835633E-08
   31.08000      3.8827960E-08
   31.14000      3.7575184E-08
   31.20000      3.6046767E-08
   31.26000      3.4222982E-08
   31.32000      3.2105564E-08
   31.38000      2.9722022E-08
   31.44000      2.7121741E-08
   31.50000      2.4364693E-08
   31.56000      2.1506128E-08
   31.62000      1.8582446E-08
   31.68000      1.5603426E-08
   31.74000      1.2554018E-08
   31.80000      9.4054409E-09
   31.86000      6.1318151E-09
   31.92000      2.7262386E-09
   31.98000     -7.8960954E-10
   32.04000     -4.3659258E-09
   32.10000     -7.9351192E-09
   32.16000     -1.1428324E-08
   32.22000     -1.4792334E-08
   32.28000     -1.8001288E-08
   32.34000     -2.1059435E-08
   32.40000     -2.3994460E-08
   32.46000     -2.6843804E-08
   32.52000     -2.9638722E-08
   32.58000     -3.2391295E-08
   32.64000     -3.5088721E-08
   32.70000     -3.7696640E-08
   32.76000     -4.0170296E-08
   32.82000     -4.2469473E-08
   32.88000     -4.4571625E-08
   32.94000     -4.6478213E-08
   33.00000     -4.8211543E-08
   33.06000     -4.9802978E-08
   33.12000     -5.1276626E-08
   33.18000     -5.2634519E-08
   33.24000     -5.3848744E-08
   33.30000     -5.4863794E-08
   33.36000     -5.5608592E-08
   33.42000     -5.6014571E-08
   33.48000     -5.6033951E-08
   33.54000     -5.5652375E-08
   33.60000     -5.4891927E-08
   33.66000     -5.3803600E-08
   33.72000     -5.2451878E-08
   33.78000     -5.0896510E-08
   33.84000     -4.9177682E-08
   33.90000     -4.7309406E-08
   33.96000     -4.5283144E-08
   34.02000     -4.3079872E-08
   34.08000     -4.0685865E-08
   34.14000     -3.8106098E-08
   34.20000     -3.5370352E-08
   34.26000     -3.2529911E-08
   34.32000     -2.9646269E-08
   34.38000     -2.6776149E-08
   34.44000     -2.3958235E-08
   34.50000     -2.1206301E-08
   34.56000     -1.8511125E-08
   34.62000     -1.5850707E-08
   34.68000     -1.3205481E-08
   34.74000     -1.0573501E-08
   34.80000     -7.9801747E-09
   34.86000     -5.4785740E-09
   34.92000     -3.1393279E-09
   34.98000     -1.0327513E-09
   35.04000      7.9092771E-10
   35.10000      2.3162139E-09
   35.16000      3.5663326E-09
   35.22000      4.5949196E-09
   35.28000      5.4685083E-09
   35.34000      6.2464154E-09
   35.40000      6.9653923E-09
   35.46000      7.6340960E-09
   35.52000      8.2382741E-09
   35.58000      8.7534548E-09
   35.64000      9.1596073E-09
   35.70000      9.4523385E-09
   35.76000      9.6472075E-09
   35.82000      9.7764383E-09
   35.88000      9.8797281E-09
   35.94000      9.9922834E-09
   36.00000      1.0133824E-08
   36.06000      1.0302018E-08
   36.12000      1.0472744E-08
   36.18000      1.0607649E-08
   36.24000      1.0666947E-08
   36.30000      1.0623125E-08
   36.36000      1.0470340E-08
   36.42000      1.0225605E-08
   36.48000      9.9210808E-09
   36.54000      9.5906154E-09
   36.60000      9.2562216E-09
   36.66000      8.9200398E-09
   36.72000      8.5646894E-09
   36.78000      8.1609857E-09
   36.84000      7.6789846E-09
   36.90000      7.0974946E-09
   36.96000      6.4086882E-09
   37.02000      5.6171072E-09
   37.08000      4.7347060E-09
   37.14000      3.7745416E-09
   37.20000      2.7454310E-09
   37.26000      1.6489525E-09
   37.32000      4.7935894E-10
   37.38000     -7.7359591E-10
   37.44000     -2.1194588E-09
   37.50000     -3.5608791E-09
   37.56000     -5.0886553E-09
   37.62000     -6.6805361E-09
   37.68000     -8.3052694E-09
   37.74000     -9.9312150E-09
   37.80000     -1.1536391E-08
   37.86000     -1.3115600E-08
   37.92000     -1.4681106E-08
   37.98000     -1.6256113E-08
   38.04000     -1.7863552E-08
   38.10000     -1.9514870E-08
   38.16000     -2.1203329E-08
   38.22000     -2.2904208E-08
   38.28000     -2.4581210E-08
   38.34000     -2.6196064E-08
   38.40000     -2.7717544E-08
   38.46000     -2.9126944E-08
   38.52000     -3.0418633E-08
   38.58000     -3.1596013E-08
   38.64000     -3.2664357E-08
   38.70000     -3.3622843E-08
   38.76000     -3.4458463E-08
   38.82000     -3.5144222E-08
   38.88000     -3.5643101E-08
   38.94000     -3.5917218E-08
   39.00000     -3.5939266E-08
   39.06000     -3.5701856E-08
   39.12000     -3.5220534E-08
   39.18000     -3.4528622E-08
   39.24000     -3.3665572E-08
   39.30000     -3.2663536E-08
   39.36000     -3.1537933E-08
   39.42000     -3.0285914E-08
   39.48000     -2.8893242E-08
   39.54000     -2.7346282E-08
   39.60000     -2.5643850E-08
   39.66000     -2.3803999E-08
   39.72000     -2.1863229E-08
   39.78000     -1.9868807E-08
   39.84000     -1.7867274E-08
   39.90000     -1.5893342E-08
   39.96000     -1.3962853E-08
   40.02000     -1.2071986E-08
   40.08000     -1.0202889E-08
   40.14000     -8.3339797E-09
   40.20000     -6.4515722E-09
   40.26000     -4.5588435E-09
   40.32000     -2.6786553E-09
   40.38000     -8.4868695E-10
   40.44000      8.8988350E-10
   40.50000      2.5061977E-09
   40.56000      3.9907135E-09
   40.62000      5.3588431E-09
   40.68000      6.6454739E-09
   40.74000      7.8923197E-09
   40.80000      9.1330525E-09
   40.86000      1.0382090E-08
   40.92000      1.1631456E-08
   40.98000      1.2856843E-08
   41.04000      1.4030431E-08
   41.10000      1.5135486E-08
   41.16000      1.6177205E-08
   41.22000      1.7185759E-08
   41.28000      1.8210194E-08
   41.34000      1.9305073E-08
   41.40000      2.0514099E-08
   41.46000      2.1856144E-08
   41.52000      2.3318462E-08
   41.58000      2.4859741E-08
   41.64000      2.6422496E-08
   41.70000      2.7951048E-08
   41.76000      2.9409270E-08
   41.82000      3.0791956E-08
   41.88000      3.2125666E-08
   41.94000      3.3458502E-08
   42.00000      3.4842138E-08
   42.06000      3.6312436E-08
   42.12000      3.7875502E-08
   42.18000      3.9504084E-08
   42.24000      4.1145629E-08
   42.30000      4.2738918E-08
   42.36000      4.4233268E-08
   42.42000      4.5603418E-08
   42.48000      4.6854900E-08
   42.54000      4.8018023E-08
   42.60000      4.9132776E-08
   42.66000      5.0229914E-08
   42.72000      5.1314782E-08
   42.78000      5.2359393E-08
   42.84000      5.3305449E-08
   42.90000      5.4077244E-08
   42.96000      5.4600278E-08
   43.02000      5.4819488E-08
   43.08000      5.4711382E-08
   43.14000      5.4286453E-08
   43.20000      5.3581520E-08
   43.26000      5.2645017E-08
   43.32000      5.1520441E-08
   43.38000      5.0233428E-08
   43.44000      4.8786735E-08
   43.50000      4.7164185E-08
   43.56000      4.5341817E-08
   43.62000      4.3301856E-08
   43.68000      4.1044547E-08
   43.74000      3.8593733E-08
   43.80000      3.5994422E-08
   43.86000      3.3303476E-08
   43.92000      3.0576704E-08
   43.98000      2.7856910E-08
   44.04000      2.5166871E-08
   44.10000      2.2509516E-08
   44.16000      1.9875024E-08
   44.22000      1.7252180E-08
   44.28000      1.4639819E-08
   44.34000      1.2054207E-08
   44.40000      9.5296313E-09
   44.46000      7.1119568E-09
   44.52000      4.8475362E-09
   44.58000      2.7715250E-09
   44.64000      8.9984320E-10
   44.70000     -7.7249285E-10
   44.76000     -2.2664401E-09
   44.82000     -3.6096430E-09
   44.88000     -4.8264619E-09
   44.94000     -5.9308722E-09
   45.00000     -6.9243145E-09
   45.06000     -7.7985085E-09
   45.12000     -8.5414813E-09
   45.18000     -9.1441965E-09
   45.24000     -9.6054018E-09
   45.30000     -9.9332862E-09
   45.36000     -1.0143715E-08
   45.42000     -1.0255950E-08
   45.48000     -1.0287381E-08
   45.54000     -1.0249049E-08
   45.60000     -1.0143497E-08
   45.66000     -9.9657180E-09
   45.72000     -9.7069641E-09
   45.78000     -9.3600327E-09
   45.84000     -8.9239709E-09
   45.90000     -8.4062259E-09
   45.96000     -7.8212761E-09
   46.02000     -7.1862560E-09
   46.08000     -6.5155112E-09
   46.14000     -5.8165259E-09
   46.20000     -5.0890994E-09
   46.26000     -4.3281778E-09
   46.32000     -3.5291219E-09
   46.38000     -2.6931317E-09
   46.44000     -1.8305781E-09
   46.50000     -9.6092301E-10
   46.56000     -1.0935561E-10
   46.62000      6.9850770E-10
   46.68000      1.4419128E-09
   46.74000      2.1084845E-09
   46.80000      2.6949734E-09
   46.86000      3.2052383E-09
   46.92000      3.6463736E-09
   46.98000      4.0244381E-09
   47.04000      4.3412771E-09
   47.10000      4.5934927E-09
   47.16000      4.7737858E-09
   47.22000      4.8740110E-09
   47.28000      4.8886464E-09
   47.34000      4.8172843E-09
   47.40000      4.6652038E-09
   47.46000      4.4419308E-09
   47.52000      4.1584958E-09
   47.58000      3.8245278E-09
   47.64000      3.4462893E-09
   47.70000      3.0262846E-09
   47.76000      2.5644966E-09
   47.82000      2.0608151E-09
   47.88000      1.5178722E-09
   47.94000      9.4336428E-10
   48.00000      3.5093109E-10
   48.06000     -2.4107391E-10
   48.12000     -8.1298651E-10
   48.18000     -1.3485989E-09
   48.24000     -1.8396423E-09
   48.30000     -2.2880349E-09
   48.36000     -2.7045484E-09
   48.42000     -3.1039833E-09
   48.48000     -3.4986121E-09
   48.54000     -3.8926373E-09
   48.60000     -4.2801189E-09
   48.66000     -4.6472386E-09
   48.72000     -4.9777218E-09
   48.78000     -5.2587841E-09
   48.84000     -5.4849427E-09
   48.90000     -5.6582992E-09
   48.96000     -5.7857248E-09
   49.02000     -5.8746394E-09
   49.08000     -5.9292140E-09
   49.14000     -5.9480354E-09
   49.20000     -5.9233218E-09
   49.26000     -5.8413874E-09
   49.32000     -5.6843397E-09
   49.38000     -5.4333644E-09
   49.44000     -5.0737374E-09
   49.50000     -4.6006865E-09
   49.56000     -4.0239776E-09
   49.62000     -3.3687186E-09
   49.68000     -2.6709539E-09
   49.74000     -1.9689392E-09
   49.80000     -1.2932296E-09
   49.86000     -6.5951217E-10
   49.92000     -6.6883603E-11
   49.98000      4.9833399E-10
   50.04000      1.0555605E-09
   50.10000      1.6228741E-09
   50.16000      2.2120943E-09
   50.22000      2.8264169E-09
   50.28000      3.4597132E-09
   50.34000      4.0966732E-09
   50.40000      4.7140052E-09
   50.46000      5.2836486E-09
   50.52000      5.7784870E-09
   50.58000      6.1793934E-09
   50.64000      6.4808439E-09
   50.70000      6.6921784E-09
   50.76000      6.8333192E-09
   50.82000      6.9265198E-09
   50.88000      6.9877277E-09
   50.94000      7.0211921E-09
   51.00000      7.0190160E-09
   51.06000      6.9648660E-09
   51.12000      6.8395050E-09
   51.18000      6.6260082E-09
   51.24000      6.3136874E-09
   51.30000      5.9007212E-09
   51.36000      5.3954228E-09
   51.42000      4.8153495E-09
   51.48000      4.1832222E-09
   51.54000      3.5197507E-09
   51.60000      2.8354765E-09
   51.66000      2.1252449E-09
   51.72000      1.3683683E-09
   51.78000      5.3490684E-10
   51.84000     -4.0479742E-10
   51.90000     -1.4719478E-09
   51.96000     -2.6760432E-09
   52.02000     -4.0170343E-09
   52.08000     -5.4902980E-09
   52.14000     -7.0909256E-09
   52.20000     -8.8153680E-09
   52.26000     -1.0661023E-08
   52.32000     -1.2625819E-08
   52.38000     -1.4709083E-08
   52.44000     -1.6912825E-08
   52.50000     -1.9241115E-08
   52.56000     -2.1695907E-08
   52.62000     -2.4270145E-08
   52.68000     -2.6941455E-08
   52.74000     -2.9669858E-08
   52.80000     -3.2400717E-08
   52.86000     -3.5070819E-08
   52.92000     -3.7613773E-08
   52.98000     -3.9961961E-08
   53.04000     -4.2045063E-08
   53.10000     -4.3787676E-08
   53.16000     -4.5108585E-08
   53.22000     -4.5921901E-08
   53.28000     -4.6137952E-08
   53.34000     -4.5661334E-08
   53.40000     -4.4385807E-08
   53.46000     -4.2188894E-08
   53.52000     -3.8930320E-08
   53.58000     -3.4456811E-08
   53.64000     -2.8611868E-08
   53.70000     -2.1245977E-08
   53.76000     -1.2222547E-08
   53.82000     -1.4179969E-09
   53.88000      1.1281904E-08
   53.94000      2.5985466E-08
   54.00000      4.2795637E-08
   54.06000      6.1807967E-08
   54.12000      8.3108148E-08
   54.18000      1.0677056E-07
   54.24000      1.3285677E-07
   54.30000      1.6141119E-07
   54.36000      1.9245245E-07
   54.42000      2.2596207E-07
   54.48000      2.6187570E-07
   54.54000      3.0008121E-07
   54.60000      3.4042444E-07
   54.66000      3.8271841E-07
   54.72000      4.2674941E-07
   54.78000      4.7227559E-07
   54.84000      5.1901975E-07
   54.90000      5.6666170E-07
   54.96000      6.1483547E-07
   55.02000      6.6313339E-07
   55.08000      7.1111333E-07
   55.14000      7.5830354E-07
   55.20000      8.0420261E-07
   55.26000      8.4827752E-07
   55.32000      8.8996433E-07
   55.38000      9.2867612E-07
   55.44000      9.6381666E-07
   55.50000      9.9479473E-07
   55.56000      1.0210315E-06