  -2.400000      0.0000000E+00
  -2.340000      0.0000000E+00
  -2.280000      0.0000000E+00
  -2.220000      0.0000000E+00
  -2.160000      0.0000000E+00
  -2.100000      0.0000000E+00
  -2.040000      1.2307384E-22
  -1.980000      4.8741830E-22
  -1.920000     -1.5677214E-21
  -1.860000     -1.9584727E-20
  -1.800000     -8.3973540E-20
  -1.740000     -2.1592425E-19
  -1.680000     -3.3005817E-19
  -1.620000     -8.3455932E-20
  -1.560000      1.1629220E-18
  -1.500000      3.9566199E-18
  -1.440000      7.7172047E-18
  -1.380000      9.3898913E-18
  -1.320000      3.0546947E-18
  -1.260000     -1.7660106E-17
  -1.200000     -5.3380308E-17
  -1.140000     -9.0978029E-17
  -1.080000     -9.9753800E-17
  -1.020000     -3.9811624E-17
 -0.9600000      1.1320566E-16
 -0.9000000      3.3389605E-16
 -0.8400000      5.2423774E-16
 -0.7800000      5.2968888E-16
 -0.7200000      2.1036852E-16
 -0.6600000     -4.4916167E-16
 -0.6000000     -1.2488313E-15
 -0.5400000     -1.7795514E-15
 -0.4800000     -1.5799742E-15
 -0.4200000     -4.1552077E-16
 -0.3600000      1.4521973E-15
 -0.3000000      3.1989542E-15
 -0.2400000      3.7203051E-15
 -0.1800000      2.2334876E-15
 -0.1200000     -1.0670272E-15
 -5.9999999E-02 -4.7233174E-15
  0.0000000E+00 -6.4518233E-15
  5.9999999E-02 -4.3173794E-15
  0.1200000      1.8373466E-15
  0.1800000      9.5534822E-15
  0.2400000      1.4295168E-14
  0.3000000      1.1547519E-14
  0.3600000     -2.9136403E-16
  0.4200000     -1.7771127E-14
  0.4800000     -3.2603674E-14
  0.5400000     -3.4890016E-14
  0.6000000     -1.8373932E-14
  0.6600000      1.4779412E-14
  0.7200000      5.2594268E-14
  0.7800000      7.6972039E-14
  0.8400000      7.1628704E-14
  0.9000000      3.0871542E-14
  0.9600000     -3.5333115E-14
   1.020000     -1.0331350E-13
   1.080000     -1.4469418E-13
   1.140000     -1.3872397E-13
   1.200000     -8.2066061E-14
   1.260000      8.9684213E-15
   1.320000      1.0513990E-13
   1.380000      1.7677305E-13
   1.440000      2.0580540E-13
   1.500000      1.9141675E-13
   1.560000      1.4673035E-13
   1.620000      8.8884188E-14
   1.680000      2.8280121E-14
   1.740000     -3.6877321E-14
   1.800000     -1.1762145E-13
   1.860000     -2.2428256E-13
   1.920000     -3.5470750E-13
   1.980000     -4.8680450E-13
   2.040000     -5.7963817E-13
   2.100000     -5.8358001E-13
   2.160000     -4.5631451E-13
   2.220000     -1.7926586E-13
   2.280000      2.3120132E-13
   2.340000      7.2184988E-13
   2.400000      1.2111403E-12
   2.460000      1.6062326E-12
   2.520000      1.8233913E-12
   2.580000      1.8052172E-12
   2.640000      1.5289493E-12
   2.700000      1.0035879E-12
   2.760000      2.5874512E-13
   2.820000     -6.6740699E-13
   2.880000     -1.7325176E-12
   2.940000     -2.8816075E-12
   3.000000     -4.0276255E-12
   3.060000     -5.0301542E-12
   3.120000     -5.6853116E-12
   3.180000     -5.7381422E-12
   3.240000     -4.9220142E-12
   3.300000     -3.0206909E-12
   3.360000      5.8678567E-14
   3.420000      4.2173027E-12
   3.480000      9.1170743E-12
   3.540000      1.4166933E-11
   3.600000      1.8552212E-11
   3.660000      2.1309040E-11
   3.720000      2.1435978E-11
   3.780000      1.8023574E-11
   3.840000      1.0373074E-11
   3.900000     -1.9264178E-12
   3.960000     -1.8984430E-11
   4.020000     -4.0663535E-11
   4.080000     -6.6685747E-11
   4.140000     -9.6761231E-11
   4.200000     -1.3070772E-10
   4.260000     -1.6853849E-10
   4.320000     -2.1050951E-10
   4.380000     -2.5712510E-10
   4.440000     -3.0910174E-10
   4.500000     -3.6728606E-10
   4.560000     -4.3252454E-10
   4.620000     -5.0549442E-10
   4.680000     -5.8652716E-10
   4.740000     -6.7547473E-10
   4.800000     -7.7166956E-10
   4.860000     -8.7400548E-10
   4.920000     -9.8112241E-10
   4.980000     -1.0916330E-09
   5.040000     -1.2043074E-09
   5.100000     -1.3181506E-09
   5.160000     -1.4323538E-09
   5.220000     -1.5461603E-09
   5.280000     -1.6587266E-09
   5.340000     -1.7690591E-09
   5.400000     -1.8760646E-09
   5.460000     -1.9786888E-09
   5.520000     -2.0760731E-09
   5.580000     -2.1676423E-09
   5.640000     -2.2530751E-09
   5.700000     -2.3321685E-09
   5.760000     -2.4046634E-09
   5.820000     -2.4701172E-09
   5.880000     -2.5278881E-09
   5.940000     -2.5772251E-09
   6.000000     -2.6174110E-09
   6.060000     -2.6478719E-09
   6.120000     -2.6681986E-09
   6.180000     -2.6780838E-09
   6.240000     -2.6772375E-09
   6.300000     -2.6653688E-09
   6.360000     -2.6422737E-09
   6.420000     -2.6080080E-09
   6.480000     -2.5630482E-09
   6.540000     -2.5083360E-09
   6.600000     -2.4451543E-09
   6.660000     -2.3748761E-09
   6.720000     -2.2987054E-09
   6.780000     -2.2175424E-09
   6.840000     -2.1320339E-09
   6.900000     -2.0427742E-09
   6.960000     -1.9505255E-09
   7.020000     -1.8563284E-09
   7.080000     -1.7614387E-09
   7.140000     -1.6671319E-09
   7.200000     -1.5744865E-09
   7.260000     -1.4842438E-09
   7.320000     -1.3967770E-09
   7.380000     -1.3121176E-09
   7.440000     -1.2299636E-09
   7.500000     -1.1496439E-09
   7.560000     -1.0700957E-09
   7.620000     -9.8995345E-10
   7.680000     -9.0780816E-10
   7.740000     -8.2257251E-10
   7.800000     -7.3377582E-10
   7.860000     -6.4159944E-10
   7.920000     -5.4658450E-10
   7.980000     -4.4914847E-10
   8.040000     -3.4920736E-10
   8.100000     -2.4619470E-10
   8.160000     -1.3957216E-10
   8.220000     -2.9624418E-11
   8.280000      8.1893867E-11
   8.340000      1.9169615E-10
   8.400000      2.9566907E-10
   8.460000      3.9013184E-10
   8.520000      4.7311483E-10
   8.580000      5.4505628E-10
   8.640000      6.0856348E-10
   8.700000      6.6732314E-10
   8.760000      7.2465423E-10
   8.820000      7.8235274E-10
   8.880000      8.4031088E-10
   8.940000      8.9697982E-10
   9.000000      9.5032449E-10
   9.060000      9.9869668E-10
   9.120000      1.0411543E-09
   9.180000      1.0771133E-09
   9.240000      1.1056330E-09
   9.300000      1.1248771E-09
   9.360000      1.1322256E-09
   9.420000      1.1251581E-09
   9.480000      1.1025730E-09
   9.540000      1.0659031E-09
   9.600000      1.0193951E-09
   9.660000      9.6927011E-10
   9.720000      9.2200297E-10
   9.780000      8.8238633E-10
   9.840000      8.5217516E-10
   9.900000      8.2986235E-10
   9.960000      8.1163853E-10
   10.02000      7.9309331E-10
   10.08000      7.7094542E-10
   10.14000      7.4415352E-10
   10.20000      7.1408685E-10
   10.26000      6.8383271E-10
   10.32000      6.5699957E-10
   10.38000      6.3645589E-10
   10.44000      6.2336342E-10
   10.50000      6.1672878E-10
   10.56000      6.1358929E-10
   10.62000      6.0985494E-10
   10.68000      6.0169231E-10
   10.74000      5.8712135E-10
   10.80000      5.6727362E-10
   10.86000      5.4669241E-10
   10.92000      5.3228855E-10
   10.98000      5.3109989E-10
   11.04000      5.4762428E-10
   11.10000      5.8187166E-10
   11.16000      6.2912842E-10
   11.22000      6.8172562E-10
   11.28000      7.3215356E-10
   11.34000      7.7614321E-10
   11.40000      8.1426405E-10
   11.46000      8.5124824E-10
   11.52000      8.9334806E-10
   11.58000      9.4500341E-10
   11.64000      1.0064427E-09
   11.70000      1.0733678E-09
   11.76000      1.1388439E-09
   11.82000      1.1964369E-09
   11.88000      1.2430682E-09
   11.94000      1.2802357E-09
   12.00000      1.3130711E-09
   12.06000      1.3477223E-09
   12.12000      1.3882949E-09
   12.18000      1.4347250E-09
   12.24000      1.4824726E-09
   12.30000      1.5240986E-09
   12.36000      1.5519797E-09
   12.42000      1.5609901E-09
   12.48000      1.5500655E-09
   12.54000      1.5221076E-09
   12.60000      1.4824122E-09
   12.66000      1.4364163E-09
   12.72000      1.3877820E-09
   12.78000      1.3376074E-09
   12.84000      1.2849772E-09
   12.90000      1.2284275E-09
   12.96000      1.1674939E-09
   13.02000      1.1035411E-09
   13.08000      1.0394990E-09
   13.14000      9.7871466E-10
   13.20000      9.2358587E-10
   13.26000      8.7469332E-10
   13.32000      8.3083063E-10
   13.38000      7.8981360E-10
   13.44000      7.4955042E-10
   13.50000      7.0878353E-10
   13.56000      6.6717992E-10
   13.62000      6.2486627E-10
   13.68000      5.8180977E-10
   13.74000      5.3747923E-10
   13.80000      4.9098869E-10
   13.86000      4.4161808E-10
   13.92000      3.8941167E-10
   13.98000      3.3557343E-10
   14.04000      2.8254452E-10
   14.10000      2.3381186E-10
   14.16000      1.9353950E-10
   14.22000      1.6604418E-10
   14.28000      1.5506867E-10
   14.34000      1.6286193E-10
   14.40000      1.8926334E-10
   14.46000      2.3118682E-10
   14.52000      2.8291780E-10
   14.58000      3.3737133E-10
   14.64000      3.8799502E-10
   14.70000      4.3058854E-10
   14.76000      4.6421955E-10
   14.82000      4.9076471E-10
   14.88000      5.1324628E-10
   14.94000      5.3374039E-10
   15.00000      5.5186489E-10
   15.06000      5.6456761E-10
   15.12000      5.6728833E-10
   15.18000      5.5589461E-10
   15.24000      5.2845850E-10
   15.30000      4.8608695E-10
   15.36000      4.3252862E-10
   15.42000      3.7284995E-10
   15.48000      3.1181840E-10
   15.54000      2.5262645E-10
   15.60000      1.9632225E-10
   15.66000      1.4198175E-10
   15.72000      8.7426323E-11
   15.78000      3.0207149E-11
   15.84000     -3.1416585E-11
   15.90000     -9.7757191E-11
   15.96000     -1.6745601E-10
   16.02000     -2.3784280E-10
   16.08000     -3.0581596E-10
   16.14000     -3.6890610E-10
   16.20000     -4.2602719E-10
   16.26000     -4.7750964E-10
   16.32000     -5.2436133E-10
   16.38000     -5.6715110E-10
   16.44000     -6.0517003E-10
   16.50000     -6.3641509E-10
   16.56000     -6.5847700E-10
   16.62000     -6.6987854E-10
   16.68000     -6.7113204E-10
   16.74000     -6.6494849E-10
   16.80000     -6.5552397E-10
   16.86000     -6.4732553E-10
   16.92000     -6.4398825E-10
   16.98000     -6.4772593E-10
   17.04000     -6.5925732E-10
   17.10000     -6.7798039E-10
   17.16000     -7.0217049E-10
   17.22000     -7.2925149E-10
   17.28000     -7.5638279E-10
   17.34000     -7.8147755E-10
   17.40000     -8.0434542E-10
   17.46000     -8.2727281E-10
   17.52000     -8.5439056E-10
   17.58000     -8.8976826E-10
   17.64000     -9.3500507E-10
   17.70000     -9.8759867E-10
   17.76000     -1.0411404E-09
   17.82000     -1.0874371E-09
   17.88000     -1.1195461E-09
   17.94000     -1.1341412E-09
   18.00000     -1.1319929E-09
   18.06000     -1.1164341E-09
   18.12000     -1.0908069E-09
   18.18000     -1.0563442E-09
   18.24000     -1.0114893E-09
   18.30000     -9.5269381E-10
   18.36000     -8.7592533E-10
   18.42000     -7.7798362E-10
   18.48000     -6.5721628E-10
   18.54000     -5.1383348E-10
   18.60000     -3.5021633E-10
   18.66000     -1.7125627E-10
   18.72000      1.5761390E-11
   18.78000      2.0232918E-10
   18.84000      3.8099132E-10
   18.90000      5.4786664E-10
   18.96000      7.0402417E-10
   19.02000      8.5467561E-10
   19.08000      1.0063209E-09
   19.14000      1.1632422E-09
   19.20000      1.3252068E-09
   19.26000      1.4875413E-09
   19.32000      1.6432979E-09
   19.38000      1.7860449E-09
   19.44000      1.9116535E-09
   19.50000      2.0183919E-09
   19.56000      2.1059203E-09
   19.62000      2.1744380E-09
   19.68000      2.2248137E-09
   19.74000      2.2594127E-09
   19.80000      2.2824966E-09
   19.86000      2.2992461E-09
   19.92000      2.3135707E-09
   19.98000      2.3260633E-09
   20.04000      2.3337057E-09
   20.10000      2.3319167E-09
   20.16000      2.3178959E-09
   20.22000      2.2931794E-09
   20.28000      2.2636986E-09
   20.34000      2.2372673E-09
   20.40000      2.2201498E-09
   20.46000      2.2149420E-09
   20.52000      2.2209705E-09
   20.58000      2.2365496E-09
   20.64000      2.2610913E-09
   20.70000      2.2952764E-09
   20.76000      2.3391089E-09
   20.82000      2.3894402E-09
   20.88000      2.4391427E-09
   20.94000      2.4789932E-09
   21.00000      2.5013365E-09
   21.06000      2.5031934E-09
   21.12000      2.4867690E-09
   21.18000      2.4570870E-09
   21.24000      2.4184619E-09
   21.30000      2.3722406E-09
   21.36000      2.3172004E-09
   21.42000      2.2519744E-09
   21.48000      2.1774376E-09
   21.54000      2.0971731E-09
   21.60000      2.0157644E-09
   21.66000      1.9364252E-09
   21.72000      1.8599898E-09
   21.78000      1.7861393E-09
   21.84000      1.7158609E-09
   21.90000      1.6530096E-09
   21.96000      1.6034093E-09
   22.02000      1.5717992E-09
   22.08000      1.5586675E-09
   22.14000      1.5592547E-09
   22.20000      1.5655340E-09
   22.26000      1.5698577E-09
   22.32000      1.5678279E-09
   22.38000      1.5586403E-09
   22.44000      1.5431276E-09
   22.50000      1.5214459E-09
   22.56000      1.4924740E-09
   22.62000      1.4554381E-09
   22.68000      1.4122855E-09
   22.74000      1.3685357E-09
   22.80000      1.3314158E-09
   22.86000      1.3062722E-09
   22.92000      1.2938085E-09
   22.98000      1.2903441E-09
   23.04000      1.2911546E-09
   23.10000      1.2945962E-09
   23.16000      1.3039267E-09
   23.22000      1.3252122E-09
   23.28000      1.3624462E-09
   23.34000      1.4130567E-09
   23.40000      1.4668320E-09
   23.46000      1.5090613E-09
   23.52000      1.5259548E-09
   23.58000      1.5091046E-09
   23.64000      1.4567022E-09
   23.70000      1.3716043E-09
   23.76000      1.2583269E-09
   23.82000      1.1212593E-09
   23.88000      9.6485975E-10
   23.94000      7.9470647E-10
   24.00000      6.1758965E-10
   24.06000      4.3984430E-10
   24.12000      2.6493066E-10
   24.18000      9.2281467E-11
   24.24000     -8.1288747E-11
   24.30000     -2.5828101E-10
   24.36000     -4.3763385E-10
   24.42000     -6.1453292E-10
   24.48000     -7.8331569E-10
   24.54000     -9.4155839E-10
   24.60000     -1.0924218E-09
   24.66000     -1.2434467E-09
   24.72000     -1.4024644E-09
   24.78000     -1.5733025E-09
   24.84000     -1.7540341E-09
   24.90000     -1.9386253E-09
   24.96000     -2.1204329E-09
   25.02000     -2.2948914E-09
   25.08000     -2.4596785E-09
   25.14000     -2.6128366E-09
   25.20000     -2.7509806E-09
   25.26000     -2.8695286E-09
   25.32000     -2.9650662E-09
   25.38000     -3.0379705E-09
   25.44000     -3.0929721E-09
   25.50000     -3.1368335E-09
   25.56000     -3.1746432E-09
   25.62000     -3.2075209E-09
   25.68000     -3.2336476E-09
   25.74000     -3.2520577E-09
   25.80000     -3.2663785E-09
   25.86000     -3.2854477E-09
   25.92000     -3.3198118E-09
   25.98000     -3.3760565E-09
   26.04000     -3.4526344E-09
   26.10000     -3.5400352E-09
   26.16000     -3.6253414E-09
   26.22000     -3.6983929E-09
   26.28000     -3.7558836E-09
   26.34000     -3.8012651E-09
   26.40000     -3.8411461E-09
   26.46000     -3.8808983E-09
   26.52000     -3.9221790E-09
   26.58000     -3.9632750E-09
   26.64000     -4.0011279E-09
   26.70000     -4.0331285E-09
   26.76000     -4.0576258E-09
   26.82000     -4.0736099E-09
   26.88000     -4.0807846E-09
   26.94000     -4.0805768E-09
   27.00000     -4.0772150E-09
   27.06000     -4.0772083E-09
   27.12000     -4.0863637E-09
   27.18000     -4.1054111E-09
   27.24000     -4.1269845E-09
   27.30000     -4.1365622E-09
   27.36000     -4.1178492E-09
   27.42000     -4.0602313E-09
   27.48000     -3.9643395E-09
   27.54000     -3.8426209E-09
   27.60000     -3.7146175E-09
   27.66000     -3.5996359E-09
   27.72000     -3.5106722E-09
   27.78000     -3.4522618E-09
   27.84000     -3.4223042E-09
   27.90000     -3.4157510E-09
   27.96000     -3.4276511E-09
   28.02000     -3.4543470E-09
   28.08000     -3.4933334E-09
   28.14000     -3.5430330E-09
   28.20000     -3.6030972E-09
   28.26000     -3.6746233E-09
   28.32000     -3.7591619E-09
   28.38000     -3.8562051E-09
   28.44000     -3.9604147E-09
   28.50000     -4.0608170E-09
   28.56000     -4.1435153E-09
   28.62000     -4.1973522E-09
   28.68000     -4.2197570E-09
   28.74000     -4.2193378E-09
   28.80000     -4.2132942E-09
   28.86000     -4.2205226E-09
   28.92000     -4.2537116E-09
   28.98000     -4.3142192E-09
   29.04000     -4.3918971E-09
   29.10000     -4.4694262E-09
   29.16000     -4.5287116E-09
   29.22000     -4.5565023E-09
   29.28000     -4.5474544E-09
   29.34000     -4.5043671E-09
   29.40000     -4.4362976E-09
   29.46000     -4.3553885E-09
   29.52000     -4.2730735E-09
   29.58000     -4.1963308E-09
   29.64000     -4.1250647E-09
   29.70000     -4.0519272E-09
   29.76000     -3.9653414E-09
   29.82000     -3.8550549E-09
   29.88000     -3.7179737E-09
   29.94000     -3.5613672E-09
   30.00000     -3.4015279E-09
   30.06000     -3.2581935E-09
   30.12000     -3.1472551E-09
   30.18000     -3.0751608E-09
   30.24000     -3.0374179E-09
   30.30000     -3.0213896E-09
   30.36000     -3.0115168E-09
   30.42000     -2.9943412E-09
   30.48000     -2.9614795E-09
   30.54000     -2.9102043E-09
   30.60000     -2.8424731E-09
   30.66000     -2.7634390E-09
   30.72000     -2.6798948E-09
   30.78000     -2.5985085E-09
   30.84000     -2.5236977E-09
   30.90000     -2.4555664E-09
   30.96000     -2.3889037E-09
   31.02000     -2.3141722E-09
   31.08000     -2.2205486E-09
   31.14000     -2.0999400E-09
   31.20000     -1.9502302E-09
   31.26000     -1.7763034E-09
   31.32000     -1.5884624E-09
   31.38000     -1.3990250E-09
   31.44000     -1.2185114E-09
   31.50000     -1.0526989E-09
   31.56000     -9.0125085E-10
   31.62000     -7.5807166E-10
   31.68000     -6.1327055E-10
   31.74000     -4.5645143E-10
   31.80000     -2.8073385E-10
   31.86000     -8.6372368E-11
   31.92000      1.1755710E-10
   31.98000      3.1467520E-10
   32.04000      4.8615062E-10
   32.10000      6.1738969E-10
   32.16000      7.0385403E-10
   32.22000      7.5333040E-10
   32.28000      7.8342677E-10
   32.34000      8.1526269E-10
   32.40000      8.6607826E-10
   32.46000      9.4387143E-10
   32.52000      1.0460411E-09
   32.58000      1.1620758E-09
   32.64000      1.2786529E-09
   32.70000      1.3848835E-09
   32.76000      1.4758914E-09
   32.82000      1.5539457E-09
   32.88000      1.6272992E-09
   32.94000      1.7073737E-09
   33.00000      1.8050975E-09
   33.06000      1.9272699E-09
   33.12000      2.0739472E-09
   33.18000      2.2378057E-09
   33.24000      2.4059785E-09
   33.30000      2.5639291E-09
   33.36000      2.6999478E-09
   33.42000      2.8083889E-09
   33.48000      2.8902718E-09
   33.54000      2.9511602E-09
   33.60000      2.9976146E-09
   33.66000      3.0341698E-09
   33.72000      3.0623182E-09
   33.78000      3.0817082E-09
   33.84000      3.0924836E-09
   33.90000      3.0972045E-09
   33.96000      3.1013010E-09
   34.02000      3.1120642E-09
   34.08000      3.1370371E-09
   34.14000      3.1827421E-09
   34.20000      3.2540781E-09
   34.26000      3.3539993E-09
   34.32000      3.4828622E-09
   34.38000      3.6373222E-09
   34.44000      3.8094372E-09
   34.50000      3.9870418E-09
   34.56000      4.1560124E-09
   34.62000      4.3039394E-09
   34.68000      4.4236610E-09
   34.74000      4.5148378E-09
   34.80000      4.5826356E-09
   34.86000      4.6340838E-09
   34.92000      4.6739994E-09
   34.98000      4.7025881E-09
   35.04000      4.7158868E-09
   35.10000      4.7085806E-09
   35.16000      4.6774442E-09
   35.22000      4.6234345E-09
   35.28000      4.5513895E-09
   35.34000      4.4677342E-09
   35.40000      4.3776898E-09
   35.46000      4.2836050E-09
   35.52000      4.1852033E-09
   35.58000      4.0813424E-09
   35.64000      3.9720338E-09
   35.70000      3.8594199E-09
   35.76000      3.7470560E-09
   35.82000      3.6377925E-09
   35.88000      3.5312271E-09
   35.94000      3.4218743E-09
   36.00000      3.2988967E-09
   36.06000      3.1476841E-09
   36.12000      2.9529845E-09
   36.18000      2.7027993E-09
   36.24000      2.3919293E-09
   36.30000      2.0239723E-09
   36.36000      1.6108989E-09
   36.42000      1.1700669E-09
   36.48000      7.1955991E-10
   36.54000      2.7355834E-10
   36.60000     -1.6037674E-10
   36.66000     -5.8096777E-10
   36.72000     -9.9008213E-10
   36.78000     -1.3883996E-09
   36.84000     -1.7720783E-09
   36.90000     -2.1320647E-09
   36.96000     -2.4562996E-09
   37.02000     -2.7336160E-09
   37.08000     -2.9573939E-09
   37.14000     -3.1273826E-09
   37.20000     -3.2492045E-09
   37.26000     -3.3321887E-09
   37.32000     -3.3867296E-09
   37.38000     -3.4221230E-09
   37.44000     -3.4452268E-09
   37.50000     -3.4597833E-09
   37.56000     -3.4662362E-09
   37.62000     -3.4621563E-09
   37.68000     -3.4435697E-09
   37.74000     -3.4072116E-09
   37.80000     -3.3530911E-09
   37.86000     -3.2861998E-09
   37.92000     -3.2162564E-09
   37.98000     -3.1551795E-09
   38.04000     -3.1131089E-09
   38.10000     -3.0946234E-09
   38.16000     -3.0967660E-09
   38.22000     -3.1096463E-09
   38.28000     -3.1192320E-09
   38.34000     -3.1111358E-09
   38.40000     -3.0741008E-09
   38.46000     -3.0023262E-09
   38.52000     -2.8963507E-09
   38.58000     -2.7625044E-09
   38.64000     -2.6109952E-09
   38.70000     -2.4527906E-09
   38.76000     -2.2958406E-09
   38.82000     -2.1417896E-09
   38.88000     -1.9846582E-09
   38.94000     -1.8125539E-09
   39.00000     -1.6122393E-09
   39.06000     -1.3748715E-09
   39.12000     -1.1003537E-09
   39.18000     -7.9813856E-10
   39.24000     -4.8394072E-10
   39.30000     -1.7381389E-10
   39.36000      1.2167314E-10
   39.42000      4.0057491E-10
   39.48000      6.6887335E-10
   39.54000      9.3665775E-10
   39.60000      1.2131595E-09
   39.66000      1.5027418E-09
   39.72000      1.8031099E-09
   39.78000      2.1058602E-09
   39.84000      2.3987183E-09
   39.90000      2.6685987E-09
   39.96000      2.9047595E-09
   40.02000      3.1014644E-09
   40.08000      3.2595311E-09
   40.14000      3.3861827E-09
   40.20000      3.4929437E-09
   40.26000      3.5920373E-09
   40.32000      3.6924597E-09
   40.38000      3.7972057E-09
   40.44000      3.9026582E-09
   40.50000      4.0001691E-09
   40.56000      4.0789381E-09
   40.62000      4.1289563E-09
   40.68000      4.1431689E-09
   40.74000      4.1187365E-09
   40.80000      4.0576946E-09
   40.86000      3.9671972E-09
   40.92000      3.8589940E-09
   40.98000      3.7475525E-09
   41.04000      3.6466368E-09
   41.10000      3.5651859E-09
   41.16000      3.5042624E-09
   41.22000      3.4568641E-09
   41.28000      3.4112497E-09
   41.34000      3.3566043E-09
   41.40000      3.2884577E-09
   41.46000      3.2111938E-09
   41.52000      3.1364218E-09
   41.58000      3.0780993E-09
   41.64000      3.0469074E-09
   41.70000      3.0465259E-09
   41.76000      3.0731875E-09
   41.82000      3.1180347E-09
   41.88000      3.1705329E-09
   41.94000      3.2211516E-09
   42.00000      3.2625047E-09
   42.06000      3.2893481E-09
   42.12000      3.2983696E-09
   42.18000      3.2883687E-09
   42.24000      3.2605989E-09
   42.30000      3.2185075E-09
   42.36000      3.1663094E-09
   42.42000      3.1066665E-09
   42.48000      3.0385476E-09
   42.54000      2.9565228E-09
   42.60000      2.8520741E-09
   42.66000      2.7164622E-09
   42.72000      2.5438995E-09
   42.78000      2.3337523E-09
   42.84000      2.0911557E-09
   42.90000      1.8262348E-09
   42.96000      1.5525710E-09
   43.02000      1.2854094E-09
   43.08000      1.0396847E-09
   43.14000      8.2772139E-10
   43.20000      6.5676548E-10
   43.26000      5.2708876E-10
   43.32000      4.3178355E-10
   43.38000      3.5901096E-10
   43.44000      2.9639421E-10
   43.50000      2.3599470E-10
   43.56000      1.7768370E-10
   43.62000      1.2922166E-10
   43.68000      1.0283381E-10
   43.74000      1.0975390E-10
   43.80000      1.5516295E-10
   43.86000      2.3565772E-10
   43.92000      3.4006192E-10
   43.98000      4.5282980E-10
   44.04000      5.5834865E-10
   44.10000      6.4451233E-10
   44.16000      7.0475137E-10
   44.22000      7.3858752E-10
   44.28000      7.5115919E-10
   44.34000      7.5195689E-10
   44.40000      7.5264922E-10
   44.46000      7.6390549E-10
   44.52000      7.9173446E-10
   44.58000      8.3467766E-10
   44.64000      8.8349861E-10
   44.70000      9.2428898E-10
   44.76000      9.4430674E-10
   44.82000      9.3820307E-10
   44.88000      9.1164171E-10
   44.94000      8.8024277E-10
   45.00000      8.6395968E-10
   45.06000      8.7928920E-10
   45.12000      9.3284347E-10
   45.18000      1.0191277E-09
   45.24000      1.1232507E-09
   45.30000      1.2269418E-09
   45.36000      1.3149238E-09
   45.42000      1.3789995E-09
   45.48000      1.4187600E-09
   45.54000      1.4395889E-09
   45.60000      1.4495972E-09
   45.66000      1.4569480E-09
   45.72000      1.4681211E-09
   45.78000      1.4868469E-09
   45.84000      1.5132712E-09
   45.90000      1.5433780E-09
   45.96000      1.5692457E-09
   46.02000      1.5807442E-09
   46.08000      1.5686249E-09
   46.14000      1.5280150E-09
   46.20000      1.4607652E-09
   46.26000      1.3754012E-09
   46.32000      1.2844859E-09
   46.38000      1.2004218E-09
   46.44000      1.1314261E-09
   46.50000      1.0792043E-09
   46.56000      1.0389615E-09
   46.62000      1.0013486E-09
   46.68000      9.5531194E-10
   46.74000      8.9079932E-10
   46.80000      8.0068252E-10
   46.86000      6.8172623E-10
   46.92000      5.3469468E-10
   46.98000      3.6373191E-10
   47.04000      1.7513703E-10
   47.10000     -2.4267931E-11
   47.16000     -2.2882687E-10
   47.22000     -4.3534876E-10
   47.28000     -6.4365491E-10
   47.34000     -8.5625917E-10
   47.40000     -1.0773297E-09
   47.46000     -1.3112205E-09
   47.52000     -1.5608599E-09
   47.58000     -1.8262556E-09
   47.64000     -2.1034416E-09
   47.70000     -2.3843083E-09
   47.76000     -2.6577449E-09
   47.82000     -2.9121661E-09
   47.88000     -3.1388447E-09
   47.94000     -3.3347998E-09
   48.00000     -3.5038117E-09
   48.06000     -3.6547121E-09
   48.12000     -3.7972963E-09
   48.18000     -3.9374486E-09
   48.24000     -4.0736508E-09
   48.30000     -4.1965462E-09
   48.36000     -4.2918833E-09
   48.42000     -4.3456079E-09
   48.48000     -4.3489594E-09
   48.54000     -4.3015480E-09
   48.60000     -4.2113997E-09
   48.66000     -4.0922554E-09
   48.72000     -3.9593391E-09
   48.78000     -3.8250469E-09
   48.84000     -3.6956986E-09
   48.90000     -3.5699748E-09
   48.96000     -3.4393011E-09
   49.02000     -3.2901779E-09
   49.08000     -3.1081810E-09
   49.14000     -2.8828528E-09
   49.20000     -2.6121265E-09
   49.26000     -2.3046269E-09
   49.32000     -1.9785733E-09
   49.38000     -1.6571507E-09
   49.44000     -1.3617080E-09
   49.50000     -1.1052667E-09
   49.56000     -8.8892305E-10
   49.62000     -7.0263467E-10
   49.68000     -5.3006327E-10
   49.74000     -3.5544576E-10
   49.80000     -1.6969917E-10
   49.86000      2.6547615E-11
   49.92000      2.2386799E-10
   49.98000      4.0812487E-10
   50.04000      5.6584959E-10
   50.10000      6.8883854E-10
   50.16000      7.7651779E-10
   50.22000      8.3562302E-10
   50.28000      8.7764185E-10
   50.34000      9.1500718E-10
   50.40000      9.5720476E-10
   50.46000      1.0078888E-09
   50.52000      1.0638513E-09
   50.58000      1.1162467E-09
   50.64000      1.1538032E-09
   50.70000      1.1669860E-09
   50.76000      1.1515319E-09
   50.82000      1.1098398E-09
   50.88000      1.0495089E-09
   50.94000      9.7960318E-10
   51.00000      9.0634761E-10
   51.06000      8.3026613E-10
   51.12000      7.4600714E-10
   51.18000      6.4465205E-10
   51.24000      5.1699983E-10
   51.30000      3.5595787E-10
   51.36000      1.5695367E-10
   51.42000     -8.3307972E-11
   51.48000     -3.6833453E-10
   51.54000     -7.0214023E-10
   51.60000     -1.0879395E-09
   51.66000     -1.5261864E-09
   51.72000     -2.0136124E-09
   51.78000     -2.5444225E-09
   51.84000     -3.1134428E-09
   51.90000     -3.7196790E-09
   51.96000     -4.3683843E-09
   52.02000     -5.0705888E-09
   52.08000     -5.8404921E-09
   52.14000     -6.6922405E-09
   52.20000     -7.6376354E-09
   52.26000     -8.6854657E-09
   52.32000     -9.8420347E-09
   52.38000     -1.1112050E-08
   52.44000     -1.2499310E-08
   52.50000     -1.4007395E-08
   52.56000     -1.5640811E-08
   52.62000     -1.7406663E-08
   52.68000     -1.9316037E-08
   52.74000     -2.1383936E-08
   52.80000     -2.3627058E-08
   52.86000     -2.6060031E-08
   52.92000     -2.8691781E-08
   52.98000     -3.1523818E-08
   53.04000     -3.4551050E-08
   53.10000     -3.7764273E-08
   53.16000     -4.1152560E-08
   53.22000     -4.4704255E-08
   53.28000     -4.8406569E-08
   53.34000     -5.2244935E-08
   53.40000     -5.6203067E-08
   53.46000     -6.0263581E-08
   53.52000     -6.4407786E-08
   53.58000     -6.8613097E-08
   53.64000     -7.2848323E-08
   53.70000     -7.7068698E-08
   53.76000     -8.1214068E-08
   53.82000     -8.5211980E-08
   53.88000     -8.8984756E-08
   53.94000     -9.2456908E-08
   54.00000     -9.5558583E-08
   54.06000     -9.8222898E-08
   54.12000     -1.0037849E-07
   54.18000     -1.0194146E-07
   54.24000     -1.0281100E-07
   54.30000     -1.0287030E-07
   54.36000     -1.0199165E-07
   54.42000     -1.0004243E-07
   54.48000     -9.6889728E-08
   54.54000     -9.2402992E-08
   54.60000     -8.6456033E-08
   54.66000     -7.8929467E-08
   54.72000     -6.9713010E-08
   54.78000     -5.8705830E-08
   54.84000     -4.5813529E-08
   54.90000     -3.0942601E-08
   54.96000     -1.3995812E-08
   55.02000      5.1277604E-09
   55.08000      2.6526115E-08
   55.14000      5.0283347E-08
   55.20000      7.6459088E-08
   55.26000      1.0508288E-07
   55.32000      1.3615517E-07
   55.38000      1.6965238E-07
   55.44000      2.0553202E-07
   55.50000      2.4373426E-07
   55.56000      2.8418000E-07