 -0.750000000       0.00000000    
 -0.689999998       0.00000000    
 -0.629999995       0.00000000    
 -0.569999993       0.00000000    
 -0.509999990       0.00000000    
 -0.449999988       0.00000000    
 -0.389999986       0.00000000    
 -0.330000013       0.00000000    
 -0.270000011       0.00000000    
 -0.209999993       0.00000000    
 -0.150000006       0.00000000    
  -9.00000036E-02  -7.09163105E-33
  -2.99999993E-02  -8.57423212E-32
   2.99999993E-02  -4.17865531E-31
   9.00000036E-02  -5.04333908E-31
  0.150000006       5.97850295E-30
  0.209999993       4.62122798E-29
  0.270000011       1.85667748E-28
  0.330000013       4.83653491E-28
  0.389999986       7.21165671E-28
  0.449999988      -2.67461764E-28
  0.509999990      -5.33715902E-27
  0.569999993      -1.81304179E-26
  0.629999995      -3.70610120E-26
  0.689999998      -4.15815239E-26
  0.750000000       2.30728395E-26
  0.810000002       2.37271241E-25
  0.870000005       6.31088478E-25
  0.930000007       1.01538882E-24
  0.990000010       7.91052164E-25
   1.04999995      -1.01894491E-24
   1.11000001      -5.14561978E-24
   1.16999996      -1.06784543E-23
   1.23000002      -1.34566118E-23
   1.28999996      -5.92660430E-24
   1.35000002       1.92559133E-23
   1.40999997       6.09738740E-23
   1.47000003       1.00008283E-22
   1.52999997       9.66802682E-23
   1.59000003       6.31122764E-24
   1.64999998      -1.84510287E-22
   1.71000004      -4.16109411E-22
   1.76999998      -5.43221585E-22
   1.83000004      -3.88130698E-22
   1.88999999       1.38298803E-22
   1.95000005       9.09115821E-22
   2.00999999       1.55923202E-21
   2.06999993       1.65451390E-21
   2.13000011       1.00309826E-21
   2.19000006      -1.21102405E-22
   2.25000000      -1.13674094E-21
   2.30999994      -1.76878478E-21
   2.36999989      -2.69909539E-21
   2.43000007      -5.40263283E-21
   2.49000001      -1.04976054E-20
   2.54999995      -1.50869827E-20
   2.60999990      -1.12951731E-20
   2.67000008       1.08518802E-20
   2.73000002       5.46119375E-20
   2.78999996       1.04868931E-19
   2.84999990       1.22560211E-19
   2.91000009       5.64086901E-20
   2.97000003      -1.23116451E-19
   3.02999997      -3.78560241E-19
   3.08999991      -5.78488968E-19
   3.15000010      -5.25423678E-19
   3.21000004      -5.70806451E-20
   3.26999998       8.06457929E-19
   3.32999992       1.75104685E-18
   3.39000010       2.19840081E-18
   3.45000005       1.54262670E-18
   3.50999999      -4.55086856E-19
   3.56999993      -3.30273759E-18
   3.63000011      -5.71255356E-18
   3.69000006      -6.03076374E-18
   3.75000000      -3.11321314E-18
   3.80999994       2.72850509E-18
   3.86999989       9.30276434E-18
   3.93000007       1.31368102E-17
   3.99000001       1.11315192E-17
   4.05000019       2.61991220E-18
   4.11000013      -9.34885070E-18
   4.17000008      -1.86300248E-17
   4.23000002      -1.88248093E-17
   4.28999996      -7.32654134E-18
   4.34999990       1.16147532E-17
   4.40999985       2.71784285E-17
   4.46999979       2.66937206E-17
   4.53000021       3.42116607E-18
   4.59000015      -3.64572311E-17
   4.65000010      -7.24277889E-17
   4.71000004      -7.68666055E-17
   4.76999998      -2.96866585E-17
   4.82999992       6.58127527E-17
   4.88999987       1.75087189E-16
   4.94999981       2.40115285E-16
   5.01000023       2.03804214E-16
   5.07000017       4.26588887E-17
   5.13000011      -2.08140162E-16
   5.19000006      -4.53742103E-16
   5.25000000      -5.70608562E-16
   5.30999994      -4.61838891E-16
   5.36999989      -1.13703943E-16
   5.42999983       3.76386290E-16
   5.48999977       8.22017470E-16
   5.55000019       1.01943867E-15
   5.61000013       8.41473658E-16
   5.67000008       3.09115568E-16
   5.73000002      -3.99785787E-16
   5.78999996      -1.01809866E-15
   5.84999990      -1.30719715E-15
   5.90999985      -1.16782254E-15
   5.96999979      -6.83705990E-16
   6.03000021      -6.91048058E-17
   6.09000015       4.55354377E-16
   6.15000010       7.87701995E-16
   6.21000004       9.89962875E-16
   6.26999998       1.21312863E-15
   6.32999992       1.53506002E-15
   6.38999987       1.81239830E-15
   6.44999981       1.66423858E-15
   6.51000023       6.48276349E-16
   6.57000017      -1.42193591E-15
   6.63000011      -4.18005169E-15
   6.69000006      -6.63103300E-15
   6.75000000      -7.42440387E-15
   6.80999994      -5.43688384E-15
   6.86999989      -4.37280441E-16
   6.92999983       6.49815217E-15
   6.98999977       1.30990588E-14
   7.05000019       1.66113139E-14
   7.11000013       1.48881507E-14
   7.17000008       7.42365340E-15
   7.23000002      -4.14877542E-15
   7.28999996      -1.63851849E-14
   7.34999990      -2.51379185E-14
   7.40999985      -2.70444017E-14
   7.46999979      -2.08120908E-14
   7.53000021      -7.77634945E-15
   7.59000015       8.49884568E-15
   7.65000010       2.34139897E-14
   7.71000004       3.28402839E-14
   7.76999998       3.43568896E-14
   7.82999992       2.77882406E-14
   7.88999987       1.49354355E-14
   7.94999981      -1.26075454E-15
   8.01000023      -1.76819347E-14
   8.06999969      -3.16939061E-14
   8.13000011      -4.13051754E-14
   8.18999958      -4.49305374E-14
   8.25000000      -4.11125263E-14
   8.31000042      -2.86024527E-14
   8.36999989      -7.01340400E-15
   8.43000031       2.21030029E-14
   8.48999977       5.42760078E-14
   8.55000019       8.19425569E-14
   8.60999966       9.56574772E-14
   8.67000008       8.67784577E-14
   8.72999954       5.10204773E-14
   8.78999996      -8.35990941E-15
   8.85000038      -7.92453397E-14
   8.90999985      -1.42349714E-13
   8.97000027      -1.76113356E-13
   9.02999973      -1.63709215E-13
   9.09000015      -9.99448327E-14
   9.14999962       4.59018420E-15
   9.21000004       1.24204182E-13
   9.27000046       2.24159721E-13
   9.32999992       2.70680993E-13
   9.39000034       2.41832894E-13
   9.44999981       1.35586421E-13
   9.51000023      -2.78197553E-14
   9.56999969      -2.10152669E-13
   9.63000011      -3.64665736E-13
   9.68999958      -4.47592890E-13
   9.75000000      -4.28048276E-13
   9.81000042      -2.93819277E-13
   9.86999989      -5.25827076E-14
   9.93000031       2.69971681E-13
   9.98999977       6.32772426E-13
   10.0500002       9.81119374E-13
   10.1099997       1.24781966E-12
   10.1700001       1.35599008E-12
   10.2299995       1.22669388E-12
   10.2900000       7.93561451E-13
   10.3500004       2.37440513E-14
   10.4099998      -1.05894406E-12
   10.4700003      -2.35547649E-12
   10.5299997      -3.68494601E-12
   10.5900002      -4.79503286E-12
   10.6499996      -5.39097282E-12
   10.7100000      -5.18006428E-12
   10.7700005      -3.92542032E-12
   10.8299999      -1.50119706E-12
   10.8900003       2.05823596E-12
   10.9499998       6.52147520E-12
   11.0100002       1.14405829E-11
   11.0699997       1.61527840E-11
   11.1300001       1.98062504E-11
   11.1899996       2.14112669E-11
   11.2500000       1.99154981E-11
   11.3100004       1.42987237E-11
   11.3699999       3.67894213E-12
   11.4300003      -1.25807160E-11
   11.4899998      -3.47759564E-11
   11.5500002      -6.27874003E-11
   11.6099997      -9.60385868E-11
   11.6700001      -1.33493494E-10
   11.7299995      -1.73697778E-10
   11.7900000      -2.14862933E-10
   11.8500004      -2.54985671E-10
   11.9099998      -2.91987018E-10
   11.9700003      -3.23850557E-10
   12.0299997      -3.48738288E-10
   12.0900002      -3.65071334E-10
   12.1499996      -3.71574105E-10
   12.2100000      -3.67296804E-10
   12.2700005      -3.51639079E-10
   12.3299999      -3.24395372E-10
   12.3900003      -2.85827612E-10
   12.4499998      -2.36750564E-10
   12.5100002      -1.78594972E-10
   12.5699997      -1.13409795E-10
   12.6300001      -4.37762916E-11
   12.6899996       2.73680471E-11
   12.7500000       9.69677047E-11
   12.8100004       1.62102887E-10
   12.8699999       2.20211335E-10
   12.9300003       2.69248235E-10
   12.9899998       3.07779996E-10
   13.0500002       3.35029532E-10
   13.1099997       3.50894896E-10
   13.1700001       3.55952490E-10
   13.2299995       3.51432716E-10
   13.2900000       3.39140910E-10
   13.3500004       3.21295185E-10
   13.4099998       3.00276720E-10
   13.4700003       2.78321449E-10
   13.5299997       2.57216415E-10
   13.5900002       2.38077558E-10
   13.6499996       2.21271987E-10
   13.7100000       2.06508741E-10
   13.7700005       1.93071850E-10
   13.8299999       1.80126122E-10
   13.8900003       1.67005951E-10
   13.9499998       1.53405830E-10
   14.0100002       1.39425235E-10
   14.0699997       1.25467511E-10
   14.1300001       1.12037123E-10
   14.1899996       9.95101501E-11
   14.2500000       8.79599310E-11
   14.3100004       7.71037886E-11
   14.3699999       6.64006003E-11
   14.4300003       5.52829726E-11
   14.4899998       4.34627820E-11
   14.5500002       3.12204151E-11
   14.6099997       1.95844209E-11
   14.6700001       1.03344572E-11
   14.7299995       5.80857844E-12
   14.7900000       8.55177821E-12
   14.8500004       2.08850229E-11
   14.9099998       4.44884893E-11
   14.9700003       8.00755989E-11
   15.0299997       1.27196434E-10
   15.0900002       1.84170540E-10
   15.1499996       2.48127574E-10
   15.2100000       3.15139387E-10
   15.2700005       3.80447979E-10
   15.3299999       4.38813291E-10
   15.3900003       4.84999818E-10
   15.4499998       5.14386755E-10
   15.5100002       5.23629640E-10
   15.5699997       5.11253262E-10
   15.6300001       4.78035778E-10
   15.6899996       4.27077651E-10
   15.7500000       3.63517105E-10
   15.8100004       2.93940650E-10
   15.8699999       2.25602356E-10
   15.9300003       1.65591457E-10
   15.9899998       1.20068788E-10
   16.0499992       9.36512534E-11
   16.1100006       8.89829183E-11
   16.1700001       1.06514422E-10
   16.2299995       1.44515511E-10
   16.2900009       1.99350508E-10
   16.3500004       2.66029948E-10
   16.4099998       3.38998440E-10
   16.4699993       4.13041212E-10
   16.5300007       4.84124518E-10
   16.5900002       5.49965629E-10
   16.6499996       6.10184459E-10
   16.7099991       6.66008304E-10
   16.7700005       7.19645399E-10
   16.8299999       7.73548114E-10
   16.8899994       8.29806279E-10
   16.9500008       8.89835150E-10
   17.0100002       9.54379908E-10
   17.0699997       1.02371944E-09
   17.1299992       1.09787779E-09
   17.1900005       1.17668042E-09
   17.2500000       1.25960387E-09
   17.3099995       1.34550671E-09
   17.3700008       1.43242040E-09
   17.4300003       1.51757507E-09
   17.4899998       1.59773117E-09
   17.5499992       1.66973924E-09
   17.6100006       1.73112891E-09
   17.6700001       1.78049642E-09
   17.7299995       1.81754278E-09
   17.7900009       1.84276372E-09
   17.8500004       1.85695104E-09
   17.9099998       1.86074378E-09
   17.9699993       1.85444238E-09
   18.0300007       1.83817206E-09
   18.0900002       1.81232529E-09
   18.1499996       1.77807791E-09
   18.2099991       1.73773607E-09
   18.2700005       1.69472647E-09
   18.3299999       1.65317360E-09
   18.3899994       1.61715064E-09
   18.4500008       1.58981617E-09
   18.5100002       1.57268487E-09
   18.5699997       1.56525870E-09
   18.6299992       1.56514290E-09
   18.6900005       1.56862834E-09
   18.7500000       1.57158941E-09
   18.8099995       1.57042979E-09
   18.8700008       1.56279056E-09
   18.9300003       1.54779622E-09
   18.9899998       1.52577428E-09
   19.0499992       1.49758050E-09
   19.1100006       1.46382262E-09
   19.1700001       1.42433154E-09
   19.2299995       1.37813272E-09
   19.2900009       1.32395450E-09
   19.3500004       1.26106225E-09
   19.4099998       1.19003318E-09
   19.4699993       1.11308007E-09
   19.5300007       1.03371312E-09
   19.5900002       9.55812984E-10
   19.6499996       8.82465268E-10
   19.7099991       8.15041645E-10
   19.7700005       7.52937823E-10
   19.8299999       6.94127533E-10
   19.8899994       6.36352859E-10
   19.9500008       5.78497916E-10
   20.0100002       5.21581889E-10
   20.0699997       4.68916184E-10
   20.1299992       4.25258134E-10
   20.1900005       3.95163569E-10
   20.2500000       3.81065846E-10
   20.3099995       3.81766424E-10
   20.3700008       3.91948307E-10
   20.4300003       4.03012679E-10
   20.4899998       4.05084744E-10
   20.5499992       3.89586391E-10
   20.6100006       3.51512264E-10
   20.6700001       2.90598989E-10
   20.7299995       2.10958417E-10
   20.7900009       1.19326271E-10
   20.8500004       2.26233251E-11
   20.9099998      -7.42076886E-11
   20.9699993      -1.69269376E-10
   21.0300007      -2.63361472E-10
   21.0900002      -3.58527374E-10
   21.1499996      -4.56269966E-10
   21.2099991      -5.56296231E-10
   21.2700005      -6.56326438E-10
   21.3299999      -7.52951534E-10
   21.3899994      -8.43019599E-10
   21.4500008      -9.24824994E-10
   21.5100002      -9.98533922E-10
   21.5699997      -1.06570130E-09
   21.6299992      -1.12817755E-09
   21.6900005      -1.18696608E-09
   21.7500000      -1.24156196E-09
   21.8099995      -1.29004185E-09
   21.8700008      -1.32983180E-09
   21.9300003      -1.35880918E-09
   21.9899998      -1.37629630E-09
   22.0499992      -1.38357825E-09
   22.1100006      -1.38377110E-09
   22.1700001      -1.38109613E-09
   22.2299995      -1.37981337E-09
   22.2900009      -1.38317469E-09
   22.3500004      -1.39273648E-09
   22.4099998      -1.40823841E-09
   22.4699993      -1.42802703E-09
   22.5300007      -1.44979573E-09
   22.5900002      -1.47130430E-09
   22.6499996      -1.49079937E-09
   22.7099991      -1.50705071E-09
   22.7700005      -1.51913671E-09
   22.8299999      -1.52622459E-09
   22.8899994      -1.52753876E-09
   22.9500008      -1.52252766E-09
   23.0100002      -1.51107360E-09
   23.0699997      -1.49356105E-09
   23.1299992      -1.47074752E-09
   23.1900005      -1.44358503E-09
   23.2500000      -1.41322987E-09
   23.3099995      -1.38137313E-09
   23.3700008      -1.35075406E-09
   23.4300003      -1.32547284E-09
   23.4899998      -1.31068523E-09
   23.5499992      -1.31153677E-09
   23.6100006      -1.33162315E-09
   23.6700001      -1.37161260E-09
   23.7299995      -1.42869760E-09
   23.7900009      -1.49719648E-09
   23.8500004      -1.57009405E-09
   23.9099998      -1.64087466E-09
   23.9699993      -1.70489955E-09
   24.0300007      -1.75985471E-09
   24.0900002      -1.80525128E-09
   24.1499996      -1.84135884E-09
   24.2099991      -1.86809501E-09
   24.2700005      -1.88428806E-09
   24.3299999      -1.88749283E-09
   24.3899994      -1.87434090E-09
   24.4500008      -1.84130278E-09
   24.5100002      -1.78569248E-09
   24.5699997      -1.70670300E-09
   24.6299992      -1.60618574E-09
   24.6900005      -1.48887735E-09
   24.7500000      -1.36190048E-09
   24.8099995      -1.23362942E-09
   24.8700008      -1.11229592E-09
   24.9300003      -1.00482889E-09
   24.9899998      -9.16280329E-10
   25.0499992      -8.49848025E-10
   25.1100006      -8.07191314E-10
   25.1700001      -7.88655807E-10
   25.2299995      -7.93236865E-10
   25.2900009      -8.18445423E-10
   25.3500004      -8.60435334E-10
   25.4099998      -9.14621323E-10
   25.4699993      -9.76642989E-10
   25.5300007      -1.04318343E-09
   25.5900002      -1.11212728E-09
   25.6499996      -1.18191201E-09
   25.7099991      -1.25047905E-09
   25.7700005      -1.31456579E-09
   25.8299999      -1.36994183E-09
   25.8899994      -1.41261802E-09
   25.9500008      -1.44040446E-09
   26.0100002      -1.45391088E-09
   26.0699997      -1.45635981E-09
   26.1299992      -1.45226742E-09
   26.1900005      -1.44566881E-09
   26.2500000      -1.43875678E-09
   26.3099995      -1.43143875E-09
   26.3700008      -1.42171830E-09
   26.4300003      -1.40639422E-09
   26.4899998      -1.38161838E-09
   26.5499992      -1.34327616E-09
   26.6100006      -1.28754685E-09
   26.6700001      -1.21200261E-09
   26.7299995      -1.11714349E-09
   26.7900009      -1.00766773E-09
   26.8500004      -8.92528829E-10
   26.9099998      -7.83222875E-10
   26.9699993      -6.90642876E-10
   27.0300007      -6.21710738E-10
   27.0900002      -5.77283499E-10
   27.1499996      -5.52307589E-10
   27.2099991      -5.38127931E-10
   27.2700005      -5.25847199E-10
   27.3299999      -5.09235931E-10
   27.3899994      -4.86078067E-10
   27.4500008      -4.57718224E-10
   27.5100002      -4.27416491E-10
   27.5699997      -3.98490352E-10
   27.6299992      -3.73046233E-10
   27.6900005      -3.51613461E-10
   27.7500000      -3.33542138E-10
   27.8099995      -3.17818216E-10
   27.8700008      -3.03968378E-10
   27.9300003      -2.92812302E-10
   27.9899998      -2.86851043E-10
   28.0499992      -2.90094532E-10
   28.1100006      -3.07236764E-10
   28.1700001      -3.42353534E-10
   28.2299995      -3.97612693E-10
   28.2900009      -4.72625883E-10
   28.3500004      -5.64857494E-10
   28.4099998      -6.70987377E-10
   28.4699993      -7.88572263E-10
   28.5300007      -9.17126430E-10
   28.5900002      -1.05802345E-09
   28.6499996      -1.21327137E-09
   28.7099991      -1.38384815E-09
   28.7700005      -1.56852209E-09
   28.8299999      -1.76376291E-09
   28.8899994      -1.96469618E-09
   28.9500008      -2.16645901E-09
   29.0100002      -2.36514408E-09
   29.0699997      -2.55785126E-09
   29.1299992      -2.74195133E-09
   29.1900005      -2.91416069E-09
   29.2500000      -3.07011261E-09
   29.3099995      -3.20480464E-09
   29.3700008      -3.31378813E-09
   29.4300003      -3.39457196E-09
   29.4899998      -3.44761175E-09
   29.5499992      -3.47645712E-09
   29.6100006      -3.48699158E-09
   29.6700001      -3.48602103E-09
   29.7299995      -3.47965989E-09
   29.7900009      -3.47197560E-09
   29.8500004      -3.46425399E-09
   29.9099998      -3.45506890E-09
   29.9699993      -3.44111029E-09
   30.0300007      -3.41849615E-09
   30.0900002      -3.38410566E-09
   30.1499996      -3.33643779E-09
   30.2099991      -3.27565286E-09
   30.2700005      -3.20277560E-09
   30.3299999      -3.11842130E-09
   30.3899994      -3.02165426E-09
   30.4500008      -2.90959590E-09
   30.5100002      -2.77810708E-09
   30.5699997      -2.62341304E-09
   30.6299992      -2.44408893E-09
   30.6900005      -2.24259855E-09
   30.7500000      -2.02567452E-09
   30.8099995      -1.80325277E-09
   30.8700008      -1.58622626E-09
   30.9300003      -1.38377809E-09
   30.9899998      -1.20123289E-09
   31.0499992      -1.03918008E-09
   31.1100006      -8.94112784E-10
   31.1700001      -7.60233654E-10
   31.2299995      -6.31666108E-10
   31.2900009      -5.04236097E-10
   31.3500004      -3.76282422E-10
   31.4099998      -2.48416593E-10
   31.4699993      -1.22568136E-10
   31.5300007      -8.26451321E-13
   31.5900002       1.15485656E-10
   31.6499996       2.26286156E-10
   31.7099991       3.32731787E-10
   31.7700005       4.36811004E-10
   31.8299999       5.40629319E-10
   31.8899994       6.45520470E-10
   31.9500008       7.51207596E-10
   32.0099983       8.55322424E-10
   32.0699997       9.53562229E-10
   32.1300011       1.04054854E-09
   32.1899986       1.11113441E-09
   32.2500000       1.16166388E-09
   32.3100014       1.19069377E-09
   32.3699989       1.19897536E-09
   32.4300003       1.18888932E-09
   32.4900017       1.16377641E-09
   32.5499992       1.12755527E-09
   32.6100006       1.08469944E-09
   32.6699982       1.04030873E-09
   32.7299995       9.99901273E-10
   32.7900009       9.68746749E-10
   32.8499985       9.50916124E-10
   32.9099998       9.48464862E-10
   32.9700012       9.61120628E-10
   33.0299988       9.86563053E-10
   33.0900002       1.02108211E-09
   33.1500015       1.06031606E-09
   33.2099991       1.09992437E-09
   33.2700005       1.13627041E-09
   33.3300018       1.16723686E-09
   33.3899994       1.19308197E-09
   33.4500008       1.21694954E-09
   33.5099983       1.24455213E-09
   33.5699997       1.28284516E-09
   33.6300011       1.33806199E-09
   33.6899986       1.41393341E-09
   33.7500000       1.51088719E-09
   33.8100014       1.62649427E-09
   33.8699989       1.75670101E-09
   33.9300003       1.89698945E-09
   33.9900017       2.04280215E-09
   34.0499992       2.18925034E-09
   34.1100006       2.33075115E-09
   34.1699982       2.46134269E-09
   34.2299995       2.57588728E-09
   34.2900009       2.67158984E-09
   34.3499985       2.74882117E-09
   34.4099998       2.81056889E-09
   34.4700012       2.86069568E-09
   34.5299988       2.90202884E-09
   34.5900002       2.93545277E-09
   34.6500015       2.96050673E-09
   34.7099991       2.97695135E-09
   34.7700005       2.98608716E-09
   34.8300018       2.99081582E-09
   34.8899994       2.99436520E-09
   34.9500008       2.99858782E-09
   35.0099983       3.00306890E-09
   35.0699997       3.00568148E-09
   35.1300011       3.00415715E-09
   35.1899986       2.99749914E-09
   35.2500000       2.98617975E-09
   35.3100014       2.97100478E-09
   35.3699989       2.95154323E-09
   35.4300003       2.92540148E-09
   35.4900017       2.88903168E-09
   35.5499992       2.83966672E-09
   35.6100006       2.77713541E-09
   35.6699982       2.70436695E-09
   35.7299995       2.62627586E-09
   35.7900009       2.54779131E-09
   35.8499985       2.47227483E-09
   35.9099998       2.40117726E-09
   35.9700012       2.33482988E-09
   36.0299988       2.27350538E-09
   36.0900002       2.21786678E-09
   36.1500015       2.16855667E-09
   36.2099991       2.12547002E-09
   36.2700005       2.08749018E-09
   36.3300018       2.05302908E-09
   36.3899994       2.02094586E-09
   36.4500008       1.99100714E-09
   36.5099983       1.96336747E-09
   36.5699997       1.93737160E-09
   36.6300011       1.91065030E-09
   36.6899986       1.87943217E-09
   36.7500000       1.84014648E-09
   36.8100014       1.79138215E-09
   36.8699989       1.73483317E-09
   36.9300003       1.67441072E-09
   36.9900017       1.61390390E-09
   37.0499992       1.55459756E-09
   37.1100006       1.49436996E-09
   37.1699982       1.42888312E-09
   37.2299995       1.35416045E-09
   37.2900009       1.26900368E-09
   37.3499985       1.17588894E-09
   37.4099998       1.08001208E-09
   37.4700012       9.87280702E-10
   37.5299988       9.02507846E-10
   37.5900002       8.28627666E-10
   37.6500015       7.66850194E-10
   37.7099991       7.17027160E-10
   37.7700005       6.77589651E-10
   37.8300018       6.45086484E-10
   37.8899994       6.14002016E-10
   37.9500008       5.77569714E-10
   38.0099983       5.29637112E-10
   38.0699997       4.66751249E-10
   38.1300011       3.89231758E-10
   38.1899986       3.00457187E-10
   38.2500000       2.04660691E-10
   38.3100014       1.04510303E-10
   38.3699989      -6.34435402E-14
   38.4300003      -1.11087854E-10
   38.4900017      -2.30344438E-10
   38.5499992      -3.57173069E-10
   38.6100006      -4.87709151E-10
   38.6699982      -6.16082352E-10
   38.7299995      -7.36905037E-10
   38.7900009      -8.47626136E-10
   38.8499985      -9.49456513E-10
   38.9099998      -1.04643738E-09
   38.9700012      -1.14326126E-09
   39.0299988      -1.24304433E-09
   39.0900002      -1.34611400E-09
   39.1500015      -1.45019607E-09
   39.2099991      -1.55163593E-09
   39.2700005      -1.64688396E-09
   39.3300018      -1.73357140E-09
   39.3899994      -1.81090765E-09
   39.4500008      -1.87953697E-09
   39.5099983      -1.94113858E-09
   39.5699997      -1.99795513E-09
   39.6300011      -2.05222994E-09
   39.6899986      -2.10547846E-09
   39.7500000      -2.15765783E-09
   39.8100014      -2.20656005E-09
   39.8699989      -2.24788588E-09
   39.9300003      -2.27628449E-09
   39.9900017      -2.28717734E-09
   40.0499992      -2.27866126E-09
   40.1100006      -2.25252927E-09
   40.1699982      -2.21373209E-09
   40.2299995      -2.16831864E-09
   40.2900009      -2.12073714E-09
   40.3499985      -2.07180895E-09
   40.4099998      -2.01842587E-09
   40.4700012      -1.95513894E-09
   40.5299988      -1.87678295E-09
   40.5900002      -1.78075010E-09
   40.6500015      -1.66780034E-09
   40.7099991      -1.54123292E-09
   40.7700005      -1.40522760E-09
   40.8300018      -1.26354793E-09
   40.8899994      -1.11933851E-09
   40.9500008      -9.75786563E-10
   41.0099983      -8.36673897E-10
   41.0699997      -7.05895120E-10
   41.1300011      -5.85877513E-10
   41.1899986      -4.75881778E-10
   41.2500000      -3.71593672E-10
   41.3100014      -2.66803801E-10
   41.3699989      -1.56649985E-10
   41.4300003      -4.07395020E-11
   41.4900017       7.56746332E-11
   41.5499992       1.83247278E-10
   41.6100006       2.72020101E-10
   41.6699982       3.34935163E-10
   41.7299995       3.69622333E-10
   41.7900009       3.77913423E-10
   41.8499985       3.63959807E-10
   41.9099998       3.32467526E-10
   41.9700012       2.88032986E-10
   42.0299988       2.35372083E-10
   42.0900002       1.79374640E-10
   42.1500015       1.24107058E-10
   42.2099991       7.09952166E-11
   42.2700005       1.75395219E-11
   42.3300018      -4.19537079E-11
   42.3899994      -1.13286998E-10
   42.4500008      -1.98319014E-10
   42.5099983      -2.92384894E-10
   42.5699997      -3.85124210E-10
   42.6300011      -4.64750710E-10
   42.6899986      -5.23672439E-10
   42.7500000      -5.62421776E-10
   42.8100014      -5.89746918E-10
   42.8699989      -6.18901652E-10
   42.9300003      -6.62256638E-10
   42.9900017      -7.27060190E-10
   43.0499992      -8.14164403E-10
   43.1100006      -9.19623544E-10
   43.1699982      -1.03755438E-09
   43.2299995      -1.16242438E-09
   43.2900009      -1.28990951E-09
   43.3499985      -1.41671608E-09
   43.4099998      -1.54034541E-09
   43.4700012      -1.65936676E-09
   43.5299988      -1.77387982E-09
   43.5900002      -1.88535876E-09
   43.6500015      -1.99544004E-09
   43.7099991      -2.10417306E-09
   43.7700005      -2.20894991E-09
   43.8300018      -2.30512875E-09
   43.8899994      -2.38827558E-09
   43.9500008      -2.45673615E-09
   44.0099983      -2.51286325E-09
   44.0699997      -2.56197219E-09
   44.1300011      -2.60953703E-09
   44.1899986      -2.65826405E-09
   44.2500000      -2.70670397E-09
   44.3100014      -2.75004020E-09
   44.3699989      -2.78232282E-09
   44.4300003      -2.79871326E-09
   44.4900017      -2.79662271E-09
   44.5499992      -2.77562062E-09
   44.6100006      -2.73683409E-09
   44.6699982      -2.68261346E-09
   44.7299995      -2.61657473E-09
   44.7900009      -2.54342147E-09
   44.8499985      -2.46787457E-09
   44.9099998      -2.39275577E-09
   44.9700012      -2.31721797E-09
   45.0299988      -2.23646146E-09
   45.0900002      -2.14359441E-09
   45.1500015      -2.03293693E-09
   45.2099991      -1.90300820E-09
   45.2700005      -1.75743720E-09
   45.3300018      -1.60325853E-09
   45.3899994      -1.44766621E-09
   45.4500008      -1.29522515E-09
   45.5099983      -1.14714627E-09
   45.5699997      -1.00277786E-09
   45.6300011      -8.61983041E-10
   45.6899986      -7.26579630E-10
   45.7500000      -5.99824357E-10
   45.8100014      -4.84412455E-10
   45.8699989      -3.80559612E-10
   45.9300003      -2.85645896E-10
   45.9900017      -1.95741076E-10
   46.0499992      -1.07942578E-10
   46.1100006      -2.18586087E-11
   46.1699982       6.08165393E-11
   46.2299995       1.38316525E-10
   46.2900009       2.10935727E-10
   46.3499985       2.81698137E-10
   46.4099998       3.54983737E-10
   46.4700012       4.33945324E-10
   46.5299988       5.18400878E-10
   46.5900002       6.04602146E-10
   46.6500015       6.87080115E-10
   46.7099991       7.61456287E-10
   46.7700005       8.26546387E-10
   46.8300018       8.84578244E-10
   46.8899994       9.39524014E-10
   46.9500008       9.94623051E-10
   47.0099983       1.05050479E-09
   47.0699997       1.10479836E-09
   47.1300011       1.15317755E-09
   47.1899986       1.19105303E-09
   47.2500000       1.21499766E-09
   47.3100014       1.22339971E-09
   47.3699989       1.21641508E-09
   47.4300003       1.19559718E-09
   47.4900017       1.16351506E-09
   47.5499992       1.12338172E-09
   47.6100006       1.07854281E-09
   47.6699982       1.03177178E-09
   47.7299995       9.84613613E-10
   47.7900009       9.37198874E-10
   47.8499985       8.88818297E-10
   47.9099998       8.39090797E-10
   47.9700012       7.89083299E-10
   48.0299988       7.41605277E-10
   48.0900002       7.00275893E-10
   48.1500015       6.67690347E-10
   48.2099991       6.43651910E-10
   48.2700005       6.24562235E-10
   48.3300018       6.04515438E-10
   48.3899994       5.77703885E-10
   48.4500008       5.40943568E-10
   48.5099983       4.94971619E-10
   48.5699997       4.43785841E-10
   48.6300011       3.92358479E-10
   48.6899986       3.43957141E-10
   48.7500000       2.98502723E-10
   48.8100014       2.52786375E-10
   48.8699989       2.02312986E-10
   48.9300003       1.43671658E-10
   48.9900017       7.61526051E-11
   49.0499992       1.89802883E-12
   49.1100006      -7.52173324E-11
   49.1699982      -1.51111942E-10
   49.2299995      -2.22532853E-10
   49.2900009      -2.87245533E-10
   49.3499985      -3.43700429E-10
   49.4099998      -3.90817906E-10
   49.4700012      -4.28290209E-10
   49.5299988      -4.57220789E-10
   49.5900002      -4.80481044E-10
   49.6500015      -5.02227204E-10
   49.7099991      -5.26566679E-10
   49.7700005      -5.55999413E-10
   49.8300018      -5.90506533E-10
   49.8899994      -6.27812247E-10
   49.9500008      -6.64626465E-10
   50.0099983      -6.98084979E-10
   50.0699997      -7.26551430E-10
   50.1300011      -7.49456552E-10
   50.1899986      -7.66539610E-10
   50.2500000      -7.77234221E-10
   50.3100014      -7.80735587E-10
   50.3699989      -7.76687881E-10
   50.4300003      -7.65889796E-10
   50.4900017      -7.50357054E-10
   50.5499992      -7.32540584E-10
   50.6100006      -7.14142301E-10