  -2.400000      0.0000000E+00
  -2.340000      0.0000000E+00
  -2.280000      0.0000000E+00
  -2.220000      0.0000000E+00
  -2.160000      0.0000000E+00
  -2.100000      0.0000000E+00
  -2.040000      0.0000000E+00
  -1.980000      0.0000000E+00
  -1.920000      0.0000000E+00
  -1.860000      0.0000000E+00
  -1.800000      0.0000000E+00
  -1.740000      6.1350725E-33
  -1.680000      6.9479398E-32
  -1.620000      3.6262576E-31
  -1.560000      1.1710198E-30
  -1.500000      3.0338879E-30
  -1.440000      9.4932788E-30
  -1.380000      3.5691087E-29
  -1.320000      1.0594860E-28
  -1.260000      1.5869515E-28
  -1.200000     -2.6872645E-28
  -1.140000     -2.4392009E-27
  -1.080000     -7.8011795E-27
  -1.020000     -1.4014422E-26
 -0.9600000     -6.3861395E-27
 -0.9000000      4.8457075E-26
 -0.8400000      1.8423132E-25
 -0.7800000      3.6132729E-25
 -0.7200000      3.4206604E-25
 -0.6600000     -3.7110172E-25
 -0.6000000     -2.2764108E-24
 -0.5400000     -5.0388017E-24
 -0.4800000     -6.2578438E-24
 -0.4200000     -9.6265830E-25
 -0.3600000      1.6119615E-23
 -0.3000000      4.3955481E-23
 -0.2400000      6.6060462E-23
 -0.1800000      4.6606540E-23
 -0.1200000     -5.5884680E-23
 -5.9999999E-02 -2.4934351E-22
  0.0000000E+00 -4.5484402E-22
  5.9999999E-02 -4.8018395E-22
  0.1200000     -7.9651708E-23
  0.1800000      8.6593946E-22
  0.2400000      2.1016610E-21
  0.3000000      2.8549386E-21
  0.3600000      2.0284236E-21
  0.4200000     -1.1480267E-21
  0.4800000     -6.2021962E-21
  0.5400000     -1.0830654E-20
  0.6000000     -1.1382114E-20
  0.6600000     -4.7565894E-21
  0.7200000      8.9258685E-21
  0.7800000      2.4608751E-20
  0.8400000      3.3495477E-20
  0.9000000      2.7763383E-20
  0.9600000      6.6825999E-21
   1.020000     -2.0404025E-20
   1.080000     -3.8500992E-20
   1.140000     -3.8617806E-20
   1.200000     -2.9480914E-20
   1.260000     -3.7450027E-20
   1.320000     -8.6395144E-20
   1.380000     -1.6322022E-19
   1.440000     -1.9288849E-19
   1.500000     -5.5450964E-20
   1.560000      3.3723569E-19
   1.620000      9.2781024E-19
   1.680000      1.4330652E-18
   1.740000      1.3871249E-18
   1.800000      3.5812017E-19
   1.860000     -1.7139925E-18
   1.920000     -4.2305123E-18
   1.980000     -5.9271515E-18
   2.040000     -5.2997309E-18
   2.100000     -1.3979182E-18
   2.160000      5.3449057E-18
   2.220000      1.2736020E-17
   2.280000      1.7298294E-17
   2.340000      1.5621341E-17
   2.400000      6.1162396E-18
   2.460000     -9.6531142E-18
   2.520000     -2.6850438E-17
   2.580000     -3.8758203E-17
   2.640000     -3.9247778E-17
   2.700000     -2.5315408E-17
   2.760000      1.4115353E-18
   2.820000      3.4802536E-17
   2.880000      6.5805659E-17
   2.940000      8.4707153E-17
   3.000000      8.3257132E-17
   3.060000      5.6352606E-17
   3.120000      3.5669575E-18
   3.180000     -6.9076695E-17
   3.240000     -1.4735487E-16
   3.300000     -2.0848805E-16
   3.360000     -2.2424035E-16
   3.420000     -1.6891052E-16
   3.480000     -3.1437274E-17
   3.540000      1.7222910E-16
   3.600000      3.9269265E-16
   3.660000      5.5276640E-16
   3.720000      5.6802458E-16
   3.780000      3.7902085E-16
   3.840000     -1.4715482E-17
   3.900000     -5.3313964E-16
   3.960000     -1.0202320E-15
   4.020000     -1.2814559E-15
   4.080000     -1.1490741E-15
   4.140000     -5.5681368E-16
   4.200000      4.0428245E-16
   4.260000      1.4773710E-15
   4.320000      2.2952941E-15
   4.380000      2.4939771E-15
   4.440000      1.8516064E-15
   4.500000      4.0315364E-16
   4.560000     -1.5202711E-15
   4.620000     -3.3556197E-15
   4.680000     -4.4660155E-15
   4.740000     -4.3446941E-15
   4.800000     -2.7957534E-15
   4.860000     -2.9964793E-17
   4.920000      3.3539735E-15
   4.980000      6.4920700E-15
   5.040000      8.4431058E-15
   5.100000      8.3998267E-15
   5.160000      5.8950880E-15
   5.220000      9.8674669E-16
   5.280000     -5.6042825E-15
   5.340000     -1.2459568E-14
   5.400000     -1.7616710E-14
   5.460000     -1.8979620E-14
   5.520000     -1.4969341E-14
   5.580000     -5.2603698E-15
   5.640000      8.6813288E-15
   5.700000      2.3573848E-14
   5.760000      3.4996789E-14
   5.820000      3.8688552E-14
   5.880000      3.2070521E-14
   5.940000      1.5410333E-14
   6.000000     -7.9131554E-15
   6.060000     -3.2260734E-14
   6.120000     -5.1445139E-14
   6.180000     -6.0644666E-14
   6.240000     -5.7734003E-14
   6.300000     -4.3501454E-14
   6.360000     -2.0757837E-14
   6.420000      7.0943613E-15
   6.480000      3.7173189E-14
   6.540000      6.7222466E-14
   6.600000      9.4612218E-14
   6.660000      1.1487335E-13
   6.720000      1.2089877E-13
   6.780000      1.0387555E-13
   6.840000      5.6314908E-14
   6.900000     -2.3534568E-14
   6.960000     -1.2759191E-13
   7.020000     -2.3625316E-13
   7.080000     -3.2068171E-13
   7.140000     -3.4933590E-13
   7.200000     -2.9732152E-13
   7.260000     -1.5581086E-13
   7.320000      6.1664290E-14
   7.380000      3.1850949E-13
   7.440000      5.6075918E-13
   7.500000      7.2799704E-13
   7.560000      7.6680985E-13
   7.620000      6.4353107E-13
   7.680000      3.5354597E-13
   7.740000     -7.4383533E-14
   7.800000     -5.7912301E-13
   7.860000     -1.0731955E-12
   7.920000     -1.4535320E-12
   7.980000     -1.6168749E-12
   8.040000     -1.4795027E-12
   8.100000     -9.9962790E-13
   8.160000     -1.9850858E-13
   8.220000      8.2608481E-13
   8.280000      1.9014048E-12
   8.340000      2.8018226E-12
   8.400000      3.2919821E-12
   8.460000      3.1841814E-12
   8.520000      2.3960187E-12
   8.580000      9.9048927E-13
   8.640000     -8.1739222E-13
   8.700000     -2.6951655E-12
   8.760000     -4.2639026E-12
   8.820000     -5.1880969E-12
   8.880000     -5.2589469E-12
   8.940000     -4.4458300E-12
   9.000000     -2.9000756E-12
   9.060000     -9.1059072E-13
   9.120000      1.1731576E-12
   9.180000      3.0250982E-12
   9.240000      4.4074796E-12
   9.300000      5.2006307E-12
   9.360000      5.3971658E-12
   9.420000      5.0747423E-12
   9.480000      4.3679413E-12
   9.540000      3.4547627E-12
   9.600000      2.5586555E-12
   9.660000      1.9499743E-12
   9.720000      1.9205867E-12
   9.780000      2.7094171E-12
   9.840000      4.3765642E-12
   9.900000      6.6534430E-12
   9.960000      8.8243562E-12
   10.02000      9.7077884E-12
   10.08000      7.7941863E-12
   10.14000      1.5604452E-12
   10.20000     -1.0071079E-11
   10.26000     -2.7213162E-11
   10.32000     -4.8551316E-11
   10.38000     -7.1057861E-11
   10.44000     -8.9970267E-11
   10.50000     -9.9065291E-11
   10.56000     -9.1197536E-11
   10.62000     -5.9020656E-11
   10.68000      4.2137318E-12
   10.74000      1.0387809E-10
   10.80000      2.4328234E-10
   10.86000      4.2311732E-10
   10.92000      6.4104683E-10
   10.98000      8.9146995E-10
   11.04000      1.1654959E-09
   11.10000      1.4511999E-09
   11.16000      1.7342329E-09
   11.22000      1.9988300E-09
   11.28000      2.2291946E-09
   11.34000      2.4111362E-09
   11.40000      2.5337532E-09
   11.46000      2.5908911E-09
   11.52000      2.5821099E-09
   11.58000      2.5129723E-09
   11.64000      2.3945710E-09
   11.70000      2.2423612E-09
   11.76000      2.0744730E-09
   11.82000      1.9097486E-09
   11.88000      1.7657610E-09
   11.94000      1.6570436E-09
   12.00000      1.5937005E-09
   12.06000      1.5805162E-09
   12.12000      1.6166303E-09
   12.18000      1.6958011E-09
   12.24000      1.8072291E-09
   12.30000      1.9368536E-09
   12.36000      2.0689661E-09
   12.42000      2.1879334E-09
   12.48000      2.2797959E-09
   12.54000      2.3335331E-09
   12.60000      2.3418669E-09
   12.66000      2.3015632E-09
   12.72000      2.2132896E-09
   12.78000      2.0811453E-09
   12.84000      1.9119735E-09
   12.90000      1.7145417E-09
   12.96000      1.4986148E-09
   13.02000      1.2739251E-09
   13.08000      1.0490575E-09
   13.14000      8.3033452E-10
   13.20000      6.2086597E-10
   13.26000      4.1998968E-10
   13.32000      2.2331766E-10
   13.38000      2.3510359E-11
   13.44000     -1.8826589E-10
   13.50000     -4.2043255E-10
   13.56000     -6.7903189E-10
   13.62000     -9.6614239E-10
   13.68000     -1.2790525E-09
   13.74000     -1.6103850E-09
   13.80000     -1.9491273E-09
   13.86000     -2.2822886E-09
   13.92000     -2.5967741E-09
   13.98000     -2.8810416E-09
   14.04000     -3.1262262E-09
   14.10000     -3.3266090E-09
   14.16000     -3.4795231E-09
   14.22000     -3.5849266E-09
   14.28000     -3.6449281E-09
   14.34000     -3.6634760E-09
   14.40000     -3.6462666E-09
   14.46000     -3.6007815E-09
   14.52000     -3.5362420E-09
   14.58000     -3.4632743E-09
   14.64000     -3.3931804E-09
   14.70000     -3.3368686E-09
   14.76000     -3.3036800E-09
   14.82000     -3.3004157E-09
   14.88000     -3.3308547E-09
   14.94000     -3.3958898E-09
   15.00000     -3.4942065E-09
   15.06000     -3.6232362E-09
   15.12000     -3.7800363E-09
   15.18000     -3.9618078E-09
   15.24000     -4.1659298E-09
   15.30000     -4.3896251E-09
   15.36000     -4.6295074E-09
   15.42000     -4.8813242E-09
   15.48000     -5.1400755E-09
   15.54000     -5.4004965E-09
   15.60000     -5.6576761E-09
   15.66000     -5.9074901E-09
   15.72000     -6.1465597E-09
   15.78000     -6.3716512E-09
   15.84000     -6.5786869E-09
   15.90000     -6.7617543E-09
   15.96000     -6.9126007E-09
   16.02000     -7.0209754E-09
   16.08000     -7.0759403E-09
   16.14000     -7.0679080E-09
   16.20000     -6.9908799E-09
   16.26000     -6.8441928E-09
   16.32000     -6.6331900E-09
   16.38000     -6.3684888E-09
   16.44000     -6.0639840E-09
   16.50000     -5.7341132E-09
   16.56000     -5.3912319E-09
   16.62000     -5.0439155E-09
   16.68000     -4.6967839E-09
   16.74000     -4.3519148E-09
   16.80000     -4.0113912E-09
   16.86000     -3.6800760E-09
   16.92000     -3.3675622E-09
   16.98000     -3.0884668E-09
   17.04000     -2.8607408E-09
   17.10000     -2.7023614E-09
   17.16000     -2.6273674E-09
   17.22000     -2.6425113E-09
   17.28000     -2.7456928E-09
   17.34000     -2.9267970E-09
   17.40000     -3.1707672E-09
   17.46000     -3.4619554E-09
   17.52000     -3.7882915E-09
   17.58000     -4.1438217E-09
   17.64000     -4.5286770E-09
   17.70000     -4.9464206E-09
   17.76000     -5.3996763E-09
   17.82000     -5.8855743E-09
   17.88000     -6.3927179E-09
   17.94000     -6.9008728E-09
   18.00000     -7.3837221E-09
   18.06000     -7.8139681E-09
   18.12000     -8.1692688E-09
   18.18000     -8.4371781E-09
   18.24000     -8.6175191E-09
   18.30000     -8.7214413E-09
   18.36000     -8.7674330E-09
   18.42000     -8.7755119E-09
   18.48000     -8.7614520E-09
   18.54000     -8.7328536E-09
   18.60000     -8.6882919E-09
   18.66000     -8.6197858E-09
   18.72000     -8.5176612E-09
   18.78000     -8.3760998E-09
   18.84000     -8.1973326E-09
   18.90000     -7.9928997E-09
   18.96000     -7.7813471E-09
   19.02000     -7.5829707E-09
   19.08000     -7.4132682E-09
   19.14000     -7.2772934E-09
   19.20000     -7.1669124E-09
   19.26000     -7.0621184E-09
   19.32000     -6.9363035E-09
   19.38000     -6.7641244E-09
   19.44000     -6.5296568E-09
   19.50000     -6.2322725E-09
   19.56000     -5.8881575E-09
   19.62000     -5.5265965E-09
   19.68000     -5.1817364E-09
   19.74000     -4.8821036E-09
   19.80000     -4.6411204E-09
   19.86000     -4.4518682E-09
   19.92000     -4.2881978E-09
   19.98000     -4.1123061E-09
   20.04000     -3.8866705E-09
   20.10000     -3.5865797E-09
   20.16000     -3.2090861E-09
   20.22000     -2.7752798E-09
   20.28000     -2.3249969E-09
   20.34000     -1.9056974E-09
   20.40000     -1.5592521E-09
   20.46000     -1.3110749E-09
   20.52000     -1.1651488E-09
   20.58000     -1.1063473E-09
   20.64000     -1.1088727E-09
   20.70000     -1.1474988E-09
   20.76000     -1.2074071E-09
   20.82000     -1.2889986E-09
   20.88000     -1.4059485E-09
   20.94000     -1.5772648E-09
   21.00000     -1.8163520E-09
   21.06000     -2.1212587E-09
   21.12000     -2.4699833E-09
   21.18000     -2.8229854E-09
   21.24000     -3.1325076E-09
   21.30000     -3.3558394E-09
   21.36000     -3.4681684E-09
   21.42000     -3.4706957E-09
   21.48000     -3.3912464E-09
   21.54000     -3.2771035E-09
   21.60000     -3.1823373E-09
   21.66000     -3.1536083E-09
   21.72000     -3.2187435E-09
   21.78000     -3.3813115E-09
   21.84000     -3.6223793E-09
   21.90000     -3.9083625E-09
   21.96000     -4.2020813E-09
   22.02000     -4.4733577E-09
   22.08000     -4.7058775E-09
   22.14000     -4.8984519E-09
   22.20000     -5.0607492E-09
   22.26000     -5.2054347E-09
   22.32000     -5.3398037E-09
   22.38000     -5.4600755E-09
   22.44000     -5.5504219E-09
   22.50000     -5.5870046E-09
   22.56000     -5.5453930E-09
   22.62000     -5.4084897E-09
   22.68000     -5.1719864E-09
   22.74000     -4.8453588E-09
   22.80000     -4.4481339E-09
   22.86000     -4.0028514E-09
   22.92000     -3.5272349E-09
   22.98000     -3.0282366E-09
   23.04000     -2.4998730E-09
   23.10000     -1.9255322E-09
   23.16000     -1.2840916E-09
   23.22000     -5.5814214E-10
   23.28000      2.5792479E-10
   23.34000      1.1521871E-09
   23.40000      2.0934550E-09
   23.46000      3.0341478E-09
   23.52000      3.9171728E-09
   23.58000      4.6850785E-09
   23.64000      5.2891211E-09
   23.70000      5.6959868E-09
   23.76000      5.8907319E-09
   23.82000      5.8757754E-09
   23.88000      5.6669571E-09
   23.94000      5.2883697E-09
   24.00000      4.7676694E-09
   24.06000      4.1329464E-09
   24.12000      3.4114311E-09
   24.18000      2.6295877E-09
   24.24000      1.8138219E-09
   24.30000      9.9101893E-10
   24.36000      1.8834286E-10
   24.42000     -5.6799382E-10
   24.48000     -1.2549911E-09
   24.54000     -1.8558354E-09
   24.60000     -2.3629281E-09
   24.66000     -2.7800497E-09
   24.72000     -3.1227074E-09
   24.78000     -3.4160652E-09
   24.84000     -3.6905334E-09
   24.90000     -3.9759058E-09
   24.96000     -4.2955244E-09
   25.02000     -4.6620698E-09
   25.08000     -5.0761253E-09
   25.14000     -5.5278124E-09
   25.20000     -6.0008771E-09
   25.26000     -6.4778982E-09
   25.32000     -6.9450459E-09
   25.38000     -7.3950432E-09
   25.44000     -7.8275848E-09
   25.50000     -8.2472766E-09
   25.56000     -8.6599563E-09
   25.62000     -9.0688221E-09
   25.68000     -9.4718660E-09
   25.74000     -9.8617567E-09
   25.80000     -1.0228326E-08
   25.86000     -1.0562798E-08
   25.92000     -1.0862034E-08
   25.98000     -1.1130886E-08
   26.04000     -1.1381370E-08
   26.10000     -1.1628607E-08
   26.16000     -1.1884822E-08
   26.22000     -1.2153538E-08
   26.28000     -1.2426165E-08
   26.34000     -1.2682296E-08
   26.40000     -1.2893643E-08
   26.46000     -1.3030284E-08
   26.52000     -1.3067096E-08
   26.58000     -1.2988308E-08
   26.64000     -1.2788918E-08
   26.70000     -1.2472824E-08
   26.76000     -1.2048665E-08
   26.82000     -1.1525101E-08
   26.88000     -1.0907294E-08
   26.94000     -1.0195919E-08
   27.00000     -9.3889660E-09
   27.06000     -8.4855953E-09
   27.12000     -7.4903648E-09
   27.18000     -6.4159829E-09
   27.24000     -5.2831459E-09
   27.30000     -4.1171693E-09
   27.36000     -2.9423832E-09
   27.42000     -1.7762993E-09
   27.48000     -6.2578653E-10
   27.54000      5.1313381E-10
   27.60000      1.6515770E-09
   27.66000      2.8013407E-09
   27.72000      3.9679215E-09
   27.78000      5.1454294E-09
   27.84000      6.3151742E-09
   27.90000      7.4483961E-09
   27.96000      8.5122362E-09
   28.02000      9.4769650E-09
   28.08000      1.0322118E-08
   28.14000      1.1039569E-08
   28.20000      1.1632553E-08
   28.26000      1.2110965E-08
   28.32000      1.2484522E-08
   28.38000      1.2756158E-08
   28.44000      1.2918128E-08
   28.50000      1.2952505E-08
   28.56000      1.2836316E-08
   28.62000      1.2549839E-08
   28.68000      1.2085214E-08
   28.74000      1.1452099E-08
   28.80000      1.0677891E-08
   28.86000      9.8018820E-09
   28.92000      8.8650189E-09
   28.98000      7.8987608E-09
   29.04000      6.9170927E-09
   29.10000      5.9148104E-09
   29.16000      4.8729123E-09
   29.22000      3.7692862E-09
   29.28000      2.5908444E-09
   29.34000      1.3426174E-09
   29.40000      5.0401856E-11
   29.46000     -1.2441216E-09
   29.52000     -2.4941622E-09
   29.58000     -3.6607473E-09
   29.64000     -4.7233115E-09
   29.70000     -5.6842824E-09
   29.76000     -6.5660486E-09
   29.82000     -7.4012587E-09
   29.88000     -8.2196223E-09
   29.94000     -9.0355350E-09
   30.00000     -9.8406456E-09
   30.06000     -1.0603905E-08
   30.12000     -1.1279282E-08
   30.18000     -1.1818812E-08
   30.24000     -1.2186826E-08
   30.30000     -1.2370694E-08
   30.36000     -1.2384365E-08
   30.42000     -1.2263302E-08
   30.48000     -1.2052249E-08
   30.54000     -1.1789725E-08
   30.60000     -1.1494462E-08
   30.66000     -1.1158455E-08
   30.72000     -1.0749172E-08
   30.78000     -1.0220392E-08
   30.84000     -9.5281081E-09
   30.90000     -8.6461656E-09
   30.96000     -7.5763102E-09
   31.02000     -6.3492811E-09
   31.08000     -5.0166697E-09
   31.14000     -3.6364769E-09
   31.20000     -2.2574358E-09
   31.26000     -9.0751157E-10
   31.32000      4.0960302E-10
   31.38000      1.7090341E-09
   31.44000      3.0124900E-09
   31.50000      4.3337134E-09
   31.56000      5.6668075E-09
   31.62000      6.9815629E-09
   31.68000      8.2275040E-09
   31.74000      9.3454284E-09
   31.80000      1.0282726E-08
   31.86000      1.1007427E-08
   31.92000      1.1516311E-08
   31.98000      1.1834209E-08
   32.04000      1.2004494E-08
   32.10000      1.2073714E-08
   32.16000      1.2075326E-08
   32.22000      1.2018005E-08
   32.28000      1.1882569E-08
   32.34000      1.1628629E-08
   32.40000      1.1208792E-08
   32.46000      1.0585480E-08
   32.52000      9.7445456E-09
   32.58000      8.7009999E-09
   32.64000      7.4949513E-09
   32.70000      6.1793446E-09
   32.76000      4.8038302E-09
   32.82000      3.4003049E-09
   32.88000      1.9748858E-09
   32.94000      5.0876353E-10
   33.00000     -1.0326197E-09
   33.06000     -2.6852678E-09
   33.12000     -4.4719339E-09
   33.18000     -6.3917525E-09
   33.24000     -8.4175102E-09
   33.30000     -1.0501463E-08
   33.36000     -1.2587935E-08
   33.42000     -1.4628783E-08
   33.48000     -1.6596799E-08
   33.54000     -1.8492637E-08
   33.60000     -2.0342856E-08
   33.66000     -2.2189477E-08
   33.72000     -2.4074259E-08
   33.78000     -2.6022777E-08
   33.84000     -2.8033442E-08
   33.90000     -3.0075142E-08
   33.96000     -3.2094253E-08
   34.02000     -3.4028801E-08
   34.08000     -3.5825067E-08
   34.14000     -3.7451258E-08
   34.20000     -3.8903650E-08
   34.26000     -4.0203258E-08
   34.32000     -4.1383959E-08
   34.38000     -4.2476060E-08
   34.44000     -4.3490807E-08
   34.50000     -4.4411241E-08
   34.56000     -4.5192834E-08
   34.62000     -4.5774172E-08
   34.68000     -4.6094435E-08
   34.74000     -4.6112071E-08
   34.80000     -4.5818307E-08
   34.86000     -4.5240768E-08
   34.92000     -4.4435662E-08
   34.98000     -4.3470848E-08
   35.04000     -4.2405251E-08
   35.10000     -4.1271424E-08
   35.16000     -4.0066976E-08
   35.22000     -3.8757747E-08
   35.28000     -3.7291702E-08
   35.34000     -3.5618857E-08
   35.40000     -3.3710805E-08
   35.46000     -3.1573261E-08
   35.52000     -2.9247635E-08
   35.58000     -2.6801034E-08
   35.64000     -2.4308164E-08
   35.70000     -2.1831069E-08
   35.76000     -1.9403595E-08
   35.82000     -1.7025782E-08
   35.88000     -1.4670165E-08
   35.94000     -1.2297893E-08
   36.00000     -9.8791251E-09
   36.06000     -7.4105970E-09
   36.12000     -4.9240163E-09
   36.18000     -2.4819473E-09
   36.24000     -1.6215193E-10
   36.30000      1.9645507E-09
   36.36000      3.8553436E-09
   36.42000      5.5079266E-09
   36.48000      6.9597927E-09
   36.54000      8.2741245E-09
   36.60000      9.5169010E-09
   36.66000      1.0733043E-08
   36.72000      1.1929860E-08
   36.78000      1.3073572E-08
   36.84000      1.4100101E-08
   36.90000      1.4936338E-08
   36.96000      1.5524483E-08
   37.02000      1.5841099E-08
   37.08000      1.5904426E-08
   37.14000      1.5767570E-08
   37.20000      1.5500037E-08
   37.26000      1.5163916E-08
   37.32000      1.4792936E-08
   37.38000      1.4381639E-08
   37.44000      1.3888638E-08
   37.50000      1.3253123E-08
   37.56000      1.2419139E-08
   37.62000      1.1359167E-08
   37.68000      1.0088509E-08
   37.74000      8.6649914E-09
   37.80000      7.1737558E-09
   37.86000      5.7023728E-09
   37.92000      4.3151807E-09
   37.98000      3.0360157E-09
   38.04000      1.8452988E-09
   38.10000      6.9203793E-10
   38.16000     -4.8410903E-10
   38.22000     -1.7288778E-09
   38.28000     -3.0558580E-09
   38.34000     -4.4408766E-09
   38.40000     -5.8294121E-09
   38.46000     -7.1538393E-09
   38.52000     -8.3544434E-09
   38.58000     -9.3973656E-09
   38.64000     -1.0283848E-08
   38.70000     -1.1047928E-08
   38.76000     -1.1743229E-08
   38.82000     -1.2423002E-08
   38.88000     -1.3119947E-08
   38.94000     -1.3832802E-08
   39.00000     -1.4524707E-08
   39.06000     -1.5134365E-08
   39.12000     -1.5596264E-08
   39.18000     -1.5862744E-08
   39.24000     -1.5919829E-08
   39.30000     -1.5791141E-08
   39.36000     -1.5528880E-08
   39.42000     -1.5195667E-08
   39.48000     -1.4844254E-08
   39.54000     -1.4502275E-08
   39.60000     -1.4166822E-08
   39.66000     -1.3809735E-08
   39.72000     -1.3390880E-08
   39.78000     -1.2874480E-08
   39.84000     -1.2243154E-08
   39.90000     -1.1505422E-08
   39.96000     -1.0694603E-08
   40.02000     -9.8595443E-09
   40.08000     -9.0500256E-09
   40.14000     -8.3014520E-09
   40.20000     -7.6238802E-09
   40.26000     -6.9991777E-09
   40.32000     -6.3873844E-09
   40.38000     -5.7399636E-09
   40.44000     -5.0150746E-09
   40.50000     -4.1892849E-09
   40.56000     -3.2618221E-09
   40.62000     -2.2505895E-09
   40.68000     -1.1824179E-09
   40.74000     -8.1894859E-11
   40.80000      1.0370560E-09
   40.86000      2.1744202E-09
   40.92000      3.3420779E-09
   40.98000      4.5582071E-09
   41.04000      5.8404730E-09
   41.10000      7.2001018E-09
   41.16000      8.6382093E-09
   41.22000      1.0145003E-08
   41.28000      1.1701865E-08
   41.34000      1.3285669E-08
   41.40000      1.4874102E-08
   41.46000      1.6450336E-08
   41.52000      1.8005473E-08
   41.58000      1.9537957E-08
   41.64000      2.1050374E-08
   41.70000      2.2545075E-08
   41.76000      2.4020483E-08
   41.82000      2.5469406E-08
   41.88000      2.6879581E-08
   41.94000      2.8235775E-08
   42.00000      2.9522319E-08
   42.06000      3.0725346E-08
   42.12000      3.1834460E-08
   42.18000      3.2844031E-08
   42.24000      3.3754024E-08
   42.30000      3.4570025E-08
   42.36000      3.5301838E-08
   42.42000      3.5960436E-08
   42.48000      3.6553924E-08
   42.54000      3.7083815E-08
   42.60000      3.7543231E-08
   42.66000      3.7917864E-08
   42.72000      3.8189395E-08
   42.78000      3.8339991E-08
   42.84000      3.8356127E-08
   42.90000      3.8230507E-08
   42.96000      3.7961801E-08
   43.02000      3.7552802E-08
   43.08000      3.7008100E-08
   43.14000      3.6332050E-08
   43.20000      3.5527510E-08
   43.26000      3.4595331E-08
   43.32000      3.3534644E-08
   43.38000      3.2343870E-08
   43.44000      3.1022513E-08
   43.50000      2.9573474E-08
   43.56000      2.8005275E-08
   43.62000      2.6333348E-08
   43.68000      2.4579631E-08
   43.74000      2.2770253E-08
   43.80000      2.0931823E-08
   43.86000      1.9087413E-08
   43.92000      1.7253520E-08
   43.98000      1.5438994E-08
   44.04000      1.3646230E-08
   44.10000      1.1874283E-08
   44.16000      1.0122925E-08
   44.22000      8.3964498E-09
   44.28000      6.7061130E-09
   44.34000      5.0704347E-09
   44.40000      3.5131948E-09
   44.46000      2.0595836E-09
   44.52000      7.3152656E-10
   44.58000     -4.5649270E-10
   44.64000     -1.4998690E-09
   44.70000     -2.4038045E-09
   44.76000     -3.1806975E-09
   44.82000     -3.8457371E-09
   44.88000     -4.4119934E-09
   44.94000     -4.8864650E-09
   45.00000     -5.2682245E-09
   45.06000     -5.5491602E-09
   45.12000     -5.7170091E-09
   45.18000     -5.7596949E-09
   45.24000     -5.6696225E-09
   45.30000     -5.4466645E-09
   45.36000     -5.0990514E-09
   45.42000     -4.6420485E-09
   45.48000     -4.0949852E-09
   45.54000     -3.4776084E-09
   45.60000     -2.8068325E-09
   45.66000     -2.0947388E-09
   45.72000     -1.3482357E-09
   45.78000     -5.7035004E-10
   45.84000      2.3731955E-10
   45.90000      1.0717143E-09
   45.96000      1.9258484E-09
   46.02000      2.7875207E-09
   46.08000      3.6396648E-09
   46.14000      4.4623381E-09
   46.20000      5.2358646E-09
   46.26000      5.9442904E-09
   46.32000      6.5782126E-09
   46.38000      7.1362520E-09
   46.44000      7.6247817E-09
   46.50000      8.0559417E-09
   46.56000      8.4442915E-09
   46.62000      8.8027097E-09
   46.68000      9.1383958E-09
   46.74000      9.4499875E-09
   46.80000      9.7268709E-09
   46.86000      9.9513491E-09
   46.92000      1.0103560E-08
   46.98000      1.0167934E-08
   47.04000      1.0139092E-08
   47.10000      1.0024897E-08
   47.16000      9.8452224E-09
   47.22000      9.6265813E-09
   47.28000      9.3944603E-09
   47.34000      9.1662082E-09
   47.40000      8.9470991E-09
   47.46000      8.7308711E-09
   47.52000      8.5041938E-09
   47.58000      8.2530676E-09
   47.64000      7.9686275E-09
   47.70000      7.6503746E-09
   47.76000      7.3060309E-09
   47.82000      6.9484818E-09
   47.88000      6.5911481E-09
   47.94000      6.2434125E-09
   48.00000      5.9075518E-09
   48.06000      5.5780873E-09
   48.12000      5.2437725E-09
   48.18000      4.8916529E-09
   48.24000      4.5119659E-09
   48.30000      4.1022750E-09
   48.36000      3.6693666E-09
   48.42000      3.2281395E-09
   48.48000      2.7977087E-09
   48.54000      2.3959246E-09
   48.60000      2.0340314E-09
   48.66000      1.7131130E-09
   48.72000      1.4233826E-09
   48.78000      1.1465399E-09
   48.84000      8.6060337E-10
   48.90000      5.4598598E-10
   48.96000      1.9118364E-10
   49.02000     -2.0361253E-10
   49.08000     -6.2629857E-10
   49.14000     -1.0564446E-09
   49.20000     -1.4718140E-09
   49.26000     -1.8557060E-09
   49.32000     -2.2024238E-09
   49.38000     -2.5186624E-09
   49.44000     -2.8201381E-09
   49.50000     -3.1247445E-09
   49.56000     -3.4450038E-09
   49.62000     -3.7828931E-09
   49.68000     -4.1290642E-09
   49.74000     -4.4666386E-09
   49.80000     -4.7779163E-09
   49.86000     -5.0513802E-09
   49.92000     -5.2864713E-09
   49.98000     -5.4945972E-09
   50.04000     -5.6961698E-09
   50.10000     -5.9146297E-09
   50.16000     -6.1691816E-09
   50.22000     -6.4682775E-09
   50.28000     -6.8057546E-09
   50.34000     -7.1609714E-09
   50.40000     -7.5032940E-09
   50.46000     -7.8000042E-09
   50.52000     -8.0255109E-09
   50.58000     -8.1690787E-09
   50.64000     -8.2385538E-09
   50.70000     -8.2587244E-09
   50.76000     -8.2646299E-09
   50.82000     -8.2917690E-09
   50.88000     -8.3660723E-09
   50.94000     -8.4965581E-09
   51.00000     -8.6726839E-09
   51.06000     -8.8670076E-09
   51.12000     -9.0422461E-09
   51.18000     -9.1605452E-09
   51.24000     -9.1921821E-09
   51.30000     -9.1210151E-09
   51.36000     -8.9450420E-09
   51.42000     -8.6718961E-09
   51.48000     -8.3107956E-09
   51.54000     -7.8636626E-09
   51.60000     -7.3183593E-09
   51.66000     -6.6462058E-09
   51.72000     -5.8043343E-09
   51.78000     -4.7417488E-09
   51.84000     -3.4067806E-09
   51.90000     -1.7534201E-09
   51.96000      2.5526287E-10
   52.02000      2.6471361E-09
   52.08000      5.4437956E-09
   52.14000      8.6648271E-09
   52.20000      1.2332184E-08
   52.26000      1.6473789E-08
   52.32000      2.1125935E-08
   52.38000      2.6334295E-08
   52.44000      3.2153306E-08
   52.50000      3.8643577E-08
   52.56000      4.5867154E-08
   52.62000      5.3881092E-08
   52.68000      6.2730606E-08
   52.74000      7.2443726E-08
   52.80000      8.3029200E-08
   52.86000      9.4478281E-08
   52.92000      1.0676973E-07
   52.98000      1.1987565E-07
   53.04000      1.3376578E-07
   53.10000      1.4840830E-07
   53.16000      1.6376683E-07
   53.22000      1.7979472E-07
   53.28000      1.9642849E-07
   53.34000      2.1358203E-07
   53.40000      2.3114279E-07
   53.46000      2.4897008E-07
   53.52000      2.6689602E-07
   53.58000      2.8472877E-07
   53.64000      3.0225786E-07
   53.70000      3.1926078E-07
   53.76000      3.3550873E-07
   53.82000      3.5076951E-07
   53.88000      3.6480654E-07
   53.94000      3.7737385E-07
   54.00000      3.8821005E-07
   54.06000      3.9703377E-07
   54.12000      4.0354337E-07
   54.18000      4.0742162E-07
   54.24000      4.0834456E-07
   54.30000      4.0599139E-07
   54.36000      4.0005449E-07
   54.42000      3.9024667E-07
   54.48000      3.7630596E-07
   54.54000      3.5799718E-07
   54.60000      3.3511077E-07
   54.66000      3.0746014E-07
   54.72000      2.7487877E-07
   54.78000      2.3721995E-07
   54.84000      1.9436084E-07
   54.90000      1.4621133E-07
   54.96000      9.2725266E-08
   55.02000      3.3910169E-08
   55.08000     -3.0168099E-08
   55.14000     -9.9386817E-08
   55.20000     -1.7357213E-07
   55.26000     -2.5250537E-07
   55.32000     -3.3592633E-07
   55.38000     -4.2353355E-07
   55.44000     -5.1498267E-07
   55.50000     -6.0988708E-07
   55.56000     -7.0782050E-07