  -2.400000      0.0000000E+00
  -2.340000      0.0000000E+00
  -2.280000      0.0000000E+00
  -2.220000      0.0000000E+00
  -2.160000      0.0000000E+00
  -2.100000      0.0000000E+00
  -2.040000     -4.0717381E-23
  -1.980000     -3.7030118E-22
  -1.920000     -1.6678095E-21
  -1.860000     -4.7821226E-21
  -1.800000     -9.0217342E-21
  -1.740000     -8.4767902E-21
  -1.680000      1.2190366E-20
  -1.620000      7.7793002E-20
  -1.560000      2.1052686E-19
  -1.500000      3.9705272E-19
  -1.440000      5.3286236E-19
  -1.380000      3.6350925E-19
  -1.320000     -5.1786976E-19
  -1.260000     -2.5136023E-18
  -1.200000     -5.6030729E-18
  -1.140000     -8.6837760E-18
  -1.080000     -8.9873157E-18
  -1.020000     -2.2710734E-18
 -0.9600000      1.5336461E-17
 -0.9000000      4.3449832E-17
 -0.8400000      7.2588447E-17
 -0.7800000      8.1607661E-17
 -0.7200000      4.2082542E-17
 -0.6600000     -6.6923934E-17
 -0.6000000     -2.3573284E-16
 -0.5400000     -4.0330314E-16
 -0.4800000     -4.5697004E-16
 -0.4200000     -2.6957252E-16
 -0.3600000      2.2450844E-16
 -0.3000000      9.4062501E-16
 -0.2400000      1.5959409E-15
 -0.1800000      1.7617644E-15
 -0.1200000      1.0427945E-15
 -5.9999999E-02 -6.6046912E-16
  0.0000000E+00 -2.9289815E-15
  5.9999999E-02 -4.8026395E-15
  0.1200000     -5.0695587E-15
  0.1800000     -2.8358928E-15
  0.2400000      1.8392198E-15
  0.3000000      7.5841077E-15
  0.3600000      1.1937270E-14
  0.4200000      1.2232402E-14
  0.4800000      6.8800293E-15
  0.5400000     -3.5164020E-15
  0.6000000     -1.5834217E-14
  0.6600000     -2.5253312E-14
  0.7200000     -2.7065340E-14
  0.7800000     -1.8772773E-14
  0.8400000     -1.5159653E-15
  0.9000000      1.9936682E-14
  0.9600000      3.8779794E-14
   1.020000      4.8718882E-14
   1.080000      4.6328819E-14
   1.140000      3.2110338E-14
   1.200000      9.7622673E-15
   1.260000     -1.5870011E-14
   1.320000     -4.0949164E-14
   1.380000     -6.3563080E-14
   1.440000     -8.2746005E-14
   1.500000     -9.6151941E-14
   1.560000     -9.8027204E-14
   1.620000     -7.9422065E-14
   1.680000     -3.1692754E-14
   1.740000      4.7488489E-14
   1.800000      1.4832287E-13
   1.860000      2.4687498E-13
   1.920000      3.0951758E-13
   1.980000      3.0375388E-13
   2.040000      2.1191677E-13
   2.100000      4.1876560E-14
   2.160000     -1.7088859E-13
   2.220000     -3.7228974E-13
   2.280000     -5.0710819E-13
   2.340000     -5.3796697E-13
   2.400000     -4.5745303E-13
   2.460000     -2.8787498E-13
   2.520000     -6.9077604E-14
   2.580000      1.5914589E-13
   2.640000      3.7056114E-13
   2.700000      5.5458790E-13
   2.760000      7.0612846E-13
   2.820000      8.0977656E-13
   2.880000      8.2938685E-13
   2.940000      7.1235498E-13
   3.000000      4.1065683E-13
   3.060000     -8.8805543E-14
   3.120000     -7.3872663E-13
   3.180000     -1.4250241E-12
   3.240000     -1.9865628E-12
   3.300000     -2.2565363E-12
   3.360000     -2.1108820E-12
   3.420000     -1.5052449E-12
   3.480000     -4.8659086E-13
   3.540000      8.2336460E-13
   3.600000      2.2633796E-12
   3.660000      3.6693274E-12
   3.720000      4.8956989E-12
   3.780000      5.8141074E-12
   3.840000      6.2932402E-12
   3.900000      6.1741944E-12
   3.960000      5.2567503E-12
   4.020000      3.3049217E-12
   4.080000      6.7938880E-14
   4.140000     -4.6971901E-12
   4.200000     -1.1216849E-11
   4.260000     -1.9711959E-11
   4.320000     -3.0419951E-11
   4.380000     -4.3605449E-11
   4.440000     -5.9535599E-11
   4.500000     -7.8408467E-11
   4.560000     -1.0024536E-10
   4.620000     -1.2477983E-10
   4.680000     -1.5138561E-10
   4.740000     -1.7907788E-10
   4.800000     -2.0659838E-10
   4.860000     -2.3256819E-10
   4.920000     -2.5567190E-10
   4.980000     -2.7483196E-10
   5.040000     -2.8934083E-10
   5.100000     -2.9893246E-10
   5.160000     -3.0378644E-10
   5.220000     -3.0446382E-10
   5.280000     -3.0177880E-10
   5.340000     -2.9661773E-10
   5.400000     -2.8973429E-10
   5.460000     -2.8156566E-10
   5.520000     -2.7212255E-10
   5.580000     -2.6099264E-10
   5.640000     -2.4746247E-10
   5.700000     -2.3071910E-10
   5.760000     -2.1006244E-10
   5.820000     -1.8505428E-10
   5.880000     -1.5556263E-10
   5.940000     -1.2170705E-10
   6.000000     -8.3754323E-11
   6.060000     -4.2028610E-11
   6.120000      3.1204676E-12
   6.180000      5.1290961E-11
   6.240000      1.0198221E-10
   6.300000      1.5458212E-10
   6.360000      2.0842186E-10
   6.420000      2.6289060E-10
   6.480000      3.1756511E-10
   6.540000      3.7229675E-10
   6.600000      4.2721859E-10
   6.660000      4.8267923E-10
   6.720000      5.3914700E-10
   6.780000      5.9714250E-10
   6.840000      6.5723421E-10
   6.900000      7.2008838E-10
   6.960000      7.8651896E-10
   7.020000      8.5746843E-10
   7.080000      9.3386965E-10
   7.140000      1.0163979E-09
   7.200000      1.1051778E-09
   7.260000      1.1995539E-09
   7.320000      1.2980241E-09
   7.380000      1.3983901E-09
   7.440000      1.4980954E-09
   7.500000      1.5946580E-09
   7.560000      1.6860565E-09
   7.620000      1.7709538E-09
   7.680000      1.8486893E-09
   7.740000      1.9190647E-09
   7.800000      1.9820117E-09
   7.860000      2.0372737E-09
   7.920000      2.0842188E-09
   7.980000      2.1218547E-09
   8.040000      2.1490387E-09
   8.100000      2.1648192E-09
   8.160000      2.1687971E-09
   8.220000      2.1613913E-09
   8.280000      2.1439166E-09
   8.340000      2.1184430E-09
   8.400000      2.0874553E-09
   8.460000      2.0534092E-09
   8.520000      2.0183080E-09
   8.580000      1.9834370E-09
   8.640000      1.9493367E-09
   8.700000      1.9160225E-09
   8.760000      1.8833564E-09
   8.820000      1.8514089E-09
   8.880000      1.8206497E-09
   8.940000      1.7918763E-09
   9.000000      1.7659157E-09
   9.060000      1.7432524E-09
   9.120000      1.7237782E-09
   9.180000      1.7068041E-09
   9.240000      1.6913269E-09
   9.300000      1.6763916E-09
   9.360000      1.6613143E-09
   9.420000      1.6455900E-09
   9.480000      1.6284889E-09
   9.540000      1.6085544E-09
   9.600000      1.5833289E-09
   9.660000      1.5495734E-09
   9.720000      1.5040171E-09
   9.780000      1.4443803E-09
   9.840000      1.3702137E-09
   9.900000      1.2831257E-09
   9.960000      1.1862080E-09
   10.02000      1.0828535E-09
   10.08000      9.7545916E-10
   10.14000      8.6459057E-10
   10.20000      7.4898820E-10
   10.26000      6.2641525E-10
   10.32000      4.9496224E-10
   10.38000      3.5422773E-10
   10.44000      2.0586333E-10
   10.50000      5.3266891E-11
   10.56000     -9.9422394E-11
   10.62000     -2.4859895E-10
   10.68000     -3.9223183E-10
   10.74000     -5.3029703E-10
   10.80000     -6.6447892E-10
   10.86000     -7.9728346E-10
   10.92000     -9.3089225E-10
   10.98000     -1.0661532E-09
   11.04000     -1.2020476E-09
   11.10000     -1.3358179E-09
   11.16000     -1.4637237E-09
   11.22000     -1.5821731E-09
   11.28000     -1.6888193E-09
   11.34000     -1.7831977E-09
   11.40000     -1.8666395E-09
   11.46000     -1.9414927E-09
   11.52000     -2.0099920E-09
   11.58000     -2.0732922E-09
   11.64000     -2.1311197E-09
   11.70000     -2.1821907E-09
   11.76000     -2.2251594E-09
   11.82000     -2.2595772E-09
   11.88000     -2.2863169E-09
   11.94000     -2.3071971E-09
   12.00000     -2.3239588E-09
   12.06000     -2.3371245E-09
   12.12000     -2.3453861E-09
   12.18000     -2.3459703E-09
   12.24000     -2.3360065E-09
   12.30000     -2.3144620E-09
   12.36000     -2.2839100E-09
   12.42000     -2.2513902E-09
   12.48000     -2.2279021E-09
   12.54000     -2.2265236E-09
   12.60000     -2.2596405E-09
   12.66000     -2.3361095E-09
   12.72000     -2.4592539E-09
   12.78000     -2.6263651E-09
   12.84000     -2.8298954E-09
   12.90000     -3.0599308E-09
   12.96000     -3.3070537E-09
   13.02000     -3.5645398E-09
   13.08000     -3.8291024E-09
   13.14000     -4.0999999E-09
   13.20000     -4.3770236E-09
   13.26000     -4.6583581E-09
   13.32000     -4.9393334E-09
   13.38000     -5.2126219E-09
   13.44000     -5.4697389E-09
   13.50000     -5.7030896E-09
   13.56000     -5.9075767E-09
   13.62000     -6.0810512E-09
   13.68000     -6.2234795E-09
   13.74000     -6.3352963E-09
   13.80000     -6.4157648E-09
   13.86000     -6.4620953E-09
   13.92000     -6.4696910E-09
   13.98000     -6.4333672E-09
   14.04000     -6.3490289E-09
   14.10000     -6.2151075E-09
   14.16000     -6.0332144E-09
   14.22000     -5.8077427E-09
   14.28000     -5.5445599E-09
   14.34000     -5.2492566E-09
   14.40000     -4.9256390E-09
   14.46000     -4.5751340E-09
   14.52000     -4.1974890E-09
   14.58000     -3.7926777E-09
   14.64000     -3.3633647E-09
   14.70000     -2.9169487E-09
   14.76000     -2.4662132E-09
   14.82000     -2.0280972E-09
   14.88000     -1.6208282E-09
   14.94000     -1.2603560E-09
   15.00000     -9.5735286E-10
   15.06000     -7.1582368E-10
   15.12000     -5.3371807E-10
   15.18000     -4.0513876E-10
   15.24000     -3.2316616E-10
   15.30000     -2.8219599E-10
   15.36000     -2.7902444E-10
   15.42000     -3.1250103E-10
   15.48000     -3.8213510E-10
   15.54000     -4.8636001E-10
   15.60000     -6.2116673E-10
   15.66000     -7.7957329E-10
   15.72000     -9.5204977E-10
   15.78000     -1.1276873E-09
   15.84000     -1.2956838E-09
   15.90000     -1.4466447E-09
   15.96000     -1.5732795E-09
   16.02000     -1.6702881E-09
   16.08000     -1.7335245E-09
   16.14000     -1.7588038E-09
   16.20000     -1.7408777E-09
   16.26000     -1.6730632E-09
   16.32000     -1.5477789E-09
   16.38000     -1.3579127E-09
   16.44000     -1.0986482E-09
   16.50000     -7.6922807E-10
   16.56000     -3.7418291E-10
   16.62000      7.6261275E-11
   16.68000      5.6665139E-10
   16.74000      1.0775122E-09
   16.80000      1.5870332E-09
   16.86000      2.0729372E-09
   16.92000      2.5142286E-09
   16.98000      2.8925586E-09
   17.04000      3.1930427E-09
   17.10000      3.4045116E-09
   17.16000      3.5193601E-09
   17.22000      3.5332899E-09
   17.28000      3.4452536E-09
   17.34000      3.2577576E-09
   17.40000      2.9774352E-09
   17.46000      2.6155562E-09
   17.52000      2.1880444E-09
   17.58000      1.7146916E-09
   17.64000      1.2175517E-09
   17.70000      7.1884426E-10
   17.76000      2.3892077E-10
   17.82000     -2.0515609E-10
   17.88000     -6.0011174E-10
   17.94000     -9.3608510E-10
   18.00000     -1.2057370E-09
   18.06000     -1.4033179E-09
   18.12000     -1.5240647E-09
   18.18000     -1.5640482E-09
   18.24000     -1.5203656E-09
   18.30000     -1.3914661E-09
   18.36000     -1.1774811E-09
   18.42000     -8.8056595E-10
   18.48000     -5.0535048E-10
   18.54000     -5.9521013E-11
   18.60000      4.4563681E-10
   18.66000      9.9507713E-10
   18.72000      1.5705445E-09
   18.78000      2.1519109E-09
   18.84000      2.7189897E-09
   18.90000      3.2532268E-09
   18.96000      3.7386916E-09
   19.02000      4.1621386E-09
   19.08000      4.5124091E-09
   19.14000      4.7798179E-09
   19.20000      4.9561275E-09
   19.26000      5.0353579E-09
   19.32000      5.0151372E-09
   19.38000      4.8979794E-09
   19.44000      4.6919029E-09
   19.50000      4.4101651E-09
   19.56000      4.0702779E-09
   19.62000      3.6926557E-09
   19.68000      3.2991181E-09
   19.74000      2.9112384E-09
   19.80000      2.5484044E-09
   19.86000      2.2256867E-09
   19.92000      1.9519955E-09
   19.98000      1.7292925E-09
   20.04000      1.5534553E-09
   20.10000      1.4167612E-09
   20.16000      1.3111571E-09
   20.22000      1.2309918E-09
   20.28000      1.1740501E-09
   20.34000      1.1405125E-09
   20.40000      1.1304564E-09
   20.46000      1.1411861E-09
   20.52000      1.1656891E-09
   20.58000      1.1929290E-09
   20.64000      1.2098796E-09
   20.70000      1.2045870E-09
   20.76000      1.1693359E-09
   20.82000      1.1031074E-09
   20.88000      1.0127285E-09
   20.94000      9.1229835E-10
   21.00000      8.2070928E-10
   21.06000      7.5748852E-10
   21.12000      7.3783685E-10
   21.18000      7.6833484E-10
   21.24000      8.4494362E-10
   21.30000      9.5430586E-10
   21.36000      1.0780814E-09
   21.42000      1.1986835E-09
   21.48000      1.3040674E-09
   21.54000      1.3896224E-09
   21.60000      1.4565961E-09
   21.66000      1.5081203E-09
   21.72000      1.5449416E-09
   21.78000      1.5628679E-09
   21.84000      1.5528546E-09
   21.90000      1.5032617E-09
   21.96000      1.4028830E-09
   22.02000      1.2432981E-09
   22.08000      1.0197777E-09
   22.14000      7.3083528E-10
   22.20000      3.7705405E-10
   22.26000     -4.0151642E-11
   22.32000     -5.1946009E-10
   22.38000     -1.0601042E-09
   22.44000     -1.6617376E-09
   22.50000     -2.3234805E-09
   22.56000     -3.0419982E-09
   22.62000     -3.8088799E-09
   22.68000     -4.6081778E-09
   22.74000     -5.4153531E-09
   22.80000     -6.1986425E-09
   22.86000     -6.9229982E-09
   22.92000     -7.5555997E-09
   22.98000     -8.0710896E-09
   23.04000     -8.4546805E-09
   23.10000     -8.7020666E-09
   23.16000     -8.8164578E-09
   23.22000     -8.8042098E-09
   23.28000     -8.6709981E-09
   23.34000     -8.4201419E-09
   23.40000     -8.0536182E-09
   23.46000     -7.5751423E-09
   23.52000     -6.9937940E-09
   23.58000     -6.3264984E-09
   23.64000     -5.5981455E-09
   23.70000     -4.8391247E-09
   23.76000     -4.0810919E-09
   23.82000     -3.3525047E-09
   23.88000     -2.6754821E-09
   23.94000     -2.0649202E-09
   24.00000     -1.5297186E-09
   24.06000     -1.0750068E-09
   24.12000     -7.0386191E-10
   24.18000     -4.1738932E-10
   24.24000     -2.1303279E-10
   24.30000     -8.2047015E-11
   24.36000     -7.6604556E-12
   24.42000      3.4731096E-11
   24.48000      7.4855143E-11
   24.54000      1.4293024E-10
   24.60000      2.6449076E-10
   24.66000      4.5624174E-10
   24.72000      7.2412865E-10
   24.78000      1.0640774E-09
   24.84000      1.4650742E-09
   24.90000      1.9136048E-09
   24.96000      2.3980684E-09
   25.02000      2.9116900E-09
   25.08000      3.4528205E-09
   25.14000      4.0223331E-09
   25.20000      4.6189759E-09
   25.26000      5.2345706E-09
   25.32000      5.8513092E-09
   25.38000      6.4427734E-09
   25.44000      6.9787744E-09
   25.50000      7.4323947E-09
   25.56000      7.7865163E-09
   25.62000      8.0372926E-09
   25.68000      8.1933065E-09
   25.74000      8.2710132E-09
   25.80000      8.2884366E-09
   25.86000      8.2594553E-09
   25.92000      8.1903870E-09
   25.98000      8.0794065E-09
   26.04000      7.9183913E-09
   26.10000      7.6963298E-09
   26.16000      7.4033921E-09
   26.22000      7.0348110E-09
   26.28000      6.5936772E-09
   26.34000      6.0916703E-09
   26.40000      5.5470561E-09
   26.46000      4.9801194E-09
   26.52000      4.4073860E-09
   26.58000      3.8368224E-09
   26.64000      3.2661449E-09
   26.70000      2.6851659E-09
   26.76000      2.0813016E-09
   26.82000      1.4459043E-09
   26.88000      7.7871687E-10
   26.94000      8.8707333E-11
   27.00000     -6.0875710E-10
   27.06000     -1.2969220E-09
   27.12000     -1.9627404E-09
   27.18000     -2.6003268E-09
   27.24000     -3.2119978E-09
   27.30000     -3.8069832E-09
   27.36000     -4.3983319E-09
   27.42000     -4.9986357E-09
   27.48000     -5.6152962E-09
   27.54000     -6.2463861E-09
   27.60000     -6.8784591E-09
   27.66000     -7.4875981E-09
   27.72000     -8.0441422E-09
   27.78000     -8.5200744E-09
   27.84000     -8.8966612E-09
   27.90000     -9.1694234E-09
   27.96000     -9.3483248E-09
   28.02000     -9.4529868E-09
   28.08000     -9.5048014E-09
   28.14000     -9.5191375E-09
   28.20000     -9.5006669E-09
   28.26000     -9.4434061E-09
   28.32000     -9.3350794E-09
   28.38000     -9.1637498E-09
   28.44000     -8.9240144E-09
   28.50000     -8.6205185E-09
   28.56000     -8.2676523E-09
   28.62000     -7.8857481E-09
   28.68000     -7.4951378E-09
   28.74000     -7.1100565E-09
   28.80000     -6.7344175E-09
   28.86000     -6.3608465E-09
   28.92000     -5.9734266E-09
   28.98000     -5.5533400E-09
   29.04000     -5.0855822E-09
   29.10000     -4.5644670E-09
   29.16000     -3.9960026E-09
   29.22000     -3.3964023E-09
   29.28000     -2.7874349E-09
   29.34000     -2.1905455E-09
   29.40000     -1.6220378E-09
   29.46000     -1.0909851E-09
   29.52000     -6.0023636E-10
   29.58000     -1.4948370E-10
   29.64000      2.6146976E-10
   29.70000      6.3097394E-10
   29.76000      9.5608876E-10
   29.82000      1.2348536E-09
   29.88000      1.4686790E-09
   29.94000      1.6631245E-09
   30.00000      1.8261400E-09
   30.06000      1.9642707E-09
   30.12000      2.0785853E-09
   30.18000      2.1624982E-09
   30.24000      2.2029252E-09
   30.30000      2.1846447E-09
   30.36000      2.0960904E-09
   30.42000      1.9339861E-09
   30.48000      1.7046820E-09
   30.54000      1.4215935E-09
   30.60000      1.0999569E-09
   30.66000      7.5128925E-10
   30.72000      3.7990744E-10
   30.78000     -1.7254099E-11
   30.84000     -4.4781429E-10
   30.90000     -9.1953578E-10
   30.96000     -1.4360461E-09
   31.02000     -1.9939732E-09
   31.08000     -2.5820626E-09
   31.14000     -3.1823120E-09
   31.20000     -3.7728842E-09
   31.26000     -4.3323158E-09
   31.32000     -4.8441162E-09
   31.38000     -5.3002527E-09
   31.44000     -5.7018341E-09
   31.50000     -6.0559047E-09
   31.56000     -6.3688721E-09
   31.62000     -6.6390244E-09
   31.68000     -6.8517547E-09
   31.74000     -6.9805908E-09
   31.80000     -6.9947950E-09
   31.86000     -6.8711148E-09
   31.92000     -6.6048629E-09
   31.98000     -6.2152554E-09
   32.04000     -5.7421206E-09
   32.10000     -5.2347842E-09
   32.16000     -4.7373097E-09
   32.22000     -4.2757931E-09
   32.28000     -3.8524099E-09
   32.34000     -3.4480945E-09
   32.40000     -3.0323941E-09
   32.46000     -2.5766729E-09
   32.52000     -2.0660749E-09
   32.58000     -1.5064641E-09
   32.64000     -9.2431707E-10
   32.70000     -3.5962500E-10
   32.76000      1.4619700E-10
   32.82000      5.6385768E-10
   32.88000      8.8687130E-10
   32.94000      1.1353993E-09
   33.00000      1.3510585E-09
   33.06000      1.5834798E-09
   33.12000      1.8726580E-09
   33.18000      2.2333120E-09
   33.24000      2.6473763E-09
   33.30000      3.0680769E-09
   33.36000      3.4346908E-09
   33.42000      3.6928227E-09
   33.48000      3.8127128E-09
   33.54000      3.7987262E-09
   33.60000      3.6865184E-09
   33.66000      3.5289947E-09
   33.72000      3.3762479E-09
   33.78000      3.2566694E-09
   33.84000      3.1658183E-09
   33.90000      3.0668110E-09
   33.96000      2.9020417E-09
   34.02000      2.6122753E-09
   34.08000      2.1567101E-09
   34.14000      1.5271893E-09
   34.20000      7.5155887E-10
   34.26000     -1.1526290E-10
   34.32000     -1.0096765E-09
   34.38000     -1.8808894E-09
   34.44000     -2.7077436E-09
   34.50000     -3.5045460E-09
   34.56000     -4.3135051E-09
   34.62000     -5.1863793E-09
   34.68000     -6.1620775E-09
   34.74000     -7.2485236E-09
   34.80000     -8.4154665E-09
   34.86000     -9.6007948E-09
   34.92000     -1.0727947E-08
   34.98000     -1.1728118E-08
   35.04000     -1.2559539E-08
   35.10000     -1.3217368E-08
   35.16000     -1.3731165E-08
   35.22000     -1.4151071E-08
   35.28000     -1.4527518E-08
   35.34000     -1.4891300E-08
   35.40000     -1.5240799E-08
   35.46000     -1.5540857E-08
   35.52000     -1.5734024E-08
   35.58000     -1.5760515E-08
   35.64000     -1.5580044E-08
   35.70000     -1.5187503E-08
   35.76000     -1.4616435E-08
   35.82000     -1.3928660E-08
   35.88000     -1.3193597E-08
   35.94000     -1.2465017E-08
   36.00000     -1.1763963E-08
   36.06000     -1.1074279E-08
   36.12000     -1.0352171E-08
   36.18000     -9.5458601E-09
   36.24000     -8.6177012E-09
   36.30000     -7.5605486E-09
   36.36000     -6.4027073E-09
   36.42000     -5.2002198E-09
   36.48000     -4.0196748E-09
   36.54000     -2.9177858E-09
   36.60000     -1.9246635E-09
   36.66000     -1.0361775E-09
   36.72000     -2.1771644E-10
   36.78000      5.8203958E-10
   36.84000      1.4119441E-09
   36.90000      2.3002542E-09
   36.96000      3.2437963E-09
   37.02000      4.2083466E-09
   37.08000      5.1402558E-09
   37.14000      5.9852407E-09
   37.20000      6.7074395E-09
   37.26000      7.3015971E-09
   37.32000      7.7937994E-09
   37.38000      8.2305798E-09
   37.44000      8.6607406E-09
   37.50000      9.1169916E-09
   37.56000      9.6043919E-09
   37.62000      1.0099818E-08
   37.68000      1.0562322E-08
   37.74000      1.0950200E-08
   37.80000      1.1238201E-08
   37.86000      1.1428438E-08
   37.92000      1.1551080E-08
   37.98000      1.1654682E-08
   38.04000      1.1789830E-08
   38.10000      1.1992255E-08
   38.16000      1.2271683E-08
   38.22000      1.2610514E-08
   38.28000      1.2972492E-08
   38.34000      1.3317597E-08
   38.40000      1.3616924E-08
   38.46000      1.3861515E-08
   38.52000      1.4061882E-08
   38.58000      1.4239126E-08
   38.64000      1.4412060E-08
   38.70000      1.4586248E-08
   38.76000      1.4749559E-08
   38.82000      1.4875729E-08
   38.88000      1.4933955E-08
   38.94000      1.4900365E-08
   39.00000      1.4766960E-08
   39.06000      1.4545019E-08
   39.12000      1.4262135E-08
   39.18000      1.3954009E-08
   39.24000      1.3653507E-08
   39.30000      1.3380167E-08
   39.36000      1.3133446E-08
   39.42000      1.2892263E-08
   39.48000      1.2621796E-08
   39.54000      1.2285983E-08
   39.60000      1.1861616E-08
   39.66000      1.1348535E-08
   39.72000      1.0771272E-08
   39.78000      1.0170718E-08
   39.84000      9.5887458E-09
   39.90000      9.0521555E-09
   39.96000      8.5629104E-09
   40.02000      8.0990530E-09
   40.08000      7.6258457E-09
   40.14000      7.1122068E-09
   40.20000      6.5453625E-09
   40.26000      5.9377614E-09
   40.32000      5.3239004E-09
   40.38000      4.7489044E-09
   40.44000      4.2535695E-09
   40.50000      3.8612908E-09
   40.56000      3.5710066E-09
   40.62000      3.3579852E-09
   40.68000      3.1818992E-09
   40.74000      2.9996921E-09
   40.80000      2.7794407E-09
   40.86000      2.5109241E-09
   40.92000      2.2091937E-09
   40.98000      1.9093951E-09
   41.04000      1.6541085E-09
   41.10000      1.4775603E-09
   41.16000      1.3928146E-09
   41.22000      1.3873139E-09
   41.28000      1.4289147E-09
   41.34000      1.4801235E-09
   41.40000      1.5146271E-09
   41.46000      1.5291285E-09
   41.52000      1.5455008E-09
   41.58000      1.6023518E-09
   41.64000      1.7393765E-09
   41.70000      1.9805597E-09
   41.76000      2.3224507E-09
   41.82000      2.7316474E-09
   41.88000      3.1523171E-09
   41.94000      3.5212770E-09
   42.00000      3.7858587E-09
   42.06000      3.9188932E-09
   42.12000      3.9259600E-09
   42.18000      3.8423016E-09
   42.24000      3.7200902E-09
   42.30000      3.6100904E-09
   42.36000      3.5439931E-09
   42.42000      3.5238032E-09
   42.48000      3.5222605E-09
   42.54000      3.4941958E-09
   42.60000      3.3945209E-09
   42.66000      3.1960186E-09
   42.72000      2.9002947E-09
   42.78000      2.5380318E-09
   42.84000      2.1587909E-09
   42.90000      1.8143570E-09
   42.96000      1.5416546E-09
   43.02000      1.3510585E-09
   43.08000      1.2238488E-09
   43.14000      1.1194506E-09
   43.20000      9.8998620E-10
   43.26000      7.9733059E-10
   43.32000      5.2697702E-10
   43.38000      1.9386678E-10
   43.44000     -1.6210307E-10
   43.50000     -4.8962656E-10
   43.56000     -7.4391066E-10
   43.62000     -9.0242186E-10
   43.68000     -9.7250041E-10
   43.74000     -9.8789699E-10
   43.80000     -9.9556297E-10
   43.86000     -1.0377837E-09
   43.92000     -1.1364071E-09
   43.98000     -1.2848581E-09
   44.04000     -1.4504672E-09
   44.10000     -1.5857738E-09
   44.16000     -1.6444668E-09
   44.22000     -1.5964263E-09
   44.28000     -1.4370605E-09
   44.34000     -1.1882372E-09
   44.40000     -8.9079960E-10
   44.46000     -5.9115962E-10
   44.52000     -3.2623865E-10
   44.58000     -1.1162123E-10
   44.64000      6.3059190E-11
   44.70000      2.2971498E-10
   44.76000      4.2966702E-10
   44.82000      6.9794714E-10
   44.88000      1.0497329E-09
   44.94000      1.4739832E-09
   45.00000      1.9366768E-09
   45.06000      2.3923570E-09
   45.12000      2.7995044E-09
   45.18000      3.1338951E-09
   45.24000      3.3950709E-09
   45.30000      3.6038432E-09
   45.36000      3.7921617E-09
   45.42000      3.9893697E-09
   45.48000      4.2099533E-09
   45.54000      4.4471298E-09
   45.60000      4.6744204E-09
   45.66000      4.8545368E-09
   45.72000      4.9523652E-09
   45.78000      4.9474127E-09
   45.84000      4.8412430E-09
   45.90000      4.6572115E-09
   45.96000      4.4326374E-09
   46.02000      4.2063770E-09
   46.08000      4.0064485E-09
   46.14000      3.8422030E-09
   46.20000      3.7035710E-09
   46.26000      3.5670258E-09
   46.32000      3.4053937E-09
   46.38000      3.1975473E-09
   46.44000      2.9346419E-09
   46.50000      2.6213887E-09
   46.56000      2.2728905E-09
   46.62000      1.9089270E-09
   46.68000      1.5479055E-09
   46.74000      1.2022261E-09
   46.80000      8.7603208E-10
   46.86000      5.6560773E-10
   46.92000      2.6214311E-10
   46.98000     -4.3905136E-11
   47.04000     -3.5810865E-10
   47.10000     -6.7856532E-10
   47.16000     -9.9496622E-10
   47.22000     -1.2907855E-09
   47.28000     -1.5479273E-09
   47.34000     -1.7520834E-09
   47.40000     -1.8967070E-09
   47.46000     -1.9841353E-09
   47.52000     -2.0236912E-09
   47.58000     -2.0279116E-09
   47.64000     -2.0086961E-09
   47.70000     -1.9748854E-09
   47.76000     -1.9318154E-09
   47.82000     -1.8823347E-09
   47.88000     -1.8281876E-09
   47.94000     -1.7707753E-09
   48.00000     -1.7109266E-09
   48.06000     -1.6480181E-09
   48.12000     -1.5791954E-09
   48.18000     -1.4993948E-09
   48.24000     -1.4024415E-09
   48.30000     -1.2829637E-09
   48.36000     -1.1384521E-09
   48.42000     -9.7067454E-10
   48.48000     -7.8584911E-10
   48.54000     -5.9339594E-10
   48.60000     -4.0358566E-10
   48.66000     -2.2477917E-10
   48.72000     -6.1096385E-11
   48.78000      8.8801431E-11
   48.84000      2.3149178E-10
   48.90000      3.7723408E-10
   48.96000      5.3751875E-10
   49.02000      7.2235357E-10
   49.08000      9.3795416E-10
   49.14000      1.1854311E-09
   49.20000      1.4608713E-09
   49.26000      1.7568824E-09
   49.32000      2.0652173E-09
   49.38000      2.3796543E-09
   49.44000      2.6981033E-09
   49.50000      3.0231486E-09
   49.56000      3.3608776E-09
   49.62000      3.7186634E-09
   49.68000      4.1030801E-09
   49.74000      4.5190616E-09
   49.80000      4.9707314E-09
   49.86000      5.4634373E-09
   49.92000      6.0058647E-09
   49.98000      6.6110801E-09
   50.04000      7.2958812E-09
   50.10000      8.0786284E-09
   50.16000      8.9763654E-09
   50.22000      1.0002328E-08
   50.28000      1.1164797E-08
   50.34000      1.2467887E-08
   50.40000      1.3914395E-08
   50.46000      1.5510153E-08
   50.52000      1.7268787E-08
   50.58000      1.9215264E-08
   50.64000      2.1386800E-08
   50.70000      2.3830395E-08
   50.76000      2.6597593E-08
   50.82000      2.9738185E-08
   50.88000      3.3295045E-08
   50.94000      3.7301685E-08
   51.00000      4.1782801E-08
   51.06000      4.6757030E-08
   51.12000      5.2240445E-08
   51.18000      5.8249807E-08
   51.24000      6.4805057E-08
   51.30000      7.1930693E-08
   51.36000      7.9655592E-08
   51.42000      8.8010246E-08
   51.48000      9.7021115E-08
   51.54000      1.0670270E-07
   51.60000      1.1704994E-07
   51.66000      1.2803368E-07
   51.72000      1.3960138E-07
   51.78000      1.5168209E-07
   51.84000      1.6419258E-07
   51.90000      1.7704090E-07
   51.96000      1.9012471E-07
   52.02000      2.0332547E-07
   52.08000      2.1650111E-07
   52.14000      2.2948097E-07
   52.20000      2.4206392E-07
   52.26000      2.5401843E-07
   52.32000      2.6508269E-07
   52.38000      2.7496313E-07
   52.44000      2.8333281E-07
   52.50000      2.8983212E-07
   52.56000      2.9407369E-07
   52.62000      2.9564993E-07
   52.68000      2.9414014E-07
   52.74000      2.8911290E-07
   52.80000      2.8012312E-07
   52.86000      2.6670702E-07
   52.92000      2.4837965E-07
   52.98000      2.2463954E-07
   53.04000      1.9497979E-07
   53.10000      1.5890258E-07
   53.16000      1.1593231E-07
   53.22000      6.5624789E-08
   53.28000      7.5735374E-09
   53.34000     -5.8583897E-08
   53.40000     -1.3315741E-07
   53.46000     -2.1639411E-07
   53.52000     -3.0846854E-07
   53.58000     -4.0947555E-07
   53.64000     -5.1942499E-07
   53.70000     -6.3823563E-07
   53.76000     -7.6572650E-07
   53.82000     -9.0160512E-07
   53.88000     -1.0454577E-06
   53.94000     -1.1967445E-06
   54.00000     -1.3548026E-06
   54.06000     -1.5188521E-06
   54.12000     -1.6880007E-06
   54.18000     -1.8612461E-06
   54.24000     -2.0374723E-06
   54.30000     -2.2154477E-06
   54.36000     -2.3938326E-06
   54.42000     -2.5711906E-06
   54.48000     -2.7460042E-06
   54.54000     -2.9166904E-06
   54.60000     -3.0816097E-06
   54.66000     -3.2390749E-06
   54.72000     -3.3873628E-06
   54.78000     -3.5247360E-06
   54.84000     -3.6494719E-06
   54.90000     -3.7598907E-06
   54.96000     -3.8543790E-06
   55.02000     -3.9314023E-06
   55.08000     -3.9895122E-06
   55.14000     -4.0273626E-06
   55.20000     -4.0437271E-06
   55.26000     -4.0375289E-06
   55.32000     -4.0078653E-06
   55.38000     -3.9540232E-06
   55.44000     -3.8754902E-06
   55.50000     -3.7719497E-06
   55.56000     -3.6432923E-06