  -2.400000      0.0000000E+00
  -2.340000      0.0000000E+00
  -2.280000      0.0000000E+00
  -2.220000      0.0000000E+00
  -2.160000      0.0000000E+00
  -2.100000      0.0000000E+00
  -2.040000      8.6781313E-23
  -1.980000      6.8622038E-22
  -1.920000      2.5148472E-21
  -1.860000      5.0263004E-21
  -1.800000      3.0218525E-21
  -1.740000     -1.5012811E-20
  -1.680000     -5.8907344E-20
  -1.620000     -1.1337353E-19
  -1.560000     -1.0758086E-19
  -1.500000      9.2401063E-20
  -1.440000      6.2682397E-19
  -1.380000      1.4964227E-18
  -1.320000      2.3527585E-18
  -1.260000      2.3201951E-18
  -1.200000      1.5648451E-20
  -1.140000     -6.0167281E-18
  -1.080000     -1.6251588E-17
  -1.020000     -2.8490324E-17
 -0.9600000     -3.6024242E-17
 -0.9000000     -2.7015454E-17
 -0.8400000      1.2702916E-17
 -0.7800000      9.1371363E-17
 -0.7200000      1.9794224E-16
 -0.6600000      2.8894396E-16
 -0.6000000      2.8664738E-16
 -0.5400000      1.0156584E-16
 -0.4800000     -3.1502354E-16
 -0.4200000     -9.0164974E-16
 -0.3600000     -1.4376374E-15
 -0.3000000     -1.5659198E-15
 -0.2400000     -9.2410416E-16
 -0.1800000      6.3262710E-16
 -0.1200000      2.8085506E-15
 -5.9999999E-02  4.7914587E-15
  0.0000000E+00  5.4536411E-15
  5.9999999E-02  3.8426891E-15
  0.1200000     -2.0941217E-16
  0.1800000     -5.6846562E-15
  0.2400000     -1.0512812E-14
  0.3000000     -1.2352497E-14
  0.3600000     -9.7579890E-15
  0.4200000     -3.1365941E-15
  0.4800000      5.1488914E-15
  0.5400000      1.1812527E-14
  0.6000000      1.4423768E-14
  0.6600000      1.2935911E-14
  0.7200000      9.8612059E-15
  0.7800000      8.6142183E-15
  0.8400000      1.0695357E-14
  0.9000000      1.3428567E-14
  0.9600000      1.0150500E-14
   1.020000     -6.3165780E-15
   1.080000     -3.8052715E-14
   1.140000     -7.7289141E-14
   1.200000     -1.0601636E-13
   1.260000     -1.0189529E-13
   1.320000     -4.9215345E-14
   1.380000      4.9703067E-14
   1.440000      1.6884364E-13
   1.500000      2.6327752E-13
   1.560000      2.8476497E-13
   1.620000      2.0310498E-13
   1.680000      2.4245073E-14
   1.740000     -2.0402453E-13
   1.800000     -4.0379191E-13
   1.860000     -4.9400821E-13
   1.920000     -4.2338970E-13
   1.980000     -1.9589786E-13
   2.040000      1.2317900E-13
   2.100000      4.2574337E-13
   2.160000      5.9929178E-13
   2.220000      5.7132977E-13
   2.280000      3.4163693E-13
   2.340000     -1.2603505E-14
   2.400000     -3.6348352E-13
   2.460000     -5.8177952E-13
   2.520000     -5.8881551E-13
   2.580000     -3.8767335E-13
   2.640000     -5.8795139E-14
   2.700000      2.7848340E-13
   2.760000      5.1964433E-13
   2.820000      6.1627315E-13
   2.880000      5.8285885E-13
   2.940000      4.6583175E-13
   3.000000      2.9440014E-13
   3.060000      4.6618017E-14
   3.120000     -3.4077149E-13
   3.180000     -9.1405247E-13
   3.240000     -1.6228739E-12
   3.300000     -2.2680850E-12
   3.360000     -2.5228840E-12
   3.420000     -2.0421505E-12
   3.480000     -6.2853677E-13
   3.540000      1.6147009E-12
   3.600000      4.2229002E-12
   3.660000      6.4500762E-12
   3.720000      7.4806897E-12
   3.780000      6.7038445E-12
   3.840000      3.9476174E-12
   3.900000     -4.1752658E-13
   3.960000     -5.5459313E-12
   4.020000     -1.0326445E-11
   4.080000     -1.3653954E-11
   4.140000     -1.4668215E-11
   4.200000     -1.2893533E-11
   4.260000     -8.2651429E-12
   4.320000     -1.0757307E-12
   4.380000      8.1053879E-12
   4.440000      1.8503350E-11
   4.500000      2.9197311E-11
   4.560000      3.9195865E-11
   4.620000      4.7557659E-11
   4.680000      5.3558019E-11
   4.740000      5.6860936E-11
   4.800000      5.7629186E-11
   4.860000      5.6514515E-11
   4.920000      5.4514417E-11
   4.980000      5.2739160E-11
   5.040000      5.2170039E-11
   5.100000      5.3484297E-11
   5.160000      5.6977846E-11
   5.220000      6.2561623E-11
   5.280000      6.9776733E-11
   5.340000      7.7789955E-11
   5.400000      8.5382632E-11
   5.460000      9.0997120E-11
   5.520000      9.2913531E-11
   5.580000      8.9578865E-11
   5.640000      8.0021420E-11
   5.700000      6.4207625E-11
   5.760000      4.3186749E-11
   5.820000      1.8939768E-11
   5.880000     -6.0287005E-12
   5.940000     -2.9206481E-11
   6.000000     -4.8513121E-11
   6.060000     -6.2536781E-11
   6.120000     -7.0563125E-11
   6.180000     -7.2499874E-11
   6.240000     -6.8833252E-11
   6.300000     -6.0688385E-11
   6.360000     -4.9945107E-11
   6.420000     -3.9260744E-11
   6.480000     -3.1841769E-11
   6.540000     -3.0905473E-11
   6.600000     -3.8934883E-11
   6.660000     -5.6969044E-11
   6.720000     -8.4207287E-11
   6.780000     -1.1811234E-10
   6.840000     -1.5501195E-10
   6.900000     -1.9100864E-10
   6.960000     -2.2289921E-10
   7.020000     -2.4882296E-10
   7.080000     -2.6848468E-10
   7.140000     -2.8296632E-10
   7.200000     -2.9427027E-10
   7.260000     -3.0478137E-10
   7.320000     -3.1678882E-10
   7.380000     -3.3212644E-10
   7.440000     -3.5191988E-10
   7.500000     -3.7641934E-10
   7.560000     -4.0493059E-10
   7.620000     -4.3590312E-10
   7.680000     -4.6723408E-10
   7.740000     -4.9678484E-10
   7.800000     -5.2300264E-10
   7.860000     -5.4545723E-10
   7.920000     -5.6509575E-10
   7.980000     -5.8411448E-10
   8.040000     -6.0549776E-10
   8.100000     -6.3240435E-10
   8.160000     -6.6761963E-10
   8.220000     -7.1321121E-10
   8.280000     -7.7038481E-10
   8.340000     -8.3942903E-10
   8.400000     -9.1963076E-10
   8.460000     -1.0091491E-09
   8.520000     -1.1049681E-09
   8.580000     -1.2031063E-09
   8.640000     -1.2991703E-09
   8.700000     -1.3891427E-09
   8.760000     -1.4701004E-09
   8.820000     -1.5405226E-09
   8.880000     -1.6000120E-09
   8.940000     -1.6485540E-09
   9.000000     -1.6857105E-09
   9.060000     -1.7102010E-09
   9.120000     -1.7201228E-09
   9.180000     -1.7136973E-09
   9.240000     -1.6901103E-09
   9.300000     -1.6499453E-09
   9.360000     -1.5949283E-09
   9.420000     -1.5271070E-09
   9.480000     -1.4479322E-09
   9.540000     -1.3577930E-09
   9.600000     -1.2563360E-09
   9.660000     -1.1434882E-09
   9.720000     -1.0207342E-09
   9.780000     -8.9207003E-10
   9.840000     -7.6419798E-10
   9.900000     -6.4585881E-10
   9.960000     -5.4652033E-10
   10.02000     -4.7481796E-10
   10.08000     -4.3713874E-10
   10.14000     -4.3661563E-10
   10.20000     -4.7266463E-10
   10.26000     -5.4109994E-10
   10.32000     -6.3480360E-10
   10.38000     -7.4485229E-10
   10.44000     -8.6190216E-10
   10.50000     -9.7753405E-10
   10.56000     -1.0852436E-09
   10.62000     -1.1808675E-09
   10.68000     -1.2624375E-09
   10.74000     -1.3296548E-09
   10.80000     -1.3832616E-09
   10.86000     -1.4245152E-09
   10.92000     -1.4548057E-09
   10.98000     -1.4753160E-09
   11.04000     -1.4866193E-09
   11.10000     -1.4882522E-09
   11.16000     -1.4784760E-09
   11.22000     -1.4545148E-09
   11.28000     -1.4134236E-09
   11.34000     -1.3534537E-09
   11.40000     -1.2754739E-09
   11.46000     -1.1838823E-09
   11.52000     -1.0865826E-09
   11.58000     -9.9396014E-10
   11.64000     -9.1718783E-10
   11.70000     -8.6642910E-10
   11.76000     -8.4946983E-10
   11.82000     -8.7105695E-10
   11.88000     -9.3289898E-10
   11.94000     -1.0340696E-09
   12.00000     -1.1715281E-09
   12.06000     -1.3405951E-09
   12.12000     -1.5353698E-09
   12.18000     -1.7491366E-09
   12.24000     -1.9747683E-09
   12.30000     -2.2050426E-09
   12.36000     -2.4327806E-09
   12.42000     -2.6508014E-09
   12.48000     -2.8518463E-09
   12.54000     -3.0287204E-09
   12.60000     -3.1748302E-09
   12.66000     -3.2850751E-09
   12.72000     -3.3567891E-09
   12.78000     -3.3903198E-09
   12.84000     -3.3889616E-09
   12.90000     -3.3582817E-09
   12.96000     -3.3052097E-09
   13.02000     -3.2373637E-09
   13.08000     -3.1629013E-09
   13.14000     -3.0907688E-09
   13.20000     -3.0308911E-09
   13.26000     -2.9937950E-09
   13.32000     -2.9894842E-09
   13.38000     -3.0258982E-09
   13.44000     -3.1076726E-09
   13.50000     -3.2358876E-09
   13.56000     -3.4090470E-09
   13.62000     -3.6248744E-09
   13.68000     -3.8820716E-09
   13.74000     -4.1812007E-09
   13.80000     -4.5243276E-09
   13.86000     -4.9137197E-09
   13.92000     -5.3503326E-09
   13.98000     -5.8327889E-09
   14.04000     -6.3571299E-09
   14.10000     -6.9171189E-09
   14.16000     -7.5045961E-09
   14.22000     -8.1095513E-09
   14.28000     -8.7199723E-09
   14.34000     -9.3218873E-09
   14.40000     -9.9000363E-09
   14.46000     -1.0439267E-08
   14.52000     -1.0926301E-08
   14.58000     -1.1351239E-08
   14.64000     -1.1708335E-08
   14.70000     -1.1995951E-08
   14.76000     -1.2216042E-08
   14.82000     -1.2373635E-08
   14.88000     -1.2476459E-08
   14.94000     -1.2534551E-08
   15.00000     -1.2559350E-08
   15.06000     -1.2561974E-08
   15.12000     -1.2550909E-08
   15.18000     -1.2529765E-08
   15.24000     -1.2496039E-08
   15.30000     -1.2441427E-08
   15.36000     -1.2353682E-08
   15.42000     -1.2219333E-08
   15.48000     -1.2026411E-08
   15.54000     -1.1766454E-08
   15.60000     -1.1435564E-08
   15.66000     -1.1034690E-08
   15.72000     -1.0569456E-08
   15.78000     -1.0049771E-08
   15.84000     -9.4892210E-09
   15.90000     -8.9042107E-09
   15.96000     -8.3128580E-09
   16.02000     -7.7337994E-09
   16.08000     -7.1851334E-09
   16.14000     -6.6835555E-09
   16.20000     -6.2436039E-09
   16.26000     -5.8768124E-09
   16.32000     -5.5907043E-09
   16.38000     -5.3878275E-09
   16.44000     -5.2652518E-09
   16.50000     -5.2148743E-09
   16.56000     -5.2245555E-09
   16.62000     -5.2796691E-09
   16.68000     -5.3644480E-09
   16.74000     -5.4626534E-09
   16.80000     -5.5575993E-09
   16.86000     -5.6320144E-09
   16.92000     -5.6684129E-09
   16.98000     -5.6503247E-09
   17.04000     -5.5642078E-09
   17.10000     -5.4013483E-09
   17.16000     -5.1589781E-09
   17.22000     -4.8401638E-09
   17.28000     -4.4525810E-09
   17.34000     -4.0067198E-09
   17.40000     -3.5141554E-09
   17.46000     -2.9862948E-09
   17.52000     -2.4336890E-09
   17.58000     -1.8658151E-09
   17.64000     -1.2912315E-09
   17.70000     -7.1808709E-10
   17.76000     -1.5490843E-10
   17.82000      3.8864087E-10
   17.88000      9.0157953E-10
   17.94000      1.3725561E-09
   18.00000      1.7920589E-09
   18.06000      2.1553190E-09
   18.12000      2.4647266E-09
   18.18000      2.7304992E-09
   18.24000      2.9689342E-09
   18.30000      3.1986378E-09
   18.36000      3.4360630E-09
   18.42000      3.6920405E-09
   18.48000      3.9704857E-09
   18.54000      4.2694359E-09
   18.60000      4.5835566E-09
   18.66000      4.9067785E-09
   18.72000      5.2339817E-09
   18.78000      5.5613665E-09
   18.84000      5.8858802E-09
   18.90000      6.2044045E-09
   18.96000      6.5132664E-09
   19.02000      6.8082726E-09
   19.08000      7.0851600E-09
   19.14000      7.3403261E-09
   19.20000      7.5718267E-09
   19.26000      7.7806703E-09
   19.32000      7.9722575E-09
   19.38000      8.1574054E-09
   19.44000      8.3521536E-09
   19.50000      8.5756859E-09
   19.56000      8.8463707E-09
   19.62000      9.1767562E-09
   19.68000      9.5690833E-09
   19.74000      1.0012844E-08
   19.80000      1.0485302E-08
   19.86000      1.0954797E-08
   19.92000      1.1385774E-08
   19.98000      1.1743999E-08
   20.04000      1.2000732E-08
   20.10000      1.2135187E-08
   20.16000      1.2135313E-08
   20.22000      1.1997344E-08
   20.28000      1.1724644E-08
   20.34000      1.1326295E-08
   20.40000      1.0815713E-08
   20.46000      1.0209537E-08
   20.52000      9.5269144E-09
   20.58000      8.7891854E-09
   20.64000      8.0197076E-09
   20.70000      7.2433508E-09
   20.76000      6.4851919E-09
   20.82000      5.7681886E-09
   20.88000      5.1100755E-09
   20.94000      4.5202193E-09
   21.00000      3.9974126E-09
   21.06000      3.5295056E-09
   21.12000      3.0953622E-09
   21.18000      2.6690055E-09
   21.24000      2.2251865E-09
   21.30000      1.7450779E-09
   21.36000      1.2205577E-09
   21.42000      6.5570505E-10
   21.48000      6.4793039E-11
   21.54000     -5.3286653E-10
   21.60000     -1.1196903E-09
   21.66000     -1.6858869E-09
   21.72000     -2.2325746E-09
   21.78000     -2.7707749E-09
   21.84000     -3.3168015E-09
   21.90000     -3.8861212E-09
   21.96000     -4.4883954E-09
   22.02000     -5.1257398E-09
   22.08000     -5.7945924E-09
   22.14000     -6.4897887E-09
   22.20000     -7.2084698E-09
   22.26000     -7.9517513E-09
   22.32000     -8.7234211E-09
   22.38000     -9.5265085E-09
   22.44000     -1.0359512E-08
   22.50000     -1.1213990E-08
   22.56000     -1.2074287E-08
   22.62000     -1.2919105E-08
   22.68000     -1.3723994E-08
   22.74000     -1.4463915E-08
   22.80000     -1.5115459E-08
   22.86000     -1.5658777E-08
   22.92000     -1.6079337E-08
   22.98000     -1.6369357E-08
   23.04000     -1.6528562E-08
   23.10000     -1.6563856E-08
   23.16000     -1.6487954E-08
   23.22000     -1.6317260E-08
   23.28000     -1.6069617E-08
   23.34000     -1.5762337E-08
   23.40000     -1.5410656E-08
   23.46000     -1.5026590E-08
   23.52000     -1.4618252E-08
   23.58000     -1.4189974E-08
   23.64000     -1.3743479E-08
   23.70000     -1.3280114E-08
   23.76000     -1.2803450E-08
   23.82000     -1.2321109E-08
   23.88000     -1.1844724E-08
   23.94000     -1.1387722E-08
   24.00000     -1.0961661E-08
   24.06000     -1.0572705E-08
   24.12000     -1.0219797E-08
   24.18000     -9.8953734E-09
   24.24000     -9.5882422E-09
   24.30000     -9.2873718E-09
   24.36000     -8.9850314E-09
   24.42000     -8.6782075E-09
   24.48000     -8.3679383E-09
   24.54000     -8.0569986E-09
   24.60000     -7.7467650E-09
   24.66000     -7.4342958E-09
   24.72000     -7.1106094E-09
   24.78000     -6.7609727E-09
   24.84000     -6.3675136E-09
   24.90000     -5.9136647E-09
   24.96000     -5.3890634E-09
   25.02000     -4.7929753E-09
   25.08000     -4.1346162E-09
   25.14000     -3.4299512E-09
   25.20000     -2.6961888E-09
   25.26000     -1.9463966E-09
   25.32000     -1.1867208E-09
   25.38000     -4.1747006E-10
   25.44000      3.6253689E-10
   25.50000      1.1504616E-09
   25.56000      1.9352204E-09
   25.62000      2.6961222E-09
   25.68000      3.4044843E-09
   25.74000      4.0271906E-09
   25.80000      4.5307980E-09
   25.86000      4.8852002E-09
   25.92000      5.0664424E-09
   25.98000      5.0585296E-09
   26.04000      4.8539799E-09
   26.10000      4.4527653E-09
   26.16000      3.8596024E-09
   26.22000      3.0803207E-09
   26.28000      2.1187918E-09
   26.34000      9.7595199E-10
   26.40000     -3.4846812E-10
   26.46000     -1.8523533E-09
   26.52000     -3.5277374E-09
   26.58000     -5.3594356E-09
   26.64000     -7.3265203E-09
   26.70000     -9.4056904E-09
   26.76000     -1.1574507E-08
   26.82000     -1.3812731E-08
   26.88000     -1.6101376E-08
   26.94000     -1.8420618E-08
   27.00000     -2.0748351E-08
   27.06000     -2.3060538E-08
   27.12000     -2.5333007E-08
   27.18000     -2.7543326E-08
   27.24000     -2.9671263E-08
   27.30000     -3.1697539E-08
   27.36000     -3.3601822E-08
   27.42000     -3.5361655E-08
   27.48000     -3.6953288E-08
   27.54000     -3.8354106E-08
   27.60000     -3.9545107E-08
   27.66000     -4.0511903E-08
   27.72000     -4.1243688E-08
   27.78000     -4.1731102E-08
   27.84000     -4.1964721E-08
   27.90000     -4.1935333E-08
   27.96000     -4.1636017E-08
   28.02000     -4.1064567E-08
   28.08000     -4.0224617E-08
   28.14000     -3.9124551E-08
   28.20000     -3.7774701E-08
   28.26000     -3.6184417E-08
   28.32000     -3.4360589E-08
   28.38000     -3.2308321E-08
   28.44000     -3.0033096E-08
   28.50000     -2.7543251E-08
   28.56000     -2.4851490E-08
   28.62000     -2.1975037E-08
   28.68000     -1.8934760E-08
   28.74000     -1.5753935E-08
   28.80000     -1.2457187E-08
   28.86000     -9.0696641E-09
   28.92000     -5.6163829E-09
   28.98000     -2.1216784E-09
   29.04000      1.3910597E-09
   29.10000      4.8991349E-09
   29.16000      8.3797644E-09
   29.22000      1.1809121E-08
   29.28000      1.5161760E-08
   29.34000      1.8410857E-08
   29.40000      2.1529333E-08
   29.46000      2.4491522E-08
   29.52000      2.7274952E-08
   29.58000      2.9861845E-08
   29.64000      3.2240134E-08
   29.70000      3.4403815E-08
   29.76000      3.6352272E-08
   29.82000      3.8088260E-08
   29.88000      3.9614424E-08
   29.94000      4.0929056E-08
   30.00000      4.2022531E-08
   30.06000      4.2876113E-08
   30.12000      4.3464272E-08
   30.18000      4.3760345E-08
   30.24000      4.3743821E-08
   30.30000      4.3406587E-08
   30.36000      4.2755662E-08
   30.42000      4.1811351E-08
   30.48000      4.0601453E-08
   30.54000      3.9153772E-08
   30.60000      3.7489688E-08
   30.66000      3.5621078E-08
   30.72000      3.3551412E-08
   30.78000      3.1280472E-08
   30.84000      2.8810778E-08
   30.90000      2.6153474E-08
   30.96000      2.3331577E-08
   31.02000      2.0379472E-08
   31.08000      1.7338802E-08
   31.14000      1.4252017E-08
   31.20000      1.1155679E-08
   31.26000      8.0757223E-09
   31.32000      5.0262030E-09
   31.38000      2.0120046E-09
   31.44000     -9.6532460E-10
   31.50000     -3.9004053E-09
   31.56000     -6.7777965E-09
   31.62000     -9.5687849E-09
   31.68000     -1.2232533E-08
   31.74000     -1.4721738E-08
   31.80000     -1.6991589E-08
   31.86000     -1.9009549E-08
   31.92000     -2.0762785E-08
   31.98000     -2.2260384E-08
   32.04000     -2.3528974E-08
   32.10000     -2.4602665E-08
   32.16000     -2.5510502E-08
   32.22000     -2.6266028E-08
   32.28000     -2.6862931E-08
   32.34000     -2.7278656E-08
   32.40000     -2.7484605E-08
   32.46000     -2.7459105E-08
   32.52000     -2.7198212E-08
   32.58000     -2.6720457E-08
   32.64000     -2.6064141E-08
   32.70000     -2.5278416E-08
   32.76000     -2.4411394E-08
   32.82000     -2.3499142E-08
   32.88000     -2.2558726E-08
   32.94000     -2.1587214E-08
   33.00000     -2.0566873E-08
   33.06000     -1.9475253E-08
   33.12000     -1.8297440E-08
   33.18000     -1.7036916E-08
   33.24000     -1.5721239E-08
   33.30000     -1.4400075E-08
   33.36000     -1.3135266E-08
   33.42000     -1.1985635E-08
   33.48000     -1.0991346E-08
   33.54000     -1.0163309E-08
   33.60000     -9.4814521E-09
   33.66000     -8.9026084E-09
   33.72000     -8.3752889E-09
   33.78000     -7.8562428E-09
   33.84000     -7.3233610E-09
   33.90000     -6.7809864E-09
   33.96000     -6.2564718E-09
   34.02000     -5.7896412E-09
   34.08000     -5.4189004E-09
   34.14000     -5.1685491E-09
   34.20000     -5.0413549E-09
   34.26000     -5.0187987E-09
   34.32000     -5.0690070E-09
   34.38000     -5.1598037E-09
   34.44000     -5.2723688E-09
   34.50000     -5.4104192E-09
   34.56000     -5.6010929E-09
   34.62000     -5.8865770E-09
   34.68000     -6.3089582E-09
   34.74000     -6.8934782E-09
   34.80000     -7.6361646E-09
   34.86000     -8.5003595E-09
   34.92000     -9.4235606E-09
   34.98000     -1.0332421E-08
   35.04000     -1.1161135E-08
   35.10000     -1.1867439E-08
   35.16000     -1.2441430E-08
   35.22000     -1.2904638E-08
   35.28000     -1.3299828E-08
   35.34000     -1.3674728E-08
   35.40000     -1.4064859E-08
   35.46000     -1.4481017E-08
   35.52000     -1.4905689E-08
   35.58000     -1.5299690E-08
   35.64000     -1.5616775E-08
   35.70000     -1.5820820E-08
   35.76000     -1.5899044E-08
   35.82000     -1.5866148E-08
   35.88000     -1.5757808E-08
   35.94000     -1.5616248E-08
   36.00000     -1.5473738E-08
   36.06000     -1.5340545E-08
   36.12000     -1.5201804E-08
   36.18000     -1.5024103E-08
   36.24000     -1.4768813E-08
   36.30000     -1.4407136E-08
   36.36000     -1.3931739E-08
   36.42000     -1.3361602E-08
   36.48000     -1.2739294E-08
   36.54000     -1.2122132E-08
   36.60000     -1.1570067E-08
   36.66000     -1.1133628E-08
   36.72000     -1.0844840E-08
   36.78000     -1.0713169E-08
   36.84000     -1.0727318E-08
   36.90000     -1.0862093E-08
   36.96000     -1.1088242E-08
   37.02000     -1.1382115E-08
   37.08000     -1.1732091E-08
   37.14000     -1.2139830E-08
   37.20000     -1.2616317E-08
   37.26000     -1.3174642E-08
   37.32000     -1.3822609E-08
   37.38000     -1.4558120E-08
   37.44000     -1.5368940E-08
   37.50000     -1.6236497E-08
   37.56000     -1.7141778E-08
   37.62000     -1.8070798E-08
   37.68000     -1.9017547E-08
   37.74000     -1.9983714E-08
   37.80000     -2.0975749E-08
   37.86000     -2.2000634E-08
   37.92000     -2.3061803E-08
   37.98000     -2.4156076E-08
   38.04000     -2.5271838E-08
   38.10000     -2.6388330E-08
   38.16000     -2.7476011E-08
   38.22000     -2.8498134E-08
   38.28000     -2.9413837E-08
   38.34000     -3.0182711E-08
   38.40000     -3.0770220E-08
   38.46000     -3.1152670E-08
   38.52000     -3.1320294E-08
   38.58000     -3.1277359E-08
   38.64000     -3.1039345E-08
   38.70000     -3.0627977E-08
   38.76000     -3.0065756E-08
   38.82000     -2.9371483E-08
   38.88000     -2.8557730E-08
   38.94000     -2.7630382E-08
   39.00000     -2.6589898E-08
   39.06000     -2.5433591E-08
   39.12000     -2.4158329E-08
   39.18000     -2.2763121E-08
   39.24000     -2.1251051E-08
   39.30000     -1.9630102E-08
   39.36000     -1.7912527E-08
   39.42000     -1.6112786E-08
   39.48000     -1.4244777E-08
   39.54000     -1.2319291E-08
   39.60000     -1.0342868E-08
   39.66000     -8.3186027E-09
   39.72000     -6.2487437E-09
   39.78000     -4.1381600E-09
   39.84000     -1.9973811E-09
   39.90000      1.5598592E-10
   39.96000      2.2981668E-09
   40.02000      4.4025139E-09
   40.08000      6.4445835E-09
   40.14000      8.4078371E-09
   40.20000      1.0288417E-08
   40.26000      1.2097376E-08
   40.32000      1.3859108E-08
   40.38000      1.5605790E-08
   40.44000      1.7368905E-08
   40.50000      1.9170274E-08
   40.56000      2.1015540E-08
   40.62000      2.2892468E-08
   40.68000      2.4774902E-08
   40.74000      2.6631147E-08
   40.80000      2.8433979E-08
   40.86000      3.0168874E-08
   40.92000      3.1837676E-08
   40.98000      3.3456381E-08
   41.04000      3.5047652E-08
   41.10000      3.6630219E-08
   41.16000      3.8208487E-08
   41.22000      3.9765823E-08
   41.28000      4.1264453E-08
   41.34000      4.2652989E-08
   41.40000      4.3880128E-08
   41.46000      4.4910539E-08
   41.52000      4.5737274E-08
   41.58000      4.6385654E-08
   41.64000      4.6906258E-08
   41.70000      4.7358721E-08
   41.76000      4.7792078E-08
   41.82000      4.8228912E-08
   41.88000      4.8659391E-08
   41.94000      4.9047127E-08
   42.00000      4.9344237E-08
   42.06000      4.9509485E-08
   42.12000      4.9522580E-08
   42.18000      4.9389886E-08
   42.24000      4.9140240E-08
   42.30000      4.8813188E-08
   42.36000      4.8444029E-08
   42.42000      4.8050701E-08
   42.48000      4.7626408E-08
   42.54000      4.7140308E-08
   42.60000      4.6546223E-08
   42.66000      4.5797165E-08
   42.72000      4.4861512E-08
   42.78000      4.3735600E-08
   42.84000      4.2448086E-08
   42.90000      4.1053880E-08
   42.96000      3.9619028E-08
   43.02000      3.8201520E-08
   43.08000      3.6834802E-08
   43.14000      3.5519893E-08
   43.20000      3.4228780E-08
   43.26000      3.2917388E-08
   43.32000      3.1543081E-08
   43.38000      3.0080280E-08
   43.44000      2.8529062E-08
   43.50000      2.6914487E-08
   43.56000      2.5277725E-08
   43.62000      2.3662544E-08
   43.68000      2.2101837E-08
   43.74000      2.0608496E-08
   43.80000      1.9173328E-08
   43.86000      1.7770457E-08
   43.92000      1.6368221E-08
   43.98000      1.4941724E-08
   44.04000      1.3482607E-08
   44.10000      1.2002547E-08
   44.16000      1.0529411E-08
   44.22000      9.0977759E-09
   44.28000      7.7376212E-09
   44.34000      6.4654011E-09
   44.40000      5.2803975E-09
   44.46000      4.1668811E-09
   44.52000      3.1004661E-09
   44.58000      2.0559403E-09
   44.64000      1.0140677E-09
   44.70000     -3.4134234E-11
   44.76000     -1.0860678E-09
   44.82000     -2.1289042E-09
   44.88000     -3.1430232E-09
   44.94000     -4.1067274E-09
   45.00000     -5.0010907E-09
   45.06000     -5.8135710E-09
   45.12000     -6.5391976E-09
   45.18000     -7.1789832E-09
   45.24000     -7.7363964E-09
   45.30000     -8.2136413E-09
   45.36000     -8.6095202E-09
   45.42000     -8.9197361E-09
   45.48000     -9.1390726E-09
   45.54000     -9.2639230E-09
   45.60000     -9.2936592E-09
   45.66000     -9.2302193E-09
   45.72000     -9.0765200E-09
   45.78000     -8.8349505E-09
   45.84000     -8.5069987E-09
   45.90000     -8.0941813E-09
   45.96000     -7.5995779E-09
   46.02000     -7.0289565E-09
   46.08000     -6.3908012E-09
   46.14000     -5.6952452E-09
   46.20000     -4.9524100E-09
   46.26000     -4.1708166E-09
   46.32000     -3.3564154E-09
   46.38000     -2.5125642E-09
   46.44000     -1.6411634E-09
   46.50000     -7.4490536E-10
   46.56000      1.6983884E-10
   46.62000      1.0905459E-09
   46.68000      1.9978559E-09
   46.74000      2.8676566E-09
   46.80000      3.6757453E-09
   46.86000      4.4034394E-09
   46.92000      5.0416533E-09
   46.98000      5.5914047E-09
   47.04000      6.0603709E-09
   47.10000      6.4571024E-09
   47.16000      6.7856996E-09
   47.22000      7.0433774E-09
   47.28000      7.2217112E-09
   47.34000      7.3104327E-09
   47.40000      7.3016082E-09
   47.46000      7.1923716E-09
   47.52000      6.9855779E-09
   47.58000      6.6889076E-09
   47.64000      6.3132819E-09
   47.70000      5.8709815E-09
   47.76000      5.3733067E-09
   47.82000      4.8276729E-09
   47.88000      4.2348360E-09
   47.94000      3.5878065E-09
   48.00000      2.8740084E-09
   48.06000      2.0809607E-09
   48.12000      1.2037319E-09
   48.18000      2.5090566E-10
   48.24000     -7.5408457E-10
   48.30000     -1.7774731E-09
   48.36000     -2.7839941E-09
   48.42000     -3.7464267E-09
   48.48000     -4.6519957E-09
   48.54000     -5.5033911E-09
   48.60000     -6.3146093E-09
   48.66000     -7.1037958E-09
   48.72000     -7.8859141E-09
   48.78000     -8.6674339E-09
   48.84000     -9.4441104E-09
   48.90000     -1.0201886E-08
   48.96000     -1.0920429E-08
   49.02000     -1.1578424E-08
   49.08000     -1.2159306E-08
   49.14000     -1.2655734E-08
   49.20000     -1.3071103E-08
   49.26000     -1.3417282E-08
   49.32000     -1.3709283E-08
   49.38000     -1.3959101E-08
   49.44000     -1.4171384E-08
   49.50000     -1.4342722E-08
   49.56000     -1.4464399E-08
   49.62000     -1.4526741E-08
   49.68000     -1.4522746E-08
   49.74000     -1.4449622E-08
   49.80000     -1.4308570E-08
   49.86000     -1.4104253E-08
   49.92000     -1.3845142E-08
   49.98000     -1.3544631E-08
   50.04000     -1.3221380E-08
   50.10000     -1.2897192E-08
   50.16000     -1.2592029E-08
   50.22000     -1.2317829E-08
   50.28000     -1.2074139E-08
   50.34000     -1.1848188E-08
   50.40000     -1.1619900E-08
   50.46000     -1.1369754E-08
   50.52000     -1.1085894E-08
   50.58000     -1.0767340E-08
   50.64000     -1.0422337E-08
   50.70000     -1.0063325E-08
   50.76000     -9.7013952E-09
   50.82000     -9.3427142E-09
   50.88000     -8.9878194E-09
   50.94000     -8.6330028E-09
   51.00000     -8.2723046E-09
   51.06000     -7.8990547E-09
   51.12000     -7.5068698E-09
   51.18000     -7.0906507E-09
   51.24000     -6.6479156E-09
   51.30000     -6.1801071E-09
   51.36000     -5.6929492E-09
   51.42000     -5.1951110E-09
   51.48000     -4.6952477E-09
   51.54000     -4.1984634E-09
   51.60000     -3.7035515E-09
   51.66000     -3.2019190E-09
   51.72000     -2.6781461E-09
   51.78000     -2.1114639E-09
   51.84000     -1.4773226E-09
   51.90000     -7.4872408E-10
   51.96000      1.0253443E-10
   52.02000      1.1045079E-09
   52.08000      2.2838693E-09
   52.14000      3.6654981E-09
   52.20000      5.2735820E-09
   52.26000      7.1342656E-09
   52.32000      9.2789643E-09
   52.38000      1.1746920E-08
   52.44000      1.4585936E-08
   52.50000      1.7851036E-08
   52.56000      2.1601776E-08
   52.62000      2.5899167E-08
   52.68000      3.0802873E-08
   52.74000      3.6368746E-08
   52.80000      4.2646686E-08
   52.86000      4.9679223E-08
   52.92000      5.7501715E-08
   52.98000      6.6144729E-08
   53.04000      7.5638184E-08
   53.10000      8.6015014E-08
   53.16000      9.7311570E-08
   53.22000      1.0956278E-07
   53.28000      1.2279270E-07
   53.34000      1.3700381E-07
   53.40000      1.5216943E-07
   53.46000      1.6823262E-07
   53.52000      1.8511155E-07
   53.58000      2.0270829E-07
   53.64000      2.2091658E-07
   53.70000      2.3962508E-07
   53.76000      2.5871626E-07
   53.82000      2.7806215E-07
   53.88000      2.9752019E-07
   53.94000      3.1693028E-07
   54.00000      3.3611317E-07
   54.06000      3.5486840E-07
   54.12000      3.7297235E-07
   54.18000      3.9017684E-07
   54.24000      4.0621015E-07
   54.30000      4.2078193E-07
   54.36000      4.3359091E-07
   54.42000      4.4433256E-07
   54.48000      4.5270485E-07
   54.54000      4.5841054E-07
   54.60000      4.6115704E-07
   54.66000      4.6065685E-07
   54.72000      4.5663009E-07
   54.78000      4.4880932E-07
   54.84000      4.3694504E-07
   54.90000      4.2081092E-07
   54.96000      4.0020711E-07
   55.02000      3.7496315E-07
   55.08000      3.4494104E-07
   55.14000      3.1003893E-07
   55.20000      2.7019499E-07
   55.26000      2.2539034E-07
   55.32000      1.7564993E-07
   55.38000      1.2104290E-07
   55.44000      6.1682712E-08
   55.50000     -2.2723972E-09
   55.56000     -7.0619450E-08