  -2.400000      0.0000000E+00
  -2.340000      0.0000000E+00
  -2.280000      0.0000000E+00
  -2.220000      0.0000000E+00
  -2.160000      0.0000000E+00
  -2.100000      0.0000000E+00
  -2.040000      0.0000000E+00
  -1.980000      0.0000000E+00
  -1.920000      0.0000000E+00
  -1.860000      0.0000000E+00
  -1.800000      0.0000000E+00
  -1.740000      5.0518468E-33
  -1.680000      1.4093749E-31
  -1.620000      1.4836147E-30
  -1.560000      8.7495133E-30
  -1.500000      3.2068181E-29
  -1.440000      6.6537672E-29
  -1.380000      7.8644063E-32
  -1.320000     -5.6097375E-28
  -1.260000     -2.2825453E-27
  -1.200000     -5.0845683E-27
  -1.140000     -5.1123452E-27
  -1.080000      9.3069956E-27
  -1.020000      5.5925998E-26
 -0.9600000      1.3741217E-25
 -0.9000000      1.9117033E-25
 -0.8400000      3.3511412E-26
 -0.7800000     -6.1370381E-25
 -0.7200000     -1.8761970E-24
 -0.6600000     -3.1985912E-24
 -0.6000000     -2.7840623E-24
 -0.5400000      2.2576820E-24
 -0.4800000      1.4046342E-23
 -0.4200000      2.9991258E-23
 -0.3600000      3.8461551E-23
 -0.3000000      1.8576442E-23
 -0.2400000     -5.0100670E-23
 -0.1800000     -1.6579154E-22
 -0.1200000     -2.7865594E-22
 -5.9999999E-02 -2.8200735E-22
  0.0000000E+00 -4.7419133E-23
  5.9999999E-02  4.8428668E-22
  0.1200000      1.1844905E-21
  0.1800000      1.6694897E-21
  0.2400000      1.3859265E-21
  0.3000000     -9.8233018E-23
  0.3600000     -2.6765890E-21
  0.4200000     -5.4029366E-21
  0.4800000     -6.6209435E-21
  0.5400000     -4.6999130E-21
  0.6000000      8.2554801E-22
  0.6600000      8.3608686E-21
  0.7200000      1.4430746E-20
  0.7800000      1.5353847E-20
  0.8400000      9.8269339E-21
  0.9000000      7.2553090E-22
  0.9600000     -5.8731419E-21
   1.020000     -5.1647538E-21
   1.080000      4.2123499E-22
   1.140000     -1.5032859E-21
   1.200000     -2.7769823E-20
   1.260000     -8.4898723E-20
   1.320000     -1.5174920E-19
   1.380000     -1.7332226E-19
   1.440000     -7.9632781E-20
   1.500000      1.6782697E-19
   1.560000      5.2041774E-19
   1.620000      8.1522263E-19
   1.680000      8.1561885E-19
   1.740000      3.3057534E-19
   1.800000     -6.2890103E-19
   1.860000     -1.7477873E-18
   1.920000     -2.4592115E-18
   1.980000     -2.1888973E-18
   2.040000     -7.1068737E-19
   2.100000      1.5834699E-18
   2.160000      3.7187828E-18
   2.220000      4.5692493E-18
   2.280000      3.5257949E-18
   2.340000      1.0044152E-18
   2.400000     -1.6367920E-18
   2.460000     -2.9195580E-18
   2.520000     -2.4327520E-18
   2.580000     -1.5539695E-18
   2.640000     -2.8721072E-18
   2.700000     -8.1459746E-18
   2.760000     -1.5764489E-17
   2.820000     -1.9601002E-17
   2.880000     -1.1057865E-17
   2.940000      1.5443381E-17
   3.000000      5.5782797E-17
   3.060000      9.2606906E-17
   3.120000      9.9200786E-17
   3.180000      5.1909362E-17
   3.240000     -5.3052532E-17
   3.300000     -1.8731197E-16
   3.360000     -2.9227401E-16
   3.420000     -2.9981324E-16
   3.480000     -1.6635019E-16
   3.540000      9.4963888E-17
   3.600000      4.0293307E-16
   3.660000      6.3022936E-16
   3.720000      6.5515621E-16
   3.780000      4.2222599E-16
   3.840000     -1.8948784E-17
   3.900000     -5.2083463E-16
   3.960000     -8.9444233E-16
   4.020000     -9.9182328E-16
   4.080000     -7.7426350E-16
   4.140000     -3.2957210E-16
   4.200000      1.7304441E-16
   4.260000      5.6786396E-16
   4.320000      7.7081375E-16
   4.380000      8.0633640E-16
   4.440000      7.6725578E-16
   4.500000      7.3249091E-16
   4.560000      6.9556424E-16
   4.620000      5.5382614E-16
   4.680000      1.7331608E-16
   4.740000     -5.0360577E-16
   4.800000     -1.3724037E-15
   4.860000     -2.1613361E-15
   4.920000     -2.5242488E-15
   4.980000     -2.1929586E-15
   5.040000     -1.1150955E-15
   5.100000      4.9171771E-16
   5.160000      2.1958139E-15
   5.220000      3.4899301E-15
   5.280000      3.9509593E-15
   5.340000      3.3634020E-15
   5.400000      1.7801967E-15
   5.460000     -4.7384648E-16
   5.520000     -2.8430136E-15
   5.580000     -4.6296627E-15
   5.640000     -5.1509662E-15
   5.700000     -3.9677403E-15
   5.760000     -1.1340519E-15
   5.820000      2.6495080E-15
   5.880000      6.1157265E-15
   5.940000      7.8101893E-15
   6.000000      6.6847459E-15
   6.060000      2.6601466E-15
   6.120000     -3.1481100E-15
   6.180000     -8.7378902E-15
   6.240000     -1.2003177E-14
   6.300000     -1.1653222E-14
   6.360000     -7.7983054E-15
   6.420000     -1.8595154E-15
   6.480000      4.1860707E-15
   6.540000      8.8165144E-15
   6.600000      1.1629317E-14
   6.660000      1.3221137E-14
   6.720000      1.4322089E-14
   6.780000      1.4751119E-14
   6.840000      1.2992774E-14
   6.900000      6.9204447E-15
   6.960000     -4.5153853E-15
   7.020000     -1.9574433E-14
   7.080000     -3.3246087E-14
   7.140000     -3.8814567E-14
   7.200000     -3.1181468E-14
   7.260000     -1.0437486E-14
   7.320000      1.6429690E-14
   7.380000      3.7277812E-14
   7.440000      3.9987121E-14
   7.500000      1.9079444E-14
   7.560000     -1.9508729E-14
   7.620000     -5.8535736E-14
   7.680000     -7.5530077E-14
   7.740000     -5.3008714E-14
   7.800000      1.1465998E-14
   7.860000      1.0040075E-13
   7.920000      1.7998556E-13
   7.980000      2.1199064E-13
   8.040000      1.6982384E-13
   8.100000      5.2181092E-14
   8.160000     -1.1198974E-13
   8.220000     -2.7038557E-13
   8.280000     -3.6454851E-13
   8.340000     -3.5142405E-13
   8.400000     -2.2116673E-13
   8.460000     -4.1045463E-15
   8.520000      2.3635854E-13
   8.580000      4.2291829E-13
   8.640000      4.8912128E-13
   8.700000      4.0109455E-13
   8.760000      1.6878920E-13
   8.820000     -1.5680386E-13
   8.880000     -4.9875186E-13
   8.940000     -7.7531736E-13
   9.000000     -9.1879293E-13
   9.060000     -8.8509278E-13
   9.120000     -6.5170010E-13
   9.180000     -2.0759917E-13
   9.240000      4.5615719E-13
   9.300000      1.3450286E-12
   9.360000      2.4417606E-12
   9.420000      3.6699749E-12
   9.480000      4.8506121E-12
   9.540000      5.6687511E-12
   9.600000      5.6703730E-12
   9.660000      4.3033814E-12
   9.720000      1.0055983E-12
   9.780000     -4.6719369E-12
   9.840000     -1.2930388E-11
   9.900000     -2.3607288E-11
   9.960000     -3.6107239E-11
   10.02000     -4.9397698E-11
   10.08000     -6.2075824E-11
   10.14000     -7.2500728E-11
   10.20000     -7.8978199E-11
   10.26000     -7.9982319E-11
   10.32000     -7.4398494E-11
   10.38000     -6.1772427E-11
   10.44000     -4.2545953E-11
   10.50000     -1.8254618E-11
   10.56000      8.3459715E-12
   10.62000      3.3261609E-11
   10.68000      5.1381899E-11
   10.74000      5.6763389E-11
   10.80000      4.3071248E-11
   10.86000      4.1510493E-12
   10.92000     -6.5323122E-11
   10.98000     -1.6919643E-10
   11.04000     -3.0925865E-10
   11.10000     -4.8482668E-10
   11.16000     -6.9255257E-10
   11.22000     -9.2650476E-10
   11.28000     -1.1785414E-09
   11.34000     -1.4389586E-09
   11.40000     -1.6973559E-09
   11.46000     -1.9436210E-09
   11.52000     -2.1689088E-09
   11.58000     -2.3664799E-09
   11.64000     -2.5322866E-09
   11.70000     -2.6652416E-09
   11.76000     -2.7671645E-09
   11.82000     -2.8424576E-09
   11.88000     -2.8975999E-09
   11.94000     -2.9405378E-09
   12.00000     -2.9800313E-09
   12.06000     -3.0249596E-09
   12.12000     -3.0835741E-09
   12.18000     -3.1626870E-09
   12.24000     -3.2668352E-09
   12.30000     -3.3975263E-09
   12.36000     -3.5527195E-09
   12.42000     -3.7267065E-09
   12.48000     -3.9104937E-09
   12.54000     -4.0926715E-09
   12.60000     -4.2606252E-09
   12.66000     -4.4018416E-09
   12.72000     -4.5050519E-09
   12.78000     -4.5609858E-09
   12.84000     -4.5626858E-09
   12.90000     -4.5054396E-09
   12.96000     -4.3865431E-09
   13.02000     -4.2051078E-09
   13.08000     -3.9620804E-09
   13.14000     -3.6605055E-09
   13.20000     -3.3059102E-09
   13.26000     -2.9066067E-09
   13.32000     -2.4736750E-09
   13.38000     -2.0204991E-09
   13.44000     -1.5618611E-09
   13.50000     -1.1127608E-09
   13.56000     -6.8721290E-10
   13.62000     -2.9727396E-10
   13.68000      4.7544708E-11
   13.74000      3.4047065E-10
   13.80000      5.7738708E-10
   13.86000      7.5664786E-10
   13.92000      8.7892460E-10
   13.98000      9.4710984E-10
   14.04000      9.6617681E-10
   14.10000      9.4283215E-10
   14.16000      8.8482854E-10
   14.22000      7.9993756E-10
   14.28000      6.9475603E-10
   14.34000      5.7366106E-10
   14.40000      4.3826209E-10
   14.46000      2.8759536E-10
   14.52000      1.1909021E-10
   14.58000     -6.9908392E-11
   14.64000     -2.8046518E-10
   14.70000     -5.1068277E-10
   14.76000     -7.5498430E-10
   14.82000     -1.0041861E-09
   14.88000     -1.2462515E-09
   14.94000     -1.4674465E-09
   15.00000     -1.6535686E-09
   15.06000     -1.7910126E-09
   15.12000     -1.8676001E-09
   15.18000     -1.8732511E-09
   15.24000     -1.8006406E-09
   15.30000     -1.6459335E-09
   15.36000     -1.4095484E-09
   15.42000     -1.0967626E-09
   15.48000     -7.1789918E-10
   15.54000     -2.8790090E-10
   15.60000      1.7473653E-10
   15.66000      6.4948885E-10
   15.72000      1.1154522E-09
   15.78000      1.5527639E-09
   15.84000      1.9435631E-09
   15.90000      2.2724740E-09
   15.96000      2.5267868E-09
   16.02000      2.6966183E-09
   16.08000      2.7752602E-09
   16.14000      2.7597575E-09
   16.20000      2.6515348E-09
   16.26000      2.4567448E-09
   16.32000      2.1860309E-09
   16.38000      1.8535494E-09
   16.44000      1.4753835E-09
   16.50000      1.0677175E-09
   16.56000      6.4526584E-10
   16.62000      2.2037738E-10
   16.68000     -1.9700133E-10
   16.74000     -5.9863731E-10
   16.80000     -9.7699149E-10
   16.86000     -1.3243630E-09
   16.92000     -1.6325959E-09
   16.98000     -1.8934891E-09
   17.04000     -2.0997470E-09
   17.10000     -2.2460769E-09
   17.16000     -2.3299644E-09
   17.22000     -2.3517748E-09
   17.28000     -2.3140712E-09
   17.34000     -2.2203426E-09
   17.40000     -2.0735722E-09
   17.46000     -1.8751862E-09
   17.52000     -1.6248395E-09
   17.58000     -1.3212660E-09
   17.64000     -9.6405206E-10
   17.70000     -5.5583399E-10
   17.76000     -1.0417373E-10
   17.82000      3.7763204E-10
   17.88000      8.7128232E-10
   17.94000      1.3557033E-09
   18.00000      1.8101842E-09
   18.06000      2.2174380E-09
   18.12000      2.5655862E-09
   18.18000      2.8484672E-09
   18.24000      3.0643397E-09
   18.30000      3.2137144E-09
   18.36000      3.2974012E-09
   18.42000      3.3157217E-09
   18.48000      3.2692586E-09
   18.54000      3.1607572E-09
   18.60000      2.9972020E-09
   18.66000      2.7909470E-09
   18.72000      2.5591191E-09
   18.78000      2.3212261E-09
   18.84000      2.0956175E-09
   18.90000      1.8959168E-09
   18.96000      1.7285704E-09
   19.02000      1.5922690E-09
   19.08000      1.4793706E-09
   19.14000      1.3788088E-09
   19.20000      1.2795255E-09
   19.26000      1.1733298E-09
   19.32000      1.0562996E-09
   19.38000      9.2833030E-10
   19.44000      7.9107521E-10
   19.50000      6.4511996E-10
   19.56000      4.8758630E-10
   19.62000      3.1130279E-10
   19.68000      1.0618244E-10
   19.74000     -1.3736992E-10
   19.80000     -4.2404252E-10
   19.86000     -7.4975154E-10
   19.92000     -1.0998599E-09
   19.98000     -1.4503825E-09
   20.04000     -1.7720619E-09
   20.10000     -2.0361590E-09
   20.16000     -2.2201594E-09
   20.22000     -2.3116036E-09
   20.28000     -2.3089108E-09
   20.34000     -2.2191295E-09
   20.40000     -2.0536293E-09
   20.46000     -1.8234263E-09
   20.52000     -1.5358795E-09
   20.58000     -1.1938778E-09
   20.64000     -7.9762019E-10
   20.70000     -3.4804110E-10
   20.76000      1.4972319E-10
   20.82000      6.8443856E-10
   20.88000      1.2394057E-09
   20.94000      1.7955283E-09
   21.00000      2.3357023E-09
   21.06000      2.8488409E-09
   21.12000      3.3319678E-09
   21.18000      3.7895456E-09
   21.24000      4.2302521E-09
   21.30000      4.6623372E-09
   21.36000      5.0891336E-09
   21.42000      5.5061595E-09
   21.48000      5.9006240E-09
   21.54000      6.2533552E-09
   21.60000      6.5424417E-09
   21.66000      6.7474986E-09
   21.72000      6.8533721E-09
   21.78000      6.8523760E-09
   21.84000      6.7445924E-09
   21.90000      6.5363781E-09
   21.96000      6.2377241E-09
   22.02000      5.8595275E-09
   22.08000      5.4118310E-09
   22.14000      4.9037370E-09
   22.20000      4.3449808E-09
   22.26000      3.7484105E-09
   22.32000      3.1321143E-09
   22.38000      2.5199851E-09
   22.44000      1.9400930E-09
   22.50000      1.4211565E-09
   22.56000      9.8822495E-10
   22.62000      6.5904621E-10
   22.68000      4.4233919E-10
   22.74000      3.3842548E-10
   22.80000      3.4176656E-10
   22.86000      4.4427620E-10
   22.92000      6.3808803E-10
   22.98000      9.1677943E-10
   23.04000      1.2747235E-09
   23.10000      1.7049643E-09
   23.16000      2.1965538E-09
   23.22000      2.7324762E-09
   23.28000      3.2890850E-09
   23.34000      3.8374655E-09
   23.40000      4.3464734E-09
   23.46000      4.7865973E-09
   23.52000      5.1334843E-09
   23.58000      5.3700648E-09
   23.64000      5.4867515E-09
   23.70000      5.4799392E-09
   23.76000      5.3497140E-09
   23.82000      5.0979687E-09
   23.88000      4.7278892E-09
   23.94000      4.2450723E-09
   24.00000      3.6597168E-09
   24.06000      2.9887230E-09
   24.12000      2.2564803E-09
   24.18000      1.4935876E-09
   24.24000      7.3358591E-10
   24.30000      8.5700353E-12
   24.36000     -6.5501826E-10
   24.42000     -1.2392007E-09
   24.48000     -1.7352221E-09
   24.54000     -2.1423681E-09
   24.60000     -2.4656104E-09
   24.66000     -2.7131433E-09
   24.72000     -2.8947282E-09
   24.78000     -3.0212437E-09
   24.84000     -3.1052190E-09
   24.90000     -3.1616445E-09
   24.96000     -3.2082321E-09
   25.02000     -3.2645768E-09
   25.08000     -3.3502043E-09
   25.14000     -3.4820429E-09
   25.20000     -3.6721584E-09
   25.26000     -3.9265098E-09
   25.32000     -4.2450568E-09
   25.38000     -4.6229958E-09
   25.44000     -5.0524638E-09
   25.50000     -5.5239604E-09
   25.56000     -6.0269731E-09
   25.62000     -6.5497701E-09
   25.68000     -7.0787682E-09
   25.74000     -7.5981106E-09
   25.80000     -8.0900051E-09
   25.86000     -8.5360385E-09
   25.92000     -8.9192298E-09
   25.98000     -9.2262589E-09
   26.04000     -9.4491428E-09
   26.10000     -9.5857775E-09
   26.16000     -9.6391233E-09
   26.22000     -9.6152615E-09
   26.28000     -9.5209582E-09
   26.34000     -9.3616137E-09
   26.40000     -9.1403454E-09
   26.46000     -8.8585930E-09
   26.52000     -8.5180227E-09
   26.58000     -8.1229574E-09
   26.64000     -7.6822610E-09
   26.70000     -7.2097333E-09
   26.76000     -6.7226145E-09
   26.82000     -6.2385537E-09
   26.88000     -5.7720690E-09
   26.94000     -5.3317777E-09
   27.00000     -4.9194355E-09
   27.06000     -4.5311226E-09
   27.12000     -4.1600727E-09
   27.18000     -3.8000283E-09
   27.24000     -3.4478715E-09
   27.30000     -3.1046656E-09
   27.36000     -2.7749987E-09
   27.42000     -2.4652091E-09
   27.48000     -2.1814874E-09
   27.54000     -1.9287061E-09
   27.60000     -1.7103499E-09
   27.66000     -1.5292861E-09
   27.72000     -1.3887367E-09
   27.78000     -1.2928021E-09
   27.84000     -1.2462463E-09
   27.90000     -1.2537014E-09
   27.96000     -1.3187215E-09
   28.02000     -1.4430854E-09
   28.08000     -1.6264645E-09
   28.14000     -1.8663022E-09
   28.20000     -2.1577007E-09
   28.26000     -2.4933235E-09
   28.32000     -2.8636229E-09
   28.38000     -3.2577918E-09
   28.44000     -3.6655616E-09
   28.50000     -4.0794044E-09
   28.56000     -4.4961967E-09
   28.62000     -4.9173399E-09
   28.68000     -5.3468940E-09
   28.74000     -5.7882334E-09
   28.80000     -6.2405929E-09
   28.86000     -6.6971113E-09
   28.92000     -7.1454034E-09
   28.98000     -7.5705451E-09
   29.04000     -7.9592235E-09
   29.10000     -8.3032807E-09
   29.16000     -8.6012033E-09
   29.22000     -8.8571168E-09
   29.28000     -9.0779189E-09
   29.34000     -9.2698693E-09
   29.40000     -9.4359693E-09
   29.46000     -9.5749106E-09
   29.52000     -9.6816439E-09
   29.58000     -9.7491499E-09
   29.64000     -9.7706749E-09
   29.70000     -9.7418242E-09
   29.76000     -9.6619157E-09
   29.82000     -9.5341637E-09
   29.88000     -9.3644514E-09
   29.94000     -9.1588328E-09
   30.00000     -8.9204573E-09
   30.06000     -8.6470573E-09
   30.12000     -8.3302005E-09
   30.18000     -7.9569915E-09
   30.24000     -7.5138828E-09
   30.30000     -6.9912689E-09
   30.36000     -6.3870469E-09
   30.42000     -5.7076610E-09
   30.48000     -4.9662185E-09
   30.54000     -4.1785255E-09
   30.60000     -3.3587417E-09
   30.66000     -2.5163815E-09
   30.72000     -1.6556541E-09
   30.78000     -7.7704182E-10
   30.84000      1.1987482E-10
   30.90000      1.0336477E-09
   30.96000      1.9592772E-09
   31.02000      2.8880238E-09
   31.08000      3.8085424E-09
   31.14000      4.7088133E-09
   31.20000      5.5782641E-09
   31.26000      6.4095493E-09
   31.32000      7.1995316E-09
   31.38000      7.9491267E-09
   31.44000      8.6618845E-09
   31.50000      9.3415284E-09
   31.56000      9.9891055E-09
   31.62000      1.0600758E-08
   31.68000      1.1167055E-08
   31.74000      1.1674404E-08
   31.80000      1.2108226E-08
   31.86000      1.2456844E-08
   31.92000      1.2714604E-08
   31.98000      1.2882996E-08
   32.04000      1.2969262E-08
   32.10000      1.2983018E-08
   32.16000      1.2932204E-08
   32.22000      1.2819967E-08
   32.28000      1.2643699E-08
   32.34000      1.2396598E-08
   32.40000      1.2071143E-08
   32.46000      1.1663166E-08
   32.52000      1.1174942E-08
   32.58000      1.0616199E-08
   32.64000      1.0002619E-08
   32.70000      9.3523571E-09
   32.76000      8.6817398E-09
   32.82000      8.0015869E-09
   32.88000      7.3153368E-09
   32.94000      6.6195707E-09
   33.00000      5.9067573E-09
   33.06000      5.1693125E-09
   33.12000      4.4036743E-09
   33.18000      3.6130556E-09
   33.24000      2.8079230E-09
   33.30000      2.0039459E-09
   33.36000      1.2179668E-09
   33.42000      4.6323428E-10
   33.48000     -2.5452115E-10
   33.54000     -9.3874775E-10
   33.60000     -1.6007158E-09
   33.66000     -2.2553914E-09
   33.72000     -2.9157898E-09
   33.78000     -3.5877048E-09
   33.84000     -4.2666946E-09
   33.90000     -4.9384972E-09
   33.96000     -5.5828453E-09
   34.02000     -6.1793961E-09
   34.08000     -6.7136652E-09
   34.14000     -7.1808146E-09
   34.20000     -7.5859248E-09
   34.26000     -7.9406846E-09
   34.32000     -8.2577811E-09
   34.38000     -8.5451344E-09
   34.44000     -8.8021341E-09
   34.50000     -9.0192964E-09
   34.56000     -9.1814387E-09
   34.62000     -9.2732169E-09
   34.68000     -9.2850438E-09
   34.74000     -9.2172954E-09
   34.80000     -9.0813872E-09
   34.86000     -8.8973744E-09
   34.92000     -8.6889118E-09
   34.98000     -8.4772616E-09
   35.04000     -8.2762783E-09
   35.10000     -8.0899980E-09
   35.16000     -7.9135196E-09
   35.22000     -7.7368485E-09
   35.28000     -7.5503159E-09
   35.34000     -7.3497093E-09
   35.40000     -7.1392501E-09
   35.46000     -6.9312995E-09
   35.52000     -6.7427677E-09
   35.58000     -6.5894241E-09
   35.64000     -6.4800791E-09
   35.70000     -6.4127588E-09
   35.76000     -6.3743149E-09
   35.82000     -6.3437051E-09
   35.88000     -6.2978387E-09
   35.94000     -6.2179524E-09
   36.00000     -6.0943184E-09
   36.06000     -5.9277343E-09
   36.12000     -5.7274563E-09
   36.18000     -5.5065223E-09
   36.24000     -5.2762976E-09
   36.30000     -5.0422275E-09
   36.36000     -4.8022408E-09
   36.42000     -4.5482347E-09
   36.48000     -4.2699861E-09
   36.54000     -3.9600692E-09
   36.60000     -3.6180943E-09
   36.66000     -3.2528360E-09
   36.72000     -2.8815039E-09
   36.78000     -2.5262306E-09
   36.84000     -2.2086923E-09
   36.90000     -1.9443707E-09
   36.96000     -1.7381779E-09
   37.02000     -1.5829352E-09
   37.08000     -1.4614325E-09
   37.14000     -1.3517255E-09
   37.20000     -1.2341880E-09
   37.26000     -1.0980675E-09
   37.32000     -9.4523456E-10
   37.38000     -7.8962503E-10
   37.44000     -6.5233896E-10
   37.50000     -5.5397853E-10
   37.56000     -5.0694182E-10
   37.62000     -5.1052856E-10
   37.68000     -5.5074750E-10
   37.74000     -6.0497379E-10
   37.80000     -6.4977085E-10
   37.86000     -6.6898015E-10
   37.92000     -6.5907851E-10
   37.98000     -6.2982070E-10
   38.04000     -5.9992766E-10
   38.10000     -5.8936933E-10
   38.16000     -6.1098765E-10
   38.22000     -6.6441203E-10
   38.28000     -7.3440526E-10
   38.34000     -7.9426321E-10
   38.40000     -8.1319751E-10
   38.46000     -7.6531825E-10
   38.52000     -6.3732036E-10
   38.58000     -4.3242612E-10
   38.64000     -1.6938474E-10
   38.70000      1.2302438E-10
   38.76000      4.1406875E-10
   38.82000      6.7900385E-10
   38.88000      9.0431240E-10
   38.94000      1.0887048E-09
   39.00000      1.2398724E-09
   39.06000      1.3684579E-09
   39.12000      1.4816196E-09
   39.18000      1.5786217E-09
   39.24000      1.6500953E-09
   39.30000      1.6812794E-09
   39.36000      1.6581264E-09
   39.42000      1.5740991E-09
   39.48000      1.4351695E-09
   39.54000      1.2610657E-09
   39.60000      1.0820641E-09
   39.66000      9.3219332E-10
   39.72000      8.4102819E-10
   39.78000      8.2681167E-10
   39.84000      8.9318436E-10
   39.90000      1.0304734E-09
   39.96000      1.2208213E-09
   40.02000      1.4451078E-09
   40.08000      1.6891522E-09
   40.14000      1.9472242E-09
   40.20000      2.2220965E-09
   40.26000      2.5221829E-09
   40.32000      2.8571692E-09
   40.38000      3.2337553E-09
   40.44000      3.6527830E-09
   40.50000      4.1084163E-09
   40.56000      4.5894692E-09
   40.62000      5.0824922E-09
   40.68000      5.5757976E-09
   40.74000      6.0632726E-09
   40.80000      6.5466641E-09
   40.86000      7.0352768E-09
   40.92000      7.5428321E-09
   40.98000      8.0823472E-09
   41.04000      8.6608711E-09
   41.10000      9.2761860E-09
   41.16000      9.9168629E-09
   41.22000      1.0565667E-08
   41.28000      1.1204855E-08
   41.34000      1.1821149E-08
   41.40000      1.2408545E-08
   41.46000      1.2968235E-08
   41.52000      1.3506307E-08
   41.58000      1.4030676E-08
   41.64000      1.4548618E-08
   41.70000      1.5065565E-08
   41.76000      1.5584963E-08
   41.82000      1.6108551E-08
   41.88000      1.6636530E-08
   41.94000      1.7167510E-08
   42.00000      1.7698490E-08
   42.06000      1.8225133E-08
   42.12000      1.8742385E-08
   42.18000      1.9245192E-08
   42.24000      1.9729033E-08
   42.30000      2.0190138E-08
   42.36000      2.0625494E-08
   42.42000      2.1032756E-08
   42.48000      2.1410116E-08
   42.54000      2.1756003E-08
   42.60000      2.2068525E-08
   42.66000      2.2344858E-08
   42.72000      2.2581068E-08
   42.78000      2.2772889E-08
   42.84000      2.2917607E-08
   42.90000      2.3016437E-08
   42.96000      2.3076248E-08
   43.02000      2.3109518E-08
   43.08000      2.3131999E-08
   43.14000      2.3158670E-08
   43.20000      2.3199432E-08
   43.26000      2.3256179E-08
   43.32000      2.3322375E-08
   43.38000      2.3385201E-08
   43.44000      2.3429411E-08
   43.50000      2.3441489E-08
   43.56000      2.3412795E-08
   43.62000      2.3340863E-08
   43.68000      2.3228630E-08
   43.74000      2.3081975E-08
   43.80000      2.2906374E-08
   43.86000      2.2703778E-08
   43.92000      2.2470921E-08
   43.98000      2.2199847E-08
   44.04000      2.1880703E-08
   44.10000      2.1505873E-08
   44.16000      2.1073721E-08
   44.22000      2.0590182E-08
   44.28000      2.0067219E-08
   44.34000      1.9518579E-08
   44.40000      1.8954607E-08
   44.46000      1.8378360E-08
   44.52000      1.7784750E-08
   44.58000      1.7163025E-08
   44.64000      1.6501414E-08
   44.70000      1.5791873E-08
   44.76000      1.5033025E-08
   44.82000      1.4230330E-08
   44.88000      1.3393805E-08
   44.94000      1.2534557E-08
   45.00000      1.1661637E-08
   45.06000      1.0780357E-08
   45.12000      9.8924930E-09
   45.18000      8.9980094E-09
   45.24000      8.0974560E-09
   45.30000      7.1940325E-09
   45.36000      6.2944809E-09
   45.42000      5.4084546E-09
   45.48000      4.5465960E-09
   45.54000      3.7181094E-09
   45.60000      2.9288549E-09
   45.66000      2.1807773E-09
   45.72000      1.4728793E-09
   45.78000      8.0320345E-10
   45.84000      1.7080928E-10
   45.90000     -4.2323511E-10
   45.96000     -9.7628317E-10
   46.02000     -1.4856381E-09
   46.08000     -1.9503075E-09
   46.14000     -2.3720410E-09
   46.20000     -2.7551121E-09
   46.26000     -3.1049339E-09
   46.32000     -3.4261043E-09
   46.38000     -3.7206589E-09
   46.44000     -3.9871804E-09
   46.50000     -4.2210835E-09
   46.56000     -4.4160395E-09
   46.62000     -4.5661559E-09
   46.68000     -4.6682431E-09
   46.74000     -4.7233297E-09
   46.80000     -4.7366648E-09
   46.86000     -4.7159099E-09
   46.92000     -4.6679940E-09
   46.98000     -4.5958752E-09
   47.04000     -4.4967896E-09
   47.10000     -4.3631196E-09
   47.16000     -4.1858734E-09
   47.22000     -3.9594537E-09
   47.28000     -3.6855838E-09
   47.34000     -3.3745120E-09
   47.40000     -3.0428315E-09
   47.46000     -2.7088571E-09
   47.52000     -2.3876061E-09
   47.58000     -2.0875262E-09
   47.64000     -1.8101197E-09
   47.70000     -1.5521964E-09
   47.76000     -1.3093621E-09
   47.82000     -1.0790838E-09
   47.88000     -8.6224217E-10
   47.94000     -6.6303302E-10
   48.00000     -4.8781990E-10
   48.06000     -3.4373457E-10
   48.12000     -2.3753075E-10
   48.18000     -1.7475686E-10
   48.24000     -1.5907334E-10
   48.30000     -1.9162333E-10
   48.36000     -2.7061497E-10
   48.42000     -3.9144166E-10
   48.48000     -5.4756222E-10
   48.54000     -7.3202916E-10
   48.60000     -9.3918506E-10
   48.66000     -1.1658708E-09
   48.72000     -1.4116219E-09
   48.78000     -1.6777135E-09
   48.84000     -1.9653899E-09
   48.90000     -2.2739703E-09
   48.96000     -2.5996207E-09
   49.02000     -2.9353515E-09
   49.08000     -3.2723322E-09
   49.14000     -3.6020373E-09
   49.20000     -3.9183266E-09
   49.26000     -4.2184913E-09
   49.32000     -4.5026973E-09
   49.38000     -4.7719233E-09
   49.44000     -5.0251909E-09
   49.50000     -5.2572000E-09
   49.56000     -5.4572706E-09
   49.62000     -5.6098508E-09
   49.68000     -5.6961507E-09
   49.74000     -5.6960738E-09
   49.80000     -5.5897234E-09
   49.86000     -5.3581939E-09
   49.92000     -4.9838156E-09
   49.98000     -4.4501247E-09
   50.04000     -3.7416599E-09
   50.10000     -2.8433851E-09
   50.16000     -1.7394919E-09
   50.22000     -4.1164766E-10
   50.28000      1.1627717E-09
   50.34000      3.0116489E-09
   50.40000      5.1676912E-09
   50.46000      7.6666336E-09
   50.52000      1.0544797E-08
   50.58000      1.3837020E-08
   50.64000      1.7575664E-08
   50.70000      2.1790692E-08
   50.76000      2.6510238E-08
   50.82000      3.1760841E-08
   50.88000      3.7567020E-08
   50.94000      4.3950230E-08
   51.00000      5.0927795E-08
   51.06000      5.8512139E-08
   51.12000      6.6710264E-08
   51.18000      7.5523175E-08
   51.24000      8.4944851E-08
   51.30000      9.4960789E-08
   51.36000      1.0554641E-07
   51.42000      1.1666574E-07
   51.48000      1.2827030E-07
   51.54000      1.4029801E-07
   51.60000      1.5267118E-07
   51.66000      1.6529384E-07
   51.72000      1.7804823E-07
   51.78000      1.9079177E-07
   51.84000      2.0335486E-07
   51.90000      2.1553996E-07
   51.96000      2.2712145E-07
   52.02000      2.3784580E-07
   52.08000      2.4743125E-07
   52.14000      2.5556761E-07
   52.20000      2.6191617E-07
   52.26000      2.6610982E-07
   52.32000      2.6775393E-07
   52.38000      2.6642726E-07
   52.44000      2.6168280E-07
   52.50000      2.5304965E-07
   52.56000      2.4003609E-07
   52.62000      2.2213560E-07
   52.68000      1.9883436E-07
   52.74000      1.6961977E-07
   52.80000      1.3398791E-07
   52.86000      9.1449500E-08
   52.92000      4.1534886E-08
   52.98000     -1.6200209E-08
   53.04000     -8.2166309E-08
   53.10000     -1.5672900E-07
   53.16000     -2.4019621E-07
   53.22000     -3.3280625E-07
   53.28000     -4.3471823E-07
   53.34000     -5.4600451E-07
   53.40000     -6.6664444E-07
   53.46000     -7.9651613E-07
   53.52000     -9.3538802E-07
   53.58000     -1.0829093E-06
   53.64000     -1.2386026E-06
   53.70000     -1.4018599E-06
   53.76000     -1.5719409E-06
   53.82000     -1.7479724E-06
   53.88000     -1.9289487E-06
   53.94000     -2.1137298E-06
   54.00000     -2.3010455E-06
   54.06000     -2.4895000E-06
   54.12000     -2.6775838E-06
   54.18000     -2.8636873E-06
   54.24000     -3.0461149E-06
   54.30000     -3.2230932E-06
   54.36000     -3.3927804E-06
   54.42000     -3.5532714E-06
   54.48000     -3.7026127E-06
   54.54000     -3.8388216E-06
   54.60000     -3.9599145E-06
   54.66000     -4.0639356E-06
   54.72000     -4.1489834E-06
   54.78000     -4.2132338E-06
   54.84000     -4.2549564E-06
   54.90000     -4.2725351E-06
   54.96000     -4.2644842E-06
   55.02000     -4.2294714E-06
   55.08000     -4.1663379E-06
   55.14000     -4.0741220E-06
   55.20000     -3.9520746E-06
   55.26000     -3.7996779E-06
   55.32000     -3.6166596E-06
   55.38000     -3.4030038E-06
   55.44000     -3.1589586E-06
   55.50000     -2.8850366E-06
   55.56000     -2.5820088E-06