 -0.750000000       0.00000000    
 -0.689999998       0.00000000    
 -0.629999995       0.00000000    
 -0.569999993       0.00000000    
 -0.509999990       0.00000000    
 -0.449999988       0.00000000    
 -0.389999986       8.67812692E-23
 -0.330000013       6.86220736E-22
 -0.270000011       2.51485161E-21
 -0.209999993       5.02631452E-21
 -0.150000006       3.02186748E-21
  -9.00000036E-02  -1.50128596E-20
  -2.99999993E-02  -5.89075510E-20
   2.99999993E-02  -1.13373724E-19
   9.00000036E-02  -1.07579899E-19
  0.150000006       9.24055095E-20
  0.209999993       6.26833022E-19
  0.270000011       1.49642918E-18
  0.330000013       2.35273782E-18
  0.389999986       2.32011258E-18
  0.449999988       1.55034246E-20
  0.509999990      -6.01681789E-18
  0.569999993      -1.62513280E-17
  0.629999995      -2.84893609E-17
  0.689999998      -3.60225874E-17
  0.750000000      -2.70141587E-17
  0.810000002       1.27014485E-17
  0.870000005       9.13642626E-17
  0.930000007       1.97929100E-16
  0.990000010       2.88930906E-16
   1.04999995       2.86649105E-16
   1.11000001       1.01600914E-16
   1.16999996      -3.14947443E-16
   1.23000002      -9.01556670E-16
   1.28999996      -1.43759596E-15
   1.35000002      -1.56602818E-15
   1.40999997      -9.24430477E-16
   1.47000003       6.32137512E-16
   1.52999997       2.80814737E-15
   1.59000003       4.79156035E-15
   1.64999998       5.45464273E-15
   1.71000004       3.84462326E-15
   1.76999998      -2.07216671E-16
   1.83000004      -5.68363216E-15
   1.88999999      -1.05146858E-14
   1.95000005      -1.23582285E-14
   2.00999999      -9.76649995E-15
   2.06999993      -3.14404993E-15
   2.13000011       5.14833613E-15
   2.19000006       1.18240810E-14
   2.25000000       1.44480697E-14
   2.30999994       1.29656621E-14
   2.36999989       9.88100440E-15
   2.43000007       8.60557268E-15
   2.49000001       1.06465367E-14
   2.54999995       1.33457190E-14
   2.60999990       1.00636679E-14
   2.67000008      -6.35884405E-15
   2.73000002      -3.80026109E-14
   2.78999996      -7.71278454E-14
   2.84999990      -1.05778769E-13
   2.91000009      -1.01675321E-13
   2.97000003      -4.91400777E-14
   3.02999997       4.95286897E-14
   3.08999991       1.68402916E-13
   3.15000010       2.62686764E-13
   3.21000004       2.84264528E-13
   3.26999998       2.02981498E-13
   3.32999992       2.47017881E-14
   3.39000010      -2.02999781E-13
   3.45000005      -4.02493468E-13
   3.50999999      -4.92959785E-13
   3.56999993      -4.23162373E-13
   3.63000011      -1.96850755E-13
   3.69000006       1.21129100E-13
   3.75000000       4.23204386E-13
   3.80999994       5.97252987E-13
   3.86999989       5.70806206E-13
   3.93000007       3.43219187E-13
   3.99000001      -9.10506208E-15
   4.05000019      -3.59116057E-13
   4.11000013      -5.78158127E-13
   4.17000008      -5.87532247E-13
   4.23000002      -3.89620655E-13
   4.28999996      -6.36927238E-14
   4.34999990       2.72119702E-13
   4.40999985       5.14025996E-13
   4.46999979       6.13511466E-13
   4.53000021       5.84117444E-13
   4.59000015       4.70831490E-13
   4.65000010       3.01509496E-13
   4.71000004       5.35094599E-14
   4.76999998      -3.36186645E-13
   4.82999992      -9.12839032E-13
   4.88999987      -1.62480359E-12
   4.94999981      -2.27199791E-12
   5.01000023      -2.52746782E-12
   5.07000017      -2.04669376E-12
   5.13000011      -6.33197650E-13
   5.19000006       1.60932107E-12
   5.25000000       4.21669080E-12
   5.30999994       6.44431774E-12
   5.36999989       7.47828102E-12
   5.42999983       6.70844630E-12
   5.48999977       3.96184431E-12
   5.55000019      -3.94178505E-13
   5.61000013      -5.51837655E-12
   5.67000008      -1.03035904E-11
   5.73000002      -1.36462334E-11
   5.78999996      -1.46836432E-11
   5.84999990      -1.29336533E-11
   5.90999985      -8.32260823E-12
   5.96999979      -1.13490283E-12
   6.03000021       8.06442933E-12
   6.09000015       1.84983608E-11
   6.15000010       2.92370642E-11
   6.21000004       3.92755238E-11
   6.26999998       4.76583981E-11
   6.32999992       5.36515173E-11
   6.38999987       5.69176477E-11
   6.44999981       5.76277845E-11
   6.51000023       5.64491856E-11
   6.57000017       5.43974726E-11
   6.63000011       5.25979989E-11
   6.69000006       5.20394318E-11
   6.75000000       5.33967766E-11
   6.80999994       5.69556208E-11
   6.86999989       6.26123667E-11
   6.92999983       6.98941391E-11
   6.98999977       7.79575501E-11
   7.05000019       8.55781904E-11
   7.11000013       9.11950723E-11
   7.17000008       9.30844846E-11
   7.23000002       8.96876323E-11
   7.28999996       8.00268948E-11
   7.34999990       6.40680287E-11
   7.40999985       4.28718207E-11
   7.46999979       1.84479931E-11
   7.53000021      -6.65349199E-12
   7.59000015      -2.98665016E-11
   7.65000010      -4.90623236E-11
   7.71000004      -6.28027907E-11
   7.76999998      -7.03815201E-11
   7.82999992      -7.17518336E-11
   7.88999987      -6.74752476E-11
   7.94999981      -5.87649651E-11
   8.01000023      -4.75813486E-11
   8.06999969      -3.66380225E-11
   8.13000011      -2.91659683E-11
   8.18999958      -2.83783986E-11
   8.25000000      -3.67367491E-11
   8.31000042      -5.52539611E-11
   8.36999989      -8.31073335E-11
   8.43000031      -1.17741983E-10
   8.48999977      -1.55465238E-10
   8.55000019      -1.92346264E-10
   8.60999966      -2.25128430E-10
   8.67000008      -2.51879295E-10
   8.72999954      -2.72224937E-10
   8.78999996      -2.87178503E-10
   8.85000038      -2.98700314E-10
   8.90999985      -3.09167802E-10
   8.97000027      -3.20893978E-10
   9.02999973      -3.35753203E-10
   9.09000015      -3.54911267E-10
   9.14999962      -3.78645476E-10
   9.21000004      -4.06277068E-10
   9.27000046      -4.36274794E-10
   9.32999992      -4.66583217E-10
   9.39000034      -4.95160524E-10
   9.44999981      -5.20606225E-10
   9.51000023      -5.42678902E-10
   9.56999969      -5.62509817E-10
   9.63000011      -5.82419946E-10
   9.68999958      -6.05409667E-10
   9.75000000      -6.34518660E-10
   9.81000042      -6.72286948E-10
   9.86999989      -7.20453530E-10
   9.93000031      -7.79877662E-10
   9.98999977      -8.50550574E-10
   10.0500002      -9.31556832E-10
   10.1099997      -1.02096220E-09
   10.1700001      -1.11574761E-09
   10.2299995      -1.21198329E-09
   10.2900000      -1.30534994E-09
   10.3500004      -1.39191791E-09
   10.4099998      -1.46888579E-09
   10.4700003      -1.53492818E-09
   10.5299997      -1.58994895E-09
   10.5900002      -1.63434111E-09
   10.6499996      -1.66813108E-09
   10.7100000      -1.69046621E-09
   10.7700005      -1.69972503E-09
   10.8299999      -1.69417724E-09
   10.8900003      -1.67279879E-09
   10.9499998      -1.63575453E-09
   11.0100002      -1.58425484E-09
   11.0699997      -1.51987067E-09
   11.1300001      -1.44372658E-09
   11.1899996      -1.35608658E-09
   11.2500000      -1.25665278E-09
   11.3100004      -1.14551302E-09
   11.3699999      -1.02432884E-09
   11.4300003      -8.97222741E-10
   11.4899998      -7.70954356E-10
   11.5500002      -6.54281795E-10
   11.6099997      -5.56704016E-10
   11.6700001      -4.86948259E-10
   11.7299995      -4.51563786E-10
   11.7900000      -4.53880766E-10
   11.8500004      -4.93474872E-10
   11.9099998      -5.66201031E-10
   11.9700003      -6.64805655E-10
   12.0299997      -7.80047527E-10
   12.0900002      -9.02137365E-10
   12.1499996      -1.02218589E-09
   12.2100000      -1.13331267E-09
   12.2700005      -1.23116783E-09
   12.3299999      -1.31382227E-09
   12.3900003      -1.38120781E-09
   12.4499998      -1.43439771E-09
   12.5100002      -1.47497148E-09
   12.5699997      -1.50454793E-09
   12.6300001      -1.52441992E-09
   12.6899996      -1.53519120E-09
   12.7500000      -1.53642354E-09
   12.8100004      -1.52646640E-09
   12.8699999      -1.50271318E-09
   12.9300003      -1.46242540E-09
   12.9899998      -1.40400780E-09
   13.0500002      -1.32833711E-09
   13.1099997      -1.23962851E-09
   13.1700001      -1.14544219E-09
   13.2299995      -1.05576126E-09
   13.2900000      -9.81434267E-10
   13.3500004      -9.32494748E-10
   13.4099998      -9.16844711E-10
   13.4700003      -9.39555878E-10
   13.5299997      -1.00275488E-09
   13.5900002      -1.10587173E-09
   13.6499996      -1.24602073E-09
   13.7100000      -1.41840240E-09
   13.7700005      -1.61674685E-09
   13.8299999      -1.83384463E-09
   13.8900003      -2.06213402E-09
   13.9499998      -2.29420216E-09
   14.0100002      -2.52302779E-09
   14.0699997      -2.74191070E-09
   14.1300001      -2.94423197E-09
   14.1899996      -3.12334003E-09
   14.2500000      -3.27284133E-09
   14.3100004      -3.38734885E-09
   14.3699999      -3.46346107E-09
   14.4300003      -3.50055251E-09
   14.4899998      -3.50101503E-09
   14.5500002      -3.46986573E-09
   14.6099997      -3.41398110E-09
   14.6700001      -3.34137296E-09
   14.7299995      -3.26082628E-09
   14.7900000      -3.18187476E-09
   14.8500004      -3.11477333E-09
   14.9099998      -3.07005110E-09
   14.9700003      -3.05747405E-09
   15.0299997      -3.08470094E-09
   15.0900002      -3.15624882E-09
   15.1499996      -3.27337069E-09
   15.2100000      -3.43503936E-09
   15.2700005      -3.63963659E-09
   15.3299999      -3.88654531E-09
   15.3900003      -4.17686508E-09
   15.4499998      -4.51294335E-09
   15.5100002      -4.89704144E-09
   15.5699997      -5.32986277E-09
   15.6300001      -5.80963899E-09
   15.6899996      -6.33202157E-09
   15.7500000      -6.89052060E-09
   15.8100004      -7.47695861E-09
   15.8699999      -8.08155942E-09
   15.9300003      -8.69272476E-09
   15.9899998      -9.29692501E-09
   16.0499992      -9.87918991E-09
   16.1100006      -1.04243645E-08
   16.1700001      -1.09188267E-08
   16.2299995      -1.13520651E-08
   16.2900009      -1.17176233E-08
   16.3500004      -1.20132437E-08
   16.4099998      -1.22404931E-08
   16.4699993      -1.24042563E-08
   16.5300007      -1.25122872E-08
   16.5900002      -1.25746435E-08
   16.6499996      -1.26026212E-08
   16.7099991      -1.26069715E-08
   16.7700005      -1.25956303E-08
   16.8299999      -1.25716415E-08
   16.8899994      -1.25321069E-08
   16.9500008      -1.24686688E-08
   17.0100002      -1.23694130E-08
   17.0699997      -1.22215420E-08
   17.1299992      -1.20139205E-08
   17.1900005      -1.17389041E-08
   17.2500000      -1.13932366E-08
   17.3099995      -1.09782716E-08
   17.3700008      -1.04998401E-08
   17.4300003      -9.96795535E-09
   17.4899998      -9.39631839E-09
   17.5499992      -8.80152307E-09
   17.6100006      -8.20193691E-09
   17.6700001      -7.61642749E-09
   17.7299995      -7.06319891E-09
   17.7900009      -6.55883703E-09
   17.8500004      -6.11753714E-09
   17.9099998      -5.75030690E-09
   17.9699993      -5.46407009E-09
   18.0300007      -5.26083976E-09
   18.0900002      -5.13732079E-09
   18.1499996      -5.08527576E-09
   18.2099991      -5.09264986E-09
   18.2700005      -5.14506171E-09
   18.3299999      -5.22704946E-09
   18.3899994      -5.32264899E-09
   18.4500008      -5.41535483E-09
   18.5100002      -5.48797718E-09
   18.5699997      -5.52305046E-09
   18.6299992      -5.50414425E-09
   18.6900005      -5.41784217E-09
   18.7500000      -5.25567323E-09
   18.8099995      -5.01520203E-09
   18.8700008      -4.69983741E-09
   18.9300003      -4.31751745E-09
   18.9899998      -3.87884125E-09
   19.0499992      -3.39533313E-09
   19.1100006      -2.87822854E-09
   19.1700001      -2.33785302E-09
   19.2299995      -1.78343929E-09
   19.2900009      -1.22326649E-09
   19.3500004      -6.65095645E-10
   19.4099998      -1.16869653E-10
   19.4699993       4.12572643E-10
   19.5300007       9.13278619E-10
   19.5900002       1.37500222E-09
   19.6499996       1.78923198E-09
   19.7099991       2.15191620E-09
   19.7700005       2.46576293E-09
   19.8299999       2.74087952E-09
   19.8899994       2.99307512E-09
   19.9500008       3.24017879E-09
   20.0100002       3.49766993E-09
   20.0699997       3.77526899E-09
   20.1299992       4.07566914E-09
   20.1900005       4.39558923E-09
   20.2500000       4.72831108E-09
   20.3099995       5.06639664E-09
   20.3700008       5.40351008E-09
   20.4300003       5.73496983E-09
   20.4899998       6.05734751E-09
   20.5499992       6.36777564E-09
   20.6100006       6.66346489E-09
   20.6700001       6.94161351E-09
   20.7299995       7.19960669E-09
   20.7900009       7.43542516E-09
   20.8500004       7.64833530E-09
   20.9099998       7.83997578E-09
   20.9699993       8.01573030E-09
   21.0300007       8.18586354E-09
   21.0900002       8.36555891E-09
   21.1499996       8.57313953E-09
   21.2099991       8.82637519E-09
   21.2700005       9.13767373E-09
   21.3299999       9.50963397E-09
   21.3899994       9.93252680E-09
   21.4500008       1.03846283E-08
   21.5100002       1.08353140E-08
   21.5699997       1.12499015E-08
   21.6299992       1.15948087E-08
   21.6900005       1.18417445E-08
   21.7500000       1.19702657E-08
   21.8099995       1.19686314E-08
   21.8700008       1.18333219E-08
   21.9300003       1.15677379E-08
   21.9899998       1.11805392E-08
   22.0499992       1.06840528E-08
   22.1100006       1.00931050E-08
   22.1700001       9.42448164E-09
   22.2299995       8.69701999E-09
   22.2900009       7.93194399E-09
   22.3500004       7.15282944E-09
   22.4099998       6.38456576E-09
   22.4699993       5.65103297E-09
   22.5300007       4.97177233E-09
   22.5900002       4.35847003E-09
   22.6499996       3.81236376E-09
   22.7099991       3.32353567E-09
   22.7700005       2.87262214E-09
   22.8299999       2.43479548E-09
   22.8899994       1.98524330E-09
   22.9500008       1.50485402E-09
   23.0100002       9.84590742E-10
   23.0699997       4.27176100E-10
   23.1299992      -1.54663837E-10
   23.1900005      -7.43104023E-10
   23.2500000      -1.32181255E-09
   23.3099995      -1.88195082E-09
   23.3700008      -2.42531439E-09
   23.4300003      -2.96336999E-09
   23.4899998      -3.51262486E-09
   23.5499992      -4.08837986E-09
   23.6100006      -4.69961092E-09
   23.6700001      -5.34712363E-09
   23.7299995      -6.02546946E-09
   23.7900009      -6.72728007E-09
   23.8500004      -7.44760387E-09
   23.9099998      -8.18604917E-09
   23.9699993      -8.94583874E-09
   24.0300007      -9.73051506E-09
   24.0900002      -1.05400337E-08
   24.1499996      -1.13680292E-08
   24.2099991      -1.22011219E-08
   24.2700005      -1.30201121E-08
   24.3299999      -1.38022145E-08
   24.3899994      -1.45234784E-08
   24.4500008      -1.51609978E-08
   24.5100002      -1.56949049E-08
   24.5699997      -1.61102083E-08
   24.6299992      -1.63983707E-08
   24.6900005      -1.65581859E-08
   24.7500000      -1.65956351E-08
   24.8099995      -1.65226144E-08
   24.8700008      -1.63549227E-08
   24.9300003      -1.61100466E-08
   24.9899998      -1.58051545E-08
   25.0499992      -1.54555018E-08
   25.1100006      -1.50732173E-08
   25.1700001      -1.46665791E-08
   25.2299995      -1.42401024E-08
   25.2900009      -1.37956953E-08
   25.3500004      -1.33348923E-08
   25.4099998      -1.28614284E-08
   25.4699993      -1.23830155E-08
   25.5300007      -1.19112205E-08
   25.5900002      -1.14591296E-08
   25.6499996      -1.10376064E-08
   25.7099991      -1.06517444E-08
   25.7700005      -1.02991811E-08
   25.8299999      -9.97108973E-09
   25.8899994      -9.65543467E-09
   25.9500008      -9.34107725E-09
   26.0100002      -9.02105501E-09
   26.0699997      -8.69382522E-09
   26.1299992      -8.36219360E-09
   26.1900005      -8.03047406E-09
   26.2500000      -7.70095099E-09
   26.3099995      -7.37081107E-09
   26.3700008      -7.03060321E-09
   26.4300003      -6.66490862E-09
   26.4899998      -6.25534158E-09
   26.5499992      -5.78524562E-09
   26.6100006      -5.24461230E-09
   26.6700001      -4.63336969E-09
   26.7299995      -3.96151556E-09
   26.7900009      -3.24577498E-09
   26.8500004      -2.50401988E-09
   26.9099998      -1.74982617E-09
   26.9699993      -9.89598292E-10
   27.0300007      -2.23530069E-10
   27.0900002       5.50130386E-10
   27.1499996       1.32951616E-09
   27.2099991       2.10469286E-09
   27.2700005       2.85597235E-09
   27.3299999       3.55526364E-09
   27.3899994       4.16955936E-09
   27.4500008       4.66522465E-09
   27.5100002       5.01200059E-09
   27.5699997       5.18613597E-09
   27.6299992       5.17230303E-09
   27.6900005       4.96399100E-09
   27.7500000       4.56206939E-09
   27.8099995       3.97166211E-09
   27.8700008       3.19824567E-09
   27.9300003       2.24456231E-09
   27.9899998       1.10989196E-09
   28.0499992      -2.07788300E-10
   28.1100006      -1.70774106E-09
   28.1700001      -3.38262440E-09
   28.2299995      -5.21695220E-09
   28.2900009      -7.18866566E-09
   28.3500004      -9.27285804E-09
   28.4099998      -1.14455325E-08
   28.4699993      -1.36854714E-08
   28.5300007      -1.59736082E-08
   28.5900002      -1.82909510E-08
   28.6499996      -2.06168025E-08
   28.7099991      -2.29285604E-08
   28.7700005      -2.52030059E-08
   28.8299999      -2.74179026E-08
   28.8899994      -2.95525506E-08
   28.9500008      -3.15868647E-08
   29.0100002      -3.34998553E-08
   29.0699997      -3.52688900E-08
   29.1299992      -3.68706559E-08
   29.1900005      -3.82834386E-08
   29.2500000      -3.94892901E-08
   29.3099995      -4.04746388E-08
   29.3700008      -4.12289083E-08
   29.4300003      -4.17421759E-08
   29.4899998      -4.20036166E-08
   29.5499992      -4.20020072E-08
   29.6100006      -4.17282173E-08
   29.6700001      -4.11782111E-08
   29.7299995      -4.03546601E-08
   29.7900009      -3.92660873E-08
   29.8500004      -3.79239040E-08
   29.9099998      -3.63389638E-08
   29.9699993      -3.45194415E-08
   30.0300007      -3.24709681E-08
   30.0900002      -3.01987626E-08
   30.1499996      -2.77104100E-08
   30.2099991      -2.50179628E-08
   30.2700005      -2.21386145E-08
   30.3299999      -1.90940046E-08
   30.3899994      -1.59087428E-08
   30.4500008      -1.26088118E-08
   30.5100002      -9.22021659E-09
   30.5699997      -5.76805137E-09
   30.6299992      -2.27601515E-09
   30.6900005       1.23348487E-09
   30.7500000       4.73864681E-09
   30.8099995       8.21716739E-09
   30.8700008       1.16451799E-08
   30.9300003       1.49967896E-08
   30.9899998       1.82445401E-08
   31.0499992       2.13607798E-08
   31.1100006       2.43195046E-08
   31.1700001       2.70981992E-08
   31.2299995       2.96793132E-08
   31.2900009       3.20512008E-08
   31.3500004       3.42083517E-08
   31.4099998       3.61506771E-08
   31.4699993       3.78814100E-08
   31.5300007       3.94036590E-08
   31.5900002       4.07161309E-08
   31.6499996       4.18095496E-08
   31.7099991       4.26653841E-08
   31.7700005       4.32580656E-08
   31.8299999       4.35606857E-08
   31.8899994       4.35523297E-08
   31.9500008       4.32245386E-08
   32.0099983       4.25842828E-08
   32.0699997       4.16522106E-08
   32.1300011       4.04567508E-08
   32.1899986       3.90262898E-08
   32.2500000       3.73822893E-08
   32.3100014       3.55358480E-08
   32.3699989       3.34887247E-08
   32.4300003       3.12383222E-08
   32.4900017       2.87847683E-08
   32.5499992       2.61375153E-08
   32.6100006       2.33191528E-08
   32.6699982       2.03651069E-08
   32.7299995       1.73192181E-08
   32.7900009       1.42266092E-08
   32.8499985       1.11261160E-08
   32.9099998       8.04483680E-09
   32.9700012       4.99662756E-09
   33.0299988       1.98511607E-09
   33.0900002      -9.89664128E-10
   33.1500015      -3.92314803E-09
   33.2099991      -6.79929979E-09
   33.2700005      -9.58729807E-09
   33.3300018      -1.22432828E-08
   33.3899994      -1.47171209E-08
   33.4500008      -1.69625416E-08
   33.5099983      -1.89476612E-08
   33.5699997      -2.06624069E-08
   33.6300011      -2.21199734E-08
   33.6899986      -2.33512356E-08
   33.7500000      -2.43934597E-08
   33.8100014      -2.52770427E-08
   33.8699989      -2.60149555E-08
   33.9300003      -2.65989737E-08
   33.9900017      -2.70041554E-08
   34.0499992      -2.72000005E-08
   34.1100006      -2.71640328E-08
   34.1699982      -2.68927351E-08
   34.2299995      -2.64059974E-08
   34.2900009      -2.57437431E-08
   34.3499985      -2.49562699E-08
   34.4099998      -2.40918396E-08
   34.4700012      -2.31855068E-08
   34.5299988      -2.22525109E-08
   34.5900002      -2.12879225E-08
   34.6500015      -2.02725818E-08
   34.7099991      -1.91836911E-08
   34.7700005      -1.80071584E-08
   34.8300018      -1.67481264E-08
   34.8899994      -1.54360826E-08
   34.9500008      -1.41222989E-08
   35.0099983      -1.28695747E-08
   35.0699997      -1.17369385E-08
   35.1300011      -1.07641487E-08
   35.1899986      -9.96127092E-09
   35.2500000      -9.30711330E-09
   35.3100014      -8.75722961E-09
   35.3699989      -8.25880875E-09
   35.4300003      -7.76740361E-09
   35.4900017      -7.26001970E-09
   35.5499992      -6.74057832E-09
   35.6100006      -6.23649932E-09
   35.6699982      -5.78805581E-09
   35.7299995      -5.43426237E-09
   35.7900009      -5.19994803E-09
   35.8499985      -5.08812015E-09
   35.9099998      -5.08007725E-09
   35.9700012      -5.14330711E-09
   36.0299988      -5.24465715E-09
   36.0900002      -5.36429834E-09
   36.1500015      -5.50538459E-09
   36.2099991      -5.69544278E-09
   36.2700005      -5.97828542E-09
   36.3300018      -6.39866693E-09
   36.3899994      -6.98478519E-09
   36.4500008      -7.73481545E-09
   36.5099983      -8.61246097E-09
   36.5699997      -9.55344426E-09
   36.6300011      -1.04810667E-08
   36.6899986      -1.13258629E-08
   36.7500000      -1.20430661E-08
   36.8100014      -1.26223458E-08
   36.8699989      -1.30868818E-08
   36.9300003      -1.34822331E-08
   36.9900017      -1.38587302E-08
   37.0499992      -1.42531977E-08
   37.1100006      -1.46760533E-08
   37.1699982      -1.51081068E-08
   37.2299995      -1.55080837E-08
   37.2900009      -1.58281050E-08
   37.3499985      -1.60314002E-08
   37.4099998      -1.61056004E-08
   37.4700012      -1.60666218E-08
   37.5299988      -1.59517182E-08
   37.5900002      -1.58045719E-08
   37.6500015      -1.56583084E-08
   37.7099991      -1.55230531E-08
   37.7700005      -1.53826427E-08
   37.8300018      -1.52014401E-08
   37.8899994      -1.49384451E-08
   37.9500008      -1.45633781E-08
   38.0099983      -1.40692054E-08
   38.0699997      -1.34772487E-08
   38.1300011      -1.28338176E-08
   38.1899986      -1.22000063E-08
   38.2500000      -1.16381180E-08
   38.3100014      -1.11987273E-08
   38.3699989      -1.09117213E-08
   38.4300003      -1.07832960E-08
   38.4900017      -1.07991500E-08
   38.5499992      -1.09324700E-08
   38.6100006      -1.11540572E-08
   38.6699982      -1.14415224E-08
   38.7299995      -1.17848149E-08
   38.7900009      -1.21866846E-08
   38.8499985      -1.26583721E-08
   38.9099998      -1.32125164E-08
   38.9700012      -1.38561616E-08
   39.0299988      -1.45865462E-08
   39.0900002      -1.53911390E-08
   39.1500015      -1.62515494E-08
   39.2099991      -1.71494641E-08
   39.2700005      -1.80720185E-08
   39.3300018      -1.90145695E-08
   39.3899994      -1.99800390E-08
   39.4500008      -2.09755431E-08
   39.5099983      -2.20078729E-08
   39.5699997      -2.30794708E-08
   39.6300011      -2.41858444E-08
   39.6899986      -2.53144226E-08
   39.7500000      -2.64443898E-08
   39.8100014      -2.75470935E-08
   39.8699989      -2.85870989E-08
   39.9300003      -2.95244700E-08
   39.9900017      -3.03186809E-08
   40.0499992      -3.09338830E-08
   40.1100006      -3.13443280E-08
   40.1699982      -3.15382493E-08
   40.2299995      -3.15187130E-08
   40.2900009      -3.13009814E-08
   40.3499985      -3.09073158E-08
   40.4099998      -3.03609689E-08
   40.4700012      -2.96811287E-08
   40.5299988      -2.88801676E-08
   40.5900002      -2.79632602E-08
   40.6500015      -2.69299250E-08
   40.7099991      -2.57766075E-08
   40.7700005      -2.44996112E-08
   40.8300018      -2.30978365E-08
   40.8899994      -2.15748361E-08
   40.9500008      -1.99396855E-08
   41.0099983      -1.82062578E-08
   41.0699997      -1.63908567E-08
   41.1300011      -1.45089230E-08
   41.1899986      -1.25720376E-08
   41.2500000      -1.05865601E-08
   41.3100014      -8.55464766E-09
   41.3699989      -6.47740794E-09
   41.4300003      -4.35896652E-09
   41.4900017      -2.20984253E-09
   41.5499992      -4.82387325E-11
   41.6100006       2.10136086E-09
   41.6699982       4.21204494E-09
   41.7299995       6.25984331E-09
   41.7900009       8.22930346E-09
   41.8499985       1.01178097E-08
   41.9099998       1.19372929E-08
   41.9700012       1.37123610E-08
   42.0299988       1.54747237E-08
   42.0900002       1.72549530E-08
   42.1500015       1.90738270E-08
   42.2099991       2.09360334E-08
   42.2700005       2.28286439E-08
   42.3300018       2.47251872E-08
   42.3899994       2.65941402E-08
   42.4500008       2.84089925E-08
   42.5099983       3.01563361E-08
   42.5699997       3.18391606E-08
   42.6300011       3.34741834E-08
   42.6899986       3.50839819E-08
   42.7500000       3.66864299E-08
   42.8100014       3.82847709E-08
   42.8699989       3.98616535E-08
   42.9300003       4.13796393E-08
   42.9900017       4.27888338E-08
   43.0499992       4.40401067E-08
   43.1100006       4.51000766E-08
   43.1699982       4.59627074E-08
   43.2299995       4.66528114E-08
   43.2900009       4.72192418E-08
   43.3499985       4.77193716E-08
   43.4099998       4.82001496E-08
   43.4700012       4.86826863E-08
   43.5299988       4.91563270E-08
   43.5900002       4.95843189E-08
   43.6500015       4.99186257E-08
   43.7099991       5.01179755E-08
   43.7700005       5.01622033E-08
   43.8300018       5.00579560E-08
   43.8899994       4.98343340E-08
   43.9500008       4.95308079E-08
   44.0099983       4.91820629E-08
   44.0699997       4.88049317E-08
   44.1300011       4.83914420E-08
   44.1899986       4.79101168E-08
   44.2500000       4.73150799E-08
   44.3100014       4.65605012E-08
   44.3699989       4.56162006E-08
   44.4300003       4.44794139E-08
   44.4900017       4.31786269E-08
   44.5499992       4.17674642E-08
   44.6100006       4.03101978E-08
   44.6699982       3.88633659E-08
   44.7299995       3.74599374E-08
   44.7900009       3.61015680E-08
   44.8499985       3.47615980E-08
   44.9099998       3.33975052E-08
   44.9700012       3.19679963E-08
   45.0299988       3.04486285E-08
   45.0900002       2.88405815E-08
   45.1500015       2.71701275E-08
   45.2099991       2.54796024E-08
   45.2700005       2.38134383E-08
   45.3300018       2.22042793E-08
   45.3899994       2.06637889E-08
   45.4500008       1.91810674E-08
   45.5099983       1.77289046E-08
   45.5699997       1.62754539E-08
   45.6300011       1.47970596E-08
   45.6899986       1.32875799E-08
   45.7500000       1.17609922E-08
   45.8100014       1.02466382E-08
   45.8699989       8.77929818E-09
   45.9300003       7.38803729E-09
   45.9900017       6.08788975E-09
   46.0499992       4.87687712E-09
   46.1100006       3.73857834E-09
   46.1699982       2.64852362E-09
   46.2299995       1.58182811E-09
   46.2900009       5.19763177E-10
   46.3499985      -5.46111989E-10
   46.4099998      -1.61271108E-09
   46.4700012      -2.66691069E-09
   46.5299988      -3.68922115E-09
   46.5900002      -4.65871253E-09
   46.6500015      -5.55786084E-09
   46.7099991      -6.37580166E-09
   46.7700005      -7.10887571E-09
   46.8300018      -7.75841436E-09
   46.8899994      -8.32693114E-09
   46.9500008      -8.81470807E-09
   47.0099983      -9.21844201E-09
   47.0699997      -9.53245927E-09
   47.1300011      -9.75151959E-09
   47.1899986      -9.87340698E-09
   47.2500000      -9.89976723E-09
   47.3100014      -9.83487602E-09
   47.3699989      -9.68325864E-09
   47.4300003      -9.44772349E-09
   47.4900017      -9.12892251E-09
   47.5499992      -8.72656347E-09
   47.6100006      -8.24138535E-09
   47.6699982      -7.67677033E-09
   47.7299995      -7.03919101E-09
   47.7900009      -6.33745589E-09
   47.8499985      -5.58120616E-09
   47.9099998      -4.77933959E-09
   47.9700012      -3.93889721E-09
   48.0299988      -3.06481218E-09
   48.0900002      -2.16078822E-09
   48.1500015      -1.23133237E-09
   48.2099991      -2.84469892E-10
   48.2700005       6.65934363E-10
   48.3300018       1.59964453E-09
   48.3899994       2.49226995E-09
   48.4500008       3.31997208E-09
   48.5099983       4.06495815E-09
   48.5699997       4.71927297E-09
   48.6300011       5.28494137E-09
   48.6899986       5.77021542E-09
   48.7500000       6.18368334E-09
   48.8100014       6.52908927E-09
   48.8699989       6.80322598E-09
   48.9300003       6.99754299E-09
   48.9900017       7.10217085E-09
   49.0499992       7.11011472E-09
   49.1100006       7.01976299E-09
   49.1699982       6.83516399E-09
   49.2299995       6.56473054E-09
   49.2900009       6.21935659E-09
   49.3499985       5.81047033E-09
   49.4099998       5.34789102E-09
   49.4700012       4.83735363E-09
   49.5299988       4.27825464E-09
   49.5900002       3.66298081E-09
   49.6500015       2.97921221E-09
   49.7099991       2.21539476E-09
   49.7700005       1.36771583E-09
   49.8300018       4.45517678E-10
   49.8899994      -5.27764166E-10
   49.9500008      -1.51919866E-09
   50.0099983      -2.49493337E-09
   50.0699997      -3.42925355E-09
   50.1300011      -4.31046576E-09
   50.1899986      -5.14155030E-09
   50.2500000      -5.93593308E-09
   50.3100014      -6.71058142E-09
   50.3699989      -7.47917106E-09
   50.4300003      -8.24737256E-09
   50.4900017      -9.01106034E-09
   50.5499992      -9.75731496E-09
   50.6100006      -1.04676294E-08