  -2.400000      0.0000000E+00
  -2.340000      0.0000000E+00
  -2.280000      0.0000000E+00
  -2.220000      0.0000000E+00
  -2.160000      0.0000000E+00
  -2.100000      0.0000000E+00
  -2.040000     -3.4814224E-23
  -1.980000     -2.3763479E-22
  -1.920000     -5.9491699E-22
  -1.860000      2.8348564E-22
  -1.800000      7.2889411E-21
  -1.740000      2.9125711E-20
  -1.680000      7.1463403E-20
  -1.620000      1.1965837E-19
  -1.560000      1.1815304E-19
  -1.500000     -3.1655944E-20
  -1.440000     -4.2802846E-19
  -1.380000     -1.0723189E-18
  -1.320000     -1.7563257E-18
  -1.260000     -2.0155505E-18
  -1.200000     -1.2332888E-18
  -1.140000      1.0859497E-18
  -1.080000      4.9673052E-18
  -1.020000      9.7119995E-18
 -0.9600000      1.3868042E-17
 -0.9000000      1.5390772E-17
 -0.8400000      1.1820422E-17
 -0.7800000      4.1659220E-19
 -0.7200000     -2.1355072E-17
 -0.6600000     -5.4089013E-17
 -0.6000000     -9.2734848E-17
 -0.5400000     -1.2173883E-16
 -0.4800000     -1.1261610E-16
 -0.4200000     -2.9852740E-17
 -0.3600000      1.5000766E-16
 -0.3000000      4.0800095E-16
 -0.2400000      6.5457589E-16
 -0.1800000      7.2751808E-16
 -0.1200000      4.3954737E-16
 -5.9999999E-02 -3.1956721E-16
  0.0000000E+00 -1.4570012E-15
  5.9999999E-02 -2.5943298E-15
  0.1200000     -3.1082514E-15
  0.1800000     -2.3405776E-15
  0.2400000      5.7585184E-17
  0.3000000      3.7804410E-15
  0.3600000      7.7138842E-15
  0.4200000      1.0136648E-14
  0.4800000      9.3043461E-15
  0.5400000      4.2492670E-15
  0.6000000     -4.5331467E-15
  0.6600000     -1.4869131E-14
  0.7200000     -2.3370215E-14
  0.7800000     -2.6498231E-14
  0.8400000     -2.1863560E-14
  0.9000000     -9.2423102E-15
  0.9600000      9.1133672E-15
   1.020000      2.9003750E-14
   1.080000      4.5424700E-14
   1.140000      5.3866965E-14
   1.200000      5.1321282E-14
   1.260000      3.6773149E-14
   1.320000      1.1280746E-14
   1.380000     -2.2087919E-14
   1.440000     -5.8257334E-14
   1.500000     -9.0185631E-14
   1.560000     -1.0937407E-13
   1.620000     -1.0736753E-13
   1.680000     -7.8441804E-14
   1.740000     -2.2960380E-14
   1.800000      4.9924200E-14
   1.860000      1.2199225E-13
   1.920000      1.6951971E-13
   1.980000      1.7080737E-13
   2.040000      1.1586707E-13
   2.100000      1.4632669E-14
   2.160000     -1.0066943E-13
   2.220000     -1.8222026E-13
   2.280000     -1.8250343E-13
   2.340000     -7.5298613E-14
   2.400000      1.2596437E-13
   2.460000      3.6135087E-13
   2.520000      5.3526611E-13
   2.580000      5.4500729E-13
   2.640000      3.1934004E-13
   2.700000     -1.4651613E-13
   2.760000     -7.7417559E-13
   2.820000     -1.4131300E-12
   2.880000     -1.8789057E-12
   2.940000     -2.0065492E-12
   3.000000     -1.7004505E-12
   3.060000     -9.6197139E-13
   3.120000      1.1497438E-13
   3.180000      1.3766671E-12
   3.240000      2.6543978E-12
   3.300000      3.7996013E-12
   3.360000      4.6922934E-12
   3.420000      5.2193735E-12
   3.480000      5.2361999E-12
   3.540000      4.5373705E-12
   3.600000      2.8646759E-12
   3.660000     -3.0295326E-14
   3.720000     -4.2713099E-12
   3.780000     -9.7148938E-12
   3.840000     -1.5820439E-11
   3.900000     -2.1576938E-11
   3.960000     -2.5519375E-11
   4.020000     -2.5845470E-11
   4.080000     -2.0616750E-11
   4.140000     -8.0047869E-12
   4.200000      1.3468853E-11
   4.260000      4.4748611E-11
   4.320000      8.6151010E-11
   4.380000      1.3737111E-10
   4.440000      1.9757466E-10
   4.500000      2.6554267E-10
   4.560000      3.3982897E-10
   4.620000      4.1889769E-10
   4.680000      5.0122362E-10
   4.740000      5.8535554E-10
   4.800000      6.6995498E-10
   4.860000      7.5382367E-10
   4.920000      8.3592494E-10
   4.980000      9.1539043E-10
   5.040000      9.9149822E-10
   5.100000      1.0636118E-09
   5.160000      1.1310840E-09
   5.220000      1.1931586E-09
   5.280000      1.2489083E-09
   5.340000      1.2972580E-09
   5.400000      1.3371130E-09
   5.460000      1.3675766E-09
   5.520000      1.3882049E-09
   5.580000      1.3992167E-09
   5.640000      1.4015878E-09
   5.700000      1.3969804E-09
   5.760000      1.3875138E-09
   5.820000      1.3754262E-09
   5.880000      1.3627087E-09
   5.940000      1.3507906E-09
   6.000000      1.3403357E-09
   6.060000      1.3311684E-09
   6.120000      1.3223149E-09
   6.180000      1.3121295E-09
   6.240000      1.2984785E-09
   6.300000      1.2789702E-09
   6.360000      1.2512343E-09
   6.420000      1.2132544E-09
   6.480000      1.1637291E-09
   6.540000      1.1024105E-09
   6.600000      1.0303211E-09
   6.660000      9.4975849E-10
   6.720000      8.6401736E-10
   6.780000      7.7684259E-10
   6.840000      6.9171141E-10
   6.900000      6.1111971E-10
   6.960000      5.3606780E-10
   7.020000      4.6589627E-10
   7.080000      3.9851833E-10
   7.140000      3.3097339E-10
   7.200000      2.6013325E-10
   7.260000      1.8336366E-10
   7.320000      9.8989462E-11
   7.380000      6.5044884E-12
   7.440000     -9.3439499E-11
   7.500000     -1.9917835E-10
   7.560000     -3.0823577E-10
   7.620000     -4.1754614E-10
   7.680000     -5.2371679E-10
   7.740000     -6.2335986E-10
   7.800000     -7.1348683E-10
   7.860000     -7.9190149E-10
   7.920000     -8.5748192E-10
   7.980000     -9.1025981E-10
   8.040000     -9.5127672E-10
   8.100000     -9.8229513E-10
   8.160000     -1.0055040E-09
   8.220000     -1.0233405E-09
   8.280000     -1.0384517E-09
   8.340000     -1.0536926E-09
   8.400000     -1.0719858E-09
   8.460000     -1.0959049E-09
   8.520000     -1.1270019E-09
   8.580000     -1.1651005E-09
   8.640000     -1.2079074E-09
   8.700000     -1.2512638E-09
   8.760000     -1.2901260E-09
   8.820000     -1.3200473E-09
   8.880000     -1.3386354E-09
   8.940000     -1.3463993E-09
   9.000000     -1.3465898E-09
   9.060000     -1.3440563E-09
   9.120000     -1.3435776E-09
   9.180000     -1.3483721E-09
   9.240000     -1.3594026E-09
   9.300000     -1.3756932E-09
   9.360000     -1.3953558E-09
   9.420000     -1.4166568E-09
   9.480000     -1.4384509E-09
   9.540000     -1.4596955E-09
   9.600000     -1.4783484E-09
   9.660000     -1.4904188E-09
   9.720000     -1.4900030E-09
   9.780000     -1.4706926E-09
   9.840000     -1.4279904E-09
   9.900000     -1.3616874E-09
   9.960000     -1.2769312E-09
   10.02000     -1.1831482E-09
   10.08000     -1.0909217E-09
   10.14000     -1.0079337E-09
   10.20000     -9.3566954E-10
   10.26000     -8.6839413E-10
   10.32000     -7.9501294E-10
   10.38000     -7.0317896E-10
   10.44000     -5.8402411E-10
   10.50000     -4.3560458E-10
   10.56000     -2.6371524E-10
   10.62000     -7.9862207E-11
   10.68000      1.0264040E-10
   10.74000      2.7279426E-10
   10.80000      4.2466994E-10
   10.86000      5.5792237E-10
   10.92000      6.7620143E-10
   10.98000      7.8440121E-10
   11.04000      8.8600288E-10
   11.10000      9.8152619E-10
   11.16000      1.0685183E-09
   11.22000      1.1428700E-09
   11.28000      1.2008079E-09
   11.34000      1.2407730E-09
   11.40000      1.2645174E-09
   11.46000      1.2770405E-09
   11.52000      1.2853368E-09
   11.58000      1.2962947E-09
   11.64000      1.3143844E-09
   11.70000      1.3399424E-09
   11.76000      1.3687717E-09
   11.82000      1.3933833E-09
   11.88000      1.4055810E-09
   11.94000      1.3994554E-09
   12.00000      1.3735287E-09
   12.06000      1.3310125E-09
   12.12000      1.2779012E-09
   12.18000      1.2196490E-09
   12.24000      1.1579647E-09
   12.30000      1.0893748E-09
   12.36000      1.0065024E-09
   12.42000      9.0173724E-10
   12.48000      7.7173701E-10
   12.54000      6.2061700E-10
   12.60000      4.6011392E-10
   12.66000      3.0631586E-10
   12.72000      1.7414115E-10
   12.78000      7.1869781E-11
   12.84000     -1.8800829E-12
   12.90000     -5.7358708E-11
   12.96000     -1.0936978E-10
   13.02000     -1.7127556E-10
   13.08000     -2.4987318E-10
   13.14000     -3.4325459E-10
   13.20000     -4.4240242E-10
   13.26000     -5.3563448E-10
   13.32000     -6.1383548E-10
   13.38000     -6.7420325E-10
   13.44000     -7.2102146E-10
   13.50000     -7.6334761E-10
   13.56000     -8.1082741E-10
   13.62000     -8.6954810E-10
   13.68000     -9.3967756E-10
   13.74000     -1.0157423E-09
   13.80000     -1.0892308E-09
   13.86000     -1.1522752E-09
   13.92000     -1.2008378E-09
   13.98000     -1.2361665E-09
   14.04000     -1.2640823E-09
   14.10000     -1.2925417E-09
   14.16000     -1.3285288E-09
   14.22000     -1.3754762E-09
   14.28000     -1.4321127E-09
   14.34000     -1.4930591E-09
   14.40000     -1.5508810E-09
   14.46000     -1.5988488E-09
   14.52000     -1.6334742E-09
   14.58000     -1.6559701E-09
   14.64000     -1.6721178E-09
   14.70000     -1.6904963E-09
   14.76000     -1.7195630E-09
   14.82000     -1.7645003E-09
   14.88000     -1.8249241E-09
   14.94000     -1.8943533E-09
   15.00000     -1.9617796E-09
   15.06000     -2.0149005E-09
   15.12000     -2.0439044E-09
   15.18000     -2.0444055E-09
   15.24000     -2.0184077E-09
   15.30000     -1.9729500E-09
   15.36000     -1.9170161E-09
   15.42000     -1.8579781E-09
   15.48000     -1.7989940E-09
   15.54000     -1.7383017E-09
   15.60000     -1.6705417E-09
   15.66000     -1.5894233E-09
   15.72000     -1.4906213E-09
   15.78000     -1.3738336E-09
   15.84000     -1.2433742E-09
   15.90000     -1.1072580E-09
   15.96000     -9.7520048E-10
   16.02000     -8.5619889E-10
   16.08000     -7.5637130E-10
   16.14000     -6.7760830E-10
   16.20000     -6.1737832E-10
   16.26000     -5.6975907E-10
   16.32000     -5.2744331E-10
   16.38000     -4.8414261E-10
   16.44000     -4.3660947E-10
   16.50000     -3.8554657E-10
   16.56000     -3.3502121E-10
   16.62000     -2.9056280E-10
   16.68000     -2.5665764E-10
   16.74000     -2.3462465E-10
   16.80000     -2.2171233E-10
   16.86000     -2.1176133E-10
   16.92000     -1.9714307E-10
   16.98000     -1.7119295E-10
   17.04000     -1.3020286E-10
   17.10000     -7.4255234E-11
   17.16000     -6.6499497E-12
   17.22000      6.7800952E-11
   17.28000      1.4494575E-10
   17.34000      2.2312199E-10
   17.40000      3.0395889E-10
   17.46000      3.9182135E-10
   17.52000      4.9203791E-10
   17.58000      6.0850230E-10
   17.64000      7.4150880E-10
   17.70000      8.8665053E-10
   17.76000      1.0352659E-09
   17.82000      1.1763620E-09
   17.88000      1.2993934E-09
   17.94000      1.3969498E-09
   18.00000      1.4664443E-09
   18.06000      1.5102661E-09
   18.12000      1.5344104E-09
   18.18000      1.5460900E-09
   18.24000      1.5511299E-09
   18.30000      1.5519450E-09
   18.36000      1.5466912E-09
   18.42000      1.5298254E-09
   18.48000      1.4939107E-09
   18.54000      1.4321505E-09
   18.60000      1.3408905E-09
   18.66000      1.2212784E-09
   18.72000      1.0794889E-09
   18.78000      9.2537128E-10
   18.84000      7.6993567E-10
   18.90000      6.2255129E-10
   18.96000      4.8885507E-10
   19.02000      3.7009737E-10
   19.08000      2.6408001E-10
   19.14000      1.6721452E-10
   19.20000      7.6825338E-11
   19.26000     -7.2056501E-12
   19.32000     -8.2034227E-11
   19.38000     -1.4276701E-10
   19.44000     -1.8430305E-10
   19.50000     -2.0343090E-10
   19.56000     -2.0046237E-10
   19.62000     -1.7984640E-10
   19.68000     -1.4951748E-10
   19.74000     -1.1912225E-10
   19.80000     -9.7647675E-11
   19.86000     -9.1221718E-11
   19.92000     -1.0185124E-10
   19.98000     -1.2754700E-10
   20.04000     -1.6374689E-10
   20.10000     -2.0541155E-10
   20.16000     -2.4889529E-10
   20.22000     -2.9284500E-10
   20.28000     -3.3789047E-10
   20.34000     -3.8549236E-10
   20.40000     -4.3668838E-10
   20.46000     -4.9142884E-10
   20.52000     -5.4877736E-10
   20.58000     -6.0773214E-10
   20.64000     -6.6809919E-10
   20.70000     -7.3088852E-10
   20.76000     -7.9803331E-10
   20.82000     -8.7163465E-10
   20.88000     -9.5316455E-10
   20.94000     -1.0430231E-09
   21.00000     -1.1406116E-09
   21.06000     -1.2448025E-09
   21.12000     -1.3545194E-09
   21.18000     -1.4691173E-09
   21.24000     -1.5883540E-09
   21.30000     -1.7119011E-09
   21.36000     -1.8385223E-09
   21.42000     -1.9652182E-09
   21.48000     -2.0867463E-09
   21.54000     -2.1958981E-09
   21.60000     -2.2846955E-09
   21.66000     -2.3462592E-09
   21.72000     -2.3767075E-09
   21.78000     -2.3762687E-09
   21.84000     -2.3490008E-09
   21.90000     -2.3010822E-09
   21.96000     -2.2383111E-09
   22.02000     -2.1638600E-09
   22.08000     -2.0772639E-09
   22.14000     -1.9750808E-09
   22.20000     -1.8529250E-09
   22.26000     -1.7080070E-09
   22.32000     -1.5411515E-09
   22.38000     -1.3575425E-09
   22.44000     -1.1659489E-09
   22.50000     -9.7670161E-10
   22.56000     -7.9904799E-10
   22.62000     -6.3867511E-10
   22.68000     -4.9618554E-10
   22.74000     -3.6712486E-10
   22.80000     -2.4375543E-10
   22.86000     -1.1817397E-10
   22.92000      1.4264718E-11
   22.98000      1.5260744E-10
   23.04000      2.9021885E-10
   23.10000      4.1727913E-10
   23.16000      5.2501276E-10
   23.22000      6.0986360E-10
   23.28000      6.7567679E-10
   23.34000      7.3274520E-10
   23.40000      7.9400281E-10
   23.46000      8.6999369E-10
   23.52000      9.6483843E-10
   23.58000      1.0749541E-09
   23.64000      1.1910157E-09
   23.70000      1.3022002E-09
   23.76000      1.4008316E-09
   23.82000      1.4854888E-09
   23.88000      1.5614076E-09
   23.94000      1.6381635E-09
   24.00000      1.7256790E-09
   24.06000      1.8301560E-09
   24.12000      1.9514832E-09
   24.18000      2.0830759E-09
   24.24000      2.2142019E-09
   24.30000      2.3339271E-09
   24.36000      2.4351863E-09
   24.42000      2.5174065E-09
   24.48000      2.5866302E-09
   24.54000      2.6530922E-09
   24.60000      2.7272589E-09
   24.66000      2.8159697E-09
   24.72000      2.9202296E-09
   24.78000      3.0354155E-09
   24.84000      3.1535492E-09
   24.90000      3.2664553E-09
   24.96000      3.3683858E-09
   25.02000      3.4571508E-09
   25.08000      3.5335792E-09
   25.14000      3.5998471E-09
   25.20000      3.6575192E-09
   25.26000      3.7060566E-09
   25.32000      3.7422323E-09
   25.38000      3.7605781E-09
   25.44000      3.7547609E-09
   25.50000      3.7195551E-09
   25.56000      3.6528431E-09
   25.62000      3.5568852E-09
   25.68000      3.4381573E-09
   25.74000      3.3055467E-09
   25.80000      3.1674676E-09
   25.86000      3.0291947E-09
   25.92000      2.8918521E-09
   25.98000      2.7538514E-09
   26.04000      2.6143148E-09
   26.10000      2.4768170E-09
   26.16000      2.3513387E-09
   26.22000      2.2530013E-09
   26.28000      2.1976747E-09
   26.34000      2.1961706E-09
   26.40000      2.2495732E-09
   26.46000      2.3479050E-09
   26.52000      2.4729117E-09
   26.58000      2.6039866E-09
   26.64000      2.7249509E-09
   26.70000      2.8290772E-09
   26.76000      2.9204612E-09
   26.82000      3.0112386E-09
   26.88000      3.1156620E-09
   26.94000      3.2431982E-09
   27.00000      3.3932113E-09
   27.06000      3.5533629E-09
   27.12000      3.7026222E-09
   27.18000      3.8180996E-09
   27.24000      3.8833439E-09
   27.30000      3.8948986E-09
   27.36000      3.8643386E-09
   27.42000      3.8146326E-09
   27.48000      3.7719627E-09
   27.54000      3.7561043E-09
   27.60000      3.7731573E-09
   27.66000      3.8135046E-09
   27.72000      3.8557211E-09
   27.78000      3.8747259E-09
   27.84000      3.8509218E-09
   27.90000      3.7768926E-09
   27.96000      3.6594794E-09
   28.02000      3.5169405E-09
   28.08000      3.3726371E-09
   28.14000      3.2476726E-09
   28.20000      3.1549570E-09
   28.26000      3.0964722E-09
   28.32000      3.0644178E-09
   28.38000      3.0456864E-09
   28.44000      3.0280463E-09
   28.50000      3.0057588E-09
   28.56000      2.9824037E-09
   28.62000      2.9696077E-09
   28.68000      2.9819609E-09
   28.74000      3.0300971E-09
   28.80000      3.1148939E-09
   28.86000      3.2254412E-09
   28.92000      3.3418339E-09
   28.98000      3.4416570E-09
   29.04000      3.5073571E-09
   29.10000      3.5313554E-09
   29.16000      3.5169547E-09
   29.22000      3.4751297E-09
   29.28000      3.4191134E-09
   29.34000      3.3593817E-09
   29.40000      3.3009793E-09
   29.46000      3.2436651E-09
   29.52000      3.1839620E-09
   29.58000      3.1176037E-09
   29.64000      3.0412031E-09
   29.70000      2.9527925E-09
   29.76000      2.8516243E-09
   29.82000      2.7378169E-09
   29.88000      2.6121862E-09
   29.94000      2.4762030E-09
   30.00000      2.3318496E-09
   30.06000      2.1812878E-09
   30.12000      2.0265087E-09
   30.18000      1.8692166E-09
   30.24000      1.7110249E-09
   30.30000      1.5537458E-09
   30.36000      1.3994123E-09
   30.42000      1.2498711E-09
   30.48000      1.1061746E-09
   30.54000      9.6829367E-10
   30.60000      8.3555801E-10
   30.66000      7.0772560E-10
   30.72000      5.8600191E-10
   30.78000      4.7314302E-10
   30.84000      3.7219450E-10
   30.90000      2.8427602E-10
   30.96000      2.0658429E-10
   31.02000      1.3191043E-10
   31.08000      5.0286778E-11
   31.14000     -4.7771981E-11
   31.20000     -1.6791735E-10
   31.26000     -3.1014716E-10
   31.32000     -4.6940041E-10
   31.38000     -6.3820144E-10
   31.44000     -8.0996448E-10
   31.50000     -9.8134578E-10
   31.56000     -1.1526704E-09
   31.62000     -1.3265552E-09
   31.68000     -1.5057127E-09
   31.74000     -1.6911357E-09
   31.80000     -1.8813897E-09
   31.86000     -2.0730007E-09
   31.92000     -2.2614008E-09
   31.98000     -2.4418563E-09
   32.04000     -2.6101197E-09
   32.10000     -2.7629254E-09
   32.16000     -2.8984979E-09
   32.22000     -3.0170364E-09
   32.28000     -3.1208387E-09
   32.34000     -3.2136833E-09
   32.40000     -3.2994207E-09
   32.46000     -3.3802423E-09
   32.52000     -3.4554437E-09
   32.58000     -3.5213930E-09
   32.64000     -3.5728558E-09
   32.70000     -3.6051320E-09
   32.76000     -3.6160428E-09
   32.82000     -3.6069028E-09
   32.88000     -3.5821639E-09
   32.94000     -3.5480725E-09
   33.00000     -3.5110581E-09
   33.06000     -3.4765102E-09
   33.12000     -3.4482157E-09
   33.18000     -3.4283121E-09
   33.24000     -3.4174299E-09
   33.30000     -3.4148042E-09
   33.36000     -3.4183878E-09
   33.42000     -3.4251688E-09
   33.48000     -3.4318590E-09
   33.54000     -3.4358880E-09
   33.60000     -3.4364038E-09
   33.66000     -3.4348535E-09
   33.72000     -3.4348135E-09
   33.78000     -3.4409811E-09
   33.84000     -3.4575400E-09
   33.90000     -3.4863930E-09
   33.96000     -3.5258960E-09
   34.02000     -3.5706893E-09
   34.08000     -3.6129315E-09
   34.14000     -3.6447187E-09
   34.20000     -3.6608652E-09
   34.26000     -3.6608356E-09
   34.32000     -3.6487346E-09
   34.38000     -3.6309902E-09
   34.44000     -3.6124856E-09
   34.50000     -3.5928287E-09
   34.56000     -3.5646739E-09
   34.62000     -3.5152350E-09
   34.68000     -3.4306427E-09
   34.74000     -3.3013505E-09
   34.80000     -3.1261553E-09
   34.86000     -2.9129459E-09
   34.92000     -2.6758271E-09
   34.98000     -2.4299271E-09
   35.04000     -2.1861875E-09
   35.10000     -1.9482613E-09
   35.16000     -1.7125096E-09
   35.22000     -1.4706520E-09
   35.28000     -1.2136393E-09
   35.34000     -9.3514119E-10
   35.40000     -6.3358918E-10
   35.46000     -3.1250996E-10
   35.52000      2.0504523E-11
   35.58000      3.5560974E-10
   35.64000      6.8276634E-10
   35.70000      9.9361763E-10
   35.76000      1.2828237E-09
   35.82000      1.5485574E-09
   35.88000      1.7920500E-09
   35.94000      2.0163926E-09
   36.00000      2.2251014E-09
   36.06000      2.4210232E-09
   36.12000      2.6059195E-09
   36.18000      2.7806262E-09
   36.24000      2.9453548E-09
   36.30000      3.0997180E-09
   36.36000      3.2424110E-09
   36.42000      3.3708913E-09
   36.48000      3.4815610E-09
   36.54000      3.5706678E-09
   36.60000      3.6356340E-09
   36.66000      3.6761043E-09
   36.72000      3.6940506E-09
   36.78000      3.6927674E-09
   36.84000      3.6752528E-09
   36.90000      3.6428345E-09
   36.96000      3.5947638E-09
   37.02000      3.5289207E-09
   37.08000      3.4431611E-09
   37.14000      3.3365493E-09
   37.20000      3.2099043E-09
   37.26000      3.0655549E-09
   37.32000      2.9065976E-09
   37.38000      2.7360743E-09
   37.44000      2.5563194E-09
   37.50000      2.3685132E-09
   37.56000      2.1724085E-09
   37.62000      1.9663142E-09
   37.68000      1.7475339E-09
   37.74000      1.5133755E-09
   37.80000      1.2625417E-09
   37.86000      9.9635444E-10
   37.92000      7.1916856E-10
   37.98000      4.3761517E-10
   38.04000      1.5887906E-10
   38.10000     -1.1129032E-10
   38.16000     -3.7000966E-10
   38.22000     -6.1762423E-10
   38.28000     -8.5701568E-10
   38.34000     -1.0922692E-09
   38.40000     -1.3271859E-09
   38.46000     -1.5639472E-09
   38.52000     -1.8020435E-09
   38.58000     -2.0376021E-09
   38.64000     -2.2634101E-09
   38.70000     -2.4700058E-09
   38.76000     -2.6479239E-09
   38.82000     -2.7905589E-09
   38.88000     -2.8965075E-09
   38.94000     -2.9701306E-09
   39.00000     -3.0197129E-09
   39.06000     -3.0537417E-09
   39.12000     -3.0769023E-09
   39.18000     -3.0876961E-09
   39.24000     -3.0788976E-09
   39.30000     -3.0407044E-09
   39.36000     -2.9651219E-09
   39.42000     -2.8496061E-09
   39.48000     -2.6984615E-09
   39.54000     -2.5216651E-09
   39.60000     -2.3319460E-09
   39.66000     -2.1415134E-09
   39.72000     -1.9596389E-09
   39.78000     -1.7916101E-09
   39.84000     -1.6389076E-09
   39.90000     -1.5001115E-09
   39.96000     -1.3720947E-09
   40.02000     -1.2512543E-09
   40.08000     -1.1346561E-09
   40.14000     -1.0209373E-09
   40.20000     -9.1073638E-10
   40.26000     -8.0645951E-10
   40.32000     -7.1139189E-10
   40.38000     -6.2840916E-10
   40.44000     -5.5868959E-10
   40.50000     -5.0078536E-10
   40.56000     -4.5026571E-10
   40.62000     -4.0001671E-10
   40.68000     -3.4124500E-10
   40.74000     -2.6519226E-10
   40.80000     -1.6539609E-10
   40.86000     -3.9982739E-11
   40.92000      1.0687689E-10
   40.98000      2.6525956E-10
   41.04000      4.2195628E-10
   41.10000      5.6460681E-10
   41.16000      6.8604478E-10
   41.22000      7.8699131E-10
   41.28000      8.7571267E-10
   41.34000      9.6449304E-10
   41.40000      1.0641924E-09
   41.46000      1.1790616E-09
   41.52000      1.3039207E-09
   41.58000      1.4248399E-09
   41.64000      1.5230717E-09
   41.70000      1.5808123E-09
   41.76000      1.5868244E-09
   41.82000      1.5401281E-09
   41.88000      1.4506414E-09
   41.94000      1.3365554E-09
   42.00000      1.2191272E-09
   42.06000      1.1163404E-09
   42.12000      1.0373633E-09
   42.18000      9.7971253E-10
   42.24000      9.3035352E-10
   42.30000      8.7067575E-10
   42.36000      7.8376849E-10
   42.42000      6.6135036E-10
   42.48000      5.0763521E-10
   42.54000      3.3851810E-10
   42.60000      1.7633160E-10
   42.66000      4.2195324E-11
   42.72000     -5.1121402E-11
   42.78000     -1.0327364E-10
   42.84000     -1.2615964E-10
   42.90000     -1.3994714E-10
   42.96000     -1.6699755E-10
   43.02000     -2.2578049E-10
   43.08000     -3.2651523E-10
   43.14000     -4.6951704E-10
   43.20000     -6.4641509E-10
   43.26000     -8.4372381E-10
   43.32000     -1.0477087E-09
   43.38000     -1.2491010E-09
   43.44000     -1.4461206E-09
   43.50000     -1.6446455E-09
   43.56000     -1.8552856E-09
   43.62000     -2.0883213E-09
   43.68000     -2.3484610E-09
   43.74000     -2.6315981E-09
   43.80000     -2.9250025E-09
   43.86000     -3.2109462E-09
   43.92000     -3.4723004E-09
   43.98000     -3.6978527E-09
   44.04000     -3.8853285E-09
   44.10000     -4.0411661E-09
   44.16000     -4.1774229E-09
   44.22000     -4.3071777E-09
   44.28000     -4.4400963E-09
   44.34000     -4.5794963E-09
   44.40000     -4.7215756E-09
   44.46000     -4.8568021E-09
   44.52000     -4.9729048E-09
   44.58000     -5.0585882E-09
   44.64000     -5.1068931E-09
   44.70000     -5.1171827E-09
   44.76000     -5.0951074E-09
   44.82000     -5.0505244E-09
   44.88000     -4.9941011E-09
   44.94000     -4.9338222E-09
   45.00000     -4.8726028E-09
   45.06000     -4.8076738E-09
   45.12000     -4.7316355E-09
   45.18000     -4.6344852E-09
   45.24000     -4.5058295E-09
   45.30000     -4.3368114E-09
   45.36000     -4.1217119E-09
   45.42000     -3.8593431E-09
   45.48000     -3.5541181E-09
   45.54000     -3.2162657E-09
   45.60000     -2.8605296E-09
   45.66000     -2.5030888E-09
   45.72000     -2.1573097E-09
   45.78000     -1.8297942E-09
   45.84000     -1.5184558E-09
   45.90000     -1.2137327E-09
   45.96000     -9.0276653E-10
   46.02000     -5.7502192E-10
   46.08000     -2.2711406E-10
   46.14000      1.3511060E-10
   46.20000      4.9806753E-10
   46.26000      8.4490293E-10
   46.32000      1.1612367E-09
   46.38000      1.4401003E-09
   46.44000      1.6843752E-09
   46.50000      1.9059359E-09
   46.56000      2.1217739E-09
   46.62000      2.3483198E-09
   46.68000      2.5957700E-09
   46.74000      2.8643214E-09
   46.80000      3.1436993E-09
   46.86000      3.4163234E-09
   46.92000      3.6631180E-09
   46.98000      3.8698840E-09
   47.04000      4.0317989E-09
   47.10000      4.1542787E-09
   47.16000      4.2499355E-09
   47.22000      4.3330166E-09
   47.28000      4.4137418E-09
   47.34000      4.4948609E-09
   47.40000      4.5715898E-09
   47.46000      4.6345074E-09
   47.52000      4.6737716E-09
   47.58000      4.6827666E-09
   47.64000      4.6599236E-09
   47.70000      4.6085304E-09
   47.76000      4.5351869E-09
   47.82000      4.4477839E-09
   47.88000      4.3536055E-09
   47.94000      4.2577213E-09
   48.00000      4.1616675E-09
   48.06000      4.0626196E-09
   48.12000      3.9535113E-09
   48.18000      3.8245744E-09
   48.24000      3.6662933E-09
   48.30000      3.4730188E-09
   48.36000      3.2459140E-09
   48.42000      2.9939007E-09
   48.48000      2.7319733E-09
   48.54000      2.4773286E-09
   48.60000      2.2446729E-09
   48.66000      2.0424036E-09
   48.72000      1.8709458E-09
   48.78000      1.7236492E-09
   48.84000      1.5897058E-09
   48.90000      1.4579362E-09
   48.96000      1.3201676E-09
   49.02000      1.1732215E-09
   49.08000      1.0190681E-09
   49.14000      8.6330149E-10
   49.20000      7.1259426E-10
   49.26000      5.7208727E-10
   49.32000      4.4366055E-10
   49.38000      3.2568015E-10
   49.44000      2.1421230E-10
   49.50000      1.0508400E-10
   49.56000     -4.1599918E-12
   49.62000     -1.1320662E-10
   49.68000     -2.1908973E-10
   49.74000     -3.1709677E-10
   49.80000     -4.0175868E-10
   49.86000     -4.6738496E-10
   49.92000     -5.0814480E-10
   49.98000     -5.1820415E-10
   50.04000     -4.9250276E-10
   50.10000     -4.2827883E-10
   50.16000     -3.2670830E-10
   50.22000     -1.9354622E-10
   50.28000     -3.7868077E-11
   50.34000      1.3109454E-10
   50.40000      3.0789654E-10
   50.46000      4.9378962E-10
   50.52000      6.9702122E-10
   50.58000      9.3005831E-10
   50.64000      1.2047207E-09
   50.70000      1.5272319E-09
   50.76000      1.8952717E-09
   50.82000      2.2982320E-09
   50.88000      2.7205198E-09
   50.94000      3.1465861E-09
   51.00000      3.5658694E-09
   51.06000      3.9760977E-09
   51.12000      4.3841224E-09
   51.18000      4.8042450E-09
   51.24000      5.2546381E-09
   51.30000      5.7528178E-09
   51.36000      6.3113745E-09
   51.42000      6.9351973E-09
   51.48000      7.6212183E-09
   51.54000      8.3610709E-09
   51.60000      9.1460564E-09
   51.66000      9.9727648E-09
   51.72000      1.0847145E-08
   51.78000      1.1785152E-08
   51.84000      1.2809299E-08
   51.90000      1.3942143E-08
   51.96000      1.5199065E-08
   52.02000      1.6583119E-08
   52.08000      1.8083890E-08
   52.14000      1.9680810E-08
   52.20000      2.1349591E-08
   52.26000      2.3069486E-08
   52.32000      2.4828834E-08
   52.38000      2.6627159E-08
   52.44000      2.8473169E-08
   52.50000      3.0379312E-08
   52.56000      3.2354496E-08
   52.62000      3.4397146E-08
   52.68000      3.6490754E-08
   52.74000      3.8603417E-08
   52.80000      4.0691713E-08
   52.86000      4.2707640E-08
   52.92000      4.4606203E-08
   52.98000      4.6350884E-08
   53.04000      4.7914753E-08
   53.10000      4.9276963E-08
   53.16000      5.0415974E-08
   53.22000      5.1302209E-08
   53.28000      5.1892862E-08
   53.34000      5.2130400E-08
   53.40000      5.1944859E-08
   53.46000      5.1258624E-08
   53.52000      4.9992011E-08
   53.58000      4.8068074E-08
   53.64000      4.5415771E-08
   53.70000      4.1971159E-08
   53.76000      3.7676656E-08
   53.82000      3.2478635E-08
   53.88000      2.6324166E-08
   53.94000      1.9157991E-08
   54.00000      1.0921052E-08
   54.06000      1.5515771E-09
   54.12000     -9.0112451E-09
   54.18000     -2.0822032E-08
   54.24000     -3.3924071E-08
   54.30000     -4.8345850E-08
   54.36000     -6.4100057E-08
   54.42000     -8.1184758E-08
   54.48000     -9.9585719E-08
   54.54000     -1.1927894E-07
   54.60000     -1.4023246E-07
   54.66000     -1.6240723E-07
   54.72000     -1.8575631E-07
   54.78000     -2.1022294E-07
   54.84000     -2.3573691E-07
   54.90000     -2.6221059E-07
   54.96000     -2.8953559E-07
   55.02000     -3.1758202E-07
   55.08000     -3.4620055E-07
   55.14000     -3.7522707E-07
   55.20000     -4.0448765E-07
   55.26000     -4.3380246E-07
   55.32000     -4.6298683E-07
   55.38000     -4.9185030E-07
   55.44000     -5.2019573E-07
   55.50000     -5.4781890E-07
   55.56000     -5.7451012E-07