 -0.750000000       0.00000000    
 -0.689999998       0.00000000    
 -0.629999995       0.00000000    
 -0.569999993       0.00000000    
 -0.509999990       0.00000000    
 -0.449999988       0.00000000    
 -0.389999986       0.00000000    
 -0.330000013       0.00000000    
 -0.270000011       0.00000000    
 -0.209999993       0.00000000    
 -0.150000006       0.00000000    
  -9.00000036E-02   6.11912254E-33
  -2.99999993E-02   6.82241581E-32
   2.99999993E-02   3.46290127E-31
   9.00000036E-02   1.06366431E-30
  0.150000006       2.59786659E-30
  0.209999993       8.38132964E-30
  0.270000011       3.43982252E-29
  0.330000013       1.08725294E-28
  0.389999986       1.77609633E-28
  0.449999988      -2.15410955E-28
  0.509999990      -2.34821243E-27
  0.569999993      -7.73428968E-27
  0.629999995      -1.41563632E-26
  0.689999998      -7.04287698E-27
  0.750000000       4.70025576E-26
  0.810000002       1.82034671E-25
  0.870000005       3.59244569E-25
  0.930000007       3.42429284E-25
  0.990000010      -3.63420823E-25
   1.04999995      -2.25317173E-24
   1.11000001      -4.99135684E-24
   1.16999996      -6.19146829E-24
   1.23000002      -9.27855830E-25
   1.28999996       1.59933739E-23
   1.35000002       4.34803502E-23
   1.40999997       6.51564776E-23
   1.47000003       4.56554700E-23
   1.52999997      -5.56702422E-23
   1.59000003      -2.46051548E-22
   1.64999998      -4.47192752E-22
   1.71000004      -4.70252885E-22
   1.76999998      -7.56879411E-23
   1.83000004       8.50021481E-22
   1.88999999       2.05417986E-21
   1.95000005       2.78259499E-21
   2.00999999       1.97322966E-21
   2.06999993      -1.10839971E-21
   2.13000011      -5.99032244E-21
   2.19000006      -1.04451763E-20
   2.25000000      -1.09807039E-20
   2.30999994      -4.67348282E-21
   2.36999989       8.30668342E-21
   2.43000007       2.31400238E-20
   2.49000001       3.15949778E-20
   2.54999995       2.65310879E-20
   2.60999990       7.54133375E-21
   2.67000008      -1.65940299E-20
   2.73000002      -3.24852115E-20
   2.78999996      -3.31899468E-20
   2.84999990      -2.85723499E-20
   2.91000009      -4.37774062E-20
   2.97000003      -9.87488668E-20
   3.02999997      -1.75455425E-19
   3.08999991      -1.96483649E-19
   3.15000010      -4.55560675E-20
   3.21000004       3.55433977E-19
   3.26999998       9.37867822E-19
   3.32999992       1.41567909E-18
   3.39000010       1.33718895E-18
   3.45000005       3.01424279E-19
   3.50999999      -1.71904468E-18
   3.56999993      -4.11801032E-18
   3.63000011      -5.67364175E-18
   3.69000006      -4.97669493E-18
   3.75000000      -1.18919921E-18
   3.80999994       5.19468349E-18
   3.86999989       1.20468558E-17
   3.93000007       1.61121962E-17
   3.99000001       1.43089921E-17
   4.05000019       5.34351603E-18
   4.11000013      -9.14353041E-18
   4.17000008      -2.46000106E-17
   4.23000002      -3.49608581E-17
   4.28999996      -3.49410719E-17
   4.34999990      -2.22412522E-17
   4.40999985       1.31734696E-18
   4.46999979       3.01778218E-17
   4.53000021       5.66379234E-17
   4.59000015       7.28127653E-17
   4.65000010       7.22044964E-17
   4.71000004       5.07096457E-17
   4.76999998       7.55094138E-18
   4.82999992      -5.32548507E-17
   4.88999987      -1.20974357E-16
   4.94999981      -1.77053537E-16
   5.01000023      -1.96950949E-16
   5.07000017      -1.56625246E-16
   5.13000011      -4.33964228E-17
   5.19000006       1.32081341E-16
   5.25000000       3.28517467E-16
   5.30999994       4.77521971E-16
   5.36999989       5.01378971E-16
   5.42999983       3.42818930E-16
   5.48999977      -2.14403209E-18
   5.55000019      -4.62150811E-16
   5.61000013      -8.93254371E-16
   5.67000008      -1.11429905E-15
   5.73000002      -9.70666723E-16
   5.78999996      -4.07795595E-16
   5.84999990       4.74808289E-16
   5.90999985       1.41898665E-15
   5.96999979       2.06953209E-15
   6.03000021       2.09365708E-15
   6.09000015       1.32161301E-15
   6.15000010      -1.46903108E-16
   6.21000004      -1.92309429E-15
   6.26999998      -3.42081921E-15
   6.32999992      -4.04021502E-15
   6.38999987      -3.38210091E-15
   6.44999981      -1.41382293E-15
   6.51000023       1.47688749E-15
   6.57000017       4.55981807E-15
   6.63000011       6.94214228E-15
   6.69000006       7.79024248E-15
   6.75000000       6.53582057E-15
   6.80999994       3.03516172E-15
   6.86999989      -2.32411971E-15
   6.92999983      -8.57455688E-15
   6.98999977      -1.42129875E-14
   7.05000019      -1.74029356E-14
   7.11000013      -1.63914106E-14
   7.17000008      -1.01177704E-14
   7.23000002       1.14032234E-15
   7.28999996       1.53596211E-14
   7.34999990       2.88984263E-14
   7.40999985       3.73136580E-14
   7.46999979       3.67432660E-14
   7.53000021       2.54204108E-14
   7.59000015       4.70951970E-15
   7.65000010      -2.08624079E-14
   7.71000004      -4.47487811E-14
   7.76999998      -6.03715415E-14
   7.82999992      -6.32148549E-14
   7.88999987      -5.21819086E-14
   7.94999981      -2.96643711E-14
   8.01000023      -3.53922870E-16
   8.06999969       3.05777234E-14
   8.13000011       5.89957838E-14
   8.18999958       8.22493928E-14
   8.25000000       9.83794413E-14
   8.31000042       1.04669318E-13
   8.36999989       9.66366608E-14
   8.43000031       6.85319924E-14
   8.48999977       1.57619669E-14
   8.55000019      -6.13717857E-14
   8.60999966      -1.54170879E-13
   8.67000008      -2.44202797E-13
   8.72999954      -3.05581352E-13
   8.78999996      -3.11074707E-13
   8.85000038      -2.40681932E-13
   8.90999985      -9.00609340E-14
   8.97000027       1.24183487E-13
   9.02999973       3.64604533E-13
   9.09000015       5.79033457E-13
   9.14999962       7.11425439E-13
   9.21000004       7.14693116E-13
   9.27000046       5.62336365E-13
   9.32999992       2.56304201E-13
   9.39000034      -1.70179341E-13
   9.44999981      -6.54818810E-13
   9.51000023      -1.11281958E-12
   9.56999969      -1.44727871E-12
   9.63000011      -1.56331404E-12
   9.68999958      -1.38588164E-12
   9.75000000      -8.80176682E-13
   9.81000042      -7.12861844E-14
   9.86999989       9.42774287E-13
   9.93000031       1.99188040E-12
   9.98999977       2.85438426E-12
   10.0500002       3.29867644E-12
   10.1099997       3.13968946E-12
   10.1700001       2.29688577E-12
   10.2299995       8.35846420E-13
   10.2900000      -1.02315205E-12
   10.3500004      -2.93838738E-12
   10.4099998      -4.51800273E-12
   10.4700003      -5.41238452E-12
   10.5299997      -5.40177321E-12
   10.5900002      -4.45275154E-12
   10.6499996      -2.72613637E-12
   10.7100000      -5.34286157E-13
   10.7700005       1.73764399E-12
   10.8299999       3.72089469E-12
   10.8900003       5.13600057E-12
   10.9499998       5.83181463E-12
   11.0100002       5.78843787E-12
   11.0699997       5.09630576E-12
   11.1300001       3.93036862E-12
   11.1899996       2.53376768E-12
   11.2500000       1.21166000E-12
   11.3100004       3.19935105E-13
   11.3699999       2.24585921E-13
   11.4300003       1.21250720E-12
   11.4899998       3.35467591E-12
   11.5500002       6.35182922E-12
   11.6099997       9.41921714E-12
   11.6700001       1.12779248E-11
   11.7299995       1.03070321E-11
   11.7900000       4.87355338E-12
   11.8500004      -6.19495991E-12
   11.9099998      -2.30807352E-11
   11.9700003      -4.45063222E-11
   12.0299997      -6.74436618E-11
   12.0900002      -8.70884684E-11
   12.1499996      -9.71318512E-11
   12.2100000      -9.02998648E-11
   12.2700005      -5.90825791E-11
   12.3299999       3.44954729E-12
   12.3900003       1.02840042E-10
   12.4499998       2.42525694E-10
   12.5100002       4.23246049E-10
   12.5699997       6.42611575E-10
   12.6300001       8.94860130E-10
   12.6899996       1.17084875E-09
   12.7500000       1.45834766E-09
   12.8100004       1.74270032E-09
   12.8699999       2.00788364E-09
   12.9300003       2.23792940E-09
   12.9899998       2.41857978E-09
   13.0500002       2.53896193E-09
   13.1099997       2.59302091E-09
   13.1700001       2.58045652E-09
   13.2299995       2.50698284E-09
   13.2900000       2.38384312E-09
   13.3500004       2.22664620E-09
   13.4099998       2.05368678E-09
   13.4700003       1.88399141E-09
   13.5299997       1.73533166E-09
   13.5900002       1.62242675E-09
   13.6499996       1.55551627E-09
   13.7100000       1.53942947E-09
   13.7700005       1.57323998E-09
   13.8299999       1.65054137E-09
   13.8900003       1.76032300E-09
   13.9499998       1.88834726E-09
   14.0100002       2.01885331E-09
   14.0699997       2.13634532E-09
   14.1300001       2.22721219E-09
   14.1899996       2.28095365E-09
   14.2500000       2.29089259E-09
   14.3100004       2.25435581E-09
   14.3699999       2.17241536E-09
   14.4300003       2.04933248E-09
   14.4899998       1.89183580E-09
   14.5500002       1.70831849E-09
   14.6099997       1.50796664E-09
   14.6700001       1.29980327E-09
   14.7299995       1.09164666E-09
   14.7900000       8.89058882E-10
   14.8500004       6.94448499E-10
   14.9099998       5.06554410E-10
   14.9700003       3.20530408E-10
   15.0299997       1.28749914E-10
   15.0900002      -7.77188591E-11
   15.1499996      -3.07209314E-10
   15.2100000      -5.65514580E-10
   15.2700005      -8.54347870E-10
   15.3299999      -1.17057164E-09
   15.3900003      -1.50637847E-09
   15.4499998      -1.85037019E-09
   15.5100002      -2.18925722E-09
   15.5699997      -2.50976528E-09
   15.6300001      -2.80032086E-09
   15.6899996      -3.05219383E-09
   15.7500000      -3.25996830E-09
   15.8100004      -3.42141537E-09
   15.8699999      -3.53699847E-09
   15.9300003      -3.60928887E-09
   15.9899998      -3.64252251E-09
   16.0499992      -3.64239239E-09
   16.1100006      -3.61600905E-09
   16.1700001      -3.57186036E-09
   16.2299995      -3.51956730E-09
   16.2900009      -3.46931550E-09
   16.3500004      -3.43098194E-09
   16.4099998      -3.41312889E-09
   16.4699993      -3.42213302E-09
   16.5300007      -3.46170581E-09
   16.5900002      -3.53294327E-09
   16.6499996      -3.63486863E-09
   16.7099991      -3.76525300E-09
   16.7700005      -3.92141564E-09
   16.8299999      -4.10074241E-09
   16.8899994      -4.30078639E-09
   16.9500008      -4.51902071E-09
   17.0100002      -4.75245221E-09
   17.0699997      -4.99734831E-09
   17.1299992      -5.24926413E-09
   17.1900005      -5.50337553E-09
   17.2500000      -5.75494941E-09
   17.3099995      -5.99970074E-09
   17.3700008      -6.23378327E-09
   17.4300003      -6.45333875E-09
   17.4899998      -6.65372557E-09
   17.5499992      -6.82875001E-09
   17.6100006      -6.97029545E-09
   17.6700001      -7.06866254E-09
   17.7299995      -7.11373005E-09
   17.7900009      -7.09675252E-09
   17.8500004      -7.01233782E-09
   17.9099998      -6.86002677E-09
   17.9699993      -6.64492994E-09
   18.0300007      -6.37712372E-09
   18.0900002      -6.06987616E-09
   18.1499996      -5.73715742E-09
   18.2099991      -5.39116884E-09
   18.2700005      -5.04067810E-09
   18.3299999      -4.69073180E-09
   18.3899994      -4.34387726E-09
   18.4500008      -4.00251832E-09
   18.5100002      -3.67156439E-09
   18.5699997      -3.36036643E-09
   18.6299992      -3.08309112E-09
   18.6900005      -2.85716406E-09
   18.7500000      -2.70009015E-09
   18.8099995      -2.62556532E-09
   18.8700008      -2.64014610E-09
   18.9300003      -2.74164536E-09
   18.9899998      -2.91991831E-09
   19.0499992      -3.15989590E-09
   19.1100006      -3.44592332E-09
   19.1700001      -3.76595199E-09
   19.2299995      -4.11410994E-09
   19.2900009      -4.49069359E-09
   19.3500004      -4.89951812E-09
   19.4099998      -5.34350830E-09
   19.4699993      -5.82010484E-09
   19.5300007      -6.31817132E-09
   19.5900002      -6.81766421E-09
   19.6499996      -7.29238714E-09
   19.7099991      -7.71512187E-09
   19.7700005      -8.06358713E-09
   19.8299999      -8.32537150E-09
   19.8899994      -8.50026716E-09
   19.9500008      -8.59925375E-09
   20.0100002      -8.64045990E-09
   20.0699997      -8.64338734E-09
   20.1299992      -8.62325500E-09
   20.1900005      -8.58728821E-09
   20.2500000      -8.53411031E-09
   20.3099995      -8.45636450E-09
   20.3700008      -8.34559177E-09
   20.4300003      -8.19758306E-09
   20.4899998      -8.01622502E-09
   20.5499992      -7.81435272E-09
   20.6100006      -7.61113039E-09
   20.6700001      -7.42665707E-09
   20.7299995      -7.27552685E-09
   20.7900009      -7.16149273E-09
   20.8500004      -7.07511649E-09
   20.9099998      -6.99543135E-09
   20.9699993      -6.89539936E-09
   21.0300007      -6.74973721E-09
   21.0900002      -6.54282717E-09
   21.1499996      -6.27424956E-09
   21.2099991      -5.95997962E-09
   21.2700005      -5.62849145E-09
   21.3299999      -5.31255706E-09
   21.3899994      -5.03899988E-09
   21.4500008      -4.81958384E-09
   21.5100002      -4.64615901E-09
   21.5699997      -4.49206361E-09
   21.6299992      -4.31982228E-09
   21.6900005      -4.09301348E-09
   21.7500000      -3.78858100E-09
   21.8099995      -3.40546658E-09
   21.8700008      -2.96654301E-09
   21.9300003      -2.51301957E-09
   21.9899998      -2.09310858E-09
   22.0499992      -1.74872938E-09
   22.1100006      -1.50470758E-09
   22.1700001      -1.36400169E-09
   22.2299995      -1.31030931E-09
   22.2900009      -1.31678912E-09
   22.3500004      -1.35749700E-09
   22.4099998      -1.41725898E-09
   22.4699993      -1.49636292E-09
   22.5300007      -1.60839819E-09
   22.5900002      -1.77212023E-09
   22.6499996      -2.00043937E-09
   22.7099991      -2.29077446E-09
   22.7700005      -2.62061572E-09
   22.8299999      -2.95035663E-09
   22.8899994      -3.23287508E-09
   22.9500008      -3.42689699E-09
   23.0100002      -3.50973495E-09
   23.0699997      -3.48509732E-09
   23.1299992      -3.38327055E-09
   23.1900005      -3.25349436E-09
   23.2500000      -3.15090842E-09
   23.3099995      -3.12213078E-09
   23.3700008      -3.19382831E-09
   23.4300003      -3.36751671E-09
   23.4899998      -3.62173602E-09
   23.5499992      -3.92040711E-09
   23.6100006      -4.22435953E-09
   23.6700001      -4.50222126E-09
   23.7299995      -4.73732253E-09
   23.7900009      -4.92874319E-09
   23.8500004      -5.08667553E-09
   23.9099998      -5.22419175E-09
   23.9699993      -5.34866196E-09
   24.0300007      -5.45607426E-09
   24.0900002      -5.53032375E-09
   24.1499996      -5.54762192E-09
   24.2099991      -5.48422108E-09
   24.2700005      -5.32444311E-09
   24.3299999      -5.06593567E-09
   24.3899994      -4.72022998E-09
   24.4500008      -4.30847535E-09
   24.5100002      -3.85397136E-09
   24.5699997      -3.37418538E-09
   24.6299992      -2.87497182E-09
   24.6900005      -2.34885866E-09
   24.7500000      -1.77790038E-09
   24.8099995      -1.14022702E-09
   24.8700008      -4.18435092E-10
   24.9300003       3.92480215E-10
   24.9899998       1.27979027E-09
   25.0499992       2.21177232E-09
   25.1100006       3.14096238E-09
   25.1700001       4.01118116E-09
   25.2299995       4.76655870E-09
   25.2900009       5.36024736E-09
   25.3500004       5.76066705E-09
   25.4099998       5.95398619E-09
   25.4699993       5.94278360E-09
   25.5300007       5.74201220E-09
   25.5900002       5.37400480E-09
   25.6499996       4.86419438E-09
   25.7099991       4.23854063E-09
   25.7700005       3.52276008E-09
   25.8299999       2.74275247E-09
   25.8899994       1.92532568E-09
   25.9500008       1.09843101E-09
   26.0100002       2.90453828E-10
   26.0699997      -4.71524875E-10
   26.1299992      -1.16429733E-09
   26.1900005      -1.77149695E-09
   26.2500000      -2.28633690E-09
   26.3099995      -2.71334599E-09
   26.3700008      -3.06835712E-09
   26.4300003      -3.37629369E-09
   26.4899998      -3.66688857E-09
   26.5499992      -3.96913968E-09
   26.6100006      -4.30584013E-09
   26.6700001      -4.68961803E-09
   26.7299995      -5.12153742E-09
   26.7900009      -5.59254509E-09
   26.8500004      -6.08720230E-09
   26.9099998      -6.58849642E-09
   26.9699993      -7.08228276E-09
   27.0300007      -7.56011431E-09
   27.0900002      -8.01976974E-09
   27.1499996      -8.46353476E-09
   27.2099991      -8.89500207E-09
   27.2700005      -9.31568067E-09
   27.3299999      -9.72279324E-09
   27.3899994      -1.01092459E-08
   27.4500008      -1.04659694E-08
   27.5100002      -1.07857954E-08
   27.5699997      -1.10672929E-08
   27.6299992      -1.13167964E-08
   27.6900005      -1.15474350E-08
   27.7500000      -1.17750849E-08
   27.8099995      -1.20125012E-08
   27.8700008      -1.22636603E-08
   27.9300003      -1.25204478E-08
   27.9899998      -1.27629471E-08
   28.0499992      -1.29633237E-08
   28.1100006      -1.30919631E-08
   28.1700001      -1.31238025E-08
   28.2299995      -1.30428432E-08
   28.2900009      -1.28435591E-08
   28.3500004      -1.25291066E-08
   28.4099998      -1.21073249E-08
   28.4699993      -1.15861978E-08
   28.5300007      -1.09705516E-08
   28.5900002      -1.02611857E-08
   28.6499996      -9.45670831E-09
   28.7099991      -8.55724291E-09
   28.7700005      -7.56842855E-09
   28.8299999      -6.50388587E-09
   28.8899994      -5.38485034E-09
   28.9500008      -4.23672120E-09
   29.0100002      -3.08352877E-09
   29.0699997      -1.94226879E-09
   29.1299992      -8.19266210E-10
   29.1900005       2.89902380E-10
   29.2500000       1.39666412E-09
   29.3099995       2.51304377E-09
   29.3700008       3.64475872E-09
   29.4300003       4.78620477E-09
   29.4899998       5.91906524E-09
   29.5499992       7.01505121E-09
   29.6100006       8.04186850E-09
   29.6700001       8.97045815E-09
   29.7299995       9.78113679E-09
   29.7900009       1.04666276E-08
   29.8500004       1.10309779E-08
   29.9099998       1.14846923E-08
   29.9699993       1.18377308E-08
   30.0300007       1.20928627E-08
   30.0900002       1.22418813E-08
   30.1499996       1.22663977E-08
   30.2099991       1.21433219E-08
   30.2700005       1.18533947E-08
   30.3299999       1.13897878E-08
   30.3899994       1.07634524E-08
   30.4500008       1.00028315E-08
   30.5100002       9.14755116E-09
   30.5699997       8.23796942E-09
   30.6299992       7.30419192E-09
   30.6900005       6.35858521E-09
   30.7500000       5.39466294E-09
   30.8099995       4.39293713E-09
   30.8700008       3.33170735E-09
   30.9300003       2.19890772E-09
   30.9899998       1.00065822E-09
   31.0499992      -2.36645065E-10
   31.1100006      -1.47157020E-09
   31.1700001      -2.65846523E-09
   31.2299995      -3.76013887E-09
   31.2900009      -4.75804462E-09
   31.3500004      -5.65645664E-09
   31.4099998      -6.47913545E-09
   31.4699993      -7.25950144E-09
   31.5300007      -8.02747113E-09
   31.5900002      -8.79726336E-09
   31.6499996      -9.56023172E-09
   31.7099991      -1.02852260E-08
   31.7700005      -1.09265503E-08
   31.8299999      -1.14371090E-08
   31.8899994      -1.17825021E-08
   31.9500008      -1.19513972E-08
   32.0099983      -1.19585666E-08
   32.0699997      -1.18393562E-08
   32.1300011      -1.16372121E-08
   32.1899986      -1.13883063E-08
   32.2500000      -1.11084590E-08
   32.3100014      -1.07869020E-08
   32.3699989      -1.03891900E-08
   32.4300003      -9.86847581E-09
   32.4900017      -9.18146714E-09
   32.5499992      -8.30367508E-09
   32.6100006      -7.23881088E-09
   32.6699982      -6.01915628E-09
   32.7299995      -4.69689088E-09
   32.7900009      -3.32948913E-09
   32.8499985      -1.96431227E-09
   32.9099998      -6.27706664E-10
   32.9700012       6.77787770E-10
   33.0299988       1.96742223E-09
   33.0900002       3.26181948E-09
   33.1500015       4.57270799E-09
   33.2099991       5.89190607E-09
   33.2700005       7.18744442E-09
   33.3300018       8.40823766E-09
   33.3899994       9.49584589E-09
   33.4500008       1.03995035E-08
   33.5099983       1.10895195E-08
   33.5699997       1.15645795E-08
   33.6300011       1.18504548E-08
   33.6899986       1.19903065E-08
   33.7500000       1.20296129E-08
   33.8100014       1.20005845E-08
   33.8699989       1.19112746E-08
   33.9300003       1.17430927E-08
   33.9900017       1.14576313E-08
   34.0499992       1.10104788E-08
   34.1100006       1.03671889E-08
   34.1699982       9.51584767E-09
   34.2299995       8.47191295E-09
   34.2900009       7.27379312E-09
   34.3499985       5.97093130E-09
   34.4099998       4.60868588E-09
   34.4700012       3.21522364E-09
   34.5299988       1.79470983E-09
   34.5900002       3.28792937E-10
   34.6500015      -1.21441701E-09
   34.7099991      -2.86701263E-09
   34.7700005      -4.64795535E-09
   34.8300018      -6.55398180E-09
   34.8899994      -8.55762039E-09
   34.9500008      -1.06130154E-08
   35.0099983      -1.26678854E-08
   35.0699997      -1.46779389E-08
   35.1300011      -1.66192073E-08
   35.1899986      -1.84941733E-08
   35.2500000      -2.03294555E-08
   35.3100014      -2.21654997E-08
   35.3699989      -2.40414568E-08
   35.4300003      -2.59801158E-08
   35.4900017      -2.79778636E-08
   35.5499992      -3.00029939E-08
   35.6100006      -3.20029230E-08
   35.6699982      -3.39178641E-08
   35.7299995      -3.56964875E-08
   35.7900009      -3.73084390E-08
   35.8499985      -3.87497110E-08
   35.9099998      -4.00392359E-08
   35.9700012      -4.12077910E-08
   36.0299988      -4.22829167E-08
   36.0900002      -4.32747527E-08
   36.1500015      -4.41676669E-08
   36.2099991      -4.49206858E-08
   36.2700005      -4.54770870E-08
   36.3300018      -4.57803537E-08
   36.3899994      -4.57914169E-08
   36.4500008      -4.55014444E-08
   36.5099983      -4.49356072E-08
   36.5699997      -4.41462262E-08
   36.6300011      -4.31972325E-08
   36.6899986      -4.21448831E-08
   36.7500000      -4.10211065E-08
   36.8100014      -3.98249682E-08
   36.8699989      -3.85251475E-08
   36.9300003      -3.70726241E-08
   36.9900017      -3.54194079E-08
   37.0499992      -3.35371944E-08
   37.1100006      -3.14298312E-08
   37.1699982      -2.91355757E-08
   37.2299995      -2.67183413E-08
   37.2900009      -2.42508342E-08
   37.3499985      -2.17950848E-08
   37.4099998      -1.93868797E-08
   37.4700012      -1.70293664E-08
   37.5299988      -1.46981440E-08
   37.5900002      -1.23562183E-08
   37.6500015      -9.97377470E-09
   37.7099991      -7.54579510E-09
   37.7700005      -5.10108444E-09
   37.8300018      -2.69908362E-09
   37.8899994      -4.15091211E-10
   37.9500008       1.68128889E-09
   38.0099983       3.54701957E-09
   38.0699997       5.17835019E-09
   38.1300011       6.61059874E-09
   38.1899986       7.90471688E-09
   38.2500000       9.12506071E-09
   38.3100014       1.03160032E-08
   38.3699989       1.14854997E-08
   38.4300003       1.26013573E-08
   38.4900017       1.36014728E-08
   38.5499992       1.44144909E-08
   38.6100006       1.49837032E-08
   38.6699982       1.52859787E-08
   38.7299995       1.53392552E-08
   38.7900009       1.51960791E-08
   38.8499985       1.49254369E-08
   38.9099998       1.45891166E-08
   38.9700012       1.42207650E-08
   39.0299988       1.38149909E-08
   39.0900002       1.33305198E-08
   39.1500015       1.27066153E-08
   39.2099991       1.18872476E-08
   39.2700005       1.08445501E-08
   39.3300018       9.59310054E-09
   39.3899994       8.18964541E-09
   39.4500008       6.71808076E-09
   39.5099983       5.26491384E-09
   39.5699997       3.89396204E-09
   39.6300011       2.62927924E-09
   39.6899986       1.45216872E-09
   39.7500000       3.12854409E-10
   39.8100014      -8.47881265E-10
   39.8699989      -2.07508588E-09
   39.9300003      -3.38223760E-09
   39.9900017      -4.74557016E-09
   40.0499992      -6.11131323E-09
   40.1100006      -7.41274997E-09
   40.1699982      -8.59106564E-09
   40.2299995      -9.61313784E-09
   40.2900009      -1.04806350E-08
   40.3499985      -1.12276082E-08
   40.4099998      -1.19073089E-08
   40.4700012      -1.25724364E-08
   40.5299988      -1.32552982E-08
   40.5900002      -1.39547156E-08
   40.6500015      -1.46344972E-08
   40.7099991      -1.52343862E-08
   40.7700005      -1.56898370E-08
   40.8300018      -1.59536331E-08
   40.8899994      -1.60114730E-08
   40.9500008      -1.58860249E-08
   41.0099983      -1.56282987E-08
   41.0699997      -1.52999711E-08
   41.1300011      -1.49534412E-08
   41.1899986      -1.46166581E-08
   41.2500000      -1.42875471E-08
   41.3100014      -1.39390304E-08
   41.3699989      -1.35320102E-08
   41.4300003      -1.30314399E-08
   41.4900017      -1.24201014E-08
   41.5499992      -1.17059411E-08
   41.6100006      -1.09209006E-08
   41.6699982      -1.01118127E-08
   41.7299995      -9.32619493E-09
   41.7900009      -8.59747384E-09
   41.8499985      -7.93444066E-09
   41.9099998      -7.31857597E-09
   41.9700012      -6.71023592E-09
   42.0299988      -6.06153483E-09
   42.0900002      -5.33125233E-09
   42.1500015      -4.49638460E-09
   42.2099991      -3.55645713E-09
   42.2700005      -2.52971066E-09
   42.3300018      -1.44346790E-09
   42.3899994      -3.22936039E-10
   42.4500008       8.17320656E-10
   42.5099983       1.97670924E-09
   42.5699997       3.16656901E-09
   42.6300011       4.40449632E-09
   42.6899986       5.70752734E-09
   42.7500000       7.08638037E-09
   42.8100014       8.54208793E-09
   42.8699989       1.00654569E-08
   42.9300003       1.16391616E-08
   42.9900017       1.32417481E-08
   43.0499992       1.48524597E-08
   43.1100006       1.64554610E-08
   43.1699982       1.80421154E-08
   43.2299995       1.96105390E-08
   43.2900009       2.11626805E-08
   43.3499985       2.27001440E-08
   43.4099998       2.42204994E-08
   43.4700012       2.57154689E-08
   43.5299988       2.71714686E-08
   43.5900002       2.85719057E-08
   43.6500015       2.99001606E-08
   43.7099991       3.11421751E-08
   43.7700005       3.22882237E-08
   43.8300018       3.33338050E-08
   43.8899994       3.42798465E-08
   43.9500008       3.51321461E-08
   44.0099983       3.58997596E-08
   44.0699997       3.65922119E-08
   44.1300011       3.72160294E-08
   44.1899986       3.77715814E-08
   44.2500000       3.82515530E-08
   44.3100014       3.86418435E-08
   44.3699989       3.89247319E-08
   44.4300003       3.90831012E-08
   44.4900017       3.91041226E-08
   44.5499992       3.89810992E-08
   44.6100006       3.87131465E-08
   44.6699982       3.83032912E-08
   44.7299995       3.77561165E-08
   44.7900009       3.70758180E-08
   44.8499985       3.62651988E-08
   44.9099998       3.53254421E-08
   44.9700012       3.42564483E-08
   45.0299988       3.30576135E-08
   45.0900002       3.17291189E-08
   45.1500015       3.02737888E-08
   45.2099991       2.86991497E-08
   45.2700005       2.70190696E-08
   45.3300018       2.52540211E-08
   45.3899994       2.34294362E-08
   45.4500008       2.15722658E-08
   45.5099983       1.97067500E-08
   45.5699997       1.78507680E-08
   45.6300011       1.60141074E-08
   45.6899986       1.41993128E-08
   45.7500000       1.24048327E-08
   45.8100014       1.06294289E-08
   45.8699989       8.87638585E-09
   45.9300003       7.15624182E-09
   45.9900017       5.48721912E-09
   46.0499992       3.89324439E-09
   46.1100006       2.40009013E-09
   46.1699982       1.03066655E-09
   46.2299995      -1.99282993E-10
   46.2900009      -1.28388478E-09
   46.3499985      -2.22740137E-09
   46.4099998      -3.04187853E-09
   46.4700012      -3.74274789E-09
   46.5299988      -4.34363434E-09
   46.5900002      -4.85194285E-09
   46.6500015      -5.26661514E-09
   46.7099991      -5.57876900E-09
   46.7700005      -5.77497161E-09
   46.8300018      -5.84205262E-09
   46.8899994      -5.77187231E-09
   46.9500008      -5.56458879E-09
   47.0099983      -5.22953369E-09
   47.0699997      -4.78363615E-09
   47.1300011      -4.24805835E-09
   47.1899986      -3.64413832E-09
   47.2500000      -2.98980440E-09
   47.3100014      -2.29735519E-09
   47.3699989      -1.57309965E-09
   47.4300003      -8.18838775E-10
   47.4900017      -3.47029280E-11
   47.5499992       7.77512332E-10
   47.6100006       1.61154756E-09
   47.6699982       2.45532616E-09
   47.7299995       3.29153194E-09
   47.7900009       4.09998968E-09
   47.8499985       4.86112262E-09
   47.9099998       5.55945912E-09
   47.9700012       6.18622353E-09
   48.0299988       6.74040601E-09
   48.0900002       7.22817450E-09
   48.1500015       7.66083019E-09
   48.2099991       8.05168376E-09
   48.2700005       8.41232417E-09
   48.3300018       8.74893580E-09
   48.3899994       9.05956732E-09
   48.4500008       9.33340338E-09
   48.5099983       9.55282786E-09
   48.5699997       9.69828307E-09
   48.6300011       9.75471792E-09
   48.6899986       9.71749436E-09
   48.7500000       9.59535296E-09
   48.8100014       9.40896250E-09
   48.8699989       9.18527565E-09
   48.9300003       8.94966501E-09
   48.9900017       8.71883987E-09
   49.0499992       8.49717008E-09
   49.1100006       8.27761504E-09
   49.1699982       8.04651634E-09
   49.2299995       7.79009657E-09
   49.2900009       7.50010898E-09
   49.3499985       7.17676851E-09
   49.4099998       6.82835699E-09
   49.4700012       6.46810561E-09
   49.5299988       6.10969719E-09
   49.5900002       5.76288484E-09
   49.6500015       5.43048539E-09
   49.7099991       5.10755038E-09
   49.7700005       4.78301532E-09
   49.8300018       4.44345893E-09
   49.8899994       4.07797884E-09
   49.9500008       3.68266617E-09
   50.0099983       3.26308935E-09
   50.0699997       2.83372481E-09
   50.1300011       2.41427722E-09
   50.1899986       2.02396677E-09
   50.2500000       1.67561864E-09
   50.3100014       1.37147316E-09
   50.3699989       1.10205856E-09
   50.4300003       8.48493553E-10
   50.4900017       5.87596916E-10
   50.5499992       2.98425396E-10
   50.6100006      -3.15534057E-11