 -0.750000000       0.00000000    
 -0.689999998       0.00000000    
 -0.629999995       0.00000000    
 -0.569999993       0.00000000    
 -0.509999990       0.00000000    
 -0.449999988       0.00000000    
 -0.389999986      -4.07174753E-23
 -0.330000013      -3.70301861E-22
 -0.270000011      -1.66781139E-21
 -0.209999993      -4.78212338E-21
 -0.150000006      -9.02172855E-21
  -9.00000036E-02  -8.47677082E-21
  -2.99999993E-02   1.21903893E-20
   2.99999993E-02   7.77930150E-20
   9.00000036E-02   2.10526940E-19
  0.150000006       3.97053131E-19
  0.209999993       5.32863237E-19
  0.270000011       3.63509923E-19
  0.330000013      -5.17872294E-19
  0.389999986      -2.51360977E-18
  0.449999988      -5.60308076E-18
  0.509999990      -8.68376606E-18
  0.569999993      -8.98725945E-18
  0.629999995      -2.27097453E-18
  0.689999998       1.53365208E-17
  0.750000000       4.34496568E-17
  0.810000002       7.25878516E-17
  0.870000005       8.16067673E-17
  0.930000007       4.20821221E-17
  0.990000010      -6.69224982E-17
   1.04999995      -2.35728555E-16
   1.11000001      -4.03296977E-16
   1.16999996      -4.56966864E-16
   1.23000002      -2.69579962E-16
   1.28999996       2.24484589E-16
   1.35000002       9.40589748E-16
   1.40999997       1.59591712E-15
   1.47000003       1.76178957E-15
   1.52999997       1.04289915E-15
   1.59000003      -6.60298605E-16
   1.64999998      -2.92883389E-15
   1.71000004      -4.80266876E-15
   1.76999998      -5.06991020E-15
   1.83000004      -2.83656934E-15
   1.88999999       1.83848628E-15
   1.95000005       7.58386121E-15
   2.00999999       1.19381162E-14
   2.06999993       1.22345871E-14
   2.13000011       6.88296051E-15
   2.19000006      -3.51432720E-15
   2.25000000      -1.58351505E-14
   2.30999994      -2.52587681E-14
   2.36999989      -2.70746763E-14
   2.43000007      -1.87822289E-14
   2.49000001      -1.51925513E-15
   2.54999995       1.99456710E-14
   2.60999990       3.88028131E-14
   2.67000008       4.87496396E-14
   2.73000002       4.63525126E-14
   2.78999996       3.21084034E-14
   2.84999990       9.72198921E-15
   2.91000009      -1.59447362E-14
   2.97000003      -4.10319904E-14
   3.02999997      -6.36102499E-14
   3.08999991      -8.27140006E-14
   3.15000010      -9.60226026E-14
   3.21000004      -9.78288495E-14
   3.26999998      -7.92325800E-14
   3.32999992      -3.16162332E-14
   3.39000010       4.73682169E-14
   3.45000005       1.47994125E-13
   3.50999999       2.46429152E-13
   3.56999993       3.09135936E-13
   3.63000011       3.03643395E-13
   3.69000006       2.12214469E-13
   3.75000000       4.25623959E-14
   3.80999994      -1.70023595E-13
   3.86999989      -3.71591294E-13
   3.93000007      -5.06928592E-13
   3.99000001      -5.38504300E-13
   4.05000019      -4.58630800E-13
   4.11000013      -2.89326018E-13
   4.17000008      -7.02567277E-14
   4.23000002       1.58754235E-13
   4.28999996       3.71222963E-13
   4.34999990       5.56184601E-13
   4.40999985       7.08173808E-13
   4.46999979       8.11586096E-13
   4.53000021       8.30332276E-13
   4.59000015       7.12094012E-13
   4.65000010       4.09241624E-13
   4.71000004      -9.09792058E-14
   4.76999998      -7.41089319E-13
   4.82999992      -1.42702788E-12
   4.88999987      -1.98780684E-12
   4.94999981      -2.25678048E-12
   5.01000023      -2.10998558E-12
   5.07000017      -1.50312217E-12
   5.13000011      -4.83267126E-13
   5.19000006       8.27583011E-13
   5.25000000       2.26771401E-12
   5.30999994       3.67247682E-12
   5.36999989       4.89607790E-12
   5.42999983       5.81040424E-12
   5.48999977       6.28514515E-12
   5.55000019       6.16299503E-12
   5.61000013       5.24544731E-12
   5.67000008       3.29762628E-12
   5.73000002       6.85838715E-14
   5.78999996      -4.68647647E-12
   5.84999990      -1.11971135E-11
   5.90999985      -1.96879041E-11
   5.96999979      -3.03990964E-11
   6.03000021      -4.35960053E-11
   6.09000015      -5.95435645E-11
   6.15000010      -7.84349252E-11
   6.21000004      -1.00285009E-10
   6.26999998      -1.24821695E-10
   6.32999992      -1.51415935E-10
   6.38999987      -1.79084483E-10
   6.44999981      -2.06575160E-10
   6.51000023      -2.32518005E-10
   6.57000017      -2.55606591E-10
   6.63000011      -2.74769235E-10
   6.69000006      -2.89298946E-10
   6.75000000      -2.98924524E-10
   6.80999994      -3.03816666E-10
   6.86999989      -3.04526820E-10
   6.92999983      -3.01862091E-10
   6.98999977      -2.96706326E-10
   7.05000019      -2.89814617E-10
   7.11000013      -2.81627333E-10
   7.17000008      -2.72157158E-10
   7.23000002      -2.60990896E-10
   7.28999996      -2.47411813E-10
   7.34999990      -2.30605160E-10
   7.40999985      -2.09874687E-10
   7.46999979      -1.84795498E-10
   7.53000021      -1.55258417E-10
   7.59000015      -1.21410687E-10
   7.65000010      -8.35432556E-11
   7.71000004      -4.19914728E-11
   7.76999998       2.90391040E-12
   7.82999992       5.07716195E-11
   7.88999987       1.01158477E-10
   7.94999981       1.53506333E-10
   8.01000023       2.07194026E-10
   8.06999969       2.61641542E-10
   8.13000011       3.16434046E-10
   8.18999958       3.71409653E-10
   8.25000000       4.26673002E-10
   8.31000042       4.82538065E-10
   8.36999989       5.39440104E-10
   8.43000031       5.97872474E-10
   8.48999977       6.58382959E-10
   8.55000019       7.21620930E-10
   8.60999966       7.88385024E-10
   8.67000008       8.59602556E-10
   8.72999954       9.36194122E-10
   8.78999996       1.01882836E-09
   8.85000038       1.10763032E-09
   8.90999985       1.20195109E-09
   8.97000027       1.30029554E-09
   9.02999973       1.40046452E-09
   9.09000015       1.49988943E-09
   9.14999962       1.59606572E-09
   9.21000004       1.68695014E-09
   9.27000046       1.77120063E-09
   9.32999992       1.84818627E-09
   9.39000034       1.91778171E-09
   9.44999981       1.98002859E-09
   9.51000023       2.03479655E-09
   9.56999969       2.08156403E-09
   9.63000011       2.11939755E-09
   9.68999958       2.14714224E-09
   9.75000000       2.16375962E-09
   9.81000042       2.16870721E-09
   9.86999989       2.16223972E-09
   9.93000031       2.14552620E-09
   9.98999977       2.12053330E-09
   10.0500002       2.08969442E-09
   10.1099997       2.05545247E-09
   10.1700001       2.01981232E-09
   10.2299995       1.98405004E-09
   10.2900000       1.94868122E-09
   10.3500004       1.91369476E-09
   10.4099998       1.87895521E-09
   10.4700003       1.84459836E-09
   10.5299997       1.81123938E-09
   10.5900002       1.77988968E-09
   10.6499996       1.75161907E-09
   10.7100000       1.72712744E-09
   10.7700005       1.70644865E-09
   10.8299999       1.68894210E-09
   10.8900003       1.67357683E-09
   10.9499998       1.65933678E-09
   11.0100002       1.64548908E-09
   11.0699997       1.63151048E-09
   11.1300001       1.61666325E-09
   11.1899996       1.59943836E-09
   11.2500000       1.57722102E-09
   11.3100004       1.54648239E-09
   11.3699999       1.50356028E-09
   11.4300003       1.44577572E-09
   11.4899998       1.37240175E-09
   11.5500002       1.28500410E-09
   11.6099997       1.18692101E-09
   11.6700001       1.08204046E-09
   11.7299995       9.73380376E-10
   11.7900000       8.62083960E-10
   11.8500004       7.47267026E-10
   11.9099998       6.26772467E-10
   11.9700003       4.98474484E-10
   12.0299997       3.61546654E-10
   12.0900002       2.17146939E-10
   12.1499996       6.82525286E-11
   12.2100000      -8.12488479E-11
   12.2700005      -2.27810965E-10
   12.3299999      -3.69319159E-10
   12.3900003      -5.05616882E-10
   12.4499998      -6.38304520E-10
   12.5100002      -7.69911468E-10
   12.5699997      -9.02746378E-10
   12.6300001      -1.03782394E-09
   12.6899996      -1.17423682E-09
   12.7500000      -1.30920375E-09
   12.8100004      -1.43880163E-09
   12.8699999      -1.55914903E-09
   12.9300003      -1.66761449E-09
   12.9899998      -1.76357717E-09
   13.0500002      -1.84841664E-09
   13.1099997      -1.92471705E-09
   13.1700001      -1.99502082E-09
   13.2299995      -2.06069517E-09
   13.2900000      -2.12143125E-09
   13.3500004      -2.17561213E-09
   13.4099998      -2.22134755E-09
   13.4700003      -2.25763430E-09
   13.5299997      -2.28502017E-09
   13.5900002      -2.30539854E-09
   13.6499996      -2.32100095E-09
   13.7100000      -2.33309772E-09
   13.7700005      -2.34110331E-09
   13.8299999      -2.34266051E-09
   13.8900003      -2.33483854E-09
   13.9499998      -2.31609776E-09
   14.0100002      -2.28827157E-09
   14.0699997      -2.25773711E-09
   14.1300001      -2.23517871E-09
   14.1899996      -2.23382135E-09
   14.2500000      -2.26657337E-09
   14.3100004      -2.34293607E-09
   14.3699999      -2.46670417E-09
   14.4300003      -2.63525735E-09
   14.4899998      -2.84071766E-09
   14.5500002      -3.07257553E-09
   14.6099997      -3.32082384E-09
   14.6700001      -3.57843222E-09
   14.7299995      -3.84225718E-09
   14.7900000      -4.11214351E-09
   14.8500004      -4.38874403E-09
   14.9099998      -4.67110706E-09
   14.9700003      -4.95515762E-09
   15.0299997      -5.23371746E-09
   15.0900002      -5.49798562E-09
   15.1499996      -5.73970871E-09
   15.2100000      -5.95303007E-09
   15.2700005      -6.13519280E-09
   15.3299999      -6.28588204E-09
   15.3900003      -6.40560494E-09
   15.4499998      -6.49392318E-09
   15.5100002      -6.54833299E-09
   15.5699997      -6.56426780E-09
   15.6300001      -6.53618448E-09
   15.6899996      -6.45927489E-09
   15.7500000      -6.33111474E-09
   15.8100004      -6.15260509E-09
   15.8699999      -5.92783733E-09
   15.9300003      -5.66288216E-09
   15.9899998      -5.36394440E-09
   16.0499992      -5.03559994E-09
   16.1100006      -4.67988626E-09
   16.1700001      -4.29677494E-09
   16.2299995      -3.88601551E-09
   16.2900009      -3.44973716E-09
   16.3500004      -2.99475644E-09
   16.4099998      -2.53352761E-09
   16.4699993      -2.08311879E-09
   16.5300007      -1.66238645E-09
   16.5900002      -1.28826350E-09
   16.6499996      -9.72478653E-10
   16.7099991      -7.19852067E-10
   16.7700005      -5.28679378E-10
   16.8299999      -3.92887917E-10
   16.8899994      -3.05010767E-10
   16.9500008      -2.58819605E-10
   17.0100002      -2.50724330E-10
   17.0699997      -2.79621187E-10
   17.1299992      -3.45483003E-10
   17.1900005      -4.47397924E-10
   17.2500000      -5.81867443E-10
   17.3099995      -7.41988360E-10
   17.3700008      -9.17767917E-10
   17.4300003      -1.09741283E-09
   17.4899998      -1.26909783E-09
   17.5499992      -1.42258261E-09
   17.6100006      -1.55011770E-09
   17.6700001      -1.64636182E-09
   17.7299995      -1.70741765E-09
   17.7900009      -1.72943693E-09
   17.8500004      -1.70742598E-09
   17.9099998      -1.63479386E-09
   17.9699993      -1.50391244E-09
   18.0300007      -1.30757405E-09
   18.0900002      -1.04092601E-09
   18.1499996      -7.03333169E-10
   18.2099991      -2.99669511E-10
   18.2700005       1.59263325E-10
   18.3299999       6.57265908E-10
   18.3899994       1.17408983E-09
   18.4500008       1.68733016E-09
   18.5100002       2.17449569E-09
   18.5699997       2.61486877E-09
   18.6299992       2.99082203E-09
   18.6900005       3.28842553E-09
   18.7500000       3.49739637E-09
   18.8099995       3.61068109E-09
   18.8700008       3.62407127E-09
   18.9300003       3.53620089E-09
   18.9899998       3.34903372E-09
   19.0499992       3.06865267E-09
   19.1100006       2.70591638E-09
   19.1700001       2.27652697E-09
   19.2299995       1.80021131E-09
   19.2900009       1.29907141E-09
   19.3500004       7.95471855E-10
   19.4099998       3.10026810E-10
   19.4699993      -1.39794759E-10
   19.5300007      -5.40170852E-10
   19.5900002      -8.80592987E-10
   19.6499996      -1.15303822E-09
   19.7099991      -1.35109846E-09
   19.7700005      -1.46943224E-09
   19.8299999      -1.50367696E-09
   19.8899994      -1.45073109E-09
   19.9500008      -1.30918887E-09
   20.0100002      -1.07974540E-09
   20.0699997      -7.65522090E-10
   20.1299992      -3.72375880E-10
   20.1900005       9.07497896E-11
   20.2500000       6.11512285E-10
   20.3099995       1.17413257E-09
   20.3700008       1.75991222E-09
   20.4300003       2.34841280E-09
   20.4899998       2.91909474E-09
   20.5499992       3.45293039E-09
   20.6100006       3.93346644E-09
   20.6700001       4.34707204E-09
   20.7299995       4.68253969E-09
   20.7900009       4.93056351E-09
   20.8500004       5.08366327E-09
   20.9099998       5.13681320E-09
   20.9699993       5.08857756E-09
   21.0300007       4.94222929E-09
   21.0900002       4.70632067E-09
   21.1499996       4.39446346E-09
   21.2099991       4.02445588E-09
   21.2700005       3.61704200E-09
   21.3299999       3.19450444E-09
   21.3899994       2.77904011E-09
   21.4500008       2.39079512E-09
   21.5100002       2.04563411E-09
   21.5699997       1.75314274E-09
   21.6299992       1.51566015E-09
   21.6900005       1.32899491E-09
   21.7500000       1.18485943E-09
   21.8099995       1.07422327E-09
   21.8700008       9.90245996E-10
   21.9300003       9.29561927E-10
   21.9899998       8.91450913E-10
   22.0499992       8.75450490E-10
   22.1100006       8.78676076E-10
   22.1700001       8.94188668E-10
   22.2299995       9.11182574E-10
   22.2900009       9.16949516E-10
   22.3500004       8.99927133E-10
   22.4099998       8.52888815E-10
   22.4699993       7.75429942E-10
   22.5300007       6.75117739E-10
   22.5900002       5.66878600E-10
   22.6499996       4.70433581E-10
   22.7099991       4.06026490E-10
   22.7700005       3.89331928E-10
   22.8299999       4.27046953E-10
   22.8899994       5.14827347E-10
   22.9500008       6.38609277E-10
   23.0100002       7.79065257E-10
   23.0699997       9.17537823E-10
   23.1299992       1.04104381E-09
   23.1900005       1.14432652E-09
   23.2500000       1.22832799E-09
   23.3099995       1.29614341E-09
   23.3700008       1.34860167E-09
   23.4300003       1.38155698E-09
   23.4899998       1.38588163E-09
   23.5499992       1.34972167E-09
   23.6100006       1.26159627E-09
   23.6700001       1.11284437E-09
   23.7299995       8.98599639E-10
   23.7900009       6.17367879E-10
   23.8500004       2.69846673E-10
   23.9099998      -1.42324361E-10
   23.9699993      -6.17476015E-10
   24.0300007      -1.15434062E-09
   24.0900002      -1.75189507E-09
   24.1499996      -2.40843145E-09
   24.2099991      -3.11973092E-09
   24.2700005      -3.87660348E-09
   24.3299999      -4.66260808E-09
   24.3899994      -5.45313528E-09
   24.4500008      -6.21679996E-09
   24.5100002      -6.91929536E-09
   24.5699997      -7.52871721E-09
   24.6299992      -8.02059219E-09
   24.6900005      -8.38082315E-09
   24.7500000      -8.60556248E-09
   24.8099995      -8.69832295E-09
   24.8700008      -8.66573746E-09
   24.9300003      -8.51386606E-09
   24.9899998      -8.24656521E-09
   25.0499992      -7.86644527E-09
   25.1100006      -7.37779038E-09
   25.1700001      -6.79002010E-09
   25.2299995      -6.12003026E-09
   25.2900009      -5.39227241E-09
   25.3500004      -4.63635130E-09
   25.4099998      -3.88295573E-09
   25.4699993      -3.15959325E-09
   25.5300007      -2.48765031E-09
   25.5900002      -1.88163196E-09
   25.6499996      -1.35041522E-09
   25.7099991      -8.99382346E-10
   25.7700005      -5.31957700E-10
   25.8299999      -2.49480769E-10
   25.8899994      -4.93575840E-11
   25.9500008       7.75089576E-11
   26.0100002       1.48460536E-10
   26.0699997       1.88685456E-10
   26.1299992       2.28270403E-10
   26.1900005       2.97380481E-10
   26.2500000       4.21010254E-10
   26.3099995       6.14899021E-10
   26.3700008       8.83772944E-10
   26.4300003       1.22231603E-09
   26.4899998       1.61847669E-09
   26.5499992       2.05808104E-09
   26.6100006       2.52932497E-09
   26.6700001       3.02566505E-09
   26.7299995       3.54601037E-09
   26.7900009       4.09196721E-09
   26.8500004       4.66305838E-09
   26.9099998       5.25185229E-09
   26.9699993       5.84127635E-09
   27.0300007       6.40569287E-09
   27.0900002       6.91578173E-09
   27.1499996       7.34554950E-09
   27.2099991       7.67873676E-09
   27.2700005       7.91213228E-09
   27.3299999       8.05462097E-09
   27.3899994       8.12262879E-09
   27.4500008       8.13392020E-09
   27.5100002       8.10205147E-09
   27.5699997       8.03307731E-09
   27.6299992       7.92501176E-09
   27.6900005       7.76965781E-09
   27.7500000       7.55599228E-09
   27.8099995       7.27426297E-09
   27.8700008       6.91995616E-09
   27.9300003       6.49662590E-09
   27.9899998       6.01652816E-09
   28.0499992       5.49835155E-09
   28.1100006       4.96229324E-09
   28.1700001       4.42399184E-09
   28.2299995       3.88969124E-09
   28.2900009       3.35482064E-09
   28.3500004       2.80683765E-09
   28.4099998       2.23127361E-09
   28.4699993       1.61841851E-09
   28.5300007       9.67852132E-10
   28.5900002       2.89102547E-10
   28.6499996      -4.01482014E-10
   28.7099991      -1.08602749E-09
   28.7700005      -1.75042292E-09
   28.8299999      -2.38789610E-09
   28.8899994      -3.00014369E-09
   28.9500008      -3.59612740E-09
   29.0100002      -4.18903001E-09
   29.0699997      -4.79194018E-09
   29.1299992      -5.41297007E-09
   29.1900005      -6.05088868E-09
   29.2500000      -6.69272948E-09
   29.3099995      -7.31474170E-09
   29.3700008      -7.88713006E-09
   29.4300003      -8.38151859E-09
   29.4899998      -8.77865336E-09
   29.5499992      -9.07337672E-09
   29.6100006      -9.27480048E-09
   29.6700001      -9.40156397E-09
   29.7299995      -9.47411483E-09
   29.7900009      -9.50715950E-09
   29.8500004      -9.50519841E-09
   29.9099998      -9.46259782E-09
   29.9699993      -9.36775901E-09
   30.0300007      -9.20941012E-09
   30.0900002      -8.98251429E-09
   30.1499996      -8.69167938E-09
   30.2099991      -8.35103897E-09
   30.2700005      -7.98076361E-09
   30.3299999      -7.60136931E-09
   30.3899994      -7.22765803E-09
   30.4500008      -6.86422430E-09
   30.5100002      -6.50411103E-09
   30.5699997      -6.13123419E-09
   30.6299992      -5.72596992E-09
   30.6900005      -5.27210986E-09
   30.7500000      -4.76278705E-09
   30.8099995      -4.20326796E-09
   30.8700008      -3.60967900E-09
   30.9300003      -3.00432434E-09
   30.9899998      -2.40954412E-09
   31.0499992      -1.84252935E-09
   31.1100006      -1.31289146E-09
   31.1700001      -8.23442814E-10
   31.2299995      -3.73223091E-10
   31.2900009       3.90676970E-11
   31.3500004       4.12977180E-10
   31.4099998       7.46386342E-10
   31.4699993       1.03732578E-09
   31.5300007       1.28610622E-09
   31.5900002       1.49616652E-09
   31.6499996       1.67276359E-09
   31.7099991       1.81988435E-09
   31.7700005       1.93690375E-09
   31.8299999       2.01688621E-09
   31.8899994       2.04780104E-09
   31.9500008       2.01648809E-09
   32.0099983       1.91377802E-09
   32.0699997       1.73841441E-09
   32.1300011       1.49790369E-09
   32.1899986       1.20581511E-09
   32.2500000       8.76746620E-10
   32.3100014       5.21223287E-10
   32.3699989       1.42701267E-10
   32.4300003      -2.62245281E-10
   32.4900017      -7.00953573E-10
   32.5499992      -1.18036636E-09
   32.6100006      -1.70306247E-09
   32.6699982      -2.26479413E-09
   32.7299995      -2.85396395E-09
   32.7900009      -3.45293327E-09
   32.8499985      -4.04084943E-09
   32.9099998      -4.59751837E-09
   32.9700012      -5.10752196E-09
   33.0299988      -5.56325341E-09
   33.0900002      -5.96534422E-09
   33.1500015      -6.31949693E-09
   33.2099991      -6.63022792E-09
   33.2700005      -6.89386992E-09
   33.3300018      -7.09428871E-09
   33.3899994      -7.20428517E-09
   33.4500008      -7.19334414E-09
   33.5099983      -7.03931269E-09
   33.5699997      -6.73921408E-09
   33.6300011      -6.31417985E-09
   33.6899986      -5.80571147E-09
   33.7500000      -5.26418109E-09
   33.8100014      -4.73386841E-09
   33.8699989      -4.24032232E-09
   33.9300003      -3.78476761E-09
   33.9900017      -3.34732109E-09
   34.0499992      -2.89738633E-09
   34.1100006      -2.40716047E-09
   34.1699982      -1.86352000E-09
   34.2299995      -1.27450839E-09
   34.2900009      -6.68572031E-10
   34.3499985      -8.68625380E-11
   34.4099998       4.29158487E-10
   34.4700012       8.51175408E-10
   34.5299988       1.17428112E-09
   34.5900002       1.42026624E-09
   34.6500015       1.63196434E-09
   34.7099991       1.85959048E-09
   34.7700005       2.14315365E-09
   34.8300018       2.49710475E-09
   34.8899994       2.90321966E-09
   34.9500008       3.31504624E-09
   35.0099983       3.67288955E-09
   35.0699997       3.92408372E-09
   35.1300011       4.04100975E-09
   35.1899986       4.03004252E-09
   35.2500000       3.92806143E-09
   35.3100014       3.78787268E-09
   35.3699989       3.65796615E-09
   35.4300003       3.56395158E-09
   35.4900017       3.49820217E-09
   35.5499992       3.42120821E-09
   35.6100006       3.27407301E-09
   35.6699982       2.99787861E-09
   35.7299995       2.55340327E-09
   35.7900009       1.93452965E-09
   35.8499985       1.17068333E-09
   35.9099998       3.17238069E-10
   35.9700012      -5.63051827E-10
   36.0299988      -1.42121881E-09
   36.0900002      -2.23826313E-09
   36.1500015      -3.03027825E-09
   36.2099991      -3.84034538E-09
   36.2700005      -4.71995198E-09
   36.3300018      -5.70671510E-09
   36.3899994      -6.80668499E-09
   36.4500008      -7.98781752E-09
   36.5099983      -9.18699872E-09
   36.5699997      -1.03279749E-08
   36.6300011      -1.13436647E-08
   36.6899986      -1.21949792E-08
   36.7500000      -1.28797870E-08
   36.8100014      -1.34292728E-08
   36.8699989      -1.38932812E-08
   36.9300003      -1.43198342E-08
   36.9900017      -1.47357992E-08
   37.0499992      -1.51352850E-08
   37.1100006      -1.54797846E-08
   37.1699982      -1.57102740E-08
   37.2299995      -1.57673181E-08
   37.2900009      -1.56123008E-08
   37.3499985      -1.52420849E-08
   37.4099998      -1.46915342E-08
   37.4700012      -1.40225511E-08
   37.5299988      -1.33033993E-08
   37.5900002      -1.25859074E-08
   37.6500015      -1.18891359E-08
   37.7099991      -1.11956053E-08
   37.7700005      -1.04613571E-08
   37.8300018      -9.63574553E-09
   37.8899994      -8.68328343E-09
   37.9500008      -7.59943219E-09
   38.0099983      -6.41481268E-09
   38.0699997      -5.18681942E-09
   38.1300011      -3.98213240E-09
   38.1899986      -2.85647417E-09
   38.2500000      -1.83852511E-09
   38.3100014      -9.23129184E-10
   38.3699989      -7.57450144E-11
   38.4300003       7.53557050E-10
   38.4900017       1.61125935E-09
   38.5499992       2.52300070E-09
   38.6100006       3.48353146E-09
   38.6699982       4.45758985E-09
   38.7299995       5.39155831E-09
   38.7900009       6.23188878E-09
   38.8499985       6.94363900E-09
   38.9099998       7.52227258E-09
   38.9700012       7.99428701E-09
   39.0299988       8.40649150E-09
   39.0900002       8.80811779E-09
   39.1500015       9.23269816E-09
   39.2099991       9.68657599E-09
   39.2700005       1.01482733E-08
   39.3300018       1.05786215E-08
   39.3899994       1.09375637E-08
   39.4500008       1.12011183E-08
   39.5099983       1.13721379E-08
   39.5699997       1.14809415E-08
   39.6300011       1.15757022E-08
   39.6899986       1.17062973E-08
   39.7500000       1.19076837E-08
   39.8100014       1.21890240E-08
   39.8699989       1.25324897E-08
   39.9300003       1.29018938E-08
   39.9900017       1.32573685E-08
   40.0499992       1.35699825E-08
   40.1100006       1.38303928E-08
   40.1699982       1.40483705E-08
   40.2299995       1.42440806E-08
   40.2900009       1.44354617E-08
   40.3499985       1.46274672E-08
   40.4099998       1.48076849E-08
   40.4700012       1.49498014E-08
   40.5299988       1.50230033E-08
   40.5900002       1.50032644E-08
   40.6500015       1.48821631E-08
   40.7099991       1.46702721E-08
   40.7700005       1.43942849E-08
   40.8300018       1.40889735E-08
   40.8899994       1.37864635E-08
   40.9500008       1.35059555E-08
   41.0099983       1.32471429E-08
   41.0699997       1.29898003E-08
   41.1300011       1.27004682E-08
   41.1899986       1.23446693E-08
   41.2500000       1.19006511E-08
   41.3100014       1.13692558E-08
   41.3699989       1.07754312E-08
   41.4300003       1.01599644E-08
   41.4900017       9.56437152E-09
   41.5499992       9.01514774E-09
   41.6100006       8.51424797E-09
   41.6699982       8.04003797E-09
   41.7299995       7.55832374E-09
   41.7900009       7.03855685E-09
   41.8499985       6.46825837E-09
   41.9099998       5.85980153E-09
   41.9700012       5.24724442E-09
   42.0299988       4.67504480E-09
   42.0900002       4.18332879E-09
   42.1500015       3.79507048E-09
   42.2099991       3.50922269E-09
   42.2700005       3.30155525E-09
   42.3300018       3.13258575E-09
   42.3899994       2.96011815E-09
   42.4500008       2.75268697E-09
   42.5099983       2.49978060E-09
   42.5699997       2.21530749E-09
   42.6300011       1.93264804E-09
   42.6899986       1.69250258E-09
   42.7500000       1.52772150E-09
   42.8100014       1.45097512E-09
   42.8699989       1.45045898E-09
   42.9300003       1.49572499E-09
   42.9900017       1.55143864E-09
   43.0499992       1.59333569E-09
   43.1100006       1.61955760E-09
   43.1699982       1.65250114E-09
   43.2299995       1.73030690E-09
   43.2900009       1.89136640E-09
   43.3499985       2.15786722E-09
   43.4099998       2.52454613E-09
   43.4700012       2.95667180E-09
   43.5299988       3.39791861E-09
   43.5900002       3.78549458E-09
   43.6500015       4.06766087E-09
   43.7099991       4.21808721E-09
   43.7700005       4.24245483E-09
   43.8300018       4.17504831E-09
   43.8899994       4.06621670E-09
   43.9500008       3.96471478E-09
   44.0099983       3.90087784E-09
   44.0699997       3.87659105E-09
   44.1300011       3.86573396E-09
   44.1899986       3.82500343E-09
   44.2500000       3.71109277E-09
   44.3100014       3.49782558E-09
   44.3699989       3.18690607E-09
   44.4300003       2.80845969E-09
   44.4900017       2.41138109E-09
   44.5499992       2.04715733E-09
   44.6100006       1.75297965E-09
   44.6699982       1.53997159E-09
   44.7299995       1.39043577E-09
   44.7900009       1.26494037E-09
   44.8499985       1.11681586E-09
   44.9099998       9.09161857E-10
   44.9700012       6.28538444E-10
   45.0299988       2.90497237E-10
   45.0900002      -6.51992765E-11
   45.1500015      -3.88174715E-10
   45.2099991      -6.35058894E-10
   45.2700005      -7.84684262E-10
   45.3300018      -8.45199688E-10
   45.3899994      -8.50469695E-10
   45.4500008      -8.47194148E-10
   45.5099983      -8.77660444E-10
   45.5699997      -9.64487712E-10
   45.6300011      -1.10273268E-09
   45.6899986      -1.26180066E-09
   45.7500000      -1.39606537E-09
   45.8100014      -1.46024859E-09
   45.8699989      -1.42431145E-09
   45.9300003      -1.28305955E-09
   45.9900017      -1.05751574E-09
   46.0499992      -7.87729881E-10
   46.1100006      -5.19377319E-10
   46.1699982      -2.88511715E-10
   46.2299995      -1.09596353E-10
   46.2900009       2.89792773E-11
   46.3499985       1.60151725E-10
   46.4099998       3.25741850E-10
   46.4700012       5.60762881E-10
   46.5299988       8.80232776E-10
   46.5900002       1.27334021E-09
   46.6500015       1.70698311E-09
   46.7099991       2.13712226E-09
   46.7700005       2.52352383E-09
   46.8300018       2.84242052E-09
   46.8899994       3.09267767E-09
   46.9500008       3.29362249E-09
   47.0099983       3.47570506E-09
   47.0699997       3.66755715E-09
   47.1300011       3.88406995E-09
   47.1899986       4.11964551E-09
   47.2500000       4.34899627E-09
   47.3100014       4.53527305E-09
   47.3699989       4.64274574E-09
   47.4300003       4.64950700E-09
   47.4900017       4.55550353E-09
   47.5499992       4.38282788E-09
   47.6100006       4.16813650E-09
   47.6699982       3.95013444E-09
   47.7299995       3.75699649E-09
   47.7900009       3.59842156E-09
   47.8499985       3.46490081E-09
   47.9099998       3.33370931E-09
   47.9700012       3.17856741E-09
   48.0299988       2.97897929E-09
   48.0900002       2.72609357E-09
   48.1500015       2.42387976E-09
   48.2099991       2.08631801E-09
   48.2700005       1.73236803E-09
   48.3300018       1.38054679E-09
   48.3899994       1.04443265E-09
   48.4500008       7.29883598E-10
   48.5099983       4.34455277E-10
   48.5699997       1.49262477E-10
   48.6300011      -1.36951450E-10
   48.6899986      -4.32567843E-10
   48.7500000      -7.38444805E-10
   48.8100014      -1.04579634E-09
   48.8699989      -1.33773692E-09
   48.9300003      -1.59412239E-09
   48.9900017      -1.79781157E-09
   49.0499992      -1.93979655E-09
   49.1100006      -2.02119965E-09
   49.1699982      -2.05163597E-09
   49.2299995      -2.04506834E-09
   49.2900009      -2.01522643E-09
   49.3499985      -1.97246552E-09
   49.4099998      -1.92290472E-09
   49.4700012      -1.86941640E-09
   49.5299988      -1.81327431E-09
   49.5900002      -1.75527115E-09
   49.6500015      -1.69576397E-09
   49.7099991      -1.63391867E-09
   49.7700005      -1.56693614E-09
   49.8300018      -1.49003299E-09
   49.8899994      -1.39750178E-09
   49.9500008      -1.28457445E-09
   50.0099983      -1.14936294E-09
   50.0699997      -9.94068716E-10
   50.1300011      -8.24922131E-10
   50.1899986      -6.50812126E-10
   50.2500000      -4.81045370E-10
   50.3100014      -3.22946947E-10
   50.3699989      -1.79991189E-10
   50.4300003      -5.08989413E-11
   50.4900017       7.01820685E-11
   50.5499992       1.92539873E-10
   50.6100006       3.27049360E-10