 -0.750000000       0.00000000    
 -0.689999998       0.00000000    
 -0.629999995       0.00000000    
 -0.569999993       0.00000000    
 -0.509999990       0.00000000    
 -0.449999988       0.00000000    
 -0.389999986      -3.48141862E-23
 -0.330000013      -2.37634894E-22
 -0.270000011      -5.94915880E-22
 -0.209999993       2.83492653E-22
 -0.150000006       7.28896854E-21
  -9.00000036E-02   2.91258178E-20
  -2.99999993E-02   7.14636099E-20
   2.99999993E-02   1.19658384E-19
   9.00000036E-02   1.18151777E-19
  0.150000006      -3.16604284E-20
  0.209999993      -4.28036809E-19
  0.270000011      -1.07232458E-18
  0.330000013      -1.75630751E-18
  0.389999986      -2.01547664E-18
  0.449999988      -1.23315031E-18
  0.509999990       1.08607253E-18
  0.569999993       4.96718773E-18
  0.629999995       9.71132042E-18
  0.689999998       1.38666573E-17
  0.750000000       1.53892552E-17
  0.810000002       1.18204672E-17
  0.870000005       4.20653912E-19
  0.930000007      -2.13454950E-17
  0.990000010      -5.40764627E-17
   1.04999995      -9.27284025E-17
   1.11000001      -1.21753085E-16
   1.16999996      -1.12663045E-16
   1.23000002      -2.99274872E-17
   1.28999996       1.49941521E-16
   1.35000002       4.08011483E-16
   1.40999997       6.54735769E-16
   1.47000003       7.27846253E-16
   1.52999997       4.39941237E-16
   1.59000003      -3.19359109E-16
   1.64999998      -1.45731267E-15
   1.71000004      -2.59538645E-15
   1.76999998      -3.10990772E-15
   1.83000004      -2.34212530E-15
   1.88999999       5.73387572E-17
   1.95000005       3.78267974E-15
   2.00999999       7.71894433E-15
   2.06999993       1.01431772E-14
   2.13000011       9.30906150E-15
   2.19000006       4.24786388E-15
   2.25000000      -4.54383413E-15
   2.30999994      -1.48883693E-14
   2.36999989      -2.33914721E-14
   2.43000007      -2.65098544E-14
   2.49000001      -2.18530130E-14
   2.54999995      -9.20322558E-15
   2.60999990       9.17412830E-15
   2.67000008       2.90633098E-14
   2.73000002       4.54493146E-14
   2.78999996       5.38258335E-14
   2.84999990       5.12049340E-14
   2.91000009       3.66081677E-14
   2.97000003       1.11311310E-14
   3.02999997      -2.21388459E-14
   3.08999991      -5.81422795E-14
   3.15000010      -8.98938991E-14
   3.21000004      -1.08978222E-13
   3.26999998      -1.07017815E-13
   3.32999992      -7.83204339E-14
   3.39000010      -2.32053248E-14
   3.45000005       4.92985847E-14
   3.50999999       1.21140741E-13
   3.56999993       1.68747029E-13
   3.63000011       1.70475206E-13
   3.69000006       1.16250298E-13
   3.75000000       1.57760717E-14
   3.80999994      -9.90301320E-14
   3.86999989      -1.80623718E-13
   3.93000007      -1.81603945E-13
   3.99000001      -7.56240976E-14
   4.05000019       1.24252713E-13
   4.11000013       3.58597646E-13
   4.17000008       5.32284720E-13
   4.23000002       5.42851408E-13
   4.28999996       3.18945825E-13
   4.34999990      -1.44695616E-13
   4.40999985      -7.70403001E-13
   4.46999979      -1.40838003E-12
   4.53000021      -1.87460334E-12
   4.59000015      -2.00412755E-12
   4.65000010      -1.70087750E-12
   4.71000004      -9.65413621E-13
   4.76999998       1.09229615E-13
   4.82999992       1.37001218E-12
   4.88999987       2.64850403E-12
   4.94999981       3.79597048E-12
   5.01000023       4.69190919E-12
   5.07000017       5.22254288E-12
   5.13000011       5.24258024E-12
   5.19000006       4.54609614E-12
   5.25000000       2.87447843E-12
   5.30999994      -2.10316214E-14
   5.36999989      -4.26452536E-12
   5.42999983      -9.71274016E-12
   5.48999977      -1.58249334E-11
   5.55000019      -2.15893293E-11
   5.61000013      -2.55393068E-11
   5.67000008      -2.58702591E-11
   5.73000002      -2.06411624E-11
   5.78999996      -8.02168054E-12
   5.84999990       1.34669272E-11
   5.90999985       4.47670408E-11
   5.96999979       8.61906588E-11
   6.03000021       1.37426612E-10
   6.09000015       1.97634256E-10
   6.15000010       2.65590189E-10
   6.21000004       3.39847706E-10
   6.26999998       4.18875490E-10
   6.32999992       5.01157504E-10
   6.38999987       5.85254400E-10
   6.44999981       6.69839462E-10
   6.51000023       7.53722085E-10
   6.57000017       8.35866210E-10
   6.63000011       9.15395870E-10
   6.69000006       9.91574711E-10
   6.75000000       1.06374798E-09
   6.80999994       1.13125287E-09
   6.86999989       1.19332355E-09
   6.92999983       1.24903332E-09
   6.98999977       1.29731770E-09
   7.05000019       1.33709910E-09
   7.11000013       1.36749878E-09
   7.17000008       1.38808476E-09
   7.23000002       1.39907796E-09
   7.28999996       1.40144552E-09
   7.34999990       1.39683398E-09
   7.40999985       1.38734824E-09
   7.46999979       1.37522105E-09
   7.53000021       1.36245359E-09
   7.59000015       1.35050215E-09
   7.65000010       1.34006994E-09
   7.71000004       1.33102263E-09
   7.76999998       1.32241751E-09
   7.82999992       1.31261779E-09
   7.88999987       1.29946953E-09
   7.94999981       1.28053090E-09
   8.01000023       1.25335831E-09
   8.06999969       1.21585064E-09
   8.13000011       1.16662713E-09
   8.18999958       1.10537846E-09
   8.25000000       1.03309661E-09
   8.31000042       9.52081192E-10
   8.36999989       8.65658711E-10
   8.43000031       7.77626519E-10
   8.48999977       6.91523616E-10
   8.55000019       6.09906847E-10
   8.60999966       5.33832367E-10
   8.67000008       4.62691913E-10
   8.72999954       3.94450667E-10
   8.78999996       3.26205701E-10
   8.85000038       2.54892829E-10
   8.90999985       1.77941828E-10
   8.97000027       9.37283307E-11
   9.02999973       1.76847133E-12
   9.09000015      -9.73041439E-11
   9.14999962      -2.01887590E-10
   9.21000004      -3.09605536E-10
   9.27000046      -4.17517021E-10
   9.32999992      -5.22364429E-10
   9.39000034      -6.20894336E-10
   9.44999981      -7.10246306E-10
   9.51000023      -7.88340837E-10
   9.56999969      -8.54151527E-10
   9.63000011      -9.07764808E-10
   9.68999958      -9.50208134E-10
   9.75000000      -9.83136350E-10
   9.81000042      -1.00852682E-09
   9.86999989      -1.02852038E-09
   9.93000031      -1.04543374E-09
   9.98999977      -1.06182785E-09
   10.0500002      -1.08043474E-09
   10.1099997      -1.10377985E-09
   10.1700001      -1.13350362E-09
   10.2299995      -1.16960619E-09
   10.2900000      -1.20999166E-09
   10.3500004      -1.25065991E-09
   10.4099998      -1.28667221E-09
   10.4700003      -1.31365796E-09
   10.5299997      -1.32933287E-09
   10.5900002      -1.33439659E-09
   10.6499996      -1.33238298E-09
   10.7100000      -1.32846434E-09
   10.7700005      -1.32768196E-09
   10.8299999      -1.33334777E-09
   10.8900003      -1.34628486E-09
   10.9499998      -1.36516476E-09
   11.0100002      -1.38763834E-09
   11.0699997      -1.41155754E-09
   11.1300001      -1.43554801E-09
   11.1899996      -1.45858525E-09
   11.2500000      -1.47884804E-09
   11.3100004      -1.49263890E-09
   11.3699999      -1.49426327E-09
   11.4300003      -1.47733070E-09
   11.4899998      -1.43716838E-09
   11.5500002      -1.37330136E-09
   11.6099997      -1.29068412E-09
   11.6700001      -1.19876198E-09
   11.7299995      -1.10838971E-09
   11.7900000      -1.02768538E-09
   11.8500004      -9.58542246E-10
   11.9099998      -8.95395036E-10
   11.9700003      -8.26938296E-10
   12.0299997      -7.40236927E-10
   12.0900002      -6.25613339E-10
   12.1499996      -4.80352702E-10
   12.2100000      -3.09787446E-10
   12.2700005      -1.25449734E-10
   12.3299999       5.88112961E-11
   12.3900003       2.31103983E-10
   12.4499998       3.84521859E-10
   12.5100002       5.17967613E-10
   12.5699997       6.34802211E-10
   12.6300001       7.40180528E-10
   12.6899996       8.38293268E-10
   12.7500000       9.30560129E-10
   12.8100004       1.01528930E-09
   12.8699999       1.08871068E-09
   12.9300003       1.14684806E-09
   12.9899998       1.18749277E-09
   13.0500002       1.21159127E-09
   13.1099997       1.22355159E-09
   13.1700001       1.23028610E-09
   13.2299995       1.23918131E-09
   13.2900000       1.25558308E-09
   13.3500004       1.28066802E-09
   13.4099998       1.31059519E-09
   13.4700003       1.33748213E-09
   13.5299997       1.35205480E-09
   13.5900002       1.34705014E-09
   13.6499996       1.31995503E-09
   13.7100000       1.27378452E-09
   13.7700005       1.21536603E-09
   13.8299999       1.15175758E-09
   13.8900003       1.08641085E-09
   13.9499998       1.01698960E-09
   14.0100002       9.36116518E-10
   14.0699997       8.34977587E-10
   14.1300001       7.08272552E-10
   14.1899996       5.58191660E-10
   14.2500000       3.95373928E-10
   14.3100004       2.36092784E-10
   14.3699999       9.66600550E-11
   14.4300003      -1.26130903E-11
   14.4899998      -9.12538170E-11
   14.5500002      -1.48540166E-10
   14.6099997      -1.99491604E-10
   14.6700001      -2.58671640E-10
   14.7299995      -3.34469757E-10
   14.7900000      -4.26254865E-10
   14.8500004      -5.25462840E-10
   14.9099998      -6.19935714E-10
   14.9700003      -6.99468539E-10
   15.0299997      -7.60123742E-10
   15.0900002      -8.05562728E-10
   15.1499996      -8.45041814E-10
   15.2100000      -8.89163243E-10
   15.2700005      -9.45338696E-10
   15.3299999      -1.01488429E-09
   15.3900003      -1.09282416E-09
   15.4499998      -1.17027033E-09
   15.5100002      -1.23820543E-09
   15.5699997      -1.29104072E-09
   15.6300001      -1.32857259E-09
   15.6899996      -1.35571832E-09
   15.7500000      -1.38032963E-09
   15.8100004      -1.41006207E-09
   15.8699999      -1.44952239E-09
   15.9300003      -1.49869250E-09
   15.9899998      -1.55309821E-09
   16.0499992      -1.60557467E-09
   16.1100006      -1.64898040E-09
   16.1700001      -1.67893599E-09
   16.2299995      -1.69566972E-09
   16.2900009      -1.70430314E-09
   16.3500004      -1.71337688E-09
   16.4099998      -1.73198222E-09
   16.4699993      -1.76638826E-09
   16.5300007      -1.81733906E-09
   16.5900002      -1.87908311E-09
   16.6499996      -1.94065319E-09
   16.7099991      -1.98908778E-09
   16.7700005      -2.01348871E-09
   16.8299999      -2.00841010E-09
   16.8899994      -1.97526351E-09
   16.9500008      -1.92120586E-09
   17.0100002      -1.85598592E-09
   17.0699997      -1.78804838E-09
   17.1299992      -1.72145165E-09
   17.1900005      -1.65475356E-09
   17.2500000      -1.58216351E-09
   17.3099995      -1.49635437E-09
   17.3700008      -1.39174916E-09
   17.4300003      -1.26705801E-09
   17.4899998      -1.12624654E-09
   17.5499992      -9.77752657E-10
   17.6100006      -8.32342473E-10
   17.6700001      -7.00346336E-10
   17.7299995      -5.89096716E-10
   17.7900009      -5.01266584E-10
   17.8500004      -4.34543262E-10
   17.9099998      -3.82723853E-10
   17.9699993      -3.37926576E-10
   18.0300007      -2.93254143E-10
   18.0900002      -2.45043597E-10
   18.1499996      -1.93911776E-10
   18.2099991      -1.44189799E-10
   18.2700005      -1.01927189E-10
   18.3299999      -7.22074830E-11
   18.3899994      -5.68044639E-11
   18.4500008      -5.30824516E-11
   18.5100002      -5.45499305E-11
   18.5699997      -5.28257542E-11
   18.6299992      -4.02433503E-11
   18.6900005      -1.21099363E-11
   18.7500000       3.21902470E-11
   18.8099995       8.96009794E-11
   18.8700008       1.55102750E-10
   18.9300003       2.24060590E-10
   18.9899998       2.94328145E-10
   19.0499992       3.67308628E-10
   19.1100006       4.47532511E-10
   19.1700001       5.40840317E-10
   19.2299995       6.51783738E-10
   19.2900009       7.81189835E-10
   19.3500004       9.24828436E-10
   19.4099998       1.07375131E-09
   19.4699993       1.21626520E-09
   19.5300007       1.34088873E-09
   19.5900002       1.43928047E-09
   19.6499996       1.50814783E-09
   19.7099991       1.54954150E-09
   19.7700005       1.56951185E-09
   19.8299999       1.57564695E-09
   19.8899994       1.57432067E-09
   19.9500008       1.56850744E-09
   20.0100002       1.55680457E-09
   20.0699997       1.53392665E-09
   20.1299992       1.49251866E-09
   20.1900005       1.42574885E-09
   20.2500000       1.32988276E-09
   20.3099995       1.20599797E-09
   20.3700008       1.06022890E-09
   20.4300003       9.02403874E-10
   20.4899998       7.43514805E-10
   20.5499992       5.92906668E-10
   20.6100006       4.56191168E-10
   20.6700001       3.34598738E-10
   20.7299995       2.25907723E-10
   20.7900009       1.26470834E-10
   20.8500004       3.34788933E-11
   20.9099998      -5.34165351E-11
   20.9699993      -1.31676808E-10
   21.0300007      -1.96718974E-10
   21.0900002      -2.43656373E-10
   21.1499996      -2.69300360E-10
   21.2099991      -2.73740614E-10
   21.2700005      -2.60967858E-10
   21.3299999      -2.38292636E-10
   21.3899994      -2.14687310E-10
   21.4500008      -1.98547997E-10
   21.5100002      -1.95622560E-10
   21.5699997      -2.07842174E-10
   21.6299992      -2.33480624E-10
   21.6900005      -2.68532363E-10
   21.7500000      -3.08678305E-10
   21.8099995      -3.50965701E-10
   21.8700008      -3.94506761E-10
   21.9300003      -4.40026959E-10
   21.9899998      -4.88683316E-10
   22.0499992      -5.40907708E-10
   22.1100006      -5.95931970E-10
   22.1700001      -6.52198351E-10
   22.2299995      -7.08335057E-10
   22.2900009      -7.64079244E-10
   22.3500004      -8.20614909E-10
   22.4099998      -8.80165163E-10
   22.4699993      -9.45098222E-10
   22.5300007      -1.01703290E-09
   22.5900002      -1.09637288E-09
   22.6499996      -1.18243448E-09
   22.7099991      -1.27403854E-09
   22.7700005      -1.37024103E-09
   22.8299999      -1.47085066E-09
   22.8899994      -1.57646374E-09
   22.9500008      -1.68792225E-09
   23.0100002      -1.80530280E-09
   23.0699997      -1.92676719E-09
   23.1299992      -2.04776618E-09
   23.1900005      -2.16108509E-09
   23.2500000      -2.25798491E-09
   23.3099995      -2.33022623E-09
   23.3700008      -2.37229147E-09
   23.4300003      -2.38287567E-09
   23.4899998      -2.36492248E-09
   23.5499992      -2.32407515E-09
   23.6100006      -2.26615038E-09
   23.6700001      -2.19473240E-09
   23.7299995      -2.10994533E-09
   23.7900009      -2.00892614E-09
   23.8500004      -1.88775662E-09
   23.9099998      -1.74398940E-09
   23.9699993      -1.57871716E-09
   24.0300007      -1.39738132E-09
   24.0900002      -1.20903598E-09
   24.1499996      -1.02431086E-09
   24.2099991      -8.52701798E-10
   24.2700005      -7.00002778E-10
   24.3299999      -5.66701630E-10
   24.3899994      -4.47971715E-10
   24.4500008      -3.35474787E-10
   24.5100002      -2.20562749E-10
   24.5699997      -9.78130840E-11
   24.6299992       3.25283064E-11
   24.6900005       1.64393943E-10
   24.7500000       2.88356422E-10
   24.8099995       3.95836447E-10
   24.8700008       4.83252660E-10
   24.9300003       5.54174318E-10
   24.9899998       6.18359863E-10
   25.0499992       6.88002155E-10
   25.1100006       7.72829245E-10
   25.1700001       8.76260509E-10
   25.2299995       9.94311300E-10
   25.2900009       1.11764853E-09
   25.3500004       1.23578625E-09
   25.4099998       1.34154188E-09
   25.4699993       1.43389045E-09
   25.5300007       1.51815605E-09
   25.5900002       1.60362756E-09
   25.6499996       1.69967318E-09
   25.7099991       1.81191429E-09
   25.7700005       1.93990535E-09
   25.8299999       2.07716466E-09
   25.8899994       2.21352980E-09
   25.9500008       2.33896169E-09
   26.0100002       2.44734744E-09
   26.0699997       2.53881804E-09
   26.1299992       2.61961941E-09
   26.1900005       2.69956213E-09
   26.2500000       2.78808865E-09
   26.3099995       2.89059710E-09
   26.3700008       3.00654168E-09
   26.4300003       3.12999515E-09
   26.4899998       3.25226712E-09
   26.5499992       3.36529205E-09
   26.6100006       3.46430351E-09
   26.6700001       3.54879637E-09
   26.7299995       3.62162456E-09
   26.7900009       3.68685571E-09
   26.8500004       3.74736464E-09
   26.9099998       3.80305831E-09
   26.9699993       3.85026766E-09
   27.0300007       3.88244370E-09
   27.0900002       3.89196364E-09
   27.1499996       3.87255916E-09
   27.2099991       3.82161991E-09
   27.2700005       3.74150222E-09
   27.3299999       3.63913100E-09
   27.3899994       3.52379148E-09
   27.4500008       3.40385387E-09
   27.5100002       3.28390160E-09
   27.5699997       3.16379989E-09
   27.6299992       3.04047143E-09
   27.6900005       2.91178082E-09
   27.7500000       2.78067502E-09
   27.8099995       2.65732059E-09
   27.8700008       2.55774202E-09
   27.9300003       2.49911070E-09
   27.9899998       2.49352494E-09
   28.0499992       2.54300248E-09
   28.1100006       2.63798339E-09
   28.1700001       2.76015744E-09
   28.2299995       2.88857271E-09
   28.2900009       3.00663272E-09
   28.3500004       3.10727377E-09
   28.4099998       3.19438098E-09
   28.4699993       3.27996874E-09
   28.5300007       3.37820483E-09
   28.5900002       3.49850149E-09
   28.6499996       3.64025543E-09
   28.7099991       3.79132548E-09
   28.7700005       3.93105859E-09
   28.8299999       4.03701872E-09
   28.8899994       4.09305745E-09
   28.9500008       4.09562118E-09
   29.0100002       4.05564204E-09
   29.0699997       3.99498079E-09
   29.1299992       3.93857391E-09
   29.1900005       3.90528898E-09
   29.2500000       3.90108967E-09
   29.3099995       3.91719279E-09
   29.3700008       3.93380883E-09
   29.4300003       3.92782251E-09
   29.4899998       3.88129662E-09
   29.5499992       3.78763731E-09
   29.6100006       3.65342712E-09
   29.6700001       3.49572815E-09
   29.7299995       3.33623973E-09
   29.7900009       3.19456617E-09
   29.8500004       3.08284087E-09
   29.9099998       3.00330982E-09
   29.9699993       2.94944380E-09
   30.0300007       2.91005398E-09
   30.0900002       2.87490165E-09
   30.1499996       2.83970603E-09
   30.2099991       2.80852142E-09
   30.2700005       2.79232526E-09
   30.3299999       2.80416024E-09
   30.3899994       2.85273472E-09
   30.4500008       2.93726710E-09
   30.5100002       3.04599146E-09
   30.5699997       3.15917648E-09
   30.6299992       3.25545213E-09
   30.6900005       3.31868866E-09
   30.7500000       3.34249317E-09
   30.8099995       3.33061068E-09
   30.8700008       3.29352567E-09
   30.9300003       3.24323635E-09
   30.9899998       3.18871907E-09
   31.0499992       3.13382365E-09
   31.1100006       3.07784842E-09
   31.1700001       3.01772141E-09
   31.2299995       2.95024760E-09
   31.2900009       2.87334578E-09
   31.3500004       2.78611467E-09
   31.4099998       2.68830247E-09
   31.4699993       2.57989208E-09
   31.5300007       2.46113263E-09
   31.5900002       2.33285324E-09
   31.6499996       2.19665641E-09
   31.7099991       2.05475281E-09
   31.7700005       1.90954141E-09
   31.8299999       1.76324277E-09
   31.8899994       1.61779778E-09
   31.9500008       1.47496559E-09
   32.0099983       1.33635425E-09
   32.0699997       1.20319654E-09
   32.1300011       1.07599341E-09
   32.1899986       9.54402002E-10
   32.2500000       8.37682479E-10
   32.3100014       7.25612737E-10
   32.3699989       6.19297613E-10
   32.4300003       5.21142907E-10
   32.4900017       4.33642372E-10
   32.5499992       3.57383262E-10
   32.6100006       2.89337693E-10
   32.6699982       2.22586824E-10
   32.7299995       1.47972981E-10
   32.7900009       5.71138969E-11
   32.8499985      -5.46309629E-11
   32.9099998      -1.86741067E-10
   32.9700012      -3.34394734E-10
   33.0299988      -4.91142182E-10
   33.0900002      -6.51986909E-10
   33.1500015      -8.15325973E-10
   33.2099991      -9.82902537E-10
   33.2700005      -1.15802590E-09
   33.3300018      -1.34316647E-09
   33.3899994      -1.53818569E-09
   33.4500008      -1.73992587E-09
   33.5099983      -1.94306904E-09
   33.5699997      -2.14159135E-09
   33.6300011      -2.33008279E-09
   33.6899986      -2.50455101E-09
   33.7500000      -2.66276268E-09
   33.8100014      -2.80434409E-09
   33.8699989      -2.93073255E-09
   33.9300003      -3.04483039E-09
   33.9900017      -3.15014836E-09
   34.0499992      -3.24948957E-09
   34.1100006      -3.34360717E-09
   34.1699982      -3.43051410E-09
   34.2299995      -3.50593377E-09
   34.2900009      -3.56484420E-09
   34.3499985      -3.60346686E-09
   34.4099998      -3.62077768E-09
   34.4700012      -3.61886587E-09
   34.5299988      -3.60208086E-09
   34.5900002      -3.57552765E-09
   34.6500015      -3.54371910E-09
   34.7099991      -3.50995299E-09
   34.7700005      -3.47645690E-09
   34.8300018      -3.44488127E-09
   34.8899994      -3.41661188E-09
   34.9500008      -3.39263395E-09
   35.0099983      -3.37310824E-09
   35.0699997      -3.35708461E-09
   35.1300011      -3.34274763E-09
   35.1899986      -3.32825811E-09
   35.2500000      -3.31287042E-09
   35.3100014      -3.29778493E-09
   35.3699989      -3.28623906E-09
   35.4300003      -3.28263683E-09
   35.4900017      -3.29091510E-09
   35.5499992      -3.31269856E-09
   35.6100006      -3.34597217E-09
   35.6699982      -3.38493145E-09
   35.7299995      -3.42131479E-09
   35.7900009      -3.44694273E-09
   35.8499985      -3.45657547E-09
   35.9099998      -3.44983664E-09
   35.9700012      -3.43112538E-09
   36.0299988      -3.40720607E-09
   36.0900002      -3.38327144E-09
   36.1500015      -3.35918870E-09
   36.2099991      -3.32781136E-09
   36.2700005      -3.27645933E-09
   36.3300018      -3.19122218E-09
   36.3899994      -3.06233705E-09
   36.4500008      -2.88827740E-09
   36.5099983      -2.67671929E-09
   36.5699997      -2.44197151E-09
   36.6300011      -2.20003016E-09
   36.6899986      -1.96336591E-09
   36.7500000      -1.73744885E-09
   36.8100014      -1.52005619E-09
   36.8699989      -1.30317124E-09
   36.9300003      -1.07638787E-09
   36.9900017      -8.30509217E-10
   37.0499992      -5.60333280E-10
   37.1100006      -2.66127231E-10
   37.1699982       4.63159337E-11
   37.2299995       3.66928016E-10
   37.2900009       6.83650359E-10
   37.3499985       9.85252546E-10
   37.4099998       1.26393496E-09
   37.4700012       1.51688895E-09
   37.5299988       1.74626602E-09
   37.5900002       1.95759875E-09
   37.6500015       2.15735674E-09
   37.7099991       2.35063347E-09
   37.7700005       2.53977839E-09
   37.8300018       2.72421996E-09
   37.8899994       2.90114199E-09
   37.9500008       3.06643888E-09
   38.0099983       3.21552029E-09
   38.0699997       3.34392825E-09
   38.1300011       3.44795925E-09
   38.1899986       3.52540552E-09
   38.2500000       3.57622199E-09
   38.3100014       3.60268015E-09
   38.3699989       3.60868180E-09
   38.4300003       3.59833296E-09
   38.4900017       3.57437235E-09
   38.5499992       3.53723495E-09
   38.6100006       3.48523166E-09
   38.6699982       3.41574036E-09
   38.7299995       3.32675132E-09
   38.7900009       3.21798765E-09
   38.8499985       3.09113535E-09
   38.9099998       2.94924352E-09
   38.9700012       2.79573942E-09
   39.0299988       2.63352740E-09
   39.0900002       2.46439513E-09
   39.1500015       2.28869945E-09
   39.2099991       2.10523399E-09
   39.2700005       1.91134286E-09
   39.3300018       1.70347869E-09
   39.3899994       1.47833268E-09
   39.4500008       1.23432919E-09
   39.5099983       9.72915193E-10
   39.5699997       6.98975988E-10
   39.6300011       4.20006668E-10
   39.6899986       1.44252998E-10
   39.7500000      -1.21469418E-10
   39.8100014      -3.73440001E-10
   39.8699989      -6.11646789E-10
   39.9300003      -8.39300407E-10
   39.9900017      -1.06156939E-09
   40.0499992      -1.28392286E-09
   40.1100006      -1.51035073E-09
   40.1699982      -1.74166648E-09
   40.2299995      -1.97424233E-09
   40.2900009      -2.19975838E-09
   40.3499985      -2.40653231E-09
   40.4099998      -2.58252175E-09
   40.4700012      -2.71921552E-09
   40.5299988      -2.81486190E-09
   40.5900002      -2.87536350E-09
   40.6500015      -2.91201285E-09
   40.7099991      -2.93670399E-09
   40.7700005      -2.95661784E-09
   40.8300018      -2.97081826E-09
   40.8899994      -2.97041458E-09
   40.9500008      -2.94228819E-09
   41.0099983      -2.87472934E-09
   41.0699997      -2.76251710E-09
   41.1300011      -2.60937960E-09
   41.1899986      -2.42706544E-09
   41.2500000      -2.23173346E-09
   41.3100014      -2.03928829E-09
   41.3699989      -1.86138605E-09
   41.4300003      -1.70323144E-09
   41.4900017      -1.56349023E-09
   41.5499992      -1.43596623E-09
   41.6100006      -1.31235089E-09
   41.6699982      -1.18524146E-09
   41.7299995      -1.05064657E-09
   41.7900009      -9.09316455E-10
   41.8499985      -7.66513020E-10
   41.9099998      -6.30281161E-10
   41.9700012      -5.08784181E-10
   42.0299988      -4.07598538E-10
   42.0900002      -3.27839478E-10
   42.1500015      -2.65624578E-10
   42.2099991      -2.12872608E-10
   42.2700005      -1.59063776E-10
   42.3300018      -9.34841510E-11
   42.3899994      -7.56740677E-12
   42.4500008       1.02984392E-10
   42.5099983       2.36704795E-10
   42.5699997       3.86054633E-10
   42.6300011       5.38828981E-10
   42.6899986       6.81366963E-10
   42.7500000       8.02851174E-10
   42.8100014       8.99219532E-10
   42.8699989       9.74977432E-10
   42.9300003       1.04180431E-09
   42.9900017       1.11411713E-09
   43.0499992       1.20313182E-09
   43.1100006       1.31173039E-09
   43.1699982       1.43221868E-09
   43.2299995       1.54792823E-09
   43.2900009       1.63812275E-09
   43.3499985       1.68446768E-09
   43.4099998       1.67685255E-09
   43.4700012       1.61668201E-09
   43.5299988       1.51662460E-09
   43.5900002       1.39689427E-09
   43.6500015       1.27913313E-09
   43.7099991       1.17970711E-09
   43.7700005       1.10452558E-09
   43.8300018       1.04721543E-09
   43.8899994       9.91537186E-10
   43.9500008       9.17496357E-10
   44.0099983       8.09128875E-10
   44.0699997       6.61106891E-10
   44.1300011       4.81565510E-10
   44.1899986       2.89952173E-10
   44.2500000       1.10677398E-10
   44.3100014      -3.49845049E-11
   44.3699989      -1.35694136E-10
   44.4300003      -1.93196251E-10
   44.4900017      -2.21059282E-10
   44.5499992      -2.39936626E-10
   44.6100006      -2.71331235E-10
   44.6699982      -3.31966260E-10
   44.7299995      -4.30249808E-10
   44.7900009      -5.65431590E-10
   44.8499985      -7.29286131E-10
   44.9099998      -9.09647357E-10
   44.9700012      -1.09480114E-09
   45.0299988      -1.27752542E-09
   45.0900002      -1.45752432E-09
   45.1500015      -1.64131875E-09
   45.2099991      -1.83942472E-09
   45.2700005      -2.06169526E-09
   45.3300018      -2.31257746E-09
   45.3899994      -2.58823096E-09
   45.4500008      -2.87678703E-09
   45.5099983      -3.16171334E-09
   45.5699997      -3.42693851E-09
   45.6300011      -3.66169339E-09
   45.6899986      -3.86327104E-09
   45.7500000      -4.03687173E-09
   45.8100014      -4.19289137E-09
   45.8699989      -4.34285541E-09
   45.9300003      -4.49544180E-09
   45.9900017      -4.65373651E-09
   46.0499992      -4.81432405E-09
   46.1100006      -4.96828090E-09
   46.1699982      -5.10371745E-09
   46.2299995      -5.20917398E-09
   46.2900009      -5.27693844E-09
   46.3499985      -5.30526467E-09
   46.4099998      -5.29871302E-09
   46.4700012      -5.26643307E-09
   46.5299988      -5.21895682E-09
   46.5900002      -5.16465404E-09
   46.6500015      -5.10709963E-09
   46.7099991      -5.04414110E-09
   46.7700005      -4.96869479E-09
   46.8300018      -4.87068519E-09
   46.8899994      -4.73933959E-09
   46.9500008      -4.56531168E-09
   47.0099983      -4.34249259E-09
   47.0699997      -4.06953360E-09
   47.1300011      -3.75092757E-09
   47.1899986      -3.39714590E-09
   47.2500000      -3.02323833E-09
   47.3100014      -2.64570321E-09
   47.3699989      -2.27826624E-09
   47.4300003      -1.92801042E-09
   47.4900017      -1.59352109E-09
   47.5499992      -1.26608801E-09
   47.6100006      -9.33750077E-10
   47.6699982      -5.86682203E-10
   47.7299995      -2.21774765E-10
   47.7900009       1.55437926E-10
   47.8499985       5.32224376E-10
   47.9099998       8.92843410E-10
   47.9700012       1.22383037E-09
   48.0299988       1.51845658E-09
   48.0900002       1.77886528E-09
   48.1500015       2.01525396E-09
   48.2099991       2.24242735E-09
   48.2700005       2.47482079E-09
   48.3300018       2.72156142E-09
   48.3899994       2.98317504E-09
   48.4500008       3.25113070E-09
   48.5099983       3.51053298E-09
   48.5699997       3.74514109E-09
   48.6300011       3.94291400E-09
   48.6899986       4.09992618E-09
   48.7500000       4.22106128E-09
   48.8100014       4.31721636E-09
   48.8699989       4.40027526E-09
   48.9300003       4.47808191E-09
   48.9900017       4.55156357E-09
   49.0499992       4.61504301E-09
   49.1100006       4.65925964E-09
   49.1699982       4.67546180E-09
   49.2299995       4.65871119E-09
   49.2900009       4.60922944E-09
   49.3499985       4.53173676E-09
   49.4099998       4.43358328E-09
   49.4700012       4.32265646E-09
   49.5299988       4.20568513E-09
   49.5900002       4.08700629E-09
   49.6500015       3.96765909E-09
   49.7099991       3.84482091E-09
   49.7700005       3.71198006E-09
   49.8300018       3.56030494E-09
   49.8899994       3.38130457E-09
   49.9500008       3.17012905E-09
   50.0099983       2.92828917E-09
   50.0699997       2.66451083E-09
   50.1300011       2.39312059E-09
   50.1899986       2.13037876E-09
   50.2500000       1.89008831E-09
   50.3100014       1.68008873E-09
   50.3699989       1.50082391E-09
   50.4300003       1.34629430E-09
   50.4900017       1.20681054E-09
   50.5499992       1.07243692E-09
   50.6100006       9.35964861E-10