 -0.750000000       0.00000000    
 -0.689999998       0.00000000    
 -0.629999995       0.00000000    
 -0.569999993       0.00000000    
 -0.509999990       0.00000000    
 -0.449999988       0.00000000    
 -0.389999986       0.00000000    
 -0.330000013       0.00000000    
 -0.270000011       0.00000000    
 -0.209999993       0.00000000    
 -0.150000006       0.00000000    
  -9.00000036E-02   5.09443162E-33
  -2.99999993E-02   1.39345322E-31
   2.99999993E-02   1.45551507E-30
   9.00000036E-02   8.54512848E-30
  0.150000006       3.12109285E-29
  0.209999993       6.44874109E-29
  0.270000011      -8.51694840E-31
  0.330000013      -5.46919134E-28
  0.389999986      -2.21773895E-27
  0.449999988      -4.92929559E-27
  0.509999990      -4.93333311E-27
  0.569999993       9.09837964E-27
  0.629999995       5.43927544E-26
  0.689999998       1.33590143E-25
  0.750000000       1.86107572E-25
  0.810000002       3.37183741E-26
  0.870000005      -5.94673574E-25
  0.930000007      -1.82537917E-24
  0.990000010      -3.12721108E-24
   1.04999995      -2.76030359E-24
   1.11000001       2.10188419E-24
   1.16999996       1.35935565E-23
   1.23000002       2.93354241E-23
   1.28999996       3.81388657E-23
   1.35000002       1.95609011E-23
   1.40999997      -4.69978273E-23
   1.47000003      -1.61216057E-22
   1.52999997      -2.76032200E-22
   1.59000003      -2.87271108E-22
   1.64999998      -6.53599848E-23
   1.71000004       4.57110437E-22
   1.76999998       1.16635061E-21
   1.83000004       1.69160111E-21
   1.88999999       1.47433403E-21
   1.95000005       4.42592430E-23
   2.00999999      -2.56020982E-21
   2.06999993      -5.45367933E-21
   2.13000011      -6.96713308E-21
   2.19000006      -5.32522601E-21
   2.25000000       2.01507677E-22
   2.30999994       8.26846428E-21
   2.36999989       1.54035716E-20
   2.43000007       1.74812764E-20
   2.49000001       1.23412884E-20
   2.54999995       2.00393288E-21
   2.60999990      -7.60001511E-21
   2.67000008      -1.05101561E-20
   2.73000002      -6.80001917E-21
   2.78999996      -6.46858551E-21
   2.84999990      -2.58462534E-20
   2.91000009      -7.43628973E-20
   2.97000003      -1.36787653E-19
   3.02999997      -1.63849112E-19
   3.08999991      -8.61503309E-20
   3.15000010       1.42997207E-19
   3.21000004       4.90340363E-19
   3.26999998       8.06930611E-19
   3.32999992       8.55841180E-19
   3.39000010       4.22302379E-19
   3.45000005      -5.25763907E-19
   3.50999999      -1.71385909E-18
   3.56999993      -2.57996413E-18
   3.63000011      -2.49330000E-18
   3.69000006      -1.11440946E-18
   3.75000000       1.28763246E-18
   3.80999994       3.79232284E-18
   3.86999989       5.18868726E-18
   3.93000007       4.63027459E-18
   3.99000001       2.22038107E-18
   4.05000019      -9.16434745E-19
   4.11000013      -3.29072941E-18
   4.17000008      -4.15417011E-18
   4.23000002      -4.29794237E-18
   4.28999996      -5.71114901E-18
   4.34999990      -9.84278258E-18
   4.40999985      -1.52818690E-17
   4.46999979      -1.66142022E-17
   4.53000021      -6.21529533E-18
   4.59000015       2.06678454E-17
   4.65000010       5.96100297E-17
   4.71000004       9.36206525E-17
   4.76999998       9.68610829E-17
   4.82999992       4.66908483E-17
   4.88999987      -5.99190577E-17
   4.94999981      -1.94315658E-16
   5.01000023      -2.98053503E-16
   5.07000017      -3.03350900E-16
   5.13000011      -1.66923737E-16
   5.19000006       9.79162477E-17
   5.25000000       4.09833477E-16
   5.30999994       6.41161854E-16
   5.36999989       6.69499818E-16
   5.42999983       4.38283805E-16
   5.48999977      -4.15112939E-18
   5.55000019      -5.11457181E-16
   5.61000013      -8.95351518E-16
   5.67000008      -1.00760594E-15
   5.73000002      -8.07623257E-16
   5.78999996      -3.79191107E-16
   5.84999990       1.14622854E-16
   5.90999985       5.15192544E-16
   5.96999979       7.43916692E-16
   6.03000021       8.25569609E-16
   6.09000015       8.45160581E-16
   6.15000010       8.65121706E-16
   6.21000004       8.57290993E-16
   6.26999998       6.99553817E-16
   6.32999992       2.49819186E-16
   6.38999987      -5.39446750E-16
   6.44999981      -1.53465853E-15
   6.51000023      -2.42351521E-15
   6.57000017      -2.82176787E-15
   6.63000011      -2.44103566E-15
   6.69000006      -1.23683719E-15
   6.75000000       5.37551937E-16
   6.80999994       2.39898408E-15
   6.86999989       3.79229610E-15
   6.92999983       4.26896135E-15
   6.98999977       3.62049198E-15
   7.05000019       1.93531295E-15
   7.11000013      -4.14580091E-16
   7.17000008      -2.83712563E-15
   7.23000002      -4.62735454E-15
   7.28999996      -5.12928128E-15
   7.34999990      -3.95374312E-15
   7.40999985      -1.20497033E-15
   7.46999979       2.39162421E-15
   7.53000021       5.58653592E-15
   7.59000015       6.98776643E-15
   7.65000010       5.64158502E-15
   7.71000004       1.57389299E-15
   7.76999998      -4.00593094E-15
   7.82999992      -9.03204530E-15
   7.88999987      -1.13835553E-14
   7.94999981      -9.82886105E-15
   8.01000023      -4.64490634E-15
   8.06999969       2.44311661E-15
   8.13000011       9.01889257E-15
   8.18999958       1.30558889E-14
   8.25000000       1.37389693E-14
   8.31000042       1.15688759E-14
   8.36999989       7.71601614E-15
   8.43000031       3.07825664E-15
   8.48999977      -2.26418492E-15
   8.55000019      -8.71536001E-15
   8.60999966      -1.60660720E-14
   8.67000008      -2.23900031E-14
   8.72999954      -2.39445152E-14
   8.78999996      -1.66789258E-14
   8.85000038       1.00983543E-15
   8.90999985       2.56584050E-14
   8.97000027       4.80732702E-14
   9.02999973       5.58513027E-14
   9.09000015       3.87953423E-14
   9.14999962      -4.84212356E-15
   9.21000004      -6.44248110E-14
   9.27000046      -1.18051876E-13
   9.32999992      -1.39524324E-13
   9.39000034      -1.09180866E-13
   9.44999981      -2.43171013E-14
   9.51000023       9.57084821E-14
   9.56999969       2.12950168E-13
   9.63000011       2.82827771E-13
   9.68999958       2.70713356E-13
   9.75000000       1.66868418E-13
   9.81000042      -6.50809549E-15
   9.86999989      -1.99694861E-13
   9.93000031      -3.50604040E-13
   9.98999977      -4.05736696E-13
   10.0500002      -3.39551277E-13
   10.1099997      -1.65169514E-13
   10.1700001       6.76956863E-14
   10.2299995       2.87203231E-13
   10.2900000       4.21477089E-13
   10.3500004       4.20919918E-13
   10.4099998       2.73364962E-13
   10.4700003       7.39801117E-15
   10.5299997      -3.16399169E-13
   10.5900002      -6.22051455E-13
   10.6499996      -8.35646819E-13
   10.7100000      -8.96886027E-13
   10.7700005      -7.61358045E-13
   10.8299999      -3.95560022E-13
   10.8900003       2.28218404E-13
   10.9499998       1.12776574E-12
   11.0100002       2.29057008E-12
   11.0699997       3.63710234E-12
   11.1300001       4.97701186E-12
   11.1899996       5.97545841E-12
   11.2500000       6.14961424E-12
   11.3100004       4.91074195E-12
   11.3699999       1.65570530E-12
   11.4300003      -4.10322774E-12
   11.4899998      -1.25949026E-11
   11.5500002      -2.36639337E-11
   11.6099997      -3.66939153E-11
   11.6700001      -5.06003781E-11
   11.7299995      -6.39012454E-11
   11.7900000      -7.48595838E-11
   11.8500004      -8.16842496E-11
   11.9099998      -8.27701727E-11
   11.9700003      -7.69592376E-11
   12.0299997      -6.38030254E-11
   12.0900002      -4.38056466E-11
   12.1499996      -1.86203344E-11
   12.2100000       8.83305668E-12
   12.2700005       3.43653508E-11
   12.3299999       5.26618471E-11
   12.3900003       5.75907932E-11
   12.4499998       4.26726536E-11
   12.5100002       1.67940629E-12
   12.5699997      -7.06930001E-11
   12.6300001      -1.78155796E-10
   12.6899996      -3.22248617E-10
   12.7500000      -5.01934327E-10
   12.8100004      -7.13437143E-10
   12.8699999      -9.50368562E-10
   12.9300003      -1.20415311E-09
   12.9899998      -1.46472567E-09
   13.0500002      -1.72143444E-09
   13.1099997      -1.96404337E-09
   13.1700001      -2.18371166E-09
   13.2299995      -2.37381759E-09
   13.2900000      -2.53052646E-09
   13.3500004      -2.65304267E-09
   13.4099998      -2.74354450E-09
   13.4700003      -2.80685142E-09
   13.5299997      -2.84990409E-09
   13.5900002      -2.88113267E-09
   13.6499996      -2.90976643E-09
   13.7100000      -2.94509728E-09
   13.7700005      -2.99569525E-09
   13.8299999      -3.06857562E-09
   13.8900003      -3.16836690E-09
   13.9499998      -3.29658190E-09
   14.0100002      -3.45113316E-09
   14.0699997      -3.62624797E-09
   14.1300001      -3.81286025E-09
   14.1899996      -3.99946742E-09
   14.2500000      -4.17331902E-09
   14.3100004      -4.32169767E-09
   14.3699999      -4.43305570E-09
   14.4300003      -4.49780035E-09
   14.4899998      -4.50866056E-09
   14.5500002      -4.46069359E-09
   14.6099997      -4.35109992E-09
   14.6700001      -4.17905310E-09
   14.7299995      -3.94569089E-09
   14.7900000      -3.65430286E-09
   14.8500004      -3.31062799E-09
   14.9099998      -2.92307112E-09
   14.9700003      -2.50264476E-09
   15.0299997      -2.06251216E-09
   15.0900002      -1.61713354E-09
   15.1499996      -1.18115795E-09
   15.2100000      -7.68279385E-10
   15.2700005      -3.90287552E-10
   15.3299999      -5.64554271E-11
   15.3900003       2.26711511E-10
   15.4499998       4.55454230E-10
   15.5100002       6.28606167E-10
   15.5699997       7.47415074E-10
   15.6300001       8.15359558E-10
   15.6899996       8.37881819E-10
   15.7500000       8.21910706E-10
   15.8100004       7.75091769E-10
   15.8699999       7.04756420E-10
   15.9300003       6.16816098E-10
   15.9899998       5.14872867E-10
   16.0499992       3.99846323E-10
   16.1100006       2.70301642E-10
   16.1700001       1.23462005E-10
   16.2299995      -4.33279662E-11
   16.2900009      -2.31068525E-10
   16.3500004      -4.37899828E-10
   16.4099998      -6.58511412E-10
   16.4699993      -8.84251172E-10
   16.5300007      -1.10381471E-09
   16.5900002      -1.30426525E-09
   16.6499996      -1.47212065E-09
   16.7099991      -1.59433078E-09
   16.7700005      -1.65910663E-09
   16.8299999      -1.65666725E-09
   16.8899994      -1.57999569E-09
   16.9500008      -1.42562706E-09
   17.0100002      -1.19437360E-09
   17.0699997      -8.91792695E-10
   17.1299992      -5.28186661E-10
   17.1900005      -1.18016763E-10
   17.2500000       3.21218996E-10
   17.3099995       7.70421726E-10
   17.3700008       1.21032084E-09
   17.4300003       1.62260583E-09
   17.4899998       1.99061900E-09
   17.5499992       2.29966934E-09
   17.6100006       2.53718668E-09
   17.6700001       2.69298761E-09
   17.7299995       2.75981438E-09
   17.7900009       2.73411938E-09
   17.8500004       2.61684452E-09
   17.9099998       2.41384046E-09
   17.9699993       2.13560791E-09
   18.0300007       1.79624604E-09
   18.0900002       1.41177958E-09
   18.1499996       9.98276128E-10
   18.2099991       5.70273162E-10
   18.2700005       1.39931011E-10
   18.3299999      -2.82924323E-10
   18.3899994      -6.90035806E-10
   18.4500008      -1.07365072E-09
   18.5100002      -1.42566969E-09
   18.5699997      -1.73740911E-09
   18.6299992      -2.00010608E-09
   18.6900005      -2.20598451E-09
   18.7500000      -2.34945996E-09
   18.8099995      -2.42799136E-09
   18.8700008      -2.44220577E-09
   18.9300003      -2.39517317E-09
   18.9899998      -2.29103536E-09
   19.0499992      -2.13344142E-09
   19.1100006      -1.92437022E-09
   19.1700001      -1.66384517E-09
   19.2299995      -1.35078326E-09
   19.2900009      -9.84837545E-10
   19.3500004      -5.68688652E-10
   19.4099998      -1.09992397E-10
   19.4699993       3.77810783E-10
   19.5300007       8.76295869E-10
   19.5900002       1.36439038E-09
   19.6499996       1.82158866E-09
   19.7099991       2.23100982E-09
   19.7700005       2.58128297E-09
   19.8299999       2.86669577E-09
   19.8899994       3.08574699E-09
   19.9500008       3.23890181E-09
   20.0100002       3.32667693E-09
   20.0699997       3.34897954E-09
   20.1299992       3.30601568E-09
   20.1900005       3.20031801E-09
   20.2500000       3.03886449E-09
   20.3099995       2.83416779E-09
   20.3700008       2.60359068E-09
   20.4300003       2.36686226E-09
   20.4899998       2.14247908E-09
   20.5499992       1.94412753E-09
   20.6100006       1.77825876E-09
   20.6700001       1.64355185E-09
   20.7299995       1.53237900E-09
   20.7900009       1.43374146E-09
   20.8500004       1.33670630E-09
   20.9099998       1.23324428E-09
   20.9699993       1.11958443E-09
   21.0300007       9.95703076E-10
   21.0900002       8.63221217E-10
   21.1499996       7.22583826E-10
   21.2099991       5.70738179E-10
   21.2700005       4.00440514E-10
   21.3299999       2.01778760E-10
   21.3899994      -3.43380706E-11
   21.4500008      -3.11812853E-10
   21.5100002      -6.25692165E-10
   21.5699997      -9.60682756E-10
   21.6299992      -1.29265254E-09
   21.6900005      -1.59287661E-09
   21.7500000      -1.83378301E-09
   21.8099995      -1.99439198E-09
   21.8700008      -2.06373318E-09
   21.9300003      -2.04125317E-09
   21.9899998      -1.93430294E-09
   22.0499992      -1.75382120E-09
   22.1100006      -1.50991963E-09
   22.1700001      -1.20900467E-09
   22.2299995      -8.53400961E-10
   22.2900009      -4.43394876E-10
   22.3500004       1.93596285E-11
   22.4099998       5.28675492E-10
   22.4699993       1.07239717E-09
   22.5300007       1.63345326E-09
   22.5900002       2.19311214E-09
   22.6499996       2.73522871E-09
   22.7099991       3.24984706E-09
   22.7700005       3.73477205E-09
   22.8299999       4.19451984E-09
   22.8899994       4.63704053E-09
   22.9500008       5.06937514E-09
   23.0100002       5.49370816E-09
   23.0699997       5.90499027E-09
   23.1299992       6.29072572E-09
   23.1900005       6.63280053E-09
   23.2500000       6.91071156E-09
   23.3099995       7.10528081E-09
   23.3700008       7.20191728E-09
   23.4300003       7.19269000E-09
   23.4899998       7.07678760E-09
   23.5499992       6.85938550E-09
   23.6100006       6.54942500E-09
   23.6700001       6.15718410E-09
   23.7299995       5.69263436E-09
   23.7900009       5.16529131E-09
   23.8500004       4.58563321E-09
   23.9099998       3.96739575E-09
   23.9699993       3.32954220E-09
   24.0300007       2.69669331E-09
   24.0900002       2.09739781E-09
   24.1499996       1.56053115E-09
   24.2099991       1.11095932E-09
   24.2700005       7.65952413E-10
   24.3299999       5.33560807E-10
   24.3899994       4.13368340E-10
   24.4500008       3.99124261E-10
   24.5100002       4.82094864E-10
   24.5699997       6.53835486E-10
   24.6299992       9.07437736E-10
   24.6900005       1.23696986E-09
   24.7500000       1.63550817E-09
   24.8099995       2.09263384E-09
   24.8700008       2.59241206E-09
   24.9300003       3.11270720E-09
   24.9899998       3.62623820E-09
   25.0499992       4.10323553E-09
   25.1100006       4.51500526E-09
   25.1700001       4.83737850E-09
   25.2299995       5.05302511E-09
   25.2900009       5.15201126E-09
   25.3500004       5.13064480E-09
   25.4099998       4.98934272E-09
   25.4699993       4.73062567E-09
   25.5300007       4.35827108E-09
   25.5900002       3.87802990E-09
   25.6499996       3.29954486E-09
   25.7099991       2.63842570E-09
   25.7700005       1.91725036E-09
   25.8299999       1.16464949E-09
   25.8899994       4.12408802E-10
   25.9500008      -3.08654685E-10
   26.0100002      -9.72777414E-10
   26.0699997      -1.56206725E-09
   26.1299992      -2.06735207E-09
   26.1900005      -2.48712895E-09
   26.2500000      -2.82535773E-09
   26.3099995      -3.08914583E-09
   26.3700008      -3.28720851E-09
   26.4300003      -3.42947160E-09
   26.4899998      -3.52757556E-09
   26.5499992      -3.59559871E-09
   26.6100006      -3.65024055E-09
   26.6700001      -3.70999453E-09
   26.7299995      -3.79333631E-09
   26.7900009      -3.91642896E-09
   26.8500004      -4.09108791E-09
   26.9099998      -4.32362901E-09
   26.9699993      -4.61487604E-09
   27.0300007      -4.96111729E-09
   27.0900002      -5.35548006E-09
   27.1499996      -5.78910786E-09
   27.2099991      -6.25173602E-09
   27.2700005      -6.73162459E-09
   27.3299999      -7.21516313E-09
   27.3899994      -7.68666641E-09
   27.4500008      -8.12881584E-09
   27.5100002      -8.52393800E-09
   27.5699997      -8.85594975E-09
   27.6299992      -9.11246367E-09
   27.6900005      -9.28637434E-09
   27.7500000      -9.37636724E-09
   27.8099995      -9.38608480E-09
   27.8700008      -9.32216704E-09
   27.9300003      -9.19180643E-09
   27.9899998      -9.00070862E-09
   28.0499992      -8.75222739E-09
   28.1100006      -8.44803161E-09
   28.1700001      -8.09005662E-09
   28.2299995      -7.68292008E-09
   28.2900009      -7.23572757E-09
   28.3500004      -6.76237732E-09
   28.4099998      -6.28002228E-09
   28.4699993      -5.80608095E-09
   28.5300007      -5.35479527E-09
   28.5900002      -4.93456254E-09
   28.6499996      -4.54697746E-09
   28.7099991      -4.18789936E-09
   28.7700005      -3.85008558E-09
   28.8299999      -3.52637564E-09
   28.8899994      -3.21228710E-09
   28.9500008      -2.90722846E-09
   29.0100002      -2.61416178E-09
   29.0699997      -2.33820407E-09
   29.1299992      -2.08500928E-09
   29.1900005      -1.85970495E-09
   29.2500000      -1.66672409E-09
   29.3099995      -1.51033019E-09
   29.3700008      -1.39527445E-09
   29.4300003      -1.32701661E-09
   29.4899998      -1.31126021E-09
   29.5499992      -1.35298472E-09
   29.6100006      -1.45542056E-09
   29.6700001      -1.61937863E-09
   29.7299995      -1.84306803E-09
   29.7900009      -2.12223328E-09
   29.8500004      -2.45036058E-09
   29.9099998      -2.81887225E-09
   29.9699993      -3.21751914E-09
   30.0300007      -3.63530939E-09
   30.0900002      -4.06209688E-09
   30.1499996      -4.49046933E-09
   30.2099991      -4.91712004E-09
   30.2700005      -5.34283595E-09
   30.3299999      -5.77071990E-09
   30.3899994      -6.20313445E-09
   30.4500008      -6.63861899E-09
   30.5100002      -7.07023196E-09
   30.5699997      -7.48621787E-09
   30.6299992      -7.87284549E-09
   30.6900005      -8.21823321E-09
   30.7500000      -8.51553672E-09
   30.8099995      -8.76420003E-09
   30.8700008      -8.96892249E-09
   30.9300003      -9.13694631E-09
   30.9899998      -9.27489818E-09
   31.0499992      -9.38637434E-09
   31.1100006      -9.47094225E-09
   31.1700001      -9.52462642E-09
   31.2299995      -9.54145829E-09
   31.2900009      -9.51551637E-09
   31.3500004      -9.44285539E-09
   31.4099998      -9.32281363E-09
   31.4699993      -9.15824749E-09
   31.5300007      -8.95444074E-09
   31.5900002      -8.71683081E-09
   31.6499996      -8.44819681E-09
   31.7099991      -8.14641066E-09
   31.7700005      -7.80384024E-09
   31.8299999      -7.40899253E-09
   31.8899994      -6.95002056E-09
   31.9500008      -6.41881881E-09
   32.0099983      -5.81407544E-09
   32.0699997      -5.14200726E-09
   32.1300011      -4.41452164E-09
   32.1899986      -3.64565533E-09
   32.2500000      -2.84782198E-09
   32.3100014      -2.02933448E-09
   32.3699989      -1.19397325E-09
   32.4300003      -3.42421924E-10
   32.4900017       5.25303634E-10
   32.5499992       1.40751799E-09
   32.6100006       2.29942976E-09
   32.6699982       3.19292570E-09
   32.7299995       4.07746858E-09
   32.7900009       4.94174790E-09
   32.8499985       5.77564485E-09
   32.9099998       6.57203092E-09
   32.9700012       7.32788985E-09
   33.0299988       8.04429501E-09
   33.0900002       8.72499140E-09
   33.1500015       9.37380484E-09
   33.2099991       9.99160488E-09
   33.2700005       1.05739710E-08
   33.3300018       1.11106164E-08
   33.3899994       1.15870593E-08
   33.4500008       1.19881607E-08
   33.5099983       1.23022703E-08
   33.5699997       1.25244144E-08
   33.6300011       1.26572015E-08
   33.6899986       1.27090773E-08
   33.7500000       1.26905890E-08
   33.8100014       1.26101547E-08
   33.8699989       1.24710242E-08
   33.9300003       1.22705712E-08
   33.9900017       1.20021433E-08
   34.0499992       1.16586598E-08
   34.1100006       1.12365237E-08
   34.1699982       1.07383764E-08
   34.2299995       1.01737445E-08
   34.2900009       9.55741530E-09
   34.3499985       8.90618690E-09
   34.4099998       8.23511215E-09
   34.4700012       7.55440421E-09
   34.5299988       6.86791113E-09
   34.5900002       6.17354123E-09
   34.6500015       5.46546275E-09
   34.7099991       4.73744377E-09
   34.7700005       3.98634947E-09
   34.8300018       3.21473093E-09
   34.8899994       2.43160225E-09
   34.9500008       1.65095781E-09
   35.0099983       8.88294494E-10
   35.0699997       1.56128083E-10
   35.1300011      -5.39974565E-10
   35.1899986      -1.20331312E-09
   35.2500000      -1.84496673E-09
   35.3100014      -2.47979637E-09
   35.3699989      -3.12076676E-09
   35.4300003      -3.77358322E-09
   35.4900017      -4.43364412E-09
   35.5499992      -5.08652187E-09
   35.6100006      -5.71189984E-09
   35.6699982      -6.28954444E-09
   35.7299995      -6.80515910E-09
   35.7900009      -7.25398586E-09
   35.8499985      -7.64092789E-09
   35.9099998      -7.97725441E-09
   35.9700012      -8.27522761E-09
   36.0299988      -8.54268656E-09
   36.0900002      -8.77956463E-09
   36.1500015      -8.97756802E-09
   36.2099991      -9.12306675E-09
   36.2700005      -9.20214038E-09
   36.3300018      -9.20601462E-09
   36.3899994      -9.13500919E-09
   36.4500008      -8.99967656E-09
   36.5099983      -8.81875550E-09
   36.5699997      -8.61459171E-09
   36.6300011      -8.40753511E-09
   36.6899986      -8.21111978E-09
   36.7500000      -8.02959388E-09
   36.8100014      -7.85858667E-09
   36.8699989      -7.68867370E-09
   36.9300003      -7.51059126E-09
   36.9900017      -7.32026484E-09
   37.0499992      -7.12181514E-09
   37.1100006      -6.92736890E-09
   37.1699982      -6.75360923E-09
   37.2299995      -6.61617205E-09
   37.2900009      -6.52385834E-09
   37.3499985      -6.47476295E-09
   37.4099998      -6.45579590E-09
   37.4700012      -6.44588161E-09
   37.5299988      -6.42176179E-09
   37.5900002      -6.36439790E-09
   37.6500015      -6.26374108E-09
   37.7099991      -6.12028961E-09
   37.7700005      -5.94305405E-09
   37.8300018      -5.74486680E-09
   37.8899994      -5.53688162E-09
   37.9500008      -5.32429034E-09
   38.0099983      -5.10472065E-09
   38.0699997      -4.86974994E-09
   38.1300011      -4.60885552E-09
   38.1899986      -4.31434577E-09
   38.2500000      -3.98556343E-09
   38.3100014      -3.63095931E-09
   38.3699989      -3.26731064E-09
   38.4300003      -2.91622326E-09
   38.4900017      -2.59883293E-09
   38.5499992      -2.33019248E-09
   38.6100006      -2.11502793E-09
   38.6699982      -1.94628536E-09
   38.7299995      -1.80719284E-09
   38.7900009      -1.67650216E-09
   38.8499985      -1.53546609E-09
   38.9099998      -1.37432699E-09
   38.9700012      -1.19600252E-09
   39.0299988      -1.01544040E-09
   39.0900002      -8.54581406E-10
   39.1500015      -7.34530492E-10
   39.2099991      -6.67713662E-10
   39.2700005      -6.52962462E-10
   39.3300018      -6.75467016E-10
   39.3899994      -7.11723624E-10
   39.4500008      -7.37680306E-10
   39.5099983      -7.37037598E-10
   39.5699997      -7.06595338E-10
   39.6300011      -6.56666332E-10
   39.6899986      -6.06431905E-10
   39.7500000      -5.75968884E-10
   39.8100014      -5.77834114E-10
   39.8699989      -6.11182660E-10
   39.9300003      -6.60445310E-10
   39.9900017      -6.99004243E-10
   40.0499992      -6.96640967E-10
   40.1100006      -6.28333829E-10
   40.1699982      -4.81605533E-10
   40.2299995      -2.60148930E-10
   40.2900009       1.73093519E-11
   40.3499985       3.22401633E-10
   40.4099998       6.24911678E-10
   40.4700012       9.00394814E-10
   40.5299988       1.13520005E-09
   40.5900002       1.32744460E-09
   40.6500015       1.48393398E-09
   40.7099991       1.61441982E-09
   40.7700005       1.72546855E-09
   40.8300018       1.81626025E-09
   40.8899994       1.87788629E-09
   40.9500008       1.89643057E-09
   41.0099983       1.85875593E-09
   41.0699997       1.75894821E-09
   41.1300011       1.60307823E-09
   41.1899986       1.41046141E-09
   41.2500000       1.21074151E-09
   41.3100014       1.03754838E-09
   41.3699989       9.20692300E-10
   41.4300003       8.79416928E-10
   41.4900017       9.18898402E-10
   41.5499992       1.03103714E-09
   41.6100006       1.19907007E-09
   41.6699982       1.40420842E-09
   41.7299995       1.63192249E-09
   41.7900009       1.87581950E-09
   41.8499985       2.13812945E-09
   41.9099998       2.42709941E-09
   41.9700012       2.75260703E-09
   42.0299988       3.12167514E-09
   42.0900002       3.53535223E-09
   42.1500015       3.98778832E-09
   42.2099991       4.46763915E-09
   42.2700005       4.96131314E-09
   42.3300018       5.45710765E-09
   42.3899994       5.94901417E-09
   42.4500008       6.43891385E-09
   42.5099983       6.93622226E-09
   42.5699997       7.45480477E-09
   42.6300011       8.00797295E-09
   42.6899986       8.60326566E-09
   42.7500000       9.23899357E-09
   42.8100014       9.90395677E-09
   42.8699989       1.05804876E-08
   42.9300003       1.12495844E-08
   42.9900017       1.18961090E-08
   43.0499992       1.25121087E-08
   43.1100006       1.30973392E-08
   43.1699982       1.36573535E-08
   43.2299995       1.42004115E-08
   43.2900009       1.47346606E-08
   43.3499985       1.52664335E-08
   43.4099998       1.57997437E-08
   43.4700012       1.63365019E-08
   43.5299988       1.68768253E-08
   43.5900002       1.74192358E-08
   43.6500015       1.79607724E-08
   43.7099991       1.84972553E-08
   43.7700005       1.90237888E-08
   43.8300018       1.95353635E-08
   43.8899994       2.00273327E-08
   43.9500008       2.04956478E-08
   44.0099983       2.09368771E-08
   44.0699997       2.13481499E-08
   44.1300011       2.17270681E-08
   44.1899986       2.20715002E-08
   44.2500000       2.23792327E-08
   44.3100014       2.26475301E-08
   44.3699989       2.28730404E-08
   44.4300003       2.30524506E-08
   44.4900017       2.31840644E-08
   44.5499992       2.32698394E-08
   44.6100006       2.33169306E-08
   44.6699982       2.33377122E-08
   44.7299995       2.33477042E-08
   44.7900009       2.33618316E-08
   44.8499985       2.33902657E-08
   44.9099998       2.34354385E-08
   44.9700012       2.34913919E-08
   45.0299988       2.35457005E-08
   45.0900002       2.35832562E-08
   45.1500015       2.35904984E-08
   45.2099991       2.35587159E-08
   45.2700005       2.34854376E-08
   45.3300018       2.33736319E-08
   45.3899994       2.32291359E-08
   45.4500008       2.30571953E-08
   45.5099983       2.28593482E-08
   45.5699997       2.26317969E-08
   45.6300011       2.23660503E-08
   45.6899986       2.20518093E-08
   45.7500000       2.16811262E-08
   45.8100014       2.12522000E-08
   45.8699989       2.07710222E-08
   45.9300003       2.02499226E-08
   45.9900017       1.97033287E-08
   46.0499992       1.91424245E-08
   46.1100006       1.85709759E-08
   46.1699982       1.79841688E-08
   46.2299995       1.73709545E-08
   46.2900009       1.67188468E-08
   46.3499985       1.60190652E-08
   46.4099998       1.52698920E-08
   46.4700012       1.44770320E-08
   46.5299988       1.36511762E-08
   46.5900002       1.28041089E-08
   46.6500015       1.19451418E-08
   46.7099991       1.10792788E-08
   46.7700005       1.02075877E-08
   46.8300018       9.32930355E-09
   46.8899994       8.44452508E-09
   46.9500008       7.55628093E-09
   47.0099983       6.67115518E-09
   47.0699997       5.79830139E-09
   47.1300011       4.94738739E-09
   47.1899986       4.12638146E-09
   47.2500000       3.34011196E-09
   47.3100014       2.59013500E-09
   47.3699989       1.87583837E-09
   47.4300003       1.19616617E-09
   47.4900017       5.51108492E-10
   47.5499992      -5.77318263E-11
   47.6100006      -6.27692398E-10
   47.6699982      -1.15637500E-09
   47.7299995      -1.64304503E-09
   47.7900009      -2.08941597E-09
   47.8499985      -2.49942800E-09
   47.9099998      -2.87807156E-09
   47.9700012      -3.22966209E-09
   48.0299988      -3.55617114E-09
   48.0900002      -3.85620424E-09
   48.1500015      -4.12506385E-09
   48.2099991      -4.35601999E-09
   48.2700005      -4.54253035E-09
   48.3300018      -4.68071226E-09
   48.3899994      -4.77108797E-09
   48.4500008      -4.81871121E-09
   48.5099983      -4.83131180E-09
   48.5699997      -4.81598761E-09
   48.6300011      -4.77580331E-09
   48.6899986      -4.70795181E-09
   48.7500000      -4.60463356E-09
   48.8100014      -4.45660397E-09
   48.8699989      -4.25800106E-09
   48.9300003      -4.01032008E-09
   48.9900017      -3.72365472E-09
   49.0499992      -3.41454354E-09
   49.1100006      -3.10133741E-09
   49.1699982      -2.79912360E-09
   49.2299995      -2.51635002E-09
   49.2900009      -2.25437846E-09
   49.3499985      -2.00977679E-09
   49.4099998      -1.77798287E-09
   49.4700012      -1.55659974E-09
   49.5299988      -1.34707112E-09
   49.5900002      -1.15446541E-09
   49.6500015      -9.85975301E-10
   49.7099991      -8.49105009E-10
   49.7700005      -7.50297657E-10
   49.8300018      -6.94229896E-10
   49.8899994      -6.83551937E-10
   49.9500008      -7.18737292E-10
   50.0099983      -7.97920507E-10
   50.0699997      -9.16907661E-10
   50.1300011      -1.06968434E-09
   50.1899986      -1.24956989E-09
   50.2500000      -1.45078261E-09
   50.3100014      -1.66980585E-09
   50.3699989      -1.90587013E-09
   50.4300003      -2.16016982E-09
   50.4900017      -2.43402365E-09
   50.5499992      -2.72675771E-09
   50.6100006      -3.03432057E-09