  -2.400000      0.0000000E+00
  -2.340000      0.0000000E+00
  -2.280000      0.0000000E+00
  -2.220000      0.0000000E+00
  -2.160000      0.0000000E+00
  -2.100000      0.0000000E+00
  -2.040000      0.0000000E+00
  -1.980000      0.0000000E+00
  -1.920000      0.0000000E+00
  -1.860000      0.0000000E+00
  -1.800000      0.0000000E+00
  -1.740000     -7.0970824E-33
  -1.680000     -8.5379452E-32
  -1.620000     -4.1327748E-31
  -1.560000     -4.8257918E-31
  -1.500000      6.0074171E-30
  -1.440000      4.6004908E-29
  -1.380000      1.8427932E-28
  -1.320000      4.7958506E-28
  -1.260000      7.1620048E-28
  -1.200000     -2.5737894E-28
  -1.140000     -5.2712102E-27
  -1.080000     -1.7966074E-26
  -1.020000     -3.6859994E-26
 -0.9600000     -4.1675099E-26
 -0.9000000      2.2094709E-26
 -0.8400000      2.3515658E-25
 -0.7800000      6.2911401E-25
 -0.7200000      1.0167214E-24
 -0.6600000      7.9734333E-25
 -0.6000000     -1.0158020E-24
 -0.5400000     -5.1684234E-24
 -0.4800000     -1.0744684E-23
 -0.4200000     -1.3513197E-23
 -0.3600000     -5.7663168E-24
 -0.3000000      1.9969048E-23
 -0.2400000      6.2363538E-23
 -0.1800000      1.0124557E-22
 -0.1200000      9.5262079E-23
 -5.9999999E-02 -1.4603741E-24
  0.0000000E+00 -2.0034755E-22
  5.9999999E-02 -4.3367241E-22
  0.1200000     -5.4264639E-22
  0.1800000     -3.3922657E-22
  0.2400000      2.5518595E-22
  0.3000000      1.0644842E-21
  0.3600000      1.6387644E-21
  0.4200000      1.4703389E-21
  0.4800000      3.9815484E-22
  0.5400000     -1.0749334E-21
  0.6000000     -1.9432664E-21
  0.6600000     -1.5133772E-21
  0.7200000     -4.6152685E-22
  0.7800000     -1.0941297E-21
  0.8400000     -5.7538837E-21
  0.9000000     -1.3455886E-20
  0.9600000     -1.6920574E-20
   1.020000     -3.8095981E-21
   1.080000      3.4916832E-20
   1.140000      9.1271257E-20
   1.200000      1.2988292E-19
   1.260000      9.4234186E-20
   1.320000     -6.1543362E-20
   1.380000     -3.2217292E-19
   1.440000     -5.7082747E-19
   1.500000     -6.0094485E-19
   1.560000     -2.0977594E-19
   1.620000      6.4240439E-19
   1.680000      1.6863730E-18
   1.740000      2.3311083E-18
   1.800000      1.8772967E-18
   1.860000     -6.2236223E-20
   1.920000     -3.1167783E-18
   1.980000     -5.9860588E-18
   2.040000     -6.8059602E-18
   2.100000     -4.0735312E-18
   2.160000      2.2211400E-18
   2.220000      9.9144661E-18
   2.280000      1.5091478E-17
   2.340000      1.3808545E-17
   2.400000      4.5349002E-18
   2.460000     -9.9818110E-18
   2.520000     -2.2859788E-17
   2.580000     -2.5916204E-17
   2.640000     -1.4375807E-17
   2.700000      8.8829057E-18
   2.760000      3.2451000E-17
   2.820000      4.0683790E-17
   2.880000      2.2303972E-17
   2.940000     -2.0613053E-17
   3.000000     -6.8844303E-17
   3.060000     -9.1691621E-17
   3.120000     -6.1983509E-17
   3.180000      2.5547531E-17
   3.240000      1.4255133E-16
   3.300000      2.3135651E-16
   3.360000      2.2809001E-16
   3.420000      9.7211715E-17
   3.480000     -1.3886173E-16
   3.540000     -3.9335260E-16
   3.600000     -5.4221655E-16
   3.660000     -4.7895547E-16
   3.720000     -1.7445611E-16
   3.780000      2.8913308E-16
   3.840000      7.3441039E-16
   3.900000      9.5664081E-16
   3.960000      8.1807247E-16
   4.020000      3.2429493E-16
   4.080000     -3.5958783E-16
   4.140000     -9.6949115E-16
   4.200000     -1.2573061E-15
   4.260000     -1.1059628E-15
   4.320000     -5.8435501E-16
   4.380000      9.0706700E-17
   4.440000      6.6881817E-16
   4.500000      9.9437528E-16
   4.560000      1.0731730E-15
   4.620000      1.0324632E-15
   4.680000      9.9322745E-16
   4.740000      9.3485841E-16
   4.800000      6.5261660E-16
   4.860000     -1.3350178E-16
   4.920000     -1.5494804E-15
   4.980000     -3.3397308E-15
   5.040000     -4.7995470E-15
   5.100000     -4.9724959E-15
   5.160000     -3.0870103E-15
   5.220000      9.4163583E-16
   5.280000      6.2021328E-15
   5.340000      1.0889753E-14
   5.400000      1.2875444E-14
   5.460000      1.0572013E-14
   5.520000      3.7505717E-15
   5.580000     -6.0745836E-15
   5.640000     -1.5932346E-14
   5.700000     -2.2322215E-14
   5.760000     -2.2470204E-14
   5.820000     -1.5434335E-14
   5.880000     -2.6117920E-15
   5.940000      1.2578312E-14
   6.000000      2.5741665E-14
   6.060000      3.2905814E-14
   6.120000      3.1760259E-14
   6.180000      2.2309731E-14
   6.240000      6.7552144E-15
   6.300000     -1.1279472E-14
   6.360000     -2.7824140E-14
   6.420000     -3.9521446E-14
   6.480000     -4.4165233E-14
   6.540000     -4.0756833E-14
   6.600000     -2.9269556E-14
   6.660000     -1.0447100E-14
   6.720000      1.4096105E-14
   6.780000      4.1445349E-14
   6.840000      6.6917073E-14
   6.900000      8.4068244E-14
   6.960000      8.5678094E-14
   7.020000      6.5856629E-14
   7.080000      2.2859046E-14
   7.140000     -3.8396166E-14
   7.200000     -1.0539523E-13
   7.260000     -1.5972647E-13
   7.320000     -1.8162988E-13
   7.380000     -1.5645373E-13
   7.440000     -8.1007839E-14
   7.500000      3.2651460E-14
   7.560000      1.5798338E-13
   7.620000      2.5985355E-13
   7.680000      3.0427416E-13
   7.740000      2.6910931E-13
   7.800000      1.5221177E-13
   7.860000     -2.5878254E-14
   7.920000     -2.2574977E-13
   7.980000     -3.9830099E-13
   8.040000     -4.9637638E-13
   8.100000     -4.8539997E-13
   8.160000     -3.5037378E-13
   8.220000     -9.8363863E-14
   8.280000      2.4261886E-13
   8.340000      6.2651289E-13
   8.400000      9.9241275E-13
   8.460000      1.2680116E-12
   8.520000      1.3747450E-12
   8.580000      1.2367881E-12
   8.640000      7.9526495E-13
   8.700000      2.6855544E-14
   8.760000     -1.0366966E-12
   8.820000     -2.2936770E-12
   8.880000     -3.5679526E-12
   8.940000     -4.6192607E-12
   9.000000     -5.1695371E-12
   9.060000     -4.9432220E-12
   9.120000     -3.7167426E-12
   9.180000     -1.3707871E-12
   9.240000      2.0614463E-12
   9.300000      6.3566218E-12
   9.360000      1.1080248E-11
   9.420000      1.5587321E-11
   9.480000      1.9048140E-11
   9.540000      2.0500247E-11
   9.600000      1.8924098E-11
   9.660000      1.3336437E-11
   9.720000      2.8924729E-12
   9.780000     -1.3013501E-11
   9.840000     -3.4659445E-11
   9.900000     -6.1928088E-11
   9.960000     -9.4268635E-11
   10.02000     -1.3069414E-10
   10.08000     -1.6981856E-10
   10.14000     -2.0993328E-10
   10.20000     -2.4911659E-10
   10.26000     -2.8536162E-10
   10.32000     -3.1670302E-10
   10.38000     -3.4132230E-10
   10.44000     -3.5761968E-10
   10.50000     -3.6425349E-10
   10.56000     -3.6016351E-10
   10.62000     -3.4460251E-10
   10.68000     -3.1719705E-10
   10.74000     -2.7804217E-10
   10.80000     -2.2781207E-10
   10.86000     -1.6784811E-10
   10.92000     -1.0018112E-10
   10.98000     -2.7456253E-11
   11.04000      4.7243445E-11
   11.10000      1.2064759E-10
   11.16000      1.8957434E-10
   11.22000      2.5118038E-10
   11.28000      3.0314931E-10
   11.34000      3.4380970E-10
   11.40000      3.7219591E-10
   11.46000      3.8807380E-10
   11.52000      3.9194298E-10
   11.58000      3.8500991E-10
   11.64000      3.6910802E-10
   11.70000      3.4654127E-10
   11.76000      3.1984454E-10
   11.82000      2.9148586E-10
   11.88000      2.6356528E-10
   11.94000      2.3758001E-10
   12.00000      2.1431515E-10
   12.06000      1.9388791E-10
   12.12000      1.7592793E-10
   12.18000      1.5983777E-10
   12.24000      1.4505543E-10
   12.30000      1.3124350E-10
   12.36000      1.1835616E-10
   12.42000      1.0657386E-10
   12.48000      9.6138000E-11
   12.54000      8.7148962E-11
   12.60000      7.9405336E-11
   12.66000      7.2352783E-11
   12.72000      6.5180701E-11
   12.78000      5.7059905E-11
   12.84000      4.7466159E-11
   12.90000      3.6498662E-11
   12.96000      2.5091628E-11
   13.02000      1.5039241E-11
   13.08000      8.8032385E-12
   13.14000      9.1346201E-12
   13.20000      1.8593148E-11
   13.26000      3.9072422E-11
   13.32000      7.1426989E-11
   13.38000      1.1525828E-10
   13.44000      1.6886770E-10
   13.50000      2.2935068E-10
   13.56000      2.9279545E-10
   13.62000      3.5456535E-10
   13.68000      4.0966347E-10
   13.74000      4.5318757E-10
   13.80000      4.8086585E-10
   13.86000      4.8962584E-10
   13.92000      4.7810783E-10
   13.98000      4.4701334E-10
   14.04000      3.9919604E-10
   14.10000      3.3945083E-10
   14.16000      2.7402419E-10
   14.22000      2.0992426E-10
   14.28000      1.5413693E-10
   14.34000      1.1285212E-10
   14.40000      9.0783672E-11
   14.46000      9.0647032E-11
   14.52000      1.1285352E-10
   14.58000      1.5548013E-10
   14.64000      2.1456421E-10
   14.70000      2.8473190E-10
   14.76000      3.6009251E-10
   14.82000      4.3524240E-10
   14.88000      5.0615456E-10
   14.94000      5.7073046E-10
   15.00000      6.2887273E-10
   15.06000      6.8208189E-10
   15.12000      7.3273732E-10
   15.18000      7.8332246E-10
   15.24000      8.3585383E-10
   15.30000      8.9166274E-10
   15.36000      9.5151542E-10
   15.42000      1.0159006E-09
   15.48000      1.0852546E-09
   15.54000      1.1599423E-09
   15.60000      1.2399627E-09
   15.66000      1.3245121E-09
   15.72000      1.4116422E-09
   15.78000      1.4982386E-09
   15.84000      1.5804118E-09
   15.90000      1.6542153E-09
   15.96000      1.7164449E-09
   16.02000      1.7652272E-09
   16.08000      1.8001890E-09
   16.14000      1.8221682E-09
   16.20000      1.8326193E-09
   16.26000      1.8329827E-09
   16.32000      1.8242854E-09
   16.38000      1.8071270E-09
   16.44000      1.7820309E-09
   16.50000      1.7499832E-09
   16.56000      1.7129012E-09
   16.62000      1.6737979E-09
   16.68000      1.6365205E-09
   16.74000      1.6050876E-09
   16.80000      1.5827999E-09
   16.86000      1.5713802E-09
   16.92000      1.5704140E-09
   16.98000      1.5772933E-09
   17.04000      1.5877257E-09
   17.10000      1.5967058E-09
   17.16000      1.5996816E-09
   17.22000      1.5935665E-09
   17.28000      1.5772700E-09
   17.34000      1.5515725E-09
   17.40000      1.5184030E-09
   17.46000      1.4798043E-09
   17.52000      1.4370072E-09
   17.58000      1.3899885E-09
   17.64000      1.3376875E-09
   17.70000      1.2787672E-09
   17.76000      1.2125575E-09
   17.82000      1.1397369E-09
   17.88000      1.0624204E-09
   17.94000      9.8359731E-10
   18.00000      9.0616475E-10
   18.06000      8.3199719E-10
   18.12000      7.6149392E-10
   18.18000      6.9384032E-10
   18.24000      6.2790778E-10
   18.30000      5.6342186E-10
   18.36000      5.0187943E-10
   18.42000      4.4675036E-10
   18.48000      4.0274764E-10
   18.54000      3.7430342E-10
   18.60000      3.6372044E-10
   18.66000      3.6966030E-10
   18.72000      3.8658937E-10
   18.78000      4.0552364E-10
   18.84000      4.1596987E-10
   18.90000      4.0850226E-10
   18.96000      3.7712822E-10
   19.02000      3.2061828E-10
   19.08000      2.4233021E-10
   19.14000      1.4862633E-10
   19.20000      4.6531744E-11
   19.26000     -5.8431530E-11
   19.32000     -1.6341466E-10
   19.38000     -2.6806724E-10
   19.44000     -3.7327921E-10
   19.50000     -4.7956411E-10
   19.56000     -5.8590799E-10
   19.62000     -6.8961431E-10
   19.68000     -7.8714890E-10
   19.74000     -8.7549801E-10
   19.80000     -9.5333874E-10
   19.86000     -1.0214525E-09
   19.92000     -1.0822105E-09
   19.98000     -1.1383983E-09
   20.04000     -1.1919219E-09
   20.10000     -1.2429613E-09
   20.16000     -1.2899037E-09
   20.22000     -1.3300639E-09
   20.28000     -1.3608956E-09
   20.34000     -1.3812289E-09
   20.40000     -1.3920824E-09
   20.46000     -1.3967429E-09
   20.52000     -1.4000674E-09
   20.58000     -1.4072198E-09
   20.64000     -1.4222641E-09
   20.70000     -1.4470868E-09
   20.76000     -1.4810047E-09
   20.82000     -1.5211463E-09
   20.88000     -1.5633971E-09
   20.94000     -1.6034982E-09
   21.00000     -1.6378898E-09
   21.06000     -1.6640767E-09
   21.12000     -1.6805567E-09
   21.18000     -1.6865448E-09
   21.24000     -1.6817391E-09
   21.30000     -1.6662451E-09
   21.36000     -1.6406118E-09
   21.42000     -1.6058596E-09
   21.48000     -1.5634514E-09
   21.54000     -1.5152840E-09
   21.60000     -1.4638323E-09
   21.66000     -1.4124677E-09
   21.72000     -1.3657621E-09
   21.78000     -1.3294186E-09
   21.84000     -1.3095354E-09
   21.90000     -1.3112098E-09
   21.96000     -1.3369134E-09
   22.02000     -1.3853304E-09
   22.08000     -1.4512745E-09
   22.14000     -1.5268629E-09
   22.20000     -1.6035530E-09
   22.26000     -1.6742492E-09
   22.32000     -1.7346693E-09
   22.38000     -1.7835291E-09
   22.44000     -1.8216446E-09
   22.50000     -1.8504636E-09
   22.56000     -1.8706658E-09
   22.62000     -1.8813040E-09
   22.68000     -1.8796651E-09
   22.74000     -1.8617832E-09
   22.80000     -1.8234118E-09
   22.86000     -1.7612158E-09
   22.92000     -1.6739254E-09
   22.98000     -1.5631501E-09
   23.04000     -1.4335715E-09
   23.10000     -1.2923851E-09
   23.16000     -1.1481229E-09
   23.22000     -1.0092649E-09
   23.28000     -8.8312702E-10
   23.34000     -7.7534712E-10
   23.40000     -6.8993117E-10
   23.46000     -6.2951871E-10
   23.52000     -5.9548189E-10
   23.58000     -5.8771749E-10
   23.64000     -6.0435312E-10
   23.70000     -6.4177952E-10
   23.76000     -6.9526823E-10
   23.82000     -7.6003137E-10
   23.88000     -8.3220431E-10
   23.94000     -9.0919272E-10
   24.00000     -9.8919173E-10
   24.06000     -1.0702339E-09
   24.12000     -1.1494697E-09
   24.18000     -1.2232640E-09
   24.24000     -1.2881521E-09
   24.30000     -1.3420983E-09
   24.36000     -1.3852509E-09
   24.42000     -1.4196682E-09
   24.48000     -1.4481214E-09
   24.54000     -1.4726328E-09
   24.60000     -1.4935004E-09
   24.66000     -1.5091738E-09
   24.72000     -1.5167768E-09
   24.78000     -1.5127491E-09
   24.84000     -1.4932319E-09
   24.90000     -1.4542907E-09
   24.96000     -1.3924396E-09
   25.02000     -1.3058372E-09
   25.08000     -1.1959725E-09
   25.14000     -1.0690095E-09
   25.20000     -9.3574937E-10
   25.26000     -8.0965573E-10
   25.32000     -7.0337114E-10
   25.38000     -6.2506816E-10
   25.44000     -5.7622718E-10
   25.50000     -5.5183069E-10
   25.56000     -5.4282190E-10
   25.62000     -5.3964488E-10
   25.68000     -5.3531696E-10
   25.74000     -5.2691801E-10
   25.80000     -5.1528137E-10
   25.86000     -5.0348753E-10
   25.92000     -4.9508975E-10
   25.98000     -4.9279930E-10
   26.04000     -4.9790644E-10
   26.10000     -5.1033838E-10
   26.16000     -5.2913363E-10
   26.22000     -5.5314875E-10
   26.28000     -5.8184091E-10
   26.34000     -6.1588962E-10
   26.40000     -6.5733979E-10
   26.46000     -7.0903666E-10
   26.52000     -7.7344953E-10
   26.58000     -8.5139906E-10
   26.64000     -9.4140440E-10
   26.70000     -1.0401454E-09
   26.76000     -1.1439363E-09
   26.82000     -1.2504850E-09
   26.88000     -1.3599687E-09
   26.94000     -1.4747980E-09
   27.00000     -1.5981856E-09
   27.06000     -1.7323272E-09
   27.12000     -1.8771986E-09
   27.18000     -2.0305668E-09
   27.24000     -2.1890489E-09
   27.30000     -2.3494451E-09
   27.36000     -2.5094777E-09
   27.42000     -2.6675344E-09
   27.48000     -2.8216789E-09
   27.54000     -2.9686817E-09
   27.60000     -3.1037717E-09
   27.66000     -3.2213767E-09
   27.72000     -3.3165382E-09
   27.78000     -3.3863519E-09
   27.84000     -3.4308332E-09
   27.90000     -3.4529311E-09
   27.96000     -3.4577925E-09
   28.02000     -3.4515852E-09
   28.08000     -3.4402137E-09
   28.14000     -3.4281775E-09
   28.20000     -3.4177579E-09
   28.26000     -3.4087029E-09
   28.32000     -3.3985346E-09
   28.38000     -3.3834584E-09
   28.44000     -3.3596073E-09
   28.50000     -3.3241425E-09
   28.56000     -3.2757266E-09
   28.62000     -3.2141376E-09
   28.68000     -3.1392384E-09
   28.74000     -3.0498886E-09
   28.80000     -2.9434857E-09
   28.86000     -2.8165390E-09
   28.92000     -2.6661615E-09
   28.98000     -2.4918509E-09
   29.04000     -2.2967241E-09
   29.10000     -2.0875612E-09
   29.16000     -1.8735209E-09
   29.22000     -1.6639745E-09
   29.28000     -1.4662729E-09
   29.34000     -1.2842577E-09
   29.40000     -1.1179901E-09
   29.46000     -9.6464503E-10
   29.52000     -8.2008239E-10
   29.58000     -6.8043143E-10
   29.64000     -5.4315152E-10
   29.70000     -4.0735509E-10
   29.76000     -2.7351249E-10
   29.82000     -1.4284038E-10
   29.88000     -1.6661800E-11
   29.94000      1.0410248E-10
   30.00000      2.1927155E-10
   30.06000      3.2955258E-10
   30.12000      4.3643034E-10
   30.18000      5.4170768E-10
   30.24000      6.4670530E-10
   30.30000      7.5134154E-10
   30.36000      8.5349694E-10
   30.42000      9.4906749E-10
   30.48000      1.0328508E-09
   30.54000      1.0999954E-09
   30.60000      1.1474224E-09
   30.66000      1.1746086E-09
   30.72000      1.1834468E-09
   30.78000      1.1773842E-09
   30.84000      1.1603950E-09
   30.90000      1.1363336E-09
   30.96000      1.1088820E-09
   31.02000      1.0818647E-09
   31.08000      1.0594664E-09
   31.14000      1.0459819E-09
   31.20000      1.0450805E-09
   31.26000      1.0589055E-09
   31.32000      1.0874363E-09
   31.38000      1.1283809E-09
   31.44000      1.1775971E-09
   31.50000      1.2298537E-09
   31.56000      1.2797536E-09
   31.62000      1.3227384E-09
   31.68000      1.3561214E-09
   31.74000      1.3799824E-09
   31.80000      1.3975767E-09
   31.86000      1.4149114E-09
   31.92000      1.4393976E-09
   31.98000      1.4779449E-09
   32.04000      1.5352083E-09
   32.10000      1.6126676E-09
   32.16000      1.7087797E-09
   32.22000      1.8198710E-09
   32.28000      1.9411110E-09
   32.34000      2.0670730E-09
   32.40000      2.1918876E-09
   32.46000      2.3094480E-09
   32.52000      2.4141273E-09
   32.58000      2.5020022E-09
   32.64000      2.5719766E-09
   32.70000      2.6259868E-09
   32.76000      2.6678884E-09
   32.82000      2.7014617E-09
   32.88000      2.7286402E-09
   32.94000      2.7490319E-09
   33.00000      2.7610316E-09
   33.06000      2.7637688E-09
   33.12000      2.7585563E-09
   33.18000      2.7488245E-09
   33.24000      2.7385478E-09
   33.30000      2.7302054E-09
   33.36000      2.7236409E-09
   33.42000      2.7165472E-09
   33.48000      2.7061775E-09
   33.54000      2.6910458E-09
   33.60000      2.6714440E-09
   33.66000      2.6484923E-09
   33.72000      2.6225198E-09
   33.78000      2.5920437E-09
   33.84000      2.5541780E-09
   33.90000      2.5062552E-09
   33.96000      2.4475857E-09
   34.02000      2.3801991E-09
   34.08000      2.3081361E-09
   34.14000      2.2358457E-09
   34.20000      2.1667668E-09
   34.26000      2.1028885E-09
   34.32000      2.0452839E-09
   34.38000      1.9948982E-09
   34.44000      1.9528077E-09
   34.50000      1.9197197E-09
   34.56000      1.8951991E-09
   34.62000      1.8773687E-09
   34.68000      1.8634743E-09
   34.74000      1.8509849E-09
   34.80000      1.8384462E-09
   34.86000      1.8254751E-09
   34.92000      1.8119553E-09
   34.98000      1.7971443E-09
   35.04000      1.7794790E-09
   35.10000      1.7573040E-09
   35.16000      1.7299668E-09
   35.22000      1.6983368E-09
   35.28000      1.6641638E-09
   35.34000      1.6285597E-09
   35.40000      1.5906152E-09
   35.46000      1.5472015E-09
   35.52000      1.4942796E-09
   35.58000      1.4290371E-09
   35.64000      1.3516211E-09
   35.70000      1.2654836E-09
   35.76000      1.1762510E-09
   35.82000      1.0898896E-09
   35.88000      1.0112082E-09
   35.94000      9.4327035E-10
   36.00000      8.8752100E-10
   36.06000      8.4397045E-10
   36.12000      8.1096352E-10
   36.18000      7.8470191E-10
   36.24000      7.5920420E-10
   36.30000      7.2731193E-10
   36.36000      6.8266087E-10
   36.42000      6.2173006E-10
   36.48000      5.4479210E-10
   36.54000      4.5510853E-10
   36.60000      3.5675676E-10
   36.66000      2.5235444E-10
   36.72000      1.4204372E-10
   36.78000      2.4318110E-11
   36.84000     -1.0189483E-10
   36.90000     -2.3528401E-10
   36.96000     -3.7164616E-10
   37.02000     -5.0522375E-10
   37.08000     -6.3115368E-10
   37.14000     -7.4762174E-10
   37.20000     -8.5650542E-10
   37.26000     -9.6217390E-10
   37.32000     -1.0691344E-09
   37.38000     -1.1797733E-09
   37.44000     -1.2932730E-09
   37.50000     -1.4060757E-09
   37.56000     -1.5134622E-09
   37.62000     -1.6113728E-09
   37.68000     -1.6976683E-09
   37.74000     -1.7724733E-09
   37.80000     -1.8377266E-09
   37.86000     -1.8963286E-09
   37.92000     -1.9512369E-09
   37.98000     -2.0046607E-09
   38.04000     -2.0573654E-09
   38.10000     -2.1081294E-09
   38.16000     -2.1535451E-09
   38.22000     -2.1884790E-09
   38.28000     -2.2073574E-09
   38.34000     -2.2060620E-09
   38.40000     -2.1837410E-09
   38.46000     -2.1436277E-09
   38.52000     -2.0922248E-09
   38.58000     -2.0369362E-09
   38.64000     -1.9830817E-09
   38.70000     -1.9316870E-09
   38.76000     -1.8791813E-09
   38.82000     -1.8191998E-09
   38.88000     -1.7455963E-09
   38.94000     -1.6551310E-09
   39.00000     -1.5485443E-09
   39.06000     -1.4297102E-09
   39.12000     -1.3036597E-09
   39.18000     -1.1747858E-09
   39.24000     -1.0461751E-09
   39.30000     -9.2004526E-10
   39.36000     -7.9842655E-10
   39.42000     -6.8314043E-10
   39.48000     -5.7484772E-10
   39.54000     -4.7192628E-10
   39.60000     -3.7038456E-10
   39.66000     -2.6549413E-10
   39.72000     -1.5462547E-10
   39.78000     -3.9731145E-11
   39.84000      7.2146941E-11
   39.90000      1.7091754E-10
   39.96000      2.4706553E-10
   40.02000      2.9492808E-10
   40.08000      3.1394704E-10
   40.14000      3.0754657E-10
   40.20000      2.8074795E-10
   40.26000      2.3821767E-10
   40.32000      1.8379243E-10
   40.38000      1.2117679E-10
   40.44000      5.4541659E-11
   40.50000     -1.2082149E-11
   40.56000     -7.6532988E-11
   40.62000     -1.4003099E-10
   40.68000     -2.0686740E-10
   40.74000     -2.8174538E-10
   40.80000     -3.6599501E-10
   40.86000     -4.5503160E-10
   40.92000     -5.3902971E-10
   40.98000     -6.0695315E-10
   41.04000     -6.5195538E-10
   41.10000     -6.7516825E-10
   41.16000     -6.8573280E-10
   41.22000     -6.9708078E-10
   41.28000     -7.2157430E-10
   41.34000     -7.6634221E-10
   41.40000     -8.3215107E-10
   41.46000     -9.1520591E-10
   41.52000     -1.0102060E-09
   41.58000     -1.1127209E-09
   41.64000     -1.2199358E-09
   41.70000     -1.3301609E-09
   41.76000     -1.4421779E-09
   41.82000     -1.5551623E-09
   41.88000     -1.6690174E-09
   41.94000     -1.7843634E-09
   42.00000     -1.9016662E-09
   42.06000     -2.0198430E-09
   42.12000     -2.1353981E-09
   42.18000     -2.2430227E-09
   42.24000     -2.3376396E-09
   42.30000     -2.4167630E-09
   42.36000     -2.4816387E-09
   42.42000     -2.5363087E-09
   42.48000     -2.5850786E-09
   42.54000     -2.6299010E-09
   42.60000     -2.6692346E-09
   42.66000     -2.6989322E-09
   42.72000     -2.7144196E-09
   42.78000     -2.7127407E-09
   42.84000     -2.6933737E-09
   42.90000     -2.6577396E-09
   42.96000     -2.6081985E-09
   43.02000     -2.5474323E-09
   43.08000     -2.4784641E-09
   43.14000     -2.4047766E-09
   43.20000     -2.3297921E-09
   43.26000     -2.2555615E-09
   43.32000     -2.1813868E-09
   43.38000     -2.1035413E-09
   43.44000     -2.0167428E-09
   43.50000     -1.9168793E-09
   43.56000     -1.8034909E-09
   43.62000     -1.6804615E-09
   43.68000     -1.5543977E-09
   43.74000     -1.4316235E-09
   43.80000     -1.3155949E-09
   43.86000     -1.2062280E-09
   43.92000     -1.1013501E-09
   43.98000     -9.9909214E-10
   44.04000     -8.9952468E-10
   44.10000     -8.0449414E-10
   44.16000     -7.1596096E-10
   44.22000     -6.3419259E-10
   44.28000     -5.5719851E-10
   44.34000     -4.8182808E-10
   44.40000     -4.0570422E-10
   44.46000     -3.2855421E-10
   44.52000     -2.5193789E-10
   44.58000     -1.7753986E-10
   44.64000     -1.0524406E-10
   44.70000     -3.2396578E-11
   44.76000      4.5128346E-11
   44.82000      1.3066899E-10
   44.88000      2.2474327E-10
   44.94000      3.2453043E-10
   45.00000      4.2518969E-10
   45.06000      5.2219795E-10
   45.12000      6.1331074E-10
   45.18000      6.9905909E-10
   45.24000      7.8163825E-10
   45.30000      8.6298474E-10
   45.36000      9.4320551E-10
   45.42000      1.0201731E-09
   45.48000      1.0903302E-09
   45.54000      1.1500904E-09
   45.60000      1.1970321E-09
   45.66000      1.2303950E-09
   45.72000      1.2508887E-09
   45.78000      1.2601697E-09
   45.84000      1.2603462E-09
   45.90000      1.2536351E-09
   45.96000      1.2420766E-09
   46.02000      1.2271838E-09
   46.08000      1.2095939E-09
   46.14000      1.1889694E-09
   46.20000      1.1643919E-09
   46.26000      1.1352070E-09
   46.32000      1.1019117E-09
   46.38000      1.0664873E-09
   46.44000      1.0317865E-09
   46.50000      1.0001198E-09
   46.56000      9.7175357E-10
   46.62000      9.4424457E-10
   46.68000      9.1317692E-10
   46.74000      8.7410285E-10
   46.80000      8.2472701E-10
   46.86000      7.6612439E-10
   46.92000      7.0223721E-10
   46.98000      6.3784933E-10
   47.04000      5.7612504E-10
   47.10000      5.1707877E-10
   47.16000      4.5781698E-10
   47.22000      3.9436215E-10
   47.28000      3.2396519E-10
   47.34000      2.4659022E-10
   47.40000      1.6483401E-10
   47.46000      8.2534576E-11
   47.52000      3.0733051E-12
   47.58000     -7.1587465E-11
   47.64000     -1.4073875E-10
   47.70000     -2.0408877E-10
   47.76000     -2.6115179E-10
   47.82000     -3.1148320E-10
   47.88000     -3.5562187E-10
   47.94000     -3.9593157E-10
   48.00000     -4.3647344E-10
   48.06000     -4.8166160E-10
   48.12000     -5.3432381E-10
   48.18000     -5.9428407E-10
   48.24000     -6.5833095E-10
   48.30000     -7.2159306E-10
   48.36000     -7.7948531E-10
   48.42000     -8.2910201E-10
   48.48000     -8.6939611E-10
   48.54000     -9.0034319E-10
   48.60000     -9.2193375E-10
   48.66000     -9.3382169E-10
   48.72000     -9.3583719E-10
   48.78000     -9.2883451E-10
   48.84000     -9.1504537E-10
   48.90000     -8.9746705E-10
   48.96000     -8.7855290E-10
   49.02000     -8.5904123E-10
   49.08000     -8.3772567E-10
   49.14000     -8.1236046E-10
   49.20000     -7.8113110E-10
   49.26000     -7.4374712E-10
   49.32000     -7.0147121E-10
   49.38000     -6.5610689E-10
   49.44000     -6.0862132E-10
   49.50000     -5.5827315E-10
   49.56000     -5.0274668E-10
   49.62000     -4.3916062E-10
   49.68000     -3.6533526E-10
   49.74000     -2.8063746E-10
   49.80000     -1.8603577E-10
   49.86000     -8.3435980E-11
   49.92000      2.5339892E-11
   49.98000      1.3950587E-10
   50.04000      2.5986113E-10
   50.10000      3.8872239E-10
   50.16000      5.2913890E-10
   50.22000      6.8346107E-10
   50.28000      8.5161228E-10
   50.34000      1.0297188E-09
   50.40000      1.2098641E-09
   50.46000      1.3814624E-09
   50.52000      1.5340772E-09
   50.58000      1.6607563E-09
   50.64000      1.7605112E-09
   50.70000      1.8387788E-09
   50.76000      1.9055166E-09
   50.82000      1.9716293E-09
   50.88000      2.0451578E-09
   50.94000      2.1287234E-09
   51.00000      2.2190763E-09
   51.06000      2.3086475E-09
   51.12000      2.3881945E-09
   51.18000      2.4493561E-09
   51.24000      2.4862024E-09
   51.30000      2.4954872E-09
   51.36000      2.4758733E-09
   51.42000      2.4267324E-09
   51.48000      2.3470761E-09
   51.54000      2.2349340E-09
   51.60000      2.0872308E-09
   51.66000      1.9000423E-09
   51.72000      1.6691056E-09
   51.78000      1.3904921E-09
   51.84000      1.0613901E-09
   51.90000      6.8087552E-10
   51.96000      2.5045421E-10
   52.02000     -2.2590711E-10
   52.08000     -7.4247031E-10
   52.14000     -1.2931072E-09
   52.20000     -1.8730253E-09
   52.26000     -2.4802165E-09
   52.32000     -3.1159935E-09
   52.38000     -3.7842072E-09
   52.44000     -4.4892654E-09
   52.50000     -5.2335603E-09
   52.56000     -6.0152474E-09
   52.62000     -6.8272521E-09
   52.68000     -7.6579720E-09
   52.74000     -8.4934779E-09
   52.80000     -9.3204209E-09
   52.86000     -1.0128550E-08
   52.92000     -1.0911816E-08
   52.98000     -1.1667601E-08
   53.04000     -1.2394323E-08
   53.10000     -1.3088314E-08
   53.16000     -1.3741202E-08
   53.22000     -1.4338696E-08
   53.28000     -1.4861066E-08
   53.34000     -1.5284776E-08
   53.40000     -1.5584245E-08
   53.46000     -1.5732832E-08
   53.52000     -1.5702772E-08
   53.58000     -1.5464510E-08
   53.64000     -1.4986327E-08
   53.70000     -1.4234874E-08
   53.76000     -1.3176510E-08
   53.82000     -1.1778751E-08
   53.88000     -1.0010935E-08
   53.94000     -7.8437274E-09
   54.00000     -5.2479727E-09
   54.06000     -2.1939877E-09
   54.12000      1.3478776E-09
   54.18000      5.4052856E-09
   54.24000      1.0001535E-08
   54.30000      1.5153926E-08
   54.36000      2.0873678E-08
   54.42000      2.7167145E-08
   54.48000      3.4037111E-08
   54.54000      4.1483172E-08
   54.60000      4.9500663E-08
   54.66000      5.8078637E-08
   54.72000      6.7197973E-08
   54.78000      7.6830482E-08
   54.84000      8.6939103E-08
   54.90000      9.7478356E-08
   54.96000      1.0839463E-07
   55.02000      1.1962605E-07
   55.08000      1.3110233E-07
   55.14000      1.4274529E-07
   55.20000      1.5447014E-07
   55.26000      1.6618704E-07
   55.32000      1.7780221E-07
   55.38000      1.8921821E-07
   55.44000      2.0033333E-07
   55.50000      2.1104120E-07
   55.56000      2.2123065E-07