 -0.750000000       0.00000000    
 -0.689999998       0.00000000    
 -0.629999995       0.00000000    
 -0.569999993       0.00000000    
 -0.509999990       0.00000000    
 -0.449999988       0.00000000    
 -0.389999986       0.00000000    
 -0.330000013       0.00000000    
 -0.270000011       0.00000000    
 -0.209999993       1.13137204E-27
 -0.150000006       1.33725636E-26
  -9.00000036E-02   7.24726575E-26
  -2.99999993E-02   2.13716915E-25
   2.99999993E-02   2.09542978E-25
   9.00000036E-02  -1.14869004E-24
  0.150000006      -6.70200527E-24
  0.209999993      -1.89029895E-23
  0.270000011      -3.06286827E-23
  0.330000013      -8.34533270E-24
  0.389999986       1.15972095E-22
  0.449999988       4.02409206E-22
  0.509999990       7.66408081E-22
  0.569999993       7.78979167E-22
  0.629999995      -3.93547029E-22
  0.689999998      -3.54703367E-21
  0.750000000      -8.24962654E-21
  0.810000002      -1.13213133E-20
  0.870000005      -6.47280381E-21
  0.930000007       1.27977507E-20
  0.990000010       4.61937914E-20
   1.04999995       7.84417507E-20
   1.11000001       7.76259503E-20
   1.16999996       8.86847638E-21
   1.23000002      -1.35265110E-19
   1.28999996      -3.02489403E-19
   1.35000002      -3.77094270E-19
   1.40999997      -2.32892805E-19
   1.47000003       1.62514210E-19
   1.52999997       6.53164663E-19
   1.59000003       9.09363902E-19
   1.64999998       6.19156579E-19
   1.71000004      -2.00530746E-19
   1.76999998      -9.93432232E-19
   1.83000004      -8.41857537E-19
   1.88999999       8.45960611E-19
   1.95000005       3.42747829E-18
   2.00999999       4.61776927E-18
   2.06999993       1.36556373E-18
   2.13000011      -7.82593675E-18
   2.19000006      -2.01754596E-17
   2.25000000      -2.76248232E-17
   2.30999994      -1.96335669E-17
   2.36999989       1.00223288E-17
   2.43000007       5.53991543E-17
   2.49000001       9.50369180E-17
   2.54999995       9.83011183E-17
   2.60999990       4.19885978E-17
   2.67000008      -6.96375035E-17
   2.73000002      -1.94098275E-16
   2.78999996      -2.61163128E-16
   2.84999990      -2.06643071E-16
   2.91000009      -1.61644707E-17
   2.97000003       2.46658800E-16
   3.02999997       4.52277901E-16
   3.08999991       4.63805702E-16
   3.15000010       2.19513472E-16
   3.21000004      -2.06624158E-16
   3.26999998      -6.11969022E-16
   3.32999992      -7.54861416E-16
   3.39000010      -4.92586769E-16
   3.45000005       1.06999935E-16
   3.50999999       7.57351746E-16
   3.56999993       1.07914454E-15
   3.63000011       8.13306583E-16
   3.69000006       8.52017620E-18
   3.75000000      -9.39079594E-16
   3.80999994      -1.45185926E-15
   3.86999989      -1.08669160E-15
   3.93000007       1.57021552E-16
   3.99000001       1.72290398E-15
   4.05000019       2.68574052E-15
   4.11000013       2.19818285E-15
   4.17000008      -1.65156649E-18
   4.23000002      -3.28794346E-15
   4.28999996      -6.25163170E-15
   4.34999990      -7.23295240E-15
   4.40999985      -5.08878929E-15
   4.46999979       1.43502668E-16
   4.53000021       7.02209583E-15
   4.59000015       1.30903750E-14
   4.65000010       1.57907135E-14
   4.71000004       1.35566844E-14
   4.76999998       6.60489568E-15
   4.82999992      -2.98515078E-15
   4.88999987      -1.20437480E-14
   4.94999981      -1.76863071E-14
   5.01000023      -1.86909153E-14
   5.07000017      -1.61510853E-14
   5.13000011      -1.29010301E-14
   5.19000006      -1.17695736E-14
   5.25000000      -1.34075219E-14
   5.30999994      -1.49042647E-14
   5.36999989      -1.03232276E-14
   5.42999983       6.48658127E-15
   5.48999977       3.76730677E-14
   5.55000019       7.77397352E-14
   5.61000013       1.12783799E-13
   5.67000008       1.24036781E-13
   5.73000002       9.52176638E-14
   5.78999996       2.10621502E-14
   5.84999990      -8.68695103E-14
   5.90999985      -2.00511618E-13
   5.96999979      -2.82820425E-13
   6.03000021      -3.00339262E-13
   6.09000015      -2.35993408E-13
   6.15000010      -9.67109964E-14
   6.21000004       8.75747839E-14
   6.26999998       2.73254699E-13
   6.32999992       4.16694104E-13
   6.38999987       4.86372552E-13
   6.44999981       4.68748087E-13
   6.51000023       3.66525874E-13
   6.57000017       1.92021285E-13
   6.63000011      -3.92773582E-14
   6.69000006      -3.10388651E-13
   6.75000000      -5.98472389E-13
   6.80999994      -8.67393126E-13
   6.86999989      -1.06308874E-12
   6.92999983      -1.11745845E-12
   6.98999977      -9.63098850E-13
   7.05000019      -5.56101280E-13
   7.11000013       1.00357412E-13
   7.17000008       9.40635699E-13
   7.23000002       1.83665626E-12
   7.28999996       2.61588364E-12
   7.34999990       3.09410917E-12
   7.40999985       3.11524114E-12
   7.46999979       2.58808491E-12
   7.53000021       1.51080407E-12
   7.59000015      -2.30173682E-14
   7.65000010      -1.83808437E-12
   7.71000004      -3.70716999E-12
   7.76999998      -5.38907243E-12
   7.82999992      -6.66463933E-12
   7.88999987      -7.36130427E-12
   7.94999981      -7.36018017E-12
   8.01000023      -6.58574801E-12
   8.06999969      -4.98496513E-12
   8.13000011      -2.50799338E-12
   8.18999958       8.95340497E-13
   8.25000000       5.25197767E-12
   8.31000042       1.05106280E-11
   8.36999989       1.64607182E-11
   8.43000031       2.26404260E-11
   8.48999977       2.82562428E-11
   8.55000019       3.21394647E-11
   8.60999966       3.27625288E-11
   8.67000008       2.83307978E-11
   8.72999954       1.69538914E-11
   8.78999996      -3.11283638E-12
   8.85000038      -3.31790567E-11
   8.90999985      -7.38149958E-11
   8.97000027      -1.24569327E-10
   9.02999973      -1.83746213E-10
   9.09000015      -2.48273069E-10
   9.14999962      -3.13683107E-10
   9.21000004      -3.74229009E-10
   9.27000046      -4.23139218E-10
   9.32999992      -4.53023896E-10
   9.39000034      -4.56429450E-10
   9.44999981      -4.26528035E-10
   9.51000023      -3.57904095E-10
   9.56999969      -2.47370513E-10
   9.63000011      -9.47160059E-11
   9.68999958       9.67353697E-11
   9.75000000       3.19871629E-10
   9.81000042       5.63940505E-10
   9.86999989       8.15137791E-10
   9.93000031       1.05760867E-09
   9.98999977       1.27476252E-09
   10.0500002       1.45074563E-09
   10.1099997       1.57188573E-09
   10.1700001       1.62792768E-09
   10.2299995       1.61291214E-09
   10.2900000       1.52560531E-09
   10.3500004       1.36945999E-09
   10.4099998       1.15214482E-09
   10.4700003       8.84733897E-10
   10.5299997       5.80679893E-10
   10.5900002       2.54697485E-10
   10.6499996      -7.83277956E-11
   10.7100000      -4.04322908E-10
   10.7700005      -7.10858872E-10
   10.8299999      -9.87820492E-10
   10.8900003      -1.22791965E-09
   10.9499998      -1.42705281E-09
   11.0100002      -1.58447755E-09
   11.0699997      -1.70275238E-09
   11.1300001      -1.78737714E-09
   11.1899996      -1.84609750E-09
   11.2500000      -1.88791338E-09
   11.3100004      -1.92193239E-09
   11.3699999      -1.95630068E-09
   11.4300003      -1.99747885E-09
   11.4899998      -2.05006123E-09
   11.5500002      -2.11719353E-09
   11.6099997      -2.20142127E-09
   11.6700001      -2.30562947E-09
   11.7299995      -2.43365861E-09
   11.7900000      -2.59025512E-09
   11.8500004      -2.78025891E-09
   11.9099998      -3.00721292E-09
   11.9700003      -3.27183924E-09
   12.0299997      -3.57090912E-09
   12.0900002      -3.89693300E-09
   12.1499996      -4.23880575E-09
   12.2100000      -4.58321958E-09
   12.2700005      -4.91637842E-09
   12.3299999      -5.22549692E-09
   12.3900003      -5.49968426E-09
   12.4499998      -5.73009862E-09
   12.5100002      -5.90956617E-09
   12.5699997      -6.03202688E-09
   12.6300001      -6.09221740E-09
   12.6899996      -6.08583006E-09
   12.7500000      -6.01014616E-09
   12.8100004      -5.86493343E-09
   12.8699999      -5.65324854E-09
   12.9300003      -5.38180123E-09
   12.9899998      -5.06067099E-09
   13.0500002      -4.70235140E-09
   13.1099997      -4.32029079E-09
   13.1700001      -3.92724830E-09
   13.2299995      -3.53383944E-09
   13.2900000      -3.14760906E-09
   13.3500004      -2.77285039E-09
   13.4099998      -2.41118392E-09
   13.4700003      -2.06271378E-09
   13.5299997      -1.72741077E-09
   13.5900002      -1.40632639E-09
   13.6499996      -1.10230547E-09
   13.7100000      -8.20047585E-10
   13.7700005      -5.65581304E-10
   13.8299999      -3.45382889E-10
   13.8900003      -1.65447156E-10
   13.9499998      -3.05672675E-11
   14.0100002       5.60383788E-11
   14.0699997       9.27582733E-11
   14.1300001       7.93910979E-11
   14.1899996       1.68807017E-11
   14.2500000      -9.28707458E-11
   14.3100004      -2.47015491E-10
   14.3699999      -4.41580522E-10
   14.4300003      -6.71161959E-10
   14.4899998      -9.28641275E-10
   14.5500002      -1.20511812E-09
   14.6099997      -1.49023949E-09
   14.6700001      -1.77300497E-09
   14.7299995      -2.04297090E-09
   14.7900000      -2.29159580E-09
   14.8500004      -2.51337862E-09
   14.9099998      -2.70644041E-09
   14.9700003      -2.87235791E-09
   15.0299997      -3.01525027E-09
   15.0900002      -3.14033177E-09
   15.1499996      -3.25225669E-09
   15.2100000      -3.35360251E-09
   15.2700005      -3.44378437E-09
   15.3299999      -3.51859786E-09
   15.3900003      -3.57047969E-09
   15.4499998      -3.58944630E-09
   15.5100002      -3.56452623E-09
   15.5699997      -3.48535045E-09
   15.6300001      -3.34349504E-09
   15.6899996      -3.13322901E-09
   15.7500000      -2.85156276E-09
   15.8100004      -2.49780285E-09
   15.8699999      -2.07307860E-09
   15.9300003      -1.58033298E-09
   15.9899998      -1.02499575E-09
   16.0499992      -4.16117252E-10
   16.1100006       2.32679293E-10
   16.1700001       9.03165764E-10
   16.2299995       1.57383728E-09
   16.2900009       2.22242225E-09
   16.3500004       2.82876966E-09
   16.4099998       3.37700068E-09
   16.4699993       3.85603727E-09
   16.5300007       4.25829194E-09
   16.5900002       4.57714711E-09
   16.6499996       4.80443774E-09
   16.7099991       4.92922059E-09
   16.7700005       4.93858332E-09
   16.8299999       4.82039875E-09
   16.8899994       4.56707561E-09
   16.9500008       4.17894919E-09
   17.0100002       3.66607411E-09
   17.0699997       3.04781533E-09
   17.1299992       2.35044428E-09
   17.1900005       1.60364355E-09
   17.2500000       8.37096115E-10
   17.3099995       7.81310780E-11
   17.3700008      -6.49152454E-10
   17.4300003      -1.32351718E-09
   17.4899998      -1.92568672E-09
   17.5499992      -2.43774290E-09
   17.6100006      -2.84339774E-09
   17.6700001      -3.12923576E-09
   17.7299995      -3.28650485E-09
   17.7900009      -3.31274119E-09
   17.8500004      -3.21249960E-09
   17.9099998      -2.99675729E-09
   17.9699993      -2.68101075E-09
   18.0300007      -2.28254526E-09
   18.0900002      -1.81766391E-09
   18.1499996      -1.29972011E-09
   18.2099991      -7.38592021E-10
   18.2700005      -1.41792383E-10
   18.3299999       4.83161067E-10
   18.3899994       1.12601239E-09
   18.4500008       1.77183945E-09
   18.5100002       2.40095033E-09
   18.5699997       2.99102276E-09
   18.6299992       3.52100615E-09
   18.6900005       3.97547728E-09
   18.7500000       4.34776748E-09
   18.8099995       4.64050443E-09
   18.8700008       4.86320895E-09
   18.9300003       5.02780084E-09
   18.9899998       5.14379606E-09
   19.0499992       5.21513188E-09
   19.1100006       5.23984545E-09
   19.1700001       5.21260235E-09
   19.2299995       5.12888043E-09
   19.2900009       4.98899766E-09
   19.3500004       4.80040452E-09
   19.4099998       4.57746108E-09
   19.4699993       4.33897585E-09
   19.5300007       4.10448031E-09
   19.5900002       3.89048171E-09
   19.6499996       3.70769015E-09
   19.7099991       3.55979535E-09
   19.7700005       3.44392892E-09
   19.8299999       3.35260397E-09
   19.8899994       3.27664007E-09
   19.9500008       3.20833093E-09
   20.0100002       3.14393445E-09
   20.0699997       3.08463410E-09
   20.1299992       3.03553382E-09
   20.1900005       3.00297565E-09
   20.2500000       2.99119618E-09
   20.3099995       2.99973668E-09
   20.3700008       3.02280001E-09
   20.4300003       3.05096592E-09
   20.4899998       3.07465053E-09
   20.5499992       3.08794967E-09
   20.6100006       3.09134229E-09
   20.6700001       3.09224757E-09
   20.7299995       3.10332449E-09
   20.7900009       3.13926107E-09
   20.8500004       3.21326166E-09
   20.9099998       3.33440120E-09
   20.9699993       3.50655505E-09
   21.0300007       3.72901177E-09
   21.0900002       3.99831501E-09
   21.1499996       4.31054703E-09
   21.2099991       4.66317251E-09
   21.2700005       5.05573849E-09
   21.3299999       5.48912960E-09
   21.3899994       5.96364247E-09
   21.4500008       6.47663878E-09
   21.5100002       7.02080838E-09
   21.5699997       7.58386776E-09
   21.6299992       8.14996071E-09
   21.6900005       8.70223094E-09
   21.7500000       9.22551990E-09
   21.8099995       9.70810099E-09
   21.8700008       1.01418873E-08
   21.9300003       1.05213411E-08
   21.9899998       1.08419611E-08
   22.0499992       1.10993108E-08
   22.1100006       1.12891287E-08
   22.1700001       1.14083045E-08
   22.2299995       1.14559739E-08
   22.2900009       1.14339080E-08
   22.3500004       1.13458043E-08
   22.4099998       1.11957563E-08
   22.4699993       1.09866392E-08
   22.5300007       1.07191713E-08
   22.5900002       1.03920605E-08
   22.6499996       1.00030899E-08
   22.7099991       9.55067136E-09
   22.7700005       9.03527031E-09
   22.8299999       8.46031423E-09
   22.8899994       7.83236676E-09
   22.9500008       7.16052506E-09
   23.0100002       6.45503384E-09
   23.0699997       5.72529757E-09
   23.1299992       4.97768848E-09
   23.1900005       4.21388036E-09
   23.2500000       3.43052076E-09
   23.3099995       2.62074162E-09
   23.3700008       1.77728965E-09
   23.4300003       8.96229924E-10
   23.4899998      -2.02556253E-11
   23.5499992      -9.63199076E-10
   23.6100006      -1.91859506E-09
   23.6700001      -2.87070478E-09
   23.7299995      -3.80533072E-09
   23.7900009      -4.71160400E-09
   23.8500004      -5.58176438E-09
   23.9099998      -6.40961062E-09
   23.9699993      -7.18903781E-09
   24.0300007      -7.91390242E-09
   24.0900002      -8.57946691E-09
   24.1499996      -9.18451626E-09
   24.2099991      -9.73259695E-09
   24.2700005      -1.02312541E-08
   24.3299999      -1.06892593E-08
   24.3899994      -1.11131238E-08
   24.4500008      -1.15047216E-08
   24.5100002      -1.18613279E-08
   24.5699997      -1.21780781E-08
   24.6299992      -1.24514790E-08
   24.6900005      -1.26820030E-08
   24.7500000      -1.28743700E-08
   24.8099995      -1.30353470E-08
   24.8700008      -1.31703439E-08
   24.9300003      -1.32806219E-08
   24.9899998      -1.33625528E-08
   25.0499992      -1.34092408E-08
   25.1100006      -1.34135920E-08
   25.1700001      -1.33713307E-08
   25.2299995      -1.32826834E-08
   25.2900009      -1.31522429E-08
   25.3500004      -1.29873916E-08
   25.4099998      -1.27961393E-08
   25.4699993      -1.25851347E-08
   25.5300007      -1.23583286E-08
   25.5900002      -1.21163062E-08
   25.6499996      -1.18562653E-08
   25.7099991      -1.15725802E-08
   25.7700005      -1.12579528E-08
   25.8299999      -1.09050200E-08
   25.8899994      -1.05080185E-08
   25.9500008      -1.00639124E-08
   26.0100002      -9.57246549E-09
   26.0699997      -9.03512820E-09
   26.1299992      -8.45317683E-09
   26.1900005      -7.82596565E-09
   26.2500000      -7.15017334E-09
   26.3099995      -6.42052500E-09
   26.3700008      -5.63181946E-09
   26.4300003      -4.78153961E-09
   26.4899998      -3.87204757E-09
   26.5499992      -2.91158586E-09
   26.6100006      -1.91377580E-09
   26.6700001      -8.95897356E-10
   26.7299995       1.23326974E-10
   26.7900009       1.12561338E-09
   26.8500004       2.09403916E-09
   26.9099998       3.01286840E-09
   26.9699993       3.86666699E-09
   27.0300007       4.63944350E-09
   27.0900002       5.31455147E-09
   27.1499996       5.87569460E-09
   27.2099991       6.30878505E-09
   27.2700005       6.60393873E-09
   27.3299999       6.75677203E-09
   27.3899994       6.76859147E-09
   27.4500008       6.64568667E-09
   27.5100002       6.39845421E-09
   27.5699997       6.04109340E-09
   27.6299992       5.59207614E-09
   27.6900005       5.07484943E-09
   27.7500000       4.51773818E-09
   27.8099995       3.95221056E-09
   27.8700008       3.40943718E-09
   27.9300003       2.91606206E-09
   27.9899998       2.49062082E-09
   28.0499992       2.14181872E-09
   28.1100006       1.86897364E-09
   28.1700001       1.66392111E-09
   28.2299995       1.51314883E-09
   28.2900009       1.39917222E-09
   28.3500004       1.30096489E-09
   28.4099998       1.19407861E-09
   28.4699993       1.05138653E-09
   28.5300007       8.45033710E-10
   28.5900002       5.49441326E-10
   28.6499996       1.44586690E-10
   28.7099991      -3.81365606E-10
   28.7700005      -1.03068121E-09
   28.8299999      -1.79600945E-09
   28.8899994      -2.66139377E-09
   28.9500008      -3.60397689E-09
   29.0100002      -4.59611993E-09
   29.0699997      -5.60768321E-09
   29.1299992      -6.60810784E-09
   29.1900005      -7.56784946E-09
   29.2500000      -8.45884252E-09
   29.3099995      -9.25414589E-09
   29.3700008      -9.92743932E-09
   29.4300003      -1.04533502E-08
   29.4899998      -1.08091749E-08
   29.5499992      -1.09777947E-08
   29.6100006      -1.09506475E-08
   29.6700001      -1.07293596E-08
   29.7299995      -1.03251283E-08
   29.7900009      -9.75607151E-09
   29.8500004      -9.04373909E-09
   29.9099998      -8.21031776E-09
   29.9699993      -7.27743954E-09
   30.0300007      -6.26642871E-09
   30.0900002      -5.19899723E-09
   30.1499996      -4.09730916E-09
   30.2099991      -2.98300207E-09
   30.2700005      -1.87563010E-09
   30.3299999      -7.91437693E-10
   30.3899994       2.56916155E-10
   30.4500008       1.25982635E-09
   30.5100002       2.21015317E-09
   30.5699997       3.10330295E-09
   30.6299992       3.93803967E-09
   30.6900005       4.71728789E-09
   30.7500000       5.44790701E-09
   30.8099995       6.13888984E-09
   30.8700008       6.79846446E-09
   30.9300003       7.43137551E-09
   30.9899998       8.03769495E-09
   31.0499992       8.61371507E-09
   31.1100006       9.15434839E-09
   31.1700001       9.65565405E-09
   31.2299995       1.01161888E-08
   31.2900009       1.05366675E-08
   31.3500004       1.09183738E-08
   31.4099998       1.12613536E-08
   31.4699993       1.15632792E-08
   31.5300007       1.18193393E-08
   31.5900002       1.20229098E-08
   31.6499996       1.21666321E-08
   31.7099991       1.22436239E-08
   31.7700005       1.22487949E-08
   31.8299999       1.21801582E-08
   31.8899994       1.20397612E-08
   31.9500008       1.18336247E-08
   32.0099983       1.15702852E-08
   32.0699997       1.12581873E-08
   32.1300011       1.09029354E-08
   32.1899986       1.05057740E-08
   32.2500000       1.00641895E-08
   32.3100014       9.57445589E-09
   32.3699989       9.03487507E-09
   32.4300003       8.44805292E-09
   32.4900017       7.82109222E-09
   32.5499992       7.16379889E-09
   32.6100006       6.48600018E-09
   32.6699982       5.79543347E-09
   32.7299995       5.09705167E-09
   32.7900009       4.39359837E-09
   32.8499985       3.68661590E-09
   32.9099998       2.97705949E-09
   32.9700012       2.26538144E-09
   33.0299988       1.55161972E-09
   33.0900002       8.36175129E-10
   33.1500015       1.21375160E-10
   33.2099991      -5.86939275E-10
   33.2700005      -1.27903477E-09
   33.3300018      -1.94292471E-09
   33.3899994      -2.56770072E-09
   33.4500008      -3.14706039E-09
   33.5099983      -3.68113273E-09
   33.5699997      -4.17543644E-09
   33.6300011      -4.63729988E-09
   33.6899986      -5.07146458E-09
   33.7500000      -5.47706058E-09
   33.8100014      -5.84739057E-09
   33.8699989      -6.17246787E-09
   33.9300003      -6.44287290E-09
   33.9900017      -6.65300437E-09
   34.0499992      -6.80238310E-09
   34.1100006      -6.89484603E-09
   34.1699982      -6.93652558E-09
   34.2299995      -6.93385260E-09
   34.2900009      -6.89240665E-09
   34.3499985      -6.81668988E-09
   34.4099998      -6.71034028E-09
   34.4700012      -6.57628130E-09
   34.5299988      -6.41667652E-09
   34.5900002      -6.23297680E-09
   34.6500015      -6.02642825E-09
   34.7099991      -5.79911363E-09
   34.7700005      -5.55514434E-09
   34.8300018      -5.30137756E-09
   34.8899994      -5.04720665E-09
   34.9500008      -4.80343854E-09
   35.0099983      -4.58074867E-09
   35.0699997      -4.38836478E-09
   35.1300011      -4.23339586E-09
   35.1899986      -4.12082946E-09
   35.2500000      -4.05389544E-09
   35.3100014      -4.03446476E-09
   35.3699989      -4.06337097E-09
   35.4300003      -4.14072998E-09
   35.4900017      -4.26634816E-09
   35.5499992      -4.44007542E-09
   35.6100006      -4.66171812E-09
   35.6699982      -4.93016383E-09
   35.7299995      -5.24175814E-09
   35.7900009      -5.58858648E-09
   35.8499985      -5.95771832E-09
   35.9099998      -6.33232489E-09
   35.9700012      -6.69483757E-09
   36.0299988      -7.03123382E-09
   36.0900002      -7.33479100E-09
   36.1500015      -7.60762653E-09
   36.2099991      -7.85921106E-09
   36.2700005      -8.10238099E-09
   36.3300018      -8.34852987E-09
   36.3899994      -8.60398597E-09
   36.4500008      -8.86898377E-09
   36.5099983      -9.13928933E-09
   36.5699997      -9.40933198E-09
   36.6300011      -9.67504565E-09
   36.6899986      -9.93498617E-09
   36.7500000      -1.01893010E-08
   36.8100014      -1.04372564E-08
   36.8699989      -1.06747073E-08
   36.9300003      -1.08927729E-08
   36.9900017      -1.10782814E-08
   37.0499992      -1.12157066E-08
   37.1100006      -1.12897860E-08
   37.1699982      -1.12879519E-08
   37.2299995      -1.12021379E-08
   37.2900009      -1.10298553E-08
   37.3499985      -1.07746478E-08
   37.4099998      -1.04459126E-08
   37.4700012      -1.00578541E-08
   37.5299988      -9.62739399E-09
   37.5900002      -9.17119536E-09
   37.6500015      -8.70256933E-09
   37.7099991      -8.22935675E-09
   37.7700005      -7.75378961E-09
   37.8300018      -7.27458671E-09
   37.8899994      -6.79047840E-09
   37.9500008      -6.30361674E-09
   38.0099983      -5.82119819E-09
   38.0699997      -5.35436140E-09
   38.1300011      -4.91466734E-09
   38.1899986      -4.50960336E-09
   38.2500000      -4.13906953E-09
   38.3100014      -3.79446075E-09
   38.3699989      -3.46095397E-09
   38.4300003      -3.12235571E-09
   38.4900017      -2.76695600E-09
   38.5499992      -2.39243958E-09
   38.6100006      -2.00819494E-09
   38.6699982      -1.63409852E-09
   38.7299995      -1.29587263E-09
   38.7900009      -1.01815412E-09
   38.8499985      -8.17239276E-10
   38.9099998      -6.95797087E-10
   38.9700012      -6.41465880E-10
   39.0299988      -6.30113017E-10
   39.0900002      -6.32925601E-10
   39.1500015      -6.25008156E-10
   39.2099991      -5.92438099E-10
   39.2700005      -5.35214151E-10
   39.3300018      -4.65089689E-10
   39.3899994      -3.99304451E-10
   39.4500008      -3.52804508E-10
   39.5099983      -3.32010974E-10
   39.5699997      -3.32398553E-10
   39.6300011      -3.40534656E-10
   39.6899986      -3.39539147E-10
   39.7500000      -3.15831111E-10
   39.8100014      -2.64804373E-10
   39.8699989      -1.93596320E-10
   39.9300003      -1.20052829E-10
   39.9900017      -6.80549228E-11
   40.0499992      -6.03748995E-11
   40.1100006      -1.11055831E-10
   40.1699982      -2.19743598E-10
   40.2299995      -3.70155157E-10
   40.2900009      -5.33751432E-10
   40.3499985      -6.77867651E-10
   40.4099998      -7.75672915E-10
   40.4700012      -8.14266932E-10
   40.5299988      -7.97657385E-10
   40.5900002      -7.43298478E-10
   40.6500015      -6.73546774E-10
   40.7099991      -6.05572759E-10
   40.7700005      -5.43903589E-10
   40.8300018      -4.78571294E-10
   40.8899994      -3.89391103E-10
   40.9500008      -2.54380378E-10
   41.0099983      -5.88350896E-11
   41.0699997       1.98379063E-10
   41.1300011       5.03456277E-10
   41.1899986       8.31475833E-10
   41.2500000       1.15406129E-09
   41.3100014       1.44850187E-09
   41.3699989       1.70567316E-09
   41.4300003       1.93441485E-09
   41.4900017       2.16085949E-09
   41.5499992       2.42251863E-09
   41.6100006       2.75853695E-09
   41.6699982       3.19899862E-09
   41.7299995       3.75685749E-09
   41.7900009       4.42544890E-09
   41.8499985       5.18263787E-09
   41.9099998       6.00006622E-09
   41.9700012       6.85389079E-09
   42.0299988       7.73272468E-09
   42.0900002       8.63972627E-09
   42.1500015       9.58822888E-09
   42.2099991       1.05929470E-08
   42.2700005       1.16604175E-08
   42.3300018       1.27823157E-08
   42.3899994       1.39339171E-08
   42.4500008       1.50779247E-08
   42.5099983       1.61721392E-08
   42.5699997       1.71785199E-08
   42.6300011       1.80711126E-08
   42.6899986       1.88408382E-08
   42.7500000       1.94960297E-08
   42.8100014       2.00584953E-08
   42.8699989       2.05560280E-08
   42.9300003       2.10132125E-08
   42.9900017       2.14432827E-08
   43.0499992       2.18436789E-08
   43.1100006       2.21971206E-08
   43.1699982       2.24781562E-08
   43.2299995       2.26630714E-08
   43.2900009       2.27395649E-08
   43.3499985       2.27124879E-08
   43.4099998       2.26033237E-08
   43.4700012       2.24434604E-08
   43.5299988       2.22638548E-08
   43.5900002       2.20850218E-08
   43.6500015       2.19111733E-08
   43.7099991       2.17305391E-08
   43.7700005       2.15215046E-08
   43.8300018       2.12618936E-08
   43.8899994       2.09377724E-08
   43.9500008       2.05486081E-08
   44.0099983       2.01071728E-08
   44.0699997       1.96347987E-08
   44.1300011       1.91540632E-08
   44.1899986       1.86816891E-08
   44.2500000       1.82239379E-08
   44.3100014       1.77756743E-08
   44.3699989       1.73229004E-08
   44.4300003       1.68476255E-08
   44.4900017       1.63334750E-08
   44.5499992       1.57704623E-08
   44.6100006       1.51577417E-08
   44.6699982       1.45036871E-08
   44.7299995       1.38232563E-08
   44.7900009       1.31333824E-08
   44.8499985       1.24477353E-08
   44.9099998       1.17726460E-08
   44.9700012       1.11057314E-08
   45.0299988       1.04380504E-08
   45.0900002       9.75925563E-09
   45.1500015       9.06404019E-09
   45.2099991       8.35743919E-09
   45.2700005       7.65682184E-09
   45.3300018       6.98952363E-09
   45.3899994       6.38667474E-09
   45.4500008       5.87522031E-09
   45.5099983       5.47077761E-09
   45.5699997       5.17372634E-09
   45.6300011       4.96977171E-09
   45.6899986       4.83471663E-09
   45.7500000       4.74181183E-09
   45.8100014       4.66923655E-09
   45.8699989       4.60532545E-09
   45.9300003       4.54995419E-09
   45.9900017       4.51183624E-09
   46.0499992       4.50288029E-09
   46.1100006       4.53176119E-09
   46.1699982       4.59907312E-09
   46.2299995       4.69578110E-09
   46.2900009       4.80543338E-09
   46.3499985       4.90917751E-09
   46.4099998       4.99165154E-09
   46.4700012       5.04560083E-09
   46.5299988       5.07369347E-09
   46.5900002       5.08708897E-09
   46.6500015       5.10147125E-09
   46.7099991       5.13200682E-09
   46.7700005       5.18888399E-09
   46.8300018       5.27472555E-09
   46.8899994       5.38449552E-09
   46.9500008       5.50771162E-09
   47.0099983       5.63211389E-09
   47.0699997       5.74752645E-09
   47.1300011       5.84860427E-09
   47.1899986       5.93553695E-09
   47.2500000       6.01249761E-09
   47.3100014       6.08443695E-09
   47.3699989       6.15349283E-09
   47.4300003       6.21644869E-09
   47.4900017       6.26431929E-09
   47.5499992       6.28431795E-09
   47.6100006       6.26355678E-09
   47.6699982       6.19317797E-09
   47.7299995       6.07144424E-09
   47.7900009       5.90470650E-09
   47.8499985       5.70589620E-09
   47.9099998       5.49102097E-09
   47.9700012       5.27479749E-09
   48.0299988       5.06686515E-09
   48.0900002       4.86981699E-09
   48.1500015       4.67970418E-09
   48.2099991       4.48875159E-09
   48.2700005       4.28922853E-09
   48.3300018       4.07696188E-09
   48.3899994       3.85317422E-09
   48.4500008       3.62409414E-09
   48.5099983       3.39879658E-09
   48.5699997       3.18645665E-09
   48.6300011       2.99430791E-09
   48.6899986       2.82703172E-09
   48.7500000       2.68742273E-09
   48.8100014       2.57752197E-09
   48.8699989       2.49932786E-09
   48.9300003       2.45467890E-09
   48.9900017       2.44456544E-09
   49.0499992       2.46849741E-09
   49.1100006       2.52443288E-09
   49.1699982       2.60930499E-09
   49.2299995       2.71976397E-09
   49.2900009       2.85270962E-09
   49.3499985       3.00547942E-09
   49.4099998       3.17592197E-09
   49.4700012       3.36259975E-09
   49.5299988       3.56505780E-09
   49.5900002       3.78367959E-09
   49.6500015       4.01863076E-09
   49.7099991       4.26790692E-09
   49.7700005       4.52533611E-09
   49.8300018       4.77986628E-09
   49.8899994       5.01712361E-09
   49.9500008       5.22308774E-09
   50.0099983       5.38837508E-09
   50.0699997       5.51098589E-09
   50.1300011       5.59594771E-09
   50.1899986       5.65186120E-09
   50.2500000       5.68601566E-09
   50.3100014       5.70050007E-09
   50.3699989       5.69113068E-09
   50.4300003       5.64946490E-09
   50.4900017       5.56661872E-09
   50.5499992       5.43696643E-09
   50.6100006       5.26028465E-09