  -2.400000      0.0000000E+00
  -2.340000      0.0000000E+00
  -2.280000      0.0000000E+00
  -2.220000      0.0000000E+00
  -2.160000      0.0000000E+00
  -2.100000      0.0000000E+00
  -2.040000      0.0000000E+00
  -1.980000      0.0000000E+00
  -1.920000     -3.8869388E-27
  -1.860000     -3.0675346E-26
  -1.800000     -1.0358044E-25
  -1.740000     -1.9173646E-25
  -1.680000     -3.8293207E-25
  -1.620000     -2.0552994E-24
  -1.560000     -9.8353718E-24
  -1.500000     -2.9233955E-23
  -1.440000     -4.8585953E-23
  -1.380000     -7.8956871E-25
  -1.320000      2.6032741E-22
  -1.260000      8.7214796E-22
  -1.200000      1.6603045E-21
  -1.140000      1.6887426E-21
  -1.080000     -8.9206683E-22
  -1.020000     -7.9330143E-21
 -0.9600000     -1.8834176E-20
 -0.9000000     -2.7399056E-20
 -0.8400000     -2.0757403E-20
 -0.7800000      1.6035155E-20
 -0.7200000      8.8362335E-20
 -0.6600000      1.7765119E-19
 -0.6000000      2.3427417E-19
 -0.5400000      1.8803335E-19
 -0.4800000     -2.2238087E-20
 -0.4200000     -4.1176094E-19
 -0.3600000     -9.2328463E-19
 -0.3000000     -1.4174191E-18
 -0.2400000     -1.6653961E-18
 -0.1800000     -1.3281170E-18
 -0.1200000      4.8111009E-20
 -5.9999999E-02  2.9067191E-18
  0.0000000E+00  7.2800703E-18
  5.9999999E-02  1.2099457E-17
  0.1200000      1.4551154E-17
  0.1800000      1.0220389E-17
  0.2400000     -5.1526044E-18
  0.3000000     -3.2133376E-17
  0.3600000     -6.3539892E-17
  0.4200000     -8.2726459E-17
  0.4800000     -6.7507176E-17
  0.5400000     -1.1190132E-18
  0.6000000      1.1271798E-16
  0.6600000      2.3854152E-16
  0.7200000      3.1175429E-16
  0.7800000      2.6135747E-16
  0.8400000      4.8867376E-17
  0.9000000     -2.9313065E-16
  0.9600000     -6.4679706E-16
   1.020000     -8.3830946E-16
   1.080000     -7.1061591E-16
   1.140000     -2.1345392E-16
   1.200000      5.3490724E-16
   1.260000      1.2578970E-15
   1.320000      1.6182357E-15
   1.380000      1.3730824E-15
   1.440000      5.1713384E-16
   1.500000     -6.6589654E-16
   1.560000     -1.6907451E-15
   1.620000     -2.0791764E-15
   1.680000     -1.6033477E-15
   1.740000     -4.4239861E-16
   1.800000      8.4660017E-16
   1.860000      1.5635702E-15
   1.920000      1.2228750E-15
   1.980000     -1.3041266E-16
   2.040000     -1.8220115E-15
   2.100000     -2.7704383E-15
   2.160000     -1.9900412E-15
   2.220000      8.2044077E-16
   2.280000      4.8949039E-15
   2.340000      8.4840201E-15
   2.400000      9.4923027E-15
   2.460000      6.4804560E-15
   2.520000     -4.0777720E-16
   2.580000     -9.1198132E-15
   2.640000     -1.6307278E-14
   2.700000     -1.8775393E-14
   2.760000     -1.5152572E-14
   2.820000     -6.8645807E-15
   2.880000      2.3349139E-15
   2.940000      8.3452286E-15
   3.000000      9.3492718E-15
   3.060000      7.5608439E-15
   3.120000      8.6492559E-15
   3.180000      1.8442130E-14
   3.240000      3.8135436E-14
   3.300000      6.0621498E-14
   3.360000      7.0754458E-14
   3.420000      5.0933097E-14
   3.480000     -9.3225031E-15
   3.540000     -1.0386414E-13
   3.600000     -2.0576730E-13
   3.660000     -2.7248635E-13
   3.720000     -2.6048350E-13
   3.780000     -1.4477463E-13
   3.840000      6.4599964E-14
   3.900000      3.1736891E-13
   3.960000      5.3364539E-13
   4.020000      6.2866634E-13
   4.080000      5.4366760E-13
   4.140000      2.7140773E-13
   4.200000     -1.3410650E-13
   4.260000     -5.6874069E-13
   4.320000     -9.0755940E-13
   4.380000     -1.0428211E-12
   4.440000     -9.1775806E-13
   4.500000     -5.4477001E-13
   4.560000     -2.3824059E-15
   4.620000      5.8704956E-13
   4.680000      1.0903656E-12
   4.740000      1.3959023E-12
   4.800000      1.4353496E-12
   4.860000      1.1909509E-12
   4.920000      6.9057141E-13
   4.980000     -2.0913415E-15
   5.040000     -7.9462549E-13
   5.100000     -1.5674759E-12
   5.160000     -2.1744232E-12
   5.220000     -2.4521956E-12
   5.280000     -2.2492769E-12
   5.340000     -1.4759142E-12
   5.400000     -1.6354848E-13
   5.460000      1.4912729E-12
   5.520000      3.1279686E-12
   5.580000      4.2876570E-12
   5.640000      4.5396382E-12
   5.700000      3.6353169E-12
   5.760000      1.6342788E-12
   5.820000     -1.0548196E-12
   5.880000     -3.7524337E-12
   5.940000     -5.6962425E-12
   6.000000     -6.2835600E-12
   6.060000     -5.2829277E-12
   6.120000     -2.9325843E-12
   6.180000      1.1897452E-13
   6.240000      3.0160666E-12
   6.300000      4.9715483E-12
   6.360000      5.5145333E-12
   6.420000      4.6204924E-12
   6.480000      2.6821145E-12
   6.540000      3.4365536E-13
   6.600000     -1.7260294E-12
   6.660000     -3.0289319E-12
   6.720000     -3.3330430E-12
   6.780000     -2.6515780E-12
   6.840000     -1.1465773E-12
   6.900000      9.7122538E-13
   6.960000      3.4822371E-12
   7.020000      6.1160382E-12
   7.080000      8.4611198E-12
   7.140000      9.8984276E-12
   7.200000      9.6315855E-12
   7.260000      6.8466287E-12
   7.320000      9.7061465E-13
   7.380000     -8.0588002E-12
   7.440000     -1.9623624E-11
   7.500000     -3.2441397E-11
   7.560000     -4.4787847E-11
   7.620000     -5.4868957E-11
   7.680000     -6.1225837E-11
   7.740000     -6.3040691E-11
   7.800000     -6.0248487E-11
   7.860000     -5.3432935E-11
   7.920000     -4.3566342E-11
   7.980000     -3.1709583E-11
   8.040000     -1.8796055E-11
   8.100000     -5.5791474E-12
   8.160000      7.2570630E-12
   8.220000      1.8905745E-11
   8.280000      2.8294410E-11
   8.340000      3.4112449E-11
   8.400000      3.5062248E-11
   8.460000      3.0283654E-11
   8.520000      1.9805529E-11
   8.580000      4.8325337E-12
   8.640000     -1.2292470E-11
   8.700000     -2.8504877E-11
   8.760000     -4.0726502E-11
   8.820000     -4.6655756E-11
   8.880000     -4.5379311E-11
   8.940000     -3.7590878E-11
   9.000000     -2.5332856E-11
   9.060000     -1.1341220E-11
   9.120000      1.7908327E-12
   9.180000      1.2361520E-11
   9.240000      1.9999728E-11
   9.300000      2.5697354E-11
   9.360000      3.1484457E-11
   9.420000      3.9905686E-11
   9.480000      5.3486191E-11
   9.540000      7.4321771E-11
   9.600000      1.0382666E-10
   9.660000      1.4257842E-10
   9.720000      1.9016430E-10
   9.780000      2.4497576E-10
   9.840000      3.0399669E-10
   9.900000      3.6272887E-10
   9.960000      4.1543310E-10
   10.02000      4.5579757E-10
   10.08000      4.7798743E-10
   10.14000      4.7784166E-10
   10.20000      4.5385448E-10
   10.26000      4.0758302E-10
   10.32000      3.4328013E-10
   10.38000      2.6681501E-10
   10.44000      1.8420829E-10
   10.50000      1.0025897E-10
   10.56000      1.7709589E-11
   10.62000     -6.2814365E-11
   10.68000     -1.4215493E-10
   10.74000     -2.2159313E-10
   10.80000     -3.0189165E-10
   10.86000     -3.8278947E-10
   10.92000     -4.6310375E-10
   10.98000     -5.4131927E-10
   11.04000     -6.1633593E-10
   11.10000     -6.8798867E-10
   11.16000     -7.5706164E-10
   11.22000     -8.2474350E-10
   11.28000     -8.9171759E-10
   11.34000     -9.5724784E-10
   11.40000     -1.0186512E-09
   11.46000     -1.0714243E-09
   11.52000     -1.1100656E-09
   11.58000     -1.1293769E-09
   11.64000     -1.1258482E-09
   11.70000     -1.0986755E-09
   11.76000     -1.0500831E-09
   11.82000     -9.8484809E-10
   11.88000     -9.0920704E-10
   11.94000     -8.2953211E-10
   12.00000     -7.5121731E-10
   12.06000     -6.7810813E-10
   12.12000     -6.1256861E-10
   12.18000     -5.5601962E-10
   12.24000     -5.0961102E-10
   12.30000     -4.7467474E-10
   12.36000     -4.5274720E-10
   12.42000     -4.4518106E-10
   12.48000     -4.5257589E-10
   12.54000     -4.7435311E-10
   12.60000     -5.0873988E-10
   12.66000     -5.5323551E-10
   12.72000     -6.0539562E-10
   12.78000     -6.6359890E-10
   12.84000     -7.2743106E-10
   12.90000     -7.9746482E-10
   12.96000     -8.7447288E-10
   13.02000     -9.5838404E-10
   13.08000     -1.0474435E-09
   13.14000     -1.1379920E-09
   13.20000     -1.2250359E-09
   13.26000     -1.3034218E-09
   13.32000     -1.3691491E-09
   13.38000     -1.4202572E-09
   13.44000     -1.4569062E-09
   13.50000     -1.4806398E-09
   13.56000     -1.4932096E-09
   13.62000     -1.4955455E-09
   13.68000     -1.4873845E-09
   13.74000     -1.4677232E-09
   13.80000     -1.4358369E-09
   13.86000     -1.3923180E-09
   13.92000     -1.3395731E-09
   13.98000     -1.2814918E-09
   14.04000     -1.2224146E-09
   14.10000     -1.1658514E-09
   14.16000     -1.1135076E-09
   14.22000     -1.0649978E-09
   14.28000     -1.0183100E-09
   14.34000     -9.7077213E-10
   14.40000     -9.2011782E-10
   14.46000     -8.6528607E-10
   14.52000     -8.0675605E-10
   14.58000     -7.4640844E-10
   14.64000     -6.8704442E-10
   14.70000     -6.3174704E-10
   14.76000     -5.8326827E-10
   14.82000     -5.4358812E-10
   14.88000     -5.1374160E-10
   14.94000     -4.9392679E-10
   15.00000     -4.8381221E-10
   15.06000     -4.8287230E-10
   15.12000     -4.9055726E-10
   15.18000     -5.0617976E-10
   15.24000     -5.2855370E-10
   15.30000     -5.5557992E-10
   15.36000     -5.8404737E-10
   15.42000     -6.0985128E-10
   15.48000     -6.2865324E-10
   15.54000     -6.3680378E-10
   15.60000     -6.3222683E-10
   15.66000     -6.1497041E-10
   15.72000     -5.8724958E-10
   15.78000     -5.5296684E-10
   15.84000     -5.1683041E-10
   15.90000     -4.8326870E-10
   15.96000     -4.5537518E-10
   16.02000     -4.3413251E-10
   16.08000     -4.1814846E-10
   16.14000     -4.0405565E-10
   16.20000     -3.8755524E-10
   16.26000     -3.6485029E-10
   16.32000     -3.3401232E-10
   16.38000     -2.9577019E-10
   16.44000     -2.5337357E-10
   16.50000     -2.1151932E-10
   16.56000     -1.7469851E-10
   16.62000     -1.4555521E-10
   16.68000     -1.2383991E-10
   16.74000     -1.0631202E-10
   16.80000     -8.7609690E-11
   16.86000     -6.1808343E-11
   16.92000     -2.4216089E-11
   16.98000      2.7081082E-11
   17.04000      9.0348000E-11
   17.10000      1.6028910E-10
   17.16000      2.2916843E-10
   17.22000      2.8873612E-10
   17.28000      3.3241318E-10
   17.34000      3.5697398E-10
   17.40000      3.6301948E-10
   17.46000      3.5393435E-10
   17.52000      3.3365383E-10
   17.58000      3.0415948E-10
   17.64000      2.6385458E-10
   17.70000      2.0766550E-10
   17.76000      1.2897287E-10
   17.82000      2.2641701E-11
   17.88000     -1.1209758E-10
   17.94000     -2.7010696E-10
   18.00000     -4.4074233E-10
   18.06000     -6.1000127E-10
   18.12000     -7.6359219E-10
   18.18000     -8.8989527E-10
   18.24000     -9.8200525E-10
   18.30000     -1.0384836E-09
   18.36000     -1.0628565E-09
   18.42000     -1.0621344E-09
   18.48000     -1.0447460E-09
   18.54000     -1.0183288E-09
   18.60000     -9.8789676E-10
   18.66000     -9.5491226E-10
   18.72000     -9.1761887E-10
   18.78000     -8.7259527E-10
   18.84000     -8.1698481E-10
   18.90000     -7.5048667E-10
   18.96000     -6.7622286E-10
   19.02000     -6.0005939E-10
   19.08000     -5.2867355E-10
   19.14000     -4.6724652E-10
   19.20000     -4.1780882E-10
   19.26000     -3.7888995E-10
   19.32000     -3.4644196E-10
   19.38000     -3.1539762E-10
   19.44000     -2.8101413E-10
   19.50000     -2.3941948E-10
   19.56000     -1.8732801E-10
   19.62000     -1.2139127E-10
   19.68000     -3.7821173E-11
   19.74000      6.7283470E-11
   19.80000      1.9691471E-10
   19.86000      3.5184528E-10
   19.92000      5.2960525E-10
   19.98000      7.2420325E-10
   20.04000      9.2675456E-10
   20.10000      1.1268608E-09
   20.16000      1.3143726E-09
   20.22000      1.4810990E-09
   20.28000      1.6220720E-09
   20.34000      1.7360938E-09
   20.40000      1.8254467E-09
   20.46000      1.8948287E-09
   20.52000      1.9497739E-09
   20.58000      1.9949788E-09
   20.64000      2.0330295E-09
   20.70000      2.0639457E-09
   20.76000      2.0857320E-09
   20.82000      2.0957895E-09
   20.88000      2.0927031E-09
   20.94000      2.0777280E-09
   21.00000      2.0553115E-09
   21.06000      2.0322957E-09
   21.12000      2.0159212E-09
   21.18000      2.0112800E-09
   21.24000      2.0191875E-09
   21.30000      2.0354010E-09
   21.36000      2.0516584E-09
   21.42000      2.0582873E-09
   21.48000      2.0474598E-09
   21.54000      2.0158410E-09
   21.60000      1.9655961E-09
   21.66000      1.9033937E-09
   21.72000      1.8378777E-09
   21.78000      1.7766727E-09
   21.84000      1.7240883E-09
   21.90000      1.6802854E-09
   21.96000      1.6420059E-09
   22.02000      1.6043799E-09
   22.08000      1.5630567E-09
   22.14000      1.5159803E-09
   22.20000      1.4643946E-09
   22.26000      1.4129229E-09
   22.32000      1.3687367E-09
   22.38000      1.3399245E-09
   22.44000      1.3333408E-09
   22.50000      1.3524362E-09
   22.56000      1.3957848E-09
   22.62000      1.4569908E-09
   22.68000      1.5262791E-09
   22.74000      1.5934248E-09
   22.80000      1.6510273E-09
   22.86000      1.6968689E-09
   22.92000      1.7343933E-09
   22.98000      1.7711069E-09
   23.04000      1.8155870E-09
   23.10000      1.8743411E-09
   23.16000      1.9497206E-09
   23.22000      2.0395370E-09
   23.28000      2.1382387E-09
   23.34000      2.2389262E-09
   23.40000      2.3353082E-09
   23.46000      2.4229845E-09
   23.52000      2.4998876E-09
   23.58000      2.5660918E-09
   23.64000      2.6233262E-09
   23.70000      2.6744202E-09
   23.76000      2.7227154E-09
   23.82000      2.7713833E-09
   23.88000      2.8226270E-09
   23.94000      2.8769094E-09
   24.00000      2.9324807E-09
   24.06000      2.9854950E-09
   24.12000      3.0308478E-09
   24.18000      3.0636074E-09
   24.24000      3.0806473E-09
   24.30000      3.0819312E-09
   24.36000      3.0709639E-09
   24.42000      3.0541598E-09
   24.48000      3.0392653E-09
   24.54000      3.0333258E-09
   24.60000      3.0408809E-09
   24.66000      3.0629856E-09
   24.72000      3.0973388E-09
   24.78000      3.1393652E-09
   24.84000      3.1837495E-09
   24.90000      3.2258309E-09
   24.96000      3.2624221E-09
   25.02000      3.2919458E-09
   25.08000      3.3140457E-09
   25.14000      3.3289529E-09
   25.20000      3.3368228E-09
   25.26000      3.3371437E-09
   25.32000      3.3282757E-09
   25.38000      3.3072498E-09
   25.44000      3.2700427E-09
   25.50000      3.2125060E-09
   25.56000      3.1318625E-09
   25.62000      3.0283109E-09
   25.68000      2.9060017E-09
   25.74000      2.7727105E-09
   25.80000      2.6380151E-09
   25.86000      2.5104647E-09
   25.92000      2.3947984E-09
   25.98000      2.2903739E-09
   26.04000      2.1915199E-09
   26.10000      2.0897262E-09
   26.16000      1.9768258E-09
   26.22000      1.8479572E-09
   26.28000      1.7032585E-09
   26.34000      1.5478243E-09
   26.40000      1.3901027E-09
   26.46000      1.2393869E-09
   26.52000      1.1031972E-09
   26.58000      9.8524411E-10
   26.64000      8.8442448E-10
   26.70000      7.9506191E-10
   26.76000      7.0837175E-10
   26.82000      6.1486854E-10
   26.88000      5.0716403E-10
   26.94000      3.8239603E-10
   27.00000      2.4352592E-10
   27.06000      9.9024497E-11
   27.12000     -3.9018816E-11
   27.18000     -1.5778585E-10
   27.24000     -2.4670388E-10
   27.30000     -2.9961553E-10
   27.36000     -3.1560912E-10
   27.42000     -2.9847938E-10
   27.48000     -2.5520649E-10
   27.54000     -1.9403583E-10
   27.60000     -1.2269838E-10
   27.66000     -4.7141416E-11
   27.72000      2.9052561E-11
   27.78000      1.0453420E-10
   27.84000      1.7945283E-10
   27.90000      2.5436686E-10
   27.96000      3.2916805E-10
   28.02000      4.0241477E-10
   28.08000      4.7133131E-10
   28.14000      5.3244359E-10
   28.20000      5.8251320E-10
   28.26000      6.1928257E-10
   28.32000      6.4166644E-10
   28.38000      6.4936823E-10
   28.44000      6.4226230E-10
   28.50000      6.2003358E-10
   28.56000      5.8238064E-10
   28.62000      5.2968002E-10
   28.68000      4.6363488E-10
   28.74000      3.8735637E-10
   28.80000      3.0464095E-10
   28.86000      2.1872607E-10
   28.92000      1.3120538E-10
   28.98000      4.1783160E-11
   29.04000     -5.0902588E-11
   29.10000     -1.4780034E-10
   29.16000     -2.4817035E-10
   29.22000     -3.4933420E-10
   29.28000     -4.4772841E-10
   29.34000     -5.4080451E-10
   29.40000     -6.2880245E-10
   29.46000     -7.1544365E-10
   29.52000     -8.0711965E-10
   29.58000     -9.1090335E-10
   29.64000     -1.0322568E-09
   29.70000     -1.1733842E-09
   29.76000     -1.3327822E-09
   29.82000     -1.5059511E-09
   29.88000     -1.6867633E-09
   29.94000     -1.8688826E-09
   30.00000     -2.0468300E-09
   30.06000     -2.2166113E-09
   30.12000     -2.3760440E-09
   30.18000     -2.5249256E-09
   30.24000     -2.6650540E-09
   30.30000     -2.7999911E-09
   30.36000     -2.9344598E-09
   30.42000     -3.0734009E-09
   30.48000     -3.2208818E-09
   30.54000     -3.3791359E-09
   30.60000     -3.5479866E-09
   30.66000     -3.7247809E-09
   30.72000     -3.9048351E-09
   30.78000     -4.0822967E-09
   30.84000     -4.2512482E-09
   30.90000     -4.4068242E-09
   30.96000     -4.5460435E-09
   31.02000     -4.6680859E-09
   31.08000     -4.7738640E-09
   31.14000     -4.8650262E-09
   31.20000     -4.9427715E-09
   31.26000     -5.0069864E-09
   31.32000     -5.0561013E-09
   31.38000     -5.0876947E-09
   31.44000     -5.0995186E-09
   31.50000     -5.0904179E-09
   31.56000     -5.0607176E-09
   31.62000     -5.0119757E-09
   31.68000     -4.9463162E-09
   31.74000     -4.8657141E-09
   31.80000     -4.7714894E-09
   31.86000     -4.6640602E-09
   31.92000     -4.5428479E-09
   31.98000     -4.4062820E-09
   32.04000     -4.2519943E-09
   32.10000     -4.0774042E-09
   32.16000     -3.8807499E-09
   32.22000     -3.6623342E-09
   32.28000     -3.4254417E-09
   32.34000     -3.1763632E-09
   32.40000     -2.9233003E-09
   32.46000     -2.6744722E-09
   32.52000     -2.4361670E-09
   32.58000     -2.2115281E-09
   32.64000     -2.0004560E-09
   32.70000     -1.8004436E-09
   32.76000     -1.6077495E-09
   32.82000     -1.4183447E-09
   32.88000     -1.2284247E-09
   32.94000     -1.0347091E-09
   33.00000     -8.3489332E-10
   33.06000     -6.2839201E-10
   33.12000     -4.1708145E-10
   33.18000     -2.0548578E-10
   33.24000      2.3739040E-14
   33.30000      1.9294742E-10
   33.36000      3.6866607E-10
   33.42000      5.2586097E-10
   33.48000      6.6669448E-10
   33.54000      7.9568280E-10
   33.60000      9.1778524E-10
   33.66000      1.0365190E-09
   33.72000      1.1527731E-09
   33.78000      1.2646036E-09
   33.84000      1.3678910E-09
   33.90000      1.4575336E-09
   33.96000      1.5288221E-09
   34.02000      1.5786940E-09
   34.08000      1.6065768E-09
   34.14000      1.6145395E-09
   34.20000      1.6065826E-09
   34.26000      1.5871888E-09
   34.32000      1.5596460E-09
   34.38000      1.5249004E-09
   34.44000      1.4815801E-09
   34.50000      1.4273089E-09
   34.56000      1.3607496E-09
   34.62000      1.2833505E-09
   34.68000      1.1998426E-09
   34.74000      1.1171220E-09
   34.80000      1.0419747E-09
   34.86000      9.7867714E-10
   34.92000      9.2755387E-10
   34.98000      8.8508406E-10
   35.04000      8.4541596E-10
   35.10000      8.0256951E-10
   35.16000      7.5242806E-10
   35.22000      6.9384731E-10
   35.28000      6.2864819E-10
   35.34000      5.6067456E-10
   35.40000      4.9434379E-10
   35.46000      4.3319337E-10
   35.52000      3.7886377E-10
   35.58000      3.3081271E-10
   35.64000      2.8682726E-10
   35.70000      2.4412564E-10
   35.76000      2.0060441E-10
   35.82000      1.5571647E-10
   35.88000      1.1063438E-10
   35.94000      6.7706542E-11
   36.00000      2.9556236E-11
   36.06000     -1.6977077E-12
   36.12000     -2.4787068E-11
   36.18000     -3.9236166E-11
   36.24000     -4.5196010E-11
   36.30000     -4.3467317E-11
   36.36000     -3.5745535E-11
   36.42000     -2.4807340E-11
   36.48000     -1.4259422E-11
   36.54000     -7.7012832E-12
   36.60000     -7.5749901E-12
   36.66000     -1.4284898E-11
   36.72000     -2.6117310E-11
   36.78000     -4.0073878E-11
   36.84000     -5.3211234E-11
   36.90000     -6.3800243E-11
   36.96000     -7.1765913E-11
   37.02000     -7.8333305E-11
   37.08000     -8.5261326E-11
   37.14000     -9.4189816E-11
   37.20000     -1.0639428E-10
   37.26000     -1.2284974E-10
   37.32000     -1.4427379E-10
   37.38000     -1.7092422E-10
   37.44000     -2.0226637E-10
   37.50000     -2.3689192E-10
   37.56000     -2.7300645E-10
   37.62000     -3.0940348E-10
   37.68000     -3.4639333E-10
   37.74000     -3.8601974E-10
   37.80000     -4.3124435E-10
   37.86000     -4.8442372E-10
   37.92000     -5.4591909E-10
   37.98000     -6.1368022E-10
   38.04000     -6.8408179E-10
   38.10000     -7.5349493E-10
   38.16000     -8.1958157E-10
   38.22000     -8.8144164E-10
   38.28000     -9.3848096E-10
   38.34000     -9.8873432E-10
   38.40000     -1.0278220E-09
   38.46000     -1.0494294E-09
   38.52000     -1.0473292E-09
   38.58000     -1.0180197E-09
   38.64000     -9.6260344E-10
   38.70000     -8.8683944E-10
   38.76000     -7.9920420E-10
   38.82000     -7.0779238E-10
   38.88000     -6.1744410E-10
   38.94000     -5.2833854E-10
   39.00000     -4.3656412E-10
   39.06000     -3.3626521E-10
   39.12000     -2.2233121E-10
   39.18000     -9.2494755E-11
   39.24000      5.1883286E-11
   39.30000      2.0640603E-10
   39.36000      3.6510533E-10
   39.42000      5.2203331E-10
   39.48000      6.7236799E-10
   39.54000      8.1279233E-10
   39.60000      9.4129293E-10
   39.66000      1.0567393E-09
   39.72000      1.1585707E-09
   39.78000      1.2467128E-09
   39.84000      1.3216274E-09
   39.90000      1.3842982E-09
   39.96000      1.4360465E-09
   40.02000      1.4782344E-09
   40.08000      1.5120650E-09
   40.14000      1.5386477E-09
   40.20000      1.5593237E-09
   40.26000      1.5760178E-09
   40.32000      1.5912801E-09
   40.38000      1.6078101E-09
   40.44000      1.6275407E-09
   40.50000      1.6506676E-09
   40.56000      1.6751101E-09
   40.62000      1.6967340E-09
   40.68000      1.7103191E-09
   40.74000      1.7109181E-09
   40.80000      1.6951029E-09
   40.86000      1.6617108E-09
   40.92000      1.6119539E-09
   40.98000      1.5490143E-09
   41.04000      1.4773399E-09
   41.10000      1.4018258E-09
   41.16000      1.3269774E-09
   41.22000      1.2561399E-09
   41.28000      1.1909400E-09
   41.34000      1.1311613E-09
   41.40000      1.0752110E-09
   41.46000      1.0211169E-09
   41.52000      9.6769093E-10
   41.58000      9.1531827E-10
   41.64000      8.6592222E-10
   41.70000      8.2203150E-10
   41.76000      7.8534884E-10
   41.82000      7.5553225E-10
   41.88000      7.2984535E-10
   41.94000      7.0392081E-10
   42.00000      6.7332656E-10
   42.06000      6.3521371E-10
   42.12000      5.8929689E-10
   42.18000      5.3775773E-10
   42.24000      4.8419546E-10
   42.30000      4.3216927E-10
   42.36000      3.8399514E-10
   42.42000      3.4024036E-10
   42.48000      2.9996242E-10
   42.54000      2.6140257E-10
   42.60000      2.2273267E-10
   42.66000      1.8258825E-10
   42.72000      1.4035921E-10
   42.78000      9.6375609E-11
   42.84000      5.2107731E-11
   42.90000      1.0322285E-11
   42.96000     -2.5040891E-11
   43.02000     -4.9520082E-11
   43.08000     -5.9341851E-11
   43.14000     -5.2867766E-11
   43.20000     -3.1679638E-11
   43.26000     -7.1041437E-13
   43.32000      3.2830766E-11
   43.38000      6.1454765E-11
   43.44000      7.9572487E-11
   43.50000      8.5011519E-11
   43.56000      7.9321327E-11
   43.62000      6.6875158E-11
   43.68000      5.3285085E-11
   43.74000      4.3842378E-11
   43.80000      4.2506922E-11
   43.86000      5.1563143E-11
   43.92000      7.1711352E-11
   43.98000      1.0228073E-10
   44.04000      1.4143606E-10
   44.10000      1.8650363E-10
   44.16000      2.3462438E-10
   44.22000      2.8374558E-10
   44.28000      3.3361439E-10
   44.34000      3.8621009E-10
   44.40000      4.4517437E-10
   44.46000      5.1427596E-10
   44.52000      5.9552119E-10
   44.58000      6.8783107E-10
   44.64000      7.8700718E-10
   44.70000      8.8707403E-10
   44.76000      9.8234887E-10
   44.82000      1.0691896E-09
   44.88000      1.1465537E-09
   44.94000      1.2151676E-09
   45.00000      1.2758855E-09
   45.06000      1.3282481E-09
   45.12000      1.3700984E-09
   45.18000      1.3984713E-09
   45.24000      1.4112223E-09
   45.30000      1.4084343E-09
   45.36000      1.3927779E-09
   45.42000      1.3685976E-09
   45.48000      1.3402183E-09
   45.54000      1.3103830E-09
   45.60000      1.2796390E-09
   45.66000      1.2469354E-09
   45.72000      1.2110153E-09
   45.78000      1.1717479E-09
   45.84000      1.1306108E-09
   45.90000      1.0900362E-09
   45.96000      1.0520106E-09
   46.02000      1.0167699E-09
   46.08000      9.8240560E-10
   46.14000      9.4570951E-10
   46.20000      9.0387542E-10
   46.26000      8.5617075E-10
   46.32000      8.0464896E-10
   46.38000      7.5344564E-10
   46.44000      7.0693179E-10
   46.50000      6.6759825E-10
   46.56000      6.3469346E-10
   46.62000      6.0427052E-10
   46.68000      5.7063093E-10
   46.74000      5.2853077E-10
   46.80000      4.7524396E-10
   46.86000      4.1173548E-10
   46.92000      3.4263462E-10
   46.98000      2.7515765E-10
   47.04000      2.1740532E-10
   47.10000      1.7651947E-10
   47.16000      1.5710572E-10
   47.22000      1.6023637E-10
   47.28000      1.8327062E-10
   47.34000      2.2061200E-10
   47.40000      2.6529640E-10
   47.46000      3.1099356E-10
   47.52000      3.5375869E-10
   47.58000      3.9286632E-10
   47.64000      4.3038847E-10
   47.70000      4.6971571E-10
   47.76000      5.1369992E-10
   47.82000      5.6324650E-10
   47.88000      6.1690597E-10
   47.94000      6.7147554E-10
   48.00000      7.2312367E-10
   48.06000      7.6838602E-10
   48.12000      8.0460394E-10
   48.18000      8.2981583E-10
   48.24000      8.4245866E-10
   48.30000      8.4128843E-10
   48.36000      8.2567569E-10
   48.42000      7.9608564E-10
   48.48000      7.5436246E-10
   48.54000      7.0352968E-10
   48.60000      6.4711858E-10
   48.66000      5.8832295E-10
   48.72000      5.2936017E-10
   48.78000      4.7125770E-10
   48.84000      4.1400927E-10
   48.90000      3.5686795E-10
   48.96000      2.9857647E-10
   49.02000      2.3753488E-10
   49.08000      1.7208446E-10
   49.14000      1.0107615E-10
   49.20000      2.4654228E-11
   49.26000     -5.5124637E-11
   49.32000     -1.3435277E-10
   49.38000     -2.0832600E-10
   49.44000     -2.7340158E-10
   49.50000     -3.2892841E-10
   49.56000     -3.7828210E-10
   49.62000     -4.2830681E-10
   49.68000     -4.8717624E-10
   49.74000     -5.6148491E-10
   49.80000     -6.5382988E-10
   49.86000     -7.6197221E-10
   49.92000     -8.7992347E-10
   49.98000     -1.0003839E-09
   50.04000     -1.1173488E-09
   50.10000     -1.2277244E-09
   50.16000     -1.3314161E-09
   50.22000     -1.4301687E-09
   50.28000     -1.5259956E-09
   50.34000     -1.6200363E-09
   50.40000     -1.7122068E-09
   50.46000     -1.8014323E-09
   50.52000     -1.8859752E-09
   50.58000     -1.9635191E-09
   50.64000     -2.0310904E-09
   50.70000     -2.0851854E-09
   50.76000     -2.1223927E-09
   50.82000     -2.1403779E-09
   50.88000     -2.1386688E-09
   50.94000     -2.1186304E-09
   51.00000     -2.0824278E-09
   51.06000     -2.0314432E-09
   51.12000     -1.9650230E-09
   51.18000     -1.8803039E-09
   51.24000     -1.7732168E-09
   51.30000     -1.6400239E-09
   51.36000     -1.4784350E-09
   51.42000     -1.2876573E-09
   51.48000     -1.0674994E-09
   51.54000     -8.1729440E-10
   51.60000     -5.3549354E-10
   51.66000     -2.2026320E-10
   51.72000      1.2936416E-10
   51.78000      5.1266885E-10
   51.84000      9.2744273E-10
   51.90000      1.3711714E-09
   51.96000      1.8424254E-09
   52.02000      2.3414664E-09
   52.08000      2.8695082E-09
   52.14000      3.4269230E-09
   52.20000      4.0113513E-09
   52.26000      4.6167745E-09
   52.32000      5.2340874E-09
   52.38000      5.8529146E-09
   52.44000      6.4637966E-09
   52.50000      7.0597510E-09
   52.56000      7.6365483E-09
   52.62000      8.1915905E-09
   52.68000      8.7217602E-09
   52.74000      9.2209200E-09
   52.80000      9.6778248E-09
   52.86000      1.0075198E-08
   52.92000      1.0390377E-08
   52.98000      1.0597556E-08
   53.04000      1.0670994E-08
   53.10000      1.0588095E-08
   53.16000      1.0331211E-08
   53.22000      9.8875050E-09
   53.28000      9.2469712E-09
   53.34000      8.3995815E-09
   53.40000      7.3327757E-09
   53.46000      6.0301870E-09
   53.52000      4.4719100E-09
   53.58000      2.6358262E-09
   53.64000      4.9936349E-10
   53.70000     -1.9587150E-09
   53.76000     -4.7566360E-09
   53.82000     -7.9081115E-09
   53.88000     -1.1421211E-08
   53.94000     -1.5298129E-08
   54.00000     -1.9536088E-08
   54.06000     -2.4129108E-08
   54.12000     -2.9069716E-08
   54.18000     -3.4349458E-08
   54.24000     -3.9957520E-08
   54.30000     -4.5878007E-08
   54.36000     -5.2087376E-08
   54.42000     -5.8553653E-08
   54.48000     -6.5238012E-08
   54.54000     -7.2097869E-08
   54.60000     -7.9089745E-08
   54.66000     -8.6170267E-08
   54.72000     -9.3294652E-08
   54.78000     -1.0041372E-07
   54.84000     -1.0747127E-07
   54.90000     -1.1440314E-07
   54.96000     -1.2113823E-07
   55.02000     -1.2760080E-07
   55.08000     -1.3371238E-07
   55.14000     -1.3939295E-07
   55.20000     -1.4456144E-07
   55.26000     -1.4913645E-07
   55.32000     -1.5303762E-07
   55.38000     -1.5618747E-07
   55.44000     -1.5851298E-07
   55.50000     -1.5994596E-07
   55.56000     -1.6042208E-07