 -0.750000000       0.00000000    
 -0.689999998       0.00000000    
 -0.629999995       0.00000000    
 -0.569999993       0.00000000    
 -0.509999990       0.00000000    
 -0.449999988       0.00000000    
 -0.389999986       0.00000000    
 -0.330000013       0.00000000    
 -0.270000011      -3.88290203E-27
 -0.209999993      -3.05417114E-26
 -0.150000006      -1.02310859E-25
  -9.00000036E-02  -1.85464490E-25
  -2.99999993E-02  -3.65261113E-25
   2.99999993E-02  -2.03606439E-24
   9.00000036E-02  -9.90059879E-24
  0.150000006      -2.96085025E-23
  0.209999993      -4.94527088E-23
  0.270000011      -1.37219022E-24
  0.330000013       2.63585262E-22
  0.389999986       8.86541121E-22
  0.449999988       1.69156547E-21
  0.509999990       1.72232776E-21
  0.569999993      -9.21540292E-22
  0.629999995      -8.15537238E-21
  0.689999998      -1.93745264E-20
  0.750000000      -2.81569049E-20
  0.810000002      -2.10675180E-20
  0.870000005       1.75827272E-20
  0.930000007       9.33925556E-20
  0.990000010       1.86247379E-19
   1.04999995       2.42247416E-19
   1.11000001       1.85075445E-19
   1.16999996      -5.00345300E-20
   1.23000002      -4.71780394E-19
   1.28999996      -9.99640739E-19
   1.35000002      -1.45685790E-18
   1.40999997      -1.58335873E-18
   1.47000003      -1.05206631E-18
   1.52999997       4.98639569E-19
   1.59000003       3.33885912E-18
   1.64999998       7.31649689E-18
   1.71000004       1.13133749E-17
   1.76999998       1.27656244E-17
   1.83000004       7.86856054E-18
   1.88999999      -6.84302987E-18
   1.95000005      -3.14115716E-17
   2.00999999      -5.89935684E-17
   2.06999993      -7.45181868E-17
   2.13000011      -5.83518350E-17
   2.19000006       3.84478470E-18
   2.25000000       1.07741433E-16
   2.30999994       2.20518000E-16
   2.36999989       2.83572602E-16
   2.43000007       2.33284150E-16
   2.49000001       3.61778757E-17
   2.54999995      -2.76478383E-16
   2.60999990      -5.96308177E-16
   2.67000008      -7.64888380E-16
   2.73000002      -6.40204972E-16
   2.78999996      -1.78699719E-16
   2.84999990       5.08514959E-16
   2.91000009       1.16524480E-15
   2.97000003       1.48010209E-15
   3.02999997       1.23005034E-15
   3.08999991       4.14120655E-16
   3.15000010      -6.96527739E-16
   3.21000004      -1.63800004E-15
   3.26999998      -1.94928094E-15
   3.32999992      -1.40665946E-15
   3.39000010      -1.83355687E-16
   3.45000005       1.16357011E-15
   3.50999999       1.90824601E-15
   3.56999993       1.50554262E-15
   3.63000011      -7.43491640E-17
   3.69000006      -2.20082919E-15
   3.75000000      -3.74627130E-15
   3.80999994      -3.55003430E-15
   3.86999989      -1.02174927E-15
   3.93000007       3.38894007E-15
   3.99000001       8.13093353E-15
   4.05000019       1.10332157E-14
   4.11000013       1.02141543E-14
   4.17000008       5.04665279E-15
   4.23000002      -3.31445813E-15
   4.28999996      -1.22122305E-14
   4.34999990      -1.85733048E-14
   4.40999985      -2.03308914E-14
   4.46999979      -1.74118583E-14
   4.53000021      -1.16123575E-14
   4.59000015      -5.24401613E-15
   4.65000010       7.72823120E-16
   4.71000004       8.10944431E-15
   4.76999998       2.03450639E-14
   4.82999992       4.01296224E-14
   4.88999987       6.53340568E-14
   4.94999981       8.64929534E-14
   5.01000023       8.79397534E-14
   5.07000017       5.36585885E-14
   5.13000011      -2.35921901E-14
   5.19000006      -1.33760285E-13
   5.25000000      -2.46448939E-13
   5.30999994      -3.16826914E-13
   5.36999989      -3.00423423E-13
   5.42999983      -1.72353085E-13
   5.48999977       5.66217266E-14
   5.55000019       3.34926965E-13
   5.61000013       5.80272267E-13
   5.67000008       7.03573376E-13
   5.73000002       6.39394516E-13
   5.78999996       3.72186196E-13
   5.84999990      -5.17552039E-14
   5.90999985      -5.32045491E-13
   5.96999979      -9.40245061E-13
   6.03000021      -1.15623364E-12
   6.09000015      -1.10335937E-12
   6.15000010      -7.71304515E-13
   6.21000004      -2.19957136E-13
   6.26999998       4.35945008E-13
   6.32999992       1.05549055E-12
   6.38999987       1.50409795E-12
   6.44999981       1.68055587E-12
   6.51000023       1.53297644E-12
   6.57000017       1.06337129E-12
   6.63000011       3.24945339E-13
   6.69000006      -5.82660981E-13
   6.75000000      -1.51782211E-12
   6.80999994      -2.30408921E-12
   6.86999989      -2.74753831E-12
   6.92999983      -2.67154267E-12
   6.98999977      -1.96928433E-12
   7.05000019      -6.62397491E-13
   7.11000013       1.05734302E-12
   7.17000008       2.83025318E-12
   7.23000002       4.19282838E-12
   7.28999996       4.69992188E-12
   7.34999990       4.07400849E-12
   7.40999985       2.32979022E-12
   7.46999979      -1.80058252E-13
   7.53000021      -2.83107999E-12
   7.59000015      -4.89845881E-12
   7.65000010      -5.78345054E-12
   7.71000004      -5.21614262E-12
   7.76999998      -3.35712990E-12
   7.82999992      -7.54210008E-13
   7.88999987       1.83556859E-12
   7.94999981       3.69531836E-12
   8.01000023       4.37722124E-12
   8.06999969       3.82754939E-12
   8.13000011       2.36726177E-12
   8.18999958       5.46480721E-13
   8.25000000      -1.05996397E-12
   8.31000042      -2.03092187E-12
   8.36999989      -2.18658056E-12
   8.43000031      -1.56829367E-12
   8.48999977      -3.45017553E-13
   8.55000019       1.28859846E-12
   8.60999966       3.16167470E-12
   8.67000008       5.09945385E-12
   8.72999954       6.84277938E-12
   8.78999996       7.97542934E-12
   8.85000038       7.92456812E-12
   8.90999985       6.06878653E-12
   8.97000027       1.93536246E-12
   9.02999973      -4.58128674E-12
   9.09000015      -1.30706557E-11
   9.14999962      -2.26006575E-11
   9.21000004      -3.18788537E-11
   9.27000046      -3.95394828E-11
   9.32999992      -4.44647062E-11
   9.39000034      -4.60326638E-11
   9.44999981      -4.42113915E-11
   9.51000023      -3.94761758E-11
   9.56999969      -3.25959364E-11
   9.63000011      -2.43839775E-11
   9.68999958      -1.55190808E-11
   9.75000000      -6.50880738E-12
   9.81000042       2.20023652E-12
   9.86999989       1.00341228E-11
   9.93000031       1.61421571E-11
   9.98999977       1.94017840E-11
   10.0500002       1.86365819E-11
   10.1099997       1.30120732E-11
   10.1700001       2.47973994E-12
   10.2299995      -1.19130626E-11
   10.2900000      -2.80108870E-11
   10.3500004      -4.29076358E-11
   10.4099998      -5.36110080E-11
   10.4700003      -5.78249844E-11
   10.5299997      -5.45973128E-11
   10.5900002      -4.46066344E-11
   10.6499996      -2.99788146E-11
   10.7100000      -1.36813633E-11
   10.7700005       1.31277498E-12
   10.8299999       1.28297633E-11
   10.8900003       2.00318217E-11
   10.9499998       2.35588164E-11
   11.0100002       2.52894997E-11
   11.0699997       2.78548001E-11
   11.1300001       3.40835381E-11
   11.1899996       4.65277816E-11
   11.2500000       6.71278519E-11
   11.3100004       9.69859124E-11
   11.3699999       1.36172532E-10
   11.4300003       1.83516133E-10
   11.4899998       2.36406700E-10
   11.5500002       2.90734214E-10
   11.6099997       3.41118994E-10
   11.6700001       3.81536996E-10
   11.7299995       4.06303435E-10
   11.7900000       4.11205320E-10
   11.8500004       3.94449917E-10
   11.9099998       3.57091662E-10
   11.9700003       3.02739916E-10
   12.0299997       2.36591108E-10
   12.0900002       1.64078778E-10
   12.1499996       8.95838057E-11
   12.2100000       1.56275722E-11
   12.2700005      -5.72163150E-11
   12.3299999      -1.29734432E-10
   12.3900003      -2.03107184E-10
   12.4499998      -2.77983692E-10
   12.5100002      -3.53966023E-10
   12.5699997      -4.29671104E-10
   12.6300001      -5.03281972E-10
   12.6899996      -5.73296022E-10
   12.7500000      -6.39105768E-10
   12.8100004      -7.01127212E-10
   12.8699999      -7.60389196E-10
   12.9300003      -8.17723167E-10
   12.9899998      -8.72868500E-10
   13.0500002      -9.23867538E-10
   13.1099997      -9.67033786E-10
   13.1700001      -9.97590011E-10
   13.2299995      -1.01082553E-09
   13.2900000      -1.00342556E-09
   13.3500004      -9.74540448E-10
   13.4099998      -9.26229871E-10
   13.4700003      -8.63125738E-10
   13.5299997      -7.91423593E-10
   13.5900002      -7.17547188E-10
   13.6499996      -6.46932452E-10
   13.7100000      -5.83305904E-10
   13.7700005      -5.28622479E-10
   13.8299999      -4.83562634E-10
   13.8900003      -4.48284077E-10
   13.9499998      -4.23061475E-10
   14.0100002      -4.08548667E-10
   14.0699997      -4.05605133E-10
   14.1300001      -4.14847601E-10
   14.1899996      -4.36214342E-10
   14.2500000      -4.68811434E-10
   14.3100004      -5.11158338E-10
   14.3699999      -5.61736602E-10
   14.4300003      -6.19571838E-10
   14.4899998      -6.84530266E-10
   14.5500002      -7.57121865E-10
   14.6099997      -8.37825809E-10
   14.6700001      -9.26200394E-10
   14.7299995      -1.02018216E-09
   14.7900000      -1.11594300E-09
   14.8500004      -1.20845145E-09
   14.9099998      -1.29256894E-09
   14.9700003      -1.36424860E-09
   15.0299997      -1.42133461E-09
   15.0900002      -1.46362600E-09
   15.1499996      -1.49221313E-09
   15.2100000      -1.50844104E-09
   15.2700005      -1.51303470E-09
   15.3299999      -1.50582247E-09
   15.3900003      -1.48617707E-09
   15.4499998      -1.45390922E-09
   15.5100002      -1.41010703E-09
   15.5699997      -1.35744060E-09
   15.6300001      -1.29972444E-09
   15.6899996      -1.24091437E-09
   15.7500000      -1.18397914E-09
   15.8100004      -1.13014398E-09
   15.8699999      -1.07879627E-09
   15.9300003      -1.02803954E-09
   15.9899998      -9.75613257E-10
   16.0499992      -9.19804788E-10
   16.1100006      -8.60057359E-10
   16.1700001      -7.97157007E-10
   16.2299995      -7.33053229E-10
   16.2900009      -6.70451139E-10
   16.3500004      -6.12323525E-10
   16.4099998      -5.61449831E-10
   16.4699993      -5.20057164E-10
   16.5300007      -4.89611685E-10
   16.5900002      -4.70779193E-10
   16.6499996      -4.63522887E-10
   16.7099991      -4.67249628E-10
   16.7700005      -4.80893936E-10
   16.8299999      -5.02873188E-10
   16.8899994      -5.30945954E-10
   16.9500008      -5.62107860E-10
   17.0100002      -5.92687732E-10
   17.0699997      -6.18737006E-10
   17.1299992      -6.36661224E-10
   17.1900005      -6.43908649E-10
   17.2500000      -6.39483411E-10
   17.3099995      -6.24113150E-10
   17.3700008      -6.00031469E-10
   17.4300003      -5.70456904E-10
   17.4899998      -5.38906308E-10
   17.5499992      -5.08477982E-10
   17.6100006      -4.81214735E-10
   17.6700001      -4.57657884E-10
   17.7299995      -4.36720937E-10
   17.7900009      -4.15997903E-10
   17.8500004      -3.92523597E-10
   17.9099998      -3.63825442E-10
   17.9699993      -3.28928468E-10
   18.0300007      -2.88908314E-10
   18.0900002      -2.46707460E-10
   18.1499996      -2.06209591E-10
   18.2099991      -1.70880352E-10
   18.2700005      -1.42475962E-10
   18.3299999      -1.20301283E-10
   18.3899994      -1.01283940E-10
   18.4500008      -8.08370523E-11
   18.5100002      -5.42349672E-11
   18.5699997      -1.81028508E-11
   18.6299992       2.83850582E-11
   18.6900005       8.29342706E-11
   18.7500000       1.40401496E-10
   18.8099995       1.93941460E-10
   18.8700008       2.36802772E-10
   18.9300003       2.64256561E-10
   18.9899998       2.74951367E-10
   19.0499992       2.71055040E-10
   19.1100006       2.56945271E-10
   19.1700001       2.36833858E-10
   19.2299995       2.12281082E-10
   19.2900009       1.80756535E-10
   19.3500004       1.36056680E-10
   19.4099998       7.06099623E-11
   19.4699993      -2.11640549E-11
   19.5300007      -1.39792775E-10
   19.5900002      -2.79248680E-10
   19.6499996      -4.27625546E-10
   19.7099991      -5.69730985E-10
   19.7700005      -6.90638213E-10
   19.8299999      -7.79006359E-10
   19.8899994      -8.29225966E-10
   19.9500008      -8.41966219E-10
   20.0100002      -8.23220769E-10
   20.0699997      -7.82290122E-10
   20.1299992      -7.29279859E-10
   20.1900005      -6.72714329E-10
   20.2500000      -6.17825457E-10
   20.3099995      -5.65958502E-10
   20.3700008      -5.15282483E-10
   20.4300003      -4.62587441E-10
   20.4899998      -4.05517508E-10
   20.5499992      -3.44337892E-10
   20.6100006      -2.82461610E-10
   20.6700001      -2.25470836E-10
   20.7299995      -1.79050816E-10
   20.7900009      -1.46767834E-10
   20.8500004      -1.28683661E-10
   20.9099998      -1.21367541E-10
   20.9699993      -1.19168703E-10
   21.0300007      -1.16022414E-10
   21.0900002      -1.06888609E-10
   21.1499996      -8.82258364E-11
   21.2099991      -5.74911230E-11
   21.2700005      -1.21874802E-11
   21.3299999       5.08176730E-11
   21.3899994       1.35182213E-10
   21.4500008       2.44125775E-10
   21.5100002       3.79009518E-10
   21.5699997       5.38084799E-10
   21.6299992       7.15968174E-10
   21.6900005       9.04101294E-10
   21.7500000       1.09209319E-09
   21.8099995       1.26955824E-09
   21.8700008       1.42794787E-09
   21.9300003       1.56191038E-09
   21.9899998       1.66986203E-09
   22.0499992       1.75366321E-09
   22.1100006       1.81751081E-09
   22.1700001       1.86635152E-09
   22.2299995       1.90426008E-09
   22.2900009       1.93326266E-09
   22.3500004       1.95299621E-09
   22.4099998       1.96135863E-09
   22.4699993       1.95598515E-09
   22.5300007       1.93605620E-09
   22.5900002       1.90373273E-09
   22.6499996       1.86454430E-09
   22.7099991       1.82636917E-09
   22.7700005       1.79718962E-09
   22.8299999       1.78235160E-09
   22.8899994       1.78240089E-09
   22.9500008       1.79246784E-09
   23.0100002       1.80362736E-09
   23.0699997       1.80585213E-09
   23.1299992       1.79147241E-09
   23.1900005       1.75778625E-09
   23.2500000       1.70779935E-09
   23.3099995       1.64885960E-09
   23.3700008       1.58982494E-09
   23.4300003       1.53795687E-09
   23.4899998       1.49672674E-09
   23.5499992       1.46521517E-09
   23.6100006       1.43908740E-09
   23.6700001       1.41256873E-09
   23.7299995       1.38065082E-09
   23.7900009       1.34088951E-09
   23.8500004       1.29442346E-09
   23.9099998       1.24606869E-09
   23.9699993       1.20346244E-09
   24.0300007       1.17533094E-09
   24.0900002       1.16915666E-09
   24.1499996       1.18881438E-09
   24.2099991       1.23298283E-09
   24.2700005       1.29508926E-09
   24.3299999       1.36508926E-09
   24.3899994       1.43264767E-09
   24.4500008       1.49060986E-09
   24.5100002       1.53740487E-09
   24.5699997       1.57739477E-09
   24.6299992       1.61903435E-09
   24.6900005       1.67162828E-09
   24.7500000       1.74201198E-09
   24.8099995       1.83240900E-09
   24.8700008       1.94009653E-09
   24.9300003       2.05870654E-09
   24.9899998       2.18039742E-09
   25.0499992       2.29798003E-09
   25.1100006       2.40636000E-09
   25.1700001       2.50310461E-09
   25.2299995       2.58831689E-09
   25.2900009       2.66412492E-09
   25.3500004       2.73401013E-09
   25.4099998       2.80203594E-09
   25.4699993       2.87195956E-09
   25.5300007       2.94626634E-09
   25.5900002       3.02530956E-09
   25.6499996       3.10684967E-09
   25.7099991       3.18627769E-09
   25.7700005       3.25762173E-09
   25.8299999       3.31516170E-09
   25.8899994       3.35519679E-09
   25.9500008       3.37737083E-09
   26.0100002       3.38504846E-09
   26.0699997       3.38452533E-09
   26.1299992       3.38328521E-09
   26.1900005       3.38789552E-09
   26.2500000       3.40227824E-09
   26.3099995       3.42696049E-09
   26.3700008       3.45949047E-09
   26.4300003       3.49573237E-09
   26.4899998       3.53143093E-09
   26.5499992       3.56340357E-09
   26.6100006       3.59000163E-09
   26.6700001       3.61084784E-09
   26.7299995       3.62616692E-09
   26.7900009       3.63606945E-09
   26.8500004       3.64002162E-09
   26.9099998       3.63652686E-09
   26.9699993       3.62298169E-09
   27.0300007       3.59573060E-09
   27.0900002       3.55048257E-09
   27.1499996       3.48324192E-09
   27.2099991       3.39168871E-09
   27.2700005       3.27659011E-09
   27.3299999       3.14255910E-09
   27.3899994       2.99754821E-09
   27.4500008       2.85093615E-09
   27.5100002       2.71072742E-09
   27.5699997       2.58091570E-09
   27.6299992       2.46013632E-09
   27.6900005       2.34224751E-09
   27.7500000       2.21868968E-09
   27.8099995       2.08171391E-09
   27.8700008       1.92724725E-09
   27.9300003       1.75636616E-09
   27.9899998       1.57496638E-09
   28.0499992       1.39189960E-09
   28.1100006       1.21632859E-09
   28.1700001       1.05517250E-09
   28.2299995       9.11333398E-10
   28.2900009       7.83085041E-10
   28.3500004       6.64687694E-10
   28.4099998       5.48045775E-10
   28.4699993       4.25027624E-10
   28.5300007       2.89902269E-10
   28.5900002       1.41262640E-10
   28.6499996      -1.71311680E-11
   28.7099991      -1.76891349E-10
   28.7700005      -3.26813299E-10
   28.8299999      -4.55426447E-10
   28.8899994      -5.53513846E-10
   28.9500008      -6.15876350E-10
   29.0100002      -6.41926512E-10
   29.0699997      -6.35121178E-10
   29.1299992      -6.01591554E-10
   29.1900005      -5.48484425E-10
   29.2500000      -4.82481055E-10
   29.3099995      -4.08793582E-10
   29.3700008      -3.30756561E-10
   29.4300003      -2.49988363E-10
   29.4899998      -1.66995584E-10
   29.5499992      -8.20078588E-11
   29.6100006       4.23296684E-12
   29.6700001       9.00060512E-11
   29.7299995       1.72632672E-10
   29.7900009       2.48945115E-10
   29.8500004       3.15946797E-10
   29.9099998       3.71314562E-10
   29.9699993       4.13499845E-10
   30.0300007       4.41452042E-10
   30.0900002       4.54250582E-10
   30.1499996       4.51015753E-10
   30.2099991       4.31283759E-10
   30.2700005       3.95673494E-10
   30.3299999       3.46376622E-10
   30.3899994       2.86986962E-10
   30.4500008       2.21522037E-10
   30.5100002       1.53001153E-10
   30.5699997       8.23198593E-11
   30.6299992       8.12484195E-12
   30.6900005      -7.20917839E-11
   30.7500000      -1.60152100E-10
   30.8099995      -2.55572757E-10
   30.8700008      -3.55113772E-10
   30.9300003      -4.53873272E-10
   30.9899998      -5.47483725E-10
   31.0499992      -6.34348019E-10
   31.1100006      -7.16789961E-10
   31.1700001      -8.00525424E-10
   31.2299995      -8.92685537E-10
   31.2900009      -9.99295313E-10
   31.3500004      -1.12328236E-09
   31.4099998      -1.26373134E-09
   31.4699993      -1.41645506E-09
   31.5300007      -1.57540947E-09
   31.5900002      -1.73427939E-09
   31.6499996      -1.88773841E-09
   31.7099991      -2.03221684E-09
   31.7700005      -2.16627094E-09
   31.8299999      -2.29068631E-09
   31.8899994      -2.40834419E-09
   31.9500008      -2.52376231E-09
   32.0099983      -2.64225308E-09
   32.0699997      -2.76879919E-09
   32.1300011      -2.90691715E-09
   32.1899986      -3.05785108E-09
   32.2500000      -3.22032823E-09
   32.3100014      -3.39090200E-09
   32.3699989      -3.56472851E-09
   32.4300003      -3.73652886E-09
   32.4900017      -3.90150667E-09
   32.5499992      -4.05604039E-09
   32.6100006      -4.19802459E-09
   32.6699982      -4.32675673E-09
   32.7299995      -4.44238424E-09
   32.7900009      -4.54506610E-09
   32.8499985      -4.63418015E-09
   32.9099998      -4.70795580E-09
   32.9700012      -4.76376627E-09
   33.0299988      -4.79898210E-09
   33.0900002      -4.81199036E-09
   33.1500015      -4.80284834E-09
   33.2099991      -4.77324047E-09
   33.2700005      -4.72577089E-09
   33.3300018      -4.66297978E-09
   33.3899994      -4.58656935E-09
   33.4500008      -4.49711468E-09
   33.5099983      -4.39420900E-09
   33.5699997      -4.27676206E-09
   33.6300011      -4.14320889E-09
   33.6899986      -3.99165012E-09
   33.7500000      -3.82016108E-09
   33.8100014      -3.62749564E-09
   33.8699989      -3.41411233E-09
   33.9300003      -3.18308335E-09
   33.9900017      -2.94030200E-09
   34.0499992      -2.69363998E-09
   34.1100006      -2.45123633E-09
   34.1699982      -2.21959850E-09
   34.2299995      -2.00231409E-09
   34.2900009      -1.79984239E-09
   34.3499985      -1.61026692E-09
   34.4099998      -1.43043344E-09
   34.4700012      -1.25685140E-09
   34.5299988      -1.08609821E-09
   34.5900002      -9.14938125E-10
   34.6500015      -7.40596806E-10
   34.7099991      -5.61449387E-10
   34.7700005      -3.77925913E-10
   34.8300018      -1.93067423E-10
   34.8899994      -1.21765887E-11
   34.9500008       1.58560831E-10
   35.0099983       3.14019311E-10
   35.0699997       4.51805732E-10
   35.1300011       5.72907388E-10
   35.1899986       6.81047829E-10
   35.2500000       7.81076148E-10
   35.3100014       8.77093786E-10
   35.3699989       9.71028258E-10
   35.4300003       1.06207254E-09
   35.4900017       1.14704146E-09
   35.5499992       1.22142618E-09
   35.6100006       1.28080280E-09
   35.6699982       1.32221278E-09
   35.7299995       1.34512046E-09
   35.7900009       1.35159217E-09
   35.8499985       1.34553113E-09
   35.9099998       1.33114930E-09
   35.9700012       1.31126632E-09
   36.0299988       1.28623667E-09
   36.0900002       1.25412569E-09
   36.1500015       1.21218457E-09
   36.2099991       1.15898002E-09
   36.2700005       1.09610487E-09
   36.3300018       1.02852404E-09
   36.3899994       9.63257585E-10
   36.4500008       9.06938302E-10
   36.5099983       8.63348060E-10
   36.5699997       8.32034830E-10
   36.6300011       8.08573375E-10
   36.6899986       7.86268550E-10
   36.7500000       7.58514807E-10
   36.8100014       7.20873194E-10
   36.8699989       6.72183698E-10
   36.9300003       6.14498896E-10
   36.9900017       5.52051238E-10
   37.0499992       4.89713825E-10
   37.1100006       4.31469832E-10
   37.1699982       3.79340337E-10
   37.2299995       3.33066241E-10
   37.2900009       2.90619140E-10
   37.3499985       2.49340854E-10
   37.4099998       2.07266704E-10
   37.4700012       1.64094446E-10
   37.5299988       1.21405663E-10
   37.5900002       8.20912921E-11
   37.6500015       4.93020624E-11
   37.7099991       2.54316516E-11
   37.7700005       1.15374004E-11
   37.8300018       7.29673960E-12
   37.8899994       1.12986261E-11
   37.9500008       2.13765672E-11
   38.0099983       3.48364948E-11
   38.0699997       4.86665326E-11
   38.1300011       5.99231983E-11
   38.1899986       6.63607780E-11
   38.2500000       6.71019906E-11
   38.3100014       6.29635163E-11
   38.3699989       5.61343055E-11
   38.4300003       4.92438729E-11
   38.4900017       4.42349733E-11
   38.5499992       4.16005841E-11
   38.6100006       4.03405538E-11
   38.6699982       3.85662370E-11
   38.7299995       3.43232491E-11
   38.7900009       2.61548734E-11
   38.8499985       1.32043551E-11
   38.9099998      -4.96961196E-12
   38.9700012      -2.85088619E-11
   39.0299988      -5.70960744E-11
   39.0900002      -8.96629923E-11
   39.1500015      -1.24361327E-10
   39.2099991      -1.59104036E-10
   39.2700005      -1.92577440E-10
   39.3300018      -2.25182664E-10
   39.3899994      -2.59240157E-10
   39.4500008      -2.98138930E-10
   39.5099983      -3.44753004E-10
   39.5699997      -3.99962619E-10
   39.6300011      -4.62136135E-10
   39.6899986      -5.27886679E-10
   39.7500000      -5.93633864E-10
   39.8100014      -6.56975307E-10
   39.8699989      -7.16966209E-10
   39.9300003      -7.73092812E-10
   39.9900017      -8.23593138E-10
   40.0499992      -8.64282645E-10
   40.1100006      -8.88844720E-10
   40.1699982      -8.90737872E-10
   40.2299995      -8.65908067E-10
   40.2900009      -8.14936063E-10
   40.3499985      -7.43428985E-10
   40.4099998      -6.60296651E-10
   40.4700012      -5.74588432E-10
   40.5299988      -4.92269003E-10
   40.5900002      -4.14327683E-10
   40.6500015      -3.36968703E-10
   40.7099991      -2.53670168E-10
   40.7700005      -1.58110025E-10
   40.8300018      -4.66932118E-11
   40.8899994       8.02536787E-11
   40.9500008       2.18852908E-10
   41.0099983       3.63148123E-10
   41.0699997       5.06853504E-10
   41.1300011       6.44643394E-10
   41.1899986       7.72662601E-10
   41.2500000       8.88405682E-10
   41.3100014       9.90374560E-10
   41.3699989       1.07786824E-09
   41.4300003       1.15099408E-09
   41.4900017       1.21071853E-09
   41.5499992       1.25870747E-09
   41.6100006       1.29686817E-09
   41.6699982       1.32678213E-09
   41.7299995       1.34937606E-09
   41.7900009       1.36509037E-09
   41.8499985       1.37450085E-09
   41.9099998       1.37901268E-09
   41.9700012       1.38112111E-09
   42.0299988       1.38393363E-09
   42.0900002       1.39006207E-09
   42.1500015       1.40039291E-09
   42.2099991       1.41336631E-09
   42.2700005       1.42516954E-09
   42.3300018       1.43080714E-09
   42.3899994       1.42559242E-09
   42.4500008       1.40646417E-09
   42.5099983       1.37268663E-09
   42.5699997       1.32582290E-09
   42.6300011       1.26917010E-09
   42.6899986       1.20694843E-09
   42.7500000       1.14347110E-09
   42.8100014       1.08239728E-09
   42.8699989       1.02612296E-09
   42.9300003       9.75414527E-10
   42.9900017       9.29453625E-10
   43.0499992       8.86404672E-10
   43.1100006       8.44410764E-10
   43.1699982       8.02652889E-10
   43.2299995       7.61968433E-10
   43.2900009       7.24650173E-10
   43.3499985       6.93417546E-10
   43.4099998       6.69995004E-10
   43.4700012       6.53981591E-10
   43.5299988       6.42594977E-10
   43.5900002       6.31462438E-10
   43.6500015       6.16112439E-10
   43.7099991       5.93485872E-10
   43.7700005       5.62803248E-10
   43.8300018       5.25470389E-10
   43.8899994       4.84179030E-10
   43.9500008       4.41704145E-10
   44.0099983       3.99950184E-10
   44.0699997       3.59570401E-10
   44.1300011       3.20140386E-10
   44.1899986       2.80620444E-10
   44.2500000       2.39811726E-10
   44.3100014       1.96674760E-10
   44.3699989       1.50585266E-10
   44.4300003       1.01682156E-10
   44.4900017       5.13441165E-11
   44.5499992       2.59855332E-12
   44.6100006      -3.99076744E-11
   44.6699982      -7.06858114E-11
   44.7299995      -8.49183571E-11
   44.7900009      -8.02540326E-11
   44.8499985      -5.81271455E-11
   44.9099998      -2.38993911E-11
   44.9700012       1.44341969E-11
   45.0299988       4.85897052E-11
   45.0900002       7.24954194E-11
   45.1500015       8.39598460E-11
   45.2099991       8.48993792E-11
   45.2700005       8.01804526E-11
   45.3300018       7.57155935E-11
   45.3899994       7.66664926E-11
   45.4500008       8.63777314E-11
   45.5099983       1.06177130E-10
   45.5699997       1.35752076E-10
   45.6300011       1.73679654E-10
   45.6899986       2.17864254E-10
   45.7500000       2.65923727E-10
   45.8100014       3.15705906E-10
   45.8699989       3.65992764E-10
   45.9300003       4.17160445E-10
   45.9900017       4.71362893E-10
   46.0499992       5.31903577E-10
   46.1100006       6.01863726E-10
   46.1699982       6.82533530E-10
   46.2299995       7.72427844E-10
   46.2900009       8.67459160E-10
   46.3499985       9.62264490E-10
   46.4099998       1.05205367E-09
   46.4700012       1.13404286E-09
   46.5299988       1.20775534E-09
   46.5900002       1.27409816E-09
   46.6500015       1.33381017E-09
   46.7099991       1.38622258E-09
   46.7700005       1.42907863E-09
   46.8300018       1.45953905E-09
   46.8899994       1.47580637E-09
   46.9500008       1.47843460E-09
   47.0099983       1.47054657E-09
   47.0699997       1.45678314E-09
   47.1300011       1.44150636E-09
   47.1899986       1.42719603E-09
   47.2500000       1.41386736E-09
   47.3100014       1.39978329E-09
   47.3699989       1.38300427E-09
   47.4300003       1.36286515E-09
   47.4900017       1.34050271E-09
   47.5499992       1.31811151E-09
   47.6100006       1.29734490E-09
   47.6699982       1.27781563E-09
   47.7299995       1.25664101E-09
   47.7900009       1.22943578E-09
   47.8499985       1.19233823E-09
   47.9099998       1.14404297E-09
   47.9700012       1.08673981E-09
   48.0299988       1.02539044E-09
   48.0900002       9.65624691E-10
   48.1500015       9.11244302E-10
   48.2099991       8.62513228E-10
   48.2700005       8.16012313E-10
   48.3300018       7.66080976E-10
   48.3899994       7.07178704E-10
   48.4500008       6.36192876E-10
   48.5099983       5.53874335E-10
   48.5699997       4.65024436E-10
   48.6300011       3.77513326E-10
   48.6899986       3.00490549E-10
   48.7500000       2.42251691E-10
   48.8100014       2.08234346E-10
   48.8699989       1.99624428E-10
   48.9300003       2.13016244E-10
   48.9900017       2.41378417E-10
   49.0499992       2.76178108E-10
   49.1100006       3.10017956E-10
   49.1699982       3.38806011E-10
   49.2299995       3.62566893E-10
   49.2900009       3.84556387E-10
   49.3499985       4.09123929E-10
   49.4099998       4.39357134E-10
   49.4700012       4.75596507E-10
   49.5299988       5.15390286E-10
   49.5900002       5.54668367E-10
   49.6500015       5.89323312E-10
   49.7099991       6.16322549E-10
   49.7700005       6.33924746E-10
   49.8300018       6.41210640E-10
   49.8899994       6.37527475E-10
   49.9500008       6.22369434E-10
   50.0099983       5.95774208E-10
   50.0699997       5.58856406E-10
   50.1300011       5.13964260E-10
   50.1899986       4.64208422E-10
   50.2500000       4.12574863E-10
   50.3100014       3.61134261E-10
   50.3699989       3.10789727E-10
   50.4300003       2.61611455E-10
   50.4900017       2.13394066E-10
   50.5499992       1.65948533E-10
   50.6100006       1.18905649E-10