  -2.400000      0.0000000E+00
  -2.340000      0.0000000E+00
  -2.280000      0.0000000E+00
  -2.220000      0.0000000E+00
  -2.160000      0.0000000E+00
  -2.100000      0.0000000E+00
  -2.040000      0.0000000E+00
  -1.980000      0.0000000E+00
  -1.920000      0.0000000E+00
  -1.860000      1.4226734E-27
  -1.800000      1.5382239E-26
  -1.740000      7.2483511E-26
  -1.680000      1.5260152E-25
  -1.620000     -1.8092488E-25
  -1.560000     -2.5221995E-24
  -1.500000     -9.6873863E-24
  -1.440000     -2.1790514E-23
  -1.380000     -2.4388940E-23
  -1.320000      2.7532192E-23
  -1.260000      2.0507617E-22
  -1.200000      5.3378009E-22
  -1.140000      8.2613614E-22
  -1.080000      4.9841272E-22
  -1.020000     -1.3601528E-21
 -0.9600000     -5.2923735E-21
 -0.9000000     -1.0054214E-20
 -0.8400000     -1.1221992E-20
 -0.7800000     -1.6583113E-21
 -0.7200000      2.4123682E-20
 -0.6600000      6.1710498E-20
 -0.6000000      8.9193302E-20
 -0.5400000      6.9232962E-20
 -0.4800000     -3.1011224E-20
 -0.4200000     -2.0446227E-19
 -0.3600000     -3.7391989E-19
 -0.3000000     -4.0141514E-19
 -0.2400000     -1.6179857E-19
 -0.1800000      3.3785047E-19
 -0.1200000      8.7150529E-19
 -5.9999999E-02  1.0483474E-18
  0.0000000E+00  5.6106922E-19
  5.9999999E-02 -4.6864202E-19
  0.1200000     -1.3134771E-18
  0.1800000     -9.3429244E-19
  0.2400000      1.1856893E-18
  0.3000000      4.0667735E-18
  0.3600000      4.9532965E-18
  0.4200000      5.2946239E-19
  0.4800000     -1.0361502E-17
  0.5400000     -2.3833757E-17
  0.6000000     -3.0322033E-17
  0.6600000     -1.8297364E-17
  0.7200000      1.7828500E-17
  0.7800000      6.9282855E-17
  0.8400000      1.1026239E-16
  0.9000000      1.0638071E-16
  0.9600000      3.4070937E-17
   1.020000     -9.7453252E-17
   1.080000     -2.3607756E-16
   1.140000     -3.0115896E-16
   1.200000     -2.2337696E-16
   1.260000      6.2885997E-18
   1.320000      3.0770973E-16
   1.380000      5.2974965E-16
   1.440000      5.2047861E-16
   1.500000      2.2154385E-16
   1.560000     -2.6672133E-16
   1.620000     -7.0100007E-16
   1.680000     -8.0634588E-16
   1.740000     -4.4024569E-16
   1.800000      2.8041230E-16
   1.860000      9.8131954E-16
   1.920000      1.1969687E-15
   1.980000      6.4186156E-16
   2.040000     -5.5475348E-16
   2.100000     -1.8070400E-15
   2.160000     -2.3020632E-15
   2.220000     -1.4340309E-15
   2.280000      7.6280918E-16
   2.340000      3.4383549E-15
   2.400000      5.1752904E-15
   2.460000      4.6261776E-15
   2.520000      1.2775728E-15
   2.580000     -4.0461726E-15
   2.640000     -9.2662669E-15
   2.700000     -1.1800296E-14
   2.760000     -9.7278075E-15
   2.820000     -2.8584114E-15
   2.880000      6.8503040E-15
   2.940000      1.5843645E-14
   3.000000      2.0374224E-14
   3.060000      1.8197624E-14
   3.120000      9.7599897E-15
   3.180000     -1.7925244E-15
   3.240000     -1.1956538E-14
   3.300000     -1.7063330E-14
   3.360000     -1.6274486E-14
   3.420000     -1.2243182E-14
   3.480000     -9.8086085E-15
   3.540000     -1.3058776E-14
   3.600000     -2.2107858E-14
   3.660000     -3.1441151E-14
   3.720000     -3.1276343E-14
   3.780000     -1.2068592E-14
   3.840000      2.9449784E-14
   3.900000      8.5601285E-14
   3.960000      1.3741318E-13
   4.020000      1.5999879E-13
   4.080000      1.3245031E-13
   4.140000      4.8457915E-14
   4.200000     -7.7266962E-14
   4.260000     -2.1054827E-13
   4.320000     -3.0786680E-13
   4.380000     -3.3169943E-13
   4.440000     -2.6495711E-13
   4.500000     -1.1830707E-13
   4.560000      7.2959589E-14
   4.620000      2.6121970E-13
   4.680000      4.0250301E-13
   4.740000      4.6911791E-13
   4.800000      4.5376772E-13
   4.860000      3.6451297E-13
   4.920000      2.1475501E-13
   4.980000      1.4992263E-14
   5.040000     -2.2802585E-13
   5.100000     -5.0350322E-13
   5.160000     -7.8434904E-13
   5.220000     -1.0182938E-12
   5.280000     -1.1299592E-12
   5.340000     -1.0372041E-12
   5.400000     -6.7859011E-13
   5.460000     -4.3028450E-14
   5.520000      8.0974230E-13
   5.580000      1.7471016E-12
   5.640000      2.5833441E-12
   5.700000      3.1174870E-12
   5.760000      3.1792357E-12
   5.820000      2.6705760E-12
   5.880000      1.5917796E-12
   5.940000      4.5312017E-14
   6.000000     -1.7825167E-12
   6.060000     -3.6561956E-12
   6.120000     -5.3318652E-12
   6.180000     -6.5932125E-12
   6.240000     -7.2734670E-12
   6.300000     -7.2594097E-12
   6.360000     -6.4795036E-12
   6.420000     -4.8839847E-12
   6.480000     -2.4283739E-12
   6.540000      9.2770854E-13
   6.600000      5.1975546E-12
   6.660000      1.0317183E-11
   6.720000      1.6072392E-11
   6.780000      2.2015155E-11
   6.840000      2.7388043E-11
   6.900000      3.1079354E-11
   6.960000      3.1631781E-11
   7.020000      2.7322710E-11
   7.080000      1.6324076E-11
   7.140000     -3.0645417E-12
   7.200000     -3.2131301E-11
   7.260000     -7.1450415E-11
   7.320000     -1.2060387E-10
   7.380000     -1.7796507E-10
   7.440000     -2.4057389E-10
   7.500000     -3.0412228E-10
   7.560000     -3.6306075E-10
   7.620000     -4.1083384E-10
   7.680000     -4.4025286E-10
   7.740000     -4.4401402E-10
   7.800000     -4.1535797E-10
   7.860000     -3.4884379E-10
   7.920000     -2.4117267E-10
   7.980000     -9.1958705E-11
   8.040000      9.5683399E-11
   8.100000      3.1486397E-10
   8.160000      5.5505700E-10
   8.220000      8.0269008E-10
   8.280000      1.0421468E-09
   8.340000      1.2570698E-09
   8.400000      1.4318016E-09
   8.460000      1.5527813E-09
   8.520000      1.6097297E-09
   8.580000      1.5964954E-09
   8.640000      1.5114937E-09
   8.700000      1.3577166E-09
   8.760000      1.1423471E-09
   8.820000      8.7604324E-10
   8.880000      5.7198701E-10
   8.940000      2.4480165E-10
   9.000000     -9.0553065E-11
   9.060000     -4.1981460E-10
   9.120000     -7.3031170E-10
   9.180000     -1.0116817E-09
   9.240000     -1.2564001E-09
   9.300000     -1.4601217E-09
   9.360000     -1.6218269E-09
   9.420000     -1.7437392E-09
   9.480000     -1.8309730E-09
   9.540000     -1.8908837E-09
   9.600000     -1.9321469E-09
   9.660000     -1.9636881E-09
   9.720000     -1.9936617E-09
   9.780000     -2.0287285E-09
   9.840000     -2.0738296E-09
   9.900000     -2.1325191E-09
   9.960000     -2.2077209E-09
   10.02000     -2.3026006E-09
   10.08000     -2.4211533E-09
   10.14000     -2.5681797E-09
   10.20000     -2.7485278E-09
   10.26000     -2.9657659E-09
   10.32000     -3.2206946E-09
   10.38000     -3.5102157E-09
   10.44000     -3.8269814E-09
   10.50000     -4.1599804E-09
   10.56000     -4.4959005E-09
   10.62000     -4.8208428E-09
   10.68000     -5.1218585E-09
   10.74000     -5.3879106E-09
   10.80000     -5.6101102E-09
   10.86000     -5.7813772E-09
   10.92000     -5.8958851E-09
   10.98000     -5.9486811E-09
   11.04000     -5.9357603E-09
   11.10000     -5.8546332E-09
   11.16000     -5.7051941E-09
   11.22000     -5.4905542E-09
   11.28000     -5.2174767E-09
   11.34000     -4.8961653E-09
   11.40000     -4.5393462E-09
   11.46000     -4.1607797E-09
   11.52000     -3.7735330E-09
   11.58000     -3.3884087E-09
   11.64000     -3.0129201E-09
   11.70000     -2.6510658E-09
   11.76000     -2.3039428E-09
   11.82000     -1.9710058E-09
   11.88000     -1.6515815E-09
   11.94000     -1.3461932E-09
   12.00000     -1.0573202E-09
   12.06000     -7.8942514E-10
   12.12000     -5.4833088E-10
   12.18000     -3.4023029E-10
   12.24000     -1.7069197E-10
   12.30000     -4.3965501E-11
   12.36000      3.7272220E-11
   12.42000      7.1773337E-11
   12.48000      5.9359906E-11
   12.54000      5.8031797E-13
   12.60000     -1.0342985E-10
   12.66000     -2.5079508E-10
   12.72000     -4.3849274E-10
   12.78000     -6.6184147E-10
   12.84000     -9.1410812E-10
   12.90000     -1.1864618E-09
   12.96000     -1.4684395E-09
   13.02000     -1.7489395E-09
   13.08000     -2.0175819E-09
   13.14000     -2.2661122E-09
   13.20000     -2.4894664E-09
   13.26000     -2.6861819E-09
   13.32000     -2.8580178E-09
   13.38000     -3.0088838E-09
   13.44000     -3.1433514E-09
   13.50000     -3.2651069E-09
   13.56000     -3.3756580E-09
   13.62000     -3.4735088E-09
   13.68000     -3.5539034E-09
   13.74000     -3.6091463E-09
   13.80000     -3.6294401E-09
   13.86000     -3.6040986E-09
   13.92000     -3.5229017E-09
   13.98000     -3.3772891E-09
   14.04000     -3.1611238E-09
   14.10000     -2.8709148E-09
   14.16000     -2.5056366E-09
   14.22000     -2.0664928E-09
   14.28000     -1.5570116E-09
   14.34000     -9.8364161E-10
   14.40000     -3.5664749E-10
   14.46000      3.0924066E-10
   14.52000      9.9505348E-10
   14.58000      1.6790332E-09
   14.64000      2.3390936E-09
   14.70000      2.9555196E-09
   14.76000      3.5128773E-09
   14.82000      4.0003352E-09
   14.88000      4.4102553E-09
   14.94000      4.7357038E-09
   15.00000      4.9680731E-09
   15.06000      5.0960192E-09
   15.12000      5.1064060E-09
   15.18000      4.9870885E-09
   15.24000      4.7305924E-09
   15.30000      4.3373527E-09
   15.36000      3.8173642E-09
   15.42000      3.1896921E-09
   15.48000      2.4801210E-09
   15.54000      1.7178211E-09
   15.60000      9.3215580E-10
   15.66000      1.5051677E-10
   15.72000     -6.0246880E-10
   15.78000     -1.3046318E-09
   15.84000     -1.9355402E-09
   15.90000     -2.4761282E-09
   15.96000     -2.9091689E-09
   16.02000     -3.2206127E-09
   16.08000     -3.4013565E-09
   16.14000     -3.4487506E-09
   16.20000     -3.3671832E-09
   16.26000     -3.1673790E-09
   16.32000     -2.8644782E-09
   16.38000     -2.4753808E-09
   16.44000     -2.0161062E-09
   16.50000     -1.4999549E-09
   16.56000     -9.3704766E-10
   16.62000     -3.3541112E-10
   16.68000      2.9676070E-10
   16.74000      9.4851804E-10
   16.80000      1.6043528E-09
   16.86000      2.2441569E-09
   16.92000      2.8453422E-09
   16.98000      3.3866678E-09
   17.04000      3.8525001E-09
   17.10000      4.2358725E-09
   17.16000      4.5390189E-09
   17.22000      4.7710209E-09
   17.28000      4.9434239E-09
   17.34000      5.0655600E-09
   17.40000      5.1414863E-09
   17.46000      5.1697153E-09
   17.52000      5.1457034E-09
   17.58000      5.0658842E-09
   17.64000      4.9314717E-09
   17.70000      4.7505080E-09
   17.76000      4.5374868E-09
   17.82000      4.3108743E-09
   17.88000      4.0895420E-09
   17.94000      3.8892782E-09
   18.00000      3.7202705E-09
   18.06000      3.5860186E-09
   18.12000      3.4837502E-09
   18.18000      3.4061720E-09
   18.24000      3.3441629E-09
   18.30000      3.2897864E-09
   18.36000      3.2387741E-09
   18.42000      3.1916172E-09
   18.48000      3.1527476E-09
   18.54000      3.1280025E-09
   18.60000      3.1213327E-09
   18.66000      3.1321770E-09
   18.72000      3.1547498E-09
   18.78000      3.1797074E-09
   18.84000      3.1976028E-09
   18.90000      3.2027485E-09
   18.96000      3.1959302E-09
   19.02000      3.1849507E-09
   19.08000      3.1828982E-09
   19.14000      3.2049121E-09
   19.20000      3.2646641E-09
   19.26000      3.3716998E-09
   19.32000      3.5303247E-09
   19.38000      3.7401215E-09
   19.44000      3.9976897E-09
   19.50000      4.2988799E-09
   19.56000      4.6407096E-09
   19.62000      5.0222453E-09
   19.68000      5.4440892E-09
   19.74000      5.9065921E-09
   19.80000      6.4074759E-09
   19.86000      6.9398793E-09
   19.92000      7.4917725E-09
   19.98000      8.0471407E-09
   20.04000      8.5885468E-09
   20.10000      9.1000318E-09
   20.16000      9.5691615E-09
   20.22000      9.9875104E-09
   20.28000      1.0349683E-08
   20.34000      1.0651726E-08
   20.40000      1.0889957E-08
   20.46000      1.1060872E-08
   20.52000      1.1161996E-08
   20.58000      1.1192980E-08
   20.64000      1.1156055E-08
   20.70000      1.1055407E-08
   20.76000      1.0895676E-08
   20.82000      1.0680296E-08
   20.88000      1.0410442E-08
   20.94000      1.0085033E-08
   21.00000      9.7016795E-09
   21.06000      9.2581445E-09
   21.12000      8.7538101E-09
   21.18000      8.1907539E-09
   21.24000      7.5742363E-09
   21.30000      6.9124475E-09
   21.36000      6.2153971E-09
   21.42000      5.4929763E-09
   21.48000      4.7525548E-09
   21.54000      3.9969179E-09
   21.60000      3.2235119E-09
   21.66000      2.4256912E-09
   21.72000      1.5958470E-09
   21.78000      7.2935435E-10
   21.84000     -1.7229583E-10
   21.90000     -1.1005733E-09
   21.96000     -2.0416002E-09
   22.02000     -2.9795943E-09
   22.08000     -3.9003742E-09
   22.14000     -4.7933337E-09
   22.20000     -5.6512710E-09
   22.26000     -6.4687335E-09
   22.32000     -7.2403625E-09
   22.38000     -7.9605540E-09
   22.44000     -8.6247622E-09
   22.50000     -9.2315524E-09
   22.56000     -9.7838813E-09
   22.62000     -1.0288429E-08
   22.68000     -1.0752989E-08
   22.74000     -1.1183147E-08
   22.80000     -1.1580024E-08
   22.86000     -1.1940362E-08
   22.92000     -1.2258905E-08
   22.98000     -1.2531769E-08
   23.04000     -1.2758933E-08
   23.10000     -1.2944511E-08
   23.16000     -1.3094729E-08
   23.22000     -1.3214791E-08
   23.28000     -1.3306355E-08
   23.34000     -1.3366917E-08
   23.40000     -1.3391330E-08
   23.46000     -1.3374561E-08
   23.52000     -1.3314306E-08
   23.58000     -1.3212300E-08
   23.64000     -1.3073950E-08
   23.70000     -1.2906702E-08
   23.76000     -1.2717963E-08
   23.82000     -1.2513324E-08
   23.88000     -1.2295466E-08
   23.94000     -1.2063774E-08
   24.00000     -1.1814518E-08
   24.06000     -1.1541501E-08
   24.12000     -1.1237127E-08
   24.18000     -1.0893780E-08
   24.24000     -1.0505213E-08
   24.30000     -1.0067524E-08
   24.36000     -9.5793125E-09
   24.42000     -9.0408916E-09
   24.48000     -8.4528766E-09
   24.54000     -7.8147835E-09
   24.60000     -7.1243393E-09
   24.66000     -6.3779564E-09
   24.72000     -5.5723142E-09
   24.78000     -4.7065396E-09
   24.84000     -3.7841863E-09
   24.90000     -2.8142704E-09
   24.96000     -1.8109536E-09
   25.02000     -7.9199369E-10
   25.08000      2.2344819E-10
   25.14000      1.2168077E-09
   25.20000      2.1712043E-09
   25.26000      3.0713534E-09
   25.32000      3.9026320E-09
   25.38000      4.6500914E-09
   25.44000      5.2982498E-09
   25.50000      5.8320668E-09
   25.56000      6.2388268E-09
   25.62000      6.5101005E-09
   25.68000      6.6428725E-09
   25.74000      6.6394308E-09
   25.80000      6.5063519E-09
   25.86000      6.2534942E-09
   25.92000      5.8938370E-09
   25.98000      5.4443383E-09
   26.04000      4.9270867E-09
   26.10000      4.3695225E-09
   26.16000      3.8027652E-09
   26.22000      3.2580352E-09
   26.28000      2.7622262E-09
   26.34000      2.3342384E-09
   26.40000      1.9833102E-09
   26.46000      1.7095896E-09
   26.52000      1.5060714E-09
   26.58000      1.3605743E-09
   26.64000      1.2567863E-09
   26.70000      1.1743466E-09
   26.76000      1.0887727E-09
   26.82000      9.7226605E-10
   26.88000      7.9593349E-10
   26.94000      5.3312466E-10
   27.00000      1.6294448E-10
   27.06000     -3.2707559E-10
   27.12000     -9.3971764E-10
   27.18000     -1.6682116E-09
   27.24000     -2.4973739E-09
   27.30000     -3.4053336E-09
   27.36000     -4.3655648E-09
   27.42000     -5.3490208E-09
   27.48000     -6.3260548E-09
   27.54000     -7.2677118E-09
   27.60000     -8.1460962E-09
   27.66000     -8.9339895E-09
   27.72000     -9.6044248E-09
   27.78000     -1.0131163E-08
   27.84000     -1.0490610E-08
   27.90000     -1.0664868E-08
   27.96000     -1.0644733E-08
   28.02000     -1.0431232E-08
   28.08000     -1.0034883E-08
   28.14000     -9.4729868E-09
   28.20000     -8.7662437E-09
   28.26000     -7.9361682E-09
   28.32000     -7.0041177E-09
   28.38000     -5.9916410E-09
   28.44000     -4.9210969E-09
   28.50000     -3.8155128E-09
   28.56000     -2.6974096E-09
   28.62000     -1.5871596E-09
   28.68000     -5.0179516E-10
   28.74000      5.4521182E-10
   28.80000      1.5434666E-09
   28.86000      2.4852704E-09
   28.92000      3.3659819E-09
   28.98000      4.1850075E-09
   29.04000      4.9465312E-09
   29.10000      5.6589409E-09
   29.16000      6.3325540E-09
   29.22000      6.9763453E-09
   29.28000      7.5951361E-09
   29.34000      8.1886000E-09
   29.40000      8.7524885E-09
   29.46000      9.2812806E-09
   29.52000      9.7707717E-09
   29.58000      1.0219281E-08
   29.64000      1.0627152E-08
   29.70000      1.0995125E-08
   29.76000      1.1322681E-08
   29.82000      1.1607173E-08
   29.88000      1.1843914E-08
   29.94000      1.2026870E-08
   30.00000      1.2149552E-08
   30.06000      1.2205956E-08
   30.12000      1.2191656E-08
   30.18000      1.2105046E-08
   30.24000      1.1948358E-08
   30.30000      1.1727725E-08
   30.36000      1.1451804E-08
   30.42000      1.1129148E-08
   30.48000      1.0765368E-08
   30.54000      1.0361504E-08
   30.60000      9.9145891E-09
   30.66000      9.4202246E-09
   30.72000      8.8759133E-09
   30.78000      8.2834557E-09
   30.84000      7.6492999E-09
   30.90000      6.9828858E-09
   30.96000      6.2940715E-09
   31.02000      5.5910401E-09
   31.08000      4.8794919E-09
   31.14000      4.1629948E-09
   31.20000      3.4437289E-09
   31.26000      2.7229248E-09
   31.32000      2.0009425E-09
   31.38000      1.2775226E-09
   31.44000      5.5279903E-10
   31.50000     -1.7095811E-10
   31.56000     -8.8772906E-10
   31.62000     -1.5874765E-09
   31.68000     -2.2579369E-09
   31.74000     -2.8880358E-09
   31.80000     -3.4713836E-09
   31.86000     -4.0080064E-09
   31.92000     -4.5032502E-09
   31.98000     -4.9642503E-09
   32.04000     -5.3956826E-09
   32.10000     -5.7968714E-09
   32.16000     -6.1615952E-09
   32.22000     -6.4804868E-09
   32.28000     -6.7446777E-09
   32.34000     -6.9488859E-09
   32.40000     -7.0927086E-09
   32.46000     -7.1799580E-09
   32.52000     -7.2168200E-09
   32.58000     -7.2099406E-09
   32.64000     -7.1651929E-09
   32.70000     -7.0872357E-09
   32.76000     -6.9795205E-09
   32.82000     -6.8443855E-09
   32.88000     -6.6831523E-09
   32.94000     -6.4964585E-09
   33.00000     -6.2850516E-09
   33.06000     -6.0509779E-09
   33.12000     -5.7987193E-09
   33.18000     -5.5357021E-09
   33.24000     -5.2718132E-09
   33.30000     -5.0180646E-09
   33.36000     -4.7849498E-09
   33.42000     -4.5811679E-09
   33.48000     -4.4131059E-09
   33.54000     -4.2850479E-09
   33.60000     -4.1997406E-09
   33.66000     -4.1589319E-09
   33.72000     -4.1637152E-09
   33.78000     -4.2147645E-09
   33.84000     -4.3125898E-09
   33.90000     -4.4577546E-09
   33.96000     -4.6507402E-09
   34.02000     -4.8911244E-09
   34.08000     -5.1760440E-09
   34.14000     -5.4985141E-09
   34.20000     -5.8465672E-09
   34.26000     -6.2041647E-09
   34.32000     -6.5541199E-09
   34.38000     -6.8822694E-09
   34.44000     -7.1812982E-09
   34.50000     -7.4525115E-09
   34.56000     -7.7046129E-09
   34.62000     -7.9498861E-09
   34.68000     -8.1993790E-09
   34.74000     -8.4591667E-09
   34.80000     -8.7291907E-09
   34.86000     -9.0048813E-09
   34.92000     -9.2803978E-09
   34.98000     -9.5516457E-09
   35.04000     -9.8174882E-09
   35.10000     -1.0078660E-08
   35.16000     -1.0335084E-08
   35.22000     -1.0583088E-08
   35.28000     -1.0813880E-08
   35.34000     -1.1013928E-08
   35.40000     -1.1166972E-08
   35.46000     -1.1256770E-08
   35.52000     -1.1269687E-08
   35.58000     -1.1196649E-08
   35.64000     -1.1034372E-08
   35.70000     -1.0785971E-08
   35.76000     -1.0460916E-08
   35.82000     -1.0073999E-08
   35.88000     -9.6431192E-09
   35.94000     -9.1860510E-09
   36.00000     -8.7170307E-09
   36.06000     -8.2444220E-09
   36.12000     -7.7705389E-09
   36.18000     -7.2938673E-09
   36.24000     -6.8128125E-09
   36.30000     -6.3292656E-09
   36.36000     -5.8502478E-09
   36.42000     -5.3867102E-09
   36.48000     -4.9498712E-09
   36.54000     -4.5466573E-09
   36.60000     -4.1762633E-09
   36.66000     -3.8294123E-09
   36.72000     -3.4908343E-09
   36.78000     -3.1442409E-09
   36.84000     -2.7781866E-09
   36.90000     -2.3909050E-09
   36.96000     -1.9925128E-09
   37.02000     -1.6037105E-09
   37.08000     -1.2510893E-09
   37.14000     -9.6014607E-10
   37.20000     -7.4794304E-10
   37.26000     -6.1769873E-10
   37.32000     -5.5726046E-10
   37.38000     -5.4229465E-10
   37.44000     -5.4341509E-10
   37.50000     -5.3492832E-10
   37.56000     -5.0211130E-10
   37.62000     -4.4437901E-10
   37.68000     -3.7326497E-10
   37.74000     -3.0617381E-10
   37.80000     -2.5849342E-10
   37.86000     -2.3716240E-10
   37.92000     -2.3802660E-10
   37.98000     -2.4771216E-10
   38.04000     -2.4904237E-10
   38.10000     -2.2788386E-10
   38.16000     -1.7903427E-10
   38.22000     -1.0923388E-10
   38.28000     -3.6308619E-11
   38.34000      1.5464142E-11
   38.40000      2.2615337E-11
   38.46000     -2.9675640E-11
   38.52000     -1.4168078E-10
   38.58000     -2.9743702E-10
   38.64000     -4.6838433E-10
   38.70000     -6.2156197E-10
   38.76000     -7.2967249E-10
   38.82000     -7.7926060E-10
   38.88000     -7.7372597E-10
   38.94000     -7.2987916E-10
   39.00000     -6.6944933E-10
   39.06000     -6.0911109E-10
   39.12000     -5.5318250E-10
   39.18000     -4.9188748E-10
   39.24000     -4.0561954E-10
   39.30000     -2.7318126E-10
   39.36000     -8.0573589E-11
   39.42000      1.7297341E-10
   39.48000      4.7371845E-10
   39.54000      7.9709306E-10
   39.60000      1.1150523E-09
   39.66000      1.4048989E-09
   39.72000      1.6571068E-09
   39.78000      1.8798816E-09
   39.84000      2.0988691E-09
   39.90000      2.3515991E-09
   39.96000      2.6778508E-09
   40.02000      3.1087233E-09
   40.08000      3.6580901E-09
   40.14000      4.3196646E-09
   40.20000      5.0709938E-09
   40.26000      5.8829626E-09
   40.32000      6.7310557E-09
   40.38000      7.6038118E-09
   40.44000      8.5050873E-09
   40.50000      9.4494101E-09
   40.56000      1.0452610E-08
   40.62000      1.1521680E-08
   40.68000      1.2647858E-08
   40.74000      1.3805298E-08
   40.80000      1.4955448E-08
   40.86000      1.6055294E-08
   40.92000      1.7066723E-08
   40.98000      1.7964355E-08
   41.04000      1.8739980E-08
   41.10000      1.9402636E-08
   41.16000      1.9974451E-08
   41.22000      2.0483128E-08
   41.28000      2.0952967E-08
   41.34000      2.1396914E-08
   41.40000      2.1812227E-08
   41.46000      2.2181514E-08
   41.52000      2.2479190E-08
   41.58000      2.2681315E-08
   41.64000      2.2775266E-08
   41.70000      2.2765501E-08
   41.76000      2.2673028E-08
   41.82000      2.2528662E-08
   41.88000      2.2362631E-08
   41.94000      2.2194641E-08
   42.00000      2.2028125E-08
   42.06000      2.1850804E-08
   42.12000      2.1640940E-08
   42.18000      2.1376637E-08
   42.24000      2.1044517E-08
   42.30000      2.0644665E-08
   42.36000      2.0190415E-08
   42.42000      1.9703604E-08
   42.48000      1.9207363E-08
   42.54000      1.8719144E-08
   42.60000      1.8246133E-08
   42.66000      1.7784192E-08
   42.72000      1.7320188E-08
   42.78000      1.6836669E-08
   42.84000      1.6317372E-08
   42.90000      1.5752045E-08
   42.96000      1.5139301E-08
   43.02000      1.4486807E-08
   43.08000      1.3808763E-08
   43.14000      1.3121364E-08
   43.20000      1.2437674E-08
   43.26000      1.1763622E-08
   43.32000      1.1096660E-08
   43.38000      1.0427790E-08
   43.44000      9.7465396E-09
   43.50000      9.0471932E-09
   43.56000      8.3340748E-09
   43.62000      7.6237505E-09
   43.68000      6.9430661E-09
   43.74000      6.3233645E-09
   43.80000      5.7926104E-09
   43.86000      5.3679807E-09
   43.92000      5.0513673E-09
   43.98000      4.8293538E-09
   44.04000      4.6777102E-09
   44.10000      4.5689288E-09
   44.16000      4.4802784E-09
   44.22000      4.3996624E-09
   44.28000      4.3273611E-09
   44.34000      4.2732213E-09
   44.40000      4.2505368E-09
   44.46000      4.2690362E-09
   44.52000      4.3296526E-09
   44.58000      4.4229562E-09
   44.64000      4.5316546E-09
   44.70000      4.6359978E-09
   44.76000      4.7199622E-09
   44.82000      4.7759561E-09
   44.88000      4.8065569E-09
   44.94000      4.8229438E-09
   45.00000      4.8408255E-09
   45.06000      4.8753614E-09
   45.12000      4.9366951E-09
   45.18000      5.0273741E-09
   45.24000      5.1422719E-09
   45.30000      5.2708353E-09
   45.36000      5.4008020E-09
   45.42000      5.5220739E-09
   45.48000      5.6293743E-09
   45.54000      5.7227760E-09
   45.60000      5.8059686E-09
   45.66000      5.8830301E-09
   45.72000      5.9550755E-09
   45.78000      6.0181846E-09
   45.84000      6.0634826E-09
   45.90000      6.0793379E-09
   45.96000      6.0548553E-09
   46.02000      5.9833831E-09
   46.08000      5.8648384E-09
   46.14000      5.7061356E-09
   46.20000      5.5196190E-09
   46.26000      5.3199920E-09
   46.32000      5.1206488E-09
   46.38000      4.9304849E-09
   46.44000      4.7521747E-09
   46.50000      4.5824873E-09
   46.56000      4.4145416E-09
   46.62000      4.2411661E-09
   46.68000      4.0580694E-09
   46.74000      3.8655994E-09
   46.80000      3.6685275E-09
   46.86000      3.4742509E-09
   46.92000      3.2904917E-09
   46.98000      3.1236813E-09
   47.04000      2.9786191E-09
   47.10000      2.8591309E-09
   47.16000      2.7688747E-09
   47.22000      2.7114808E-09
   47.28000      2.6898432E-09
   47.34000      2.7050628E-09
   47.40000      2.7558453E-09
   47.46000      2.8388218E-09
   47.52000      2.9496277E-09
   47.58000      3.0840872E-09
   47.64000      3.2389023E-09
   47.70000      3.4117176E-09
   47.76000      3.6009280E-09
   47.82000      3.8056420E-09
   47.88000      4.0258059E-09
   47.94000      4.2619837E-09
   48.00000      4.5142170E-09
   48.06000      4.7799902E-09
   48.12000      5.0522364E-09
   48.18000      5.3188236E-09
   48.24000      5.5645200E-09
   48.30000      5.7751146E-09
   48.36000      5.9419363E-09
   48.42000      6.0644338E-09
   48.48000      6.1492793E-09
   48.54000      6.2062417E-09
   48.60000      6.2428493E-09
   48.66000      6.2604872E-09
   48.72000      6.2537420E-09
   48.78000      6.2130128E-09
   48.84000      6.1287948E-09
   48.90000      5.9955227E-09
   48.96000      5.8135345E-09
   49.02000      5.5890084E-09
   49.08000      5.3326819E-09
   49.14000      5.0582871E-09
   49.20000      4.7811319E-09
   49.26000      4.5167283E-09
   49.32000      4.2793440E-09
   49.38000      4.0808099E-09
   49.44000      3.9303276E-09
   49.50000      3.8358206E-09
   49.56000      3.8065400E-09
   49.62000      3.8556589E-09
   49.68000      4.0012749E-09
   49.74000      4.2649462E-09
   49.80000      4.6682902E-09
   49.86000      5.2293898E-09
   49.92000      5.9609415E-09
   49.98000      6.8711161E-09
   50.04000      7.9665288E-09
   50.10000      9.2555910E-09
   50.16000      1.0750455E-08
   50.22000      1.2466700E-08
   50.28000      1.4421222E-08
   50.34000      1.6629510E-08
   50.40000      1.9103467E-08
   50.46000      2.1850175E-08
   50.52000      2.4871422E-08
   50.58000      2.8163596E-08
   50.64000      3.1717793E-08
   50.70000      3.5520358E-08
   50.76000      3.9553900E-08
   50.82000      4.3798440E-08
   50.88000      4.8231868E-08
   50.94000      5.2828867E-08
   51.00000      5.7558225E-08
   51.06000      6.2379215E-08
   51.12000      6.7238489E-08
   51.18000      7.2068552E-08
   51.24000      7.6788133E-08
   51.30000      8.1303646E-08
   51.36000      8.5510607E-08
   51.42000      8.9294147E-08
   51.48000      9.2528630E-08
   51.54000      9.5076942E-08
   51.60000      9.6790302E-08
   51.66000      9.7508838E-08
   51.72000      9.7062234E-08
   51.78000      9.5269911E-08
   51.84000      9.1940144E-08
   51.90000      8.6868859E-08
   51.96000      7.9839040E-08
   52.02000      7.0622185E-08
   52.08000      5.8981978E-08
   52.14000      4.4679471E-08
   52.20000      2.7478430E-08
   52.26000      7.1494051E-09
   52.32000     -1.6527828E-08
   52.38000     -4.3762679E-08
   52.44000     -7.4751519E-08
   52.50000     -1.0967351E-07
   52.56000     -1.4868436E-07
   52.62000     -1.9190888E-07
   52.68000     -2.3943417E-07
   52.74000     -2.9130487E-07
   52.80000     -3.4752046E-07
   52.86000     -4.0803405E-07
   52.92000     -4.7275091E-07
   52.98000     -5.4152486E-07
   53.04000     -6.1415301E-07
   53.10000     -6.9036957E-07
   53.16000     -7.6984117E-07
   53.22000     -8.5216465E-07
   53.28000     -9.3686782E-07
   53.34000     -1.0234120E-06
   53.40000     -1.1111948E-06
   53.46000     -1.1995525E-06
   53.52000     -1.2877607E-06
   53.58000     -1.3750364E-06
   53.64000     -1.4605408E-06
   53.70000     -1.5433857E-06
   53.76000     -1.6226410E-06
   53.82000     -1.6973438E-06
   53.88000     -1.7665069E-06
   53.94000     -1.8291286E-06
   54.00000     -1.8842011E-06
   54.06000     -1.9307224E-06
   54.12000     -1.9677077E-06
   54.18000     -1.9942026E-06
   54.24000     -2.0092975E-06
   54.30000     -2.0121361E-06
   54.36000     -2.0019268E-06
   54.42000     -1.9779511E-06
   54.48000     -1.9395702E-06
   54.54000     -1.8862341E-06
   54.60000     -1.8174900E-06
   54.66000     -1.7329894E-06
   54.72000     -1.6324960E-06
   54.78000     -1.5158919E-06
   54.84000     -1.3831833E-06
   54.90000     -1.2345063E-06
   54.96000     -1.0701308E-06
   55.02000     -8.9046205E-07
   55.08000     -6.9603885E-07
   55.14000     -4.8752895E-07
   55.20000     -2.6572229E-07
   55.26000     -3.1523147E-08
   55.32000      2.1405673E-07
   55.38000      4.6990505E-07
   55.44000      7.3481664E-07
   55.50000      1.0075034E-06
   55.56000      1.2866074E-06