 -0.750000000       0.00000000    
 -0.689999998       0.00000000    
 -0.629999995       0.00000000    
 -0.569999993       0.00000000    
 -0.509999990       0.00000000    
 -0.449999988       0.00000000    
 -0.389999986       0.00000000    
 -0.330000013       0.00000000    
 -0.270000011       0.00000000    
 -0.209999993       1.76109189E-28
 -0.150000006       2.49880281E-27
  -9.00000036E-02   1.70916514E-26
  -2.99999993E-02   7.15861751E-26
   2.99999993E-02   1.83633063E-25
   9.00000036E-02   1.64820887E-25
  0.150000006      -9.20629963E-25
  0.209999993      -5.42939237E-24
  0.270000011      -1.63811732E-23
  0.330000013      -3.17646235E-23
  0.389999986      -3.08980755E-23
  0.449999988       4.13782473E-23
  0.509999990       2.66679415E-22
  0.569999993       6.75404683E-22
  0.629999995       1.07031658E-21
  0.689999998       8.20605223E-22
  0.750000000      -1.12639028E-21
  0.810000002      -5.63372924E-21
  0.870000005      -1.19421026E-20
  0.930000007      -1.58780614E-20
  0.990000010      -9.25693381E-21
   1.04999995       1.72066492E-20
   1.11000001       6.59720870E-20
   1.16999996       1.21500799E-19
   1.23000002       1.42703325E-19
   1.28999996       6.97468740E-20
   1.35000002      -1.45978728E-19
   1.40999997      -4.91055616E-19
   1.47000003      -8.39378890E-19
   1.52999997      -9.40149186E-19
   1.59000003      -4.85655729E-19
   1.64999998       7.24340918E-19
   1.71000004       2.55772372E-18
   1.76999998       4.36683121E-18
   1.83000004       4.99606668E-18
   1.88999999       3.11617714E-18
   1.95000005      -2.08496540E-18
   2.00999999      -1.00250675E-17
   2.06999993      -1.80724257E-17
   2.13000011      -2.16777949E-17
   2.19000006      -1.57654421E-17
   2.25000000       2.61207631E-18
   2.30999994       3.11584974E-17
   2.36999989       6.03999872E-17
   2.43000007       7.48848197E-17
   2.49000001       5.86721525E-17
   2.54999995       4.20084832E-18
   2.60999990      -7.90537504E-17
   2.67000008      -1.61536674E-16
   2.73000002      -2.00800926E-16
   2.78999996      -1.59349198E-16
   2.84999990      -2.71124559E-17
   2.91000009       1.62858787E-16
   2.97000003       3.37252256E-16
   3.02999997       4.08670633E-16
   3.08999991       3.17404924E-16
   3.15000010       6.93106414E-17
   3.21000004      -2.52887033E-16
   3.26999998      -5.17481332E-16
   3.32999992      -6.03016466E-16
   3.39000010      -4.60663739E-16
   3.45000005      -1.44502061E-16
   3.50999999       2.11795824E-16
   3.56999993       4.63634760E-16
   3.63000011       5.32140138E-16
   3.69000006       4.42265866E-16
   3.75000000       2.96152523E-16
   3.80999994       1.95983955E-16
   3.86999989       1.66374714E-16
   3.93000007       1.31755115E-16
   3.99000001      -2.88907553E-17
   4.05000019      -3.81109451E-16
   4.11000013      -8.57174579E-16
   4.17000008      -1.26320215E-15
   4.23000002      -1.37865624E-15
   4.28999996      -1.08797867E-15
   4.34999990      -4.52038455E-16
   4.40999985       3.38996879E-16
   4.46999979       1.10472737E-15
   4.53000021       1.79984782E-15
   4.59000015       2.51051672E-15
   4.65000010       3.28926886E-15
   4.71000004       3.92726572E-15
   4.76999998       3.85202209E-15
   4.82999992       2.30684447E-15
   4.88999987      -1.19213100E-15
   4.94999981      -6.33020798E-15
   5.01000023      -1.17256795E-14
   5.07000017      -1.51773379E-14
   5.13000011      -1.44446290E-14
   5.19000006      -8.28303439E-15
   5.25000000       2.72244563E-15
   5.30999994       1.59399573E-14
   5.36999989       2.72582605E-14
   5.42999983       3.22915624E-14
   5.48999977       2.78447208E-14
   5.55000019       1.32001623E-14
   5.61000013      -9.13827255E-15
   5.67000008      -3.34935936E-14
   5.73000002      -5.20050447E-14
   5.78999996      -5.65828444E-14
   5.84999990      -4.16073663E-14
   5.90999985      -6.75368719E-15
   5.96999979       4.10901375E-14
   6.03000021       8.79770906E-14
   6.09000015       1.15873579E-13
   6.15000010       1.08191850E-13
   6.21000004       5.63795870E-14
   6.26999998      -3.48120275E-14
   6.32999992      -1.45712205E-13
   6.38999987      -2.44984669E-13
   6.44999981      -2.97221666E-13
   6.51000023      -2.72762200E-13
   6.57000017      -1.56930811E-13
   6.63000011       4.36808691E-14
   6.69000006       2.99148428E-13
   6.75000000       5.58571256E-13
   6.80999994       7.56634176E-13
   6.86999989       8.24276845E-13
   6.92999983       7.03343308E-13
   6.98999977       3.64095120E-13
   7.05000019      -1.77651459E-13
   7.11000013      -8.49410548E-13
   7.17000008      -1.52360980E-12
   7.23000002      -2.03664299E-12
   7.28999996      -2.22494375E-12
   7.34999990      -1.97053636E-12
   7.40999985      -1.24249059E-12
   7.46999979      -1.18934878E-13
   7.53000021       1.22135180E-12
   7.59000015       2.53896708E-12
   7.65000010       3.59482192E-12
   7.71000004       4.21202786E-12
   7.76999998       4.31642222E-12
   7.82999992       3.93977342E-12
   7.88999987       3.18311783E-12
   7.94999981       2.15344821E-12
   8.01000023       8.99089668E-13
   8.06999969      -6.27515943E-13
   8.13000011      -2.55814120E-12
   8.18999958      -5.04269456E-12
   8.25000000      -8.14236092E-12
   8.31000042      -1.17112153E-11
   8.36999989      -1.53019264E-11
   8.43000031      -1.81260701E-11
   8.48999977      -1.90849437E-11
   8.55000019      -1.68681544E-11
   8.60999966      -1.01011378E-11
   8.67000008       2.48563518E-12
   8.72999954       2.18921704E-11
   8.78999996       4.87082735E-11
   8.85000038       8.30068306E-11
   8.90999985       1.24275798E-10
   8.97000027       1.71394107E-10
   9.02999973       2.22660529E-10
   9.09000015       2.75887840E-10
   9.14999962       3.28569699E-10
   9.21000004       3.78112652E-10
   9.27000046       4.22103741E-10
   9.32999992       4.58561134E-10
   9.39000034       4.86104434E-10
   9.44999981       5.03991349E-10
   9.51000023       5.11999831E-10
   9.56999969       5.10182785E-10
   9.63000011       4.98568686E-10
   9.68999958       4.76909068E-10
   9.75000000       4.44567189E-10
   9.81000042       4.00599248E-10
   9.86999989       3.44016760E-10
   9.93000031       2.74154616E-10
   9.98999977       1.91031149E-10
   10.0500002       9.55903828E-11
   10.1099997      -1.02415784E-11
   10.1700001      -1.23689337E-10
   10.2299995      -2.41393350E-10
   10.2900000      -3.59717617E-10
   10.3500004      -4.75016082E-10
   10.4099998      -5.83810611E-10
   10.4700003      -6.82881640E-10
   10.5299997      -7.69311836E-10
   10.5900002      -8.40536363E-10
   10.6499996      -8.94437746E-10
   10.7100000      -9.29495092E-10
   10.7700005      -9.44965106E-10
   10.8299999      -9.41052458E-10
   10.8900003      -9.19025356E-10
   10.9499998      -8.81238471E-10
   11.0100002      -8.31042124E-10
   11.0699997      -7.72567732E-10
   11.1300001      -7.10394910E-10
   11.1899996      -6.49120091E-10
   11.2500000      -5.92868643E-10
   11.3100004      -5.44815915E-10
   11.3699999      -5.06800379E-10
   11.4300003      -4.79116857E-10
   11.4899998      -4.60555510E-10
   11.5500002      -4.48708792E-10
   11.6099997      -4.40508963E-10
   11.6700001      -4.32893332E-10
   11.7299995      -4.23452967E-10
   11.7900000      -4.10904616E-10
   11.8500004      -3.95259020E-10
   11.9099998      -3.77628595E-10
   11.9700003      -3.59720254E-10
   12.0299997      -3.43159612E-10
   12.0900002      -3.28862881E-10
   12.1499996      -3.16676990E-10
   12.2100000      -3.05435538E-10
   12.2700005      -2.93439023E-10
   12.3299999      -2.79206963E-10
   12.3900003      -2.62228989E-10
   12.4499998      -2.43416898E-10
   12.5100002      -2.25054558E-10
   12.5699997      -2.10232970E-10
   12.6300001      -2.01972800E-10
   12.6899996      -2.02383735E-10
   12.7500000      -2.12221574E-10
   12.8100004      -2.31055078E-10
   12.8699999      -2.57998373E-10
   12.9300003      -2.92701668E-10
   12.9899998      -3.36138589E-10
   13.0500002      -3.90763449E-10
   13.1099997      -4.59835531E-10
   13.1700001      -5.46050372E-10
   13.2299995      -6.49937881E-10
   13.2900000      -7.68652975E-10
   13.3500004      -8.95702734E-10
   13.4099998      -1.02184650E-09
   13.4700003      -1.13696941E-09
   13.5299997      -1.23234278E-09
   13.5900002      -1.30250621E-09
   13.6499996      -1.34612521E-09
   13.7100000      -1.36556211E-09
   13.7700005      -1.36539735E-09
   13.8299999      -1.35054778E-09
   13.8900003      -1.32477418E-09
   13.9499998      -1.29017586E-09
   14.0100002      -1.24782407E-09
   14.0699997      -1.19916677E-09
   14.1300001      -1.14747933E-09
   14.1899996      -1.09858833E-09
   14.2500000      -1.06039033E-09
   14.3100004      -1.04118314E-09
   14.3699999      -1.04732989E-09
   14.4300003      -1.08107368E-09
   14.4899998      -1.13930343E-09
   14.5500002      -1.21375499E-09
   14.6099997      -1.29265232E-09
   14.6700001      -1.36333200E-09
   14.7299995      -1.41509870E-09
   14.7900000      -1.44152013E-09
   14.8500004      -1.44157553E-09
   14.9099998      -1.41942691E-09
   14.9700003      -1.38297851E-09
   15.0299997      -1.34170663E-09
   15.0900002      -1.30438804E-09
   15.1499996      -1.27732402E-09
   15.2100000      -1.26345945E-09
   15.2700005      -1.26251276E-09
   15.3299999      -1.27196065E-09
   15.3900003      -1.28850208E-09
   15.4499998      -1.30953659E-09
   15.5100002      -1.33420008E-09
   15.5699997      -1.36361689E-09
   15.6300001      -1.40022305E-09
   15.6899996      -1.44627665E-09
   15.7500000      -1.50196366E-09
   15.8100004      -1.56374946E-09
   15.8699999      -1.62370728E-09
   15.9300003      -1.67036807E-09
   15.9899998      -1.69116410E-09
   16.0499992      -1.67589997E-09
   16.1100006      -1.62013458E-09
   16.1700001      -1.52718094E-09
   16.2299995      -1.40778988E-09
   16.2900009      -1.27741762E-09
   16.3500004      -1.15195009E-09
   16.4099998      -1.04343023E-09
   16.4699993      -9.57373625E-10
   16.5300007      -8.92590279E-10
   16.5900002      -8.43361270E-10
   16.6499996      -8.02836186E-10
   16.7099991      -7.66074093E-10
   16.7700005      -7.31460892E-10
   16.8299999      -7.00086211E-10
   16.8899994      -6.73653244E-10
   16.9500008      -6.52122245E-10
   17.0100002      -6.32309594E-10
   17.0699997      -6.08114503E-10
   17.1299992      -5.72239978E-10
   17.1900005      -5.18605769E-10
   17.2500000      -4.44394133E-10
   17.3099995      -3.50895119E-10
   17.3700008      -2.42870030E-10
   17.4300003      -1.26775021E-10
   17.4899998      -8.62680587E-12
   17.5499992       1.07606660E-10
   17.6100006       2.20469559E-10
   17.6700001       3.30232675E-10
   17.7299995       4.37328285E-10
   17.7900009       5.40863132E-10
   17.8500004       6.38078979E-10
   17.9099998       7.25208837E-10
   17.9699993       7.99469047E-10
   18.0300007       8.61240856E-10
   18.0900002       9.15197362E-10
   18.1499996       9.69437197E-10
   18.2099991       1.03254616E-09
   18.2700005       1.10955767E-09
   18.3299999       1.19851618E-09
   18.3899994       1.28935596E-09
   18.4500008       1.36599021E-09
   18.5100002       1.41118295E-09
   18.5699997       1.41251444E-09
   18.6299992       1.36713396E-09
   18.6900005       1.28333821E-09
   18.7500000       1.17820009E-09
   18.8099995       1.07203446E-09
   18.8700008       9.81761228E-10
   18.9300003       9.15701570E-10
   18.9899998       8.71796801E-10
   19.0499992       8.39890102E-10
   19.1100006       8.07087841E-10
   19.1700001       7.63977548E-10
   19.2299995       7.09140580E-10
   19.2900009       6.50124454E-10
   19.3500004       6.00547556E-10
   19.4099998       5.74661763E-10
   19.4699993       5.81775295E-10
   19.5300007       6.22933816E-10
   19.5900002       6.91179836E-10
   19.6499996       7.75045472E-10
   19.7099991       8.63493499E-10
   19.7700005       9.49971435E-10
   19.8299999       1.03383213E-09
   19.8899994       1.11875087E-09
   19.9500008       1.20920740E-09
   20.0100002       1.30689981E-09
   20.0699997       1.40877265E-09
   20.1299992       1.50739388E-09
   20.1900005       1.59326485E-09
   20.2500000       1.65788627E-09
   20.3099995       1.69631664E-09
   20.3700008       1.70842784E-09
   20.4300003       1.69871217E-09
   20.4899998       1.67497560E-09
   20.5499992       1.64642622E-09
   20.6100006       1.62163816E-09
   20.6700001       1.60679636E-09
   20.7299995       1.60460145E-09
   20.7900009       1.61414226E-09
   20.8500004       1.63182223E-09
   20.9099998       1.65304259E-09
   20.9699993       1.67396563E-09
   21.0300007       1.69257564E-09
   21.0900002       1.70856307E-09
   21.1499996       1.72216763E-09
   21.2099991       1.73270409E-09
   21.2700005       1.73769232E-09
   21.3299999       1.73318260E-09
   21.3899994       1.71518977E-09
   21.4500008       1.68152536E-09
   21.5100002       1.63310054E-09
   21.5699997       1.57406288E-09
   21.6299992       1.51072188E-09
   21.6900005       1.44974766E-09
   21.7500000       1.39634593E-09
   21.8099995       1.35297684E-09
   21.8700008       1.31888411E-09
   21.9300003       1.29044131E-09
   21.9899998       1.26219812E-09
   22.0499992       1.22843580E-09
   22.1100006       1.18494892E-09
   22.1700001       1.13060139E-09
   22.2299995       1.06811759E-09
   22.2900009       1.00370279E-09
   22.3500004       9.45483469E-10
   22.4099998       9.01254238E-10
   22.4699993       8.76334394E-10
   22.5300007       8.72281858E-10
   22.5900002       8.86796026E-10
   22.6499996       9.14632869E-10
   22.7099991       9.49040402E-10
   22.7700005       9.83229720E-10
   22.8299999       1.01161213E-09
   22.8899994       1.03071340E-09
   22.9500008       1.03966757E-09
   23.0100002       1.04006503E-09
   23.0699997       1.03493747E-09
   23.1299992       1.02698217E-09
   23.1900005       1.01666009E-09
   23.2500000       1.00118225E-09
   23.3099995       9.75222236E-10
   23.3700008       9.33381372E-10
   23.4300003       8.73361550E-10
   23.4899998       7.98141109E-10
   23.5499992       7.15730808E-10
   23.6100006       6.36286746E-10
   23.6700001       5.67847769E-10
   23.7299995       5.12854315E-10
   23.7900009       4.67304972E-10
   23.8500004       4.23029833E-10
   23.9099998       3.71897985E-10
   23.9699993       3.09790887E-10
   24.0300007       2.38425363E-10
   24.0900002       1.64387115E-10
   24.1499996       9.62416327E-11
   24.2099991       4.14333151E-11
   24.2700005       4.47020199E-12
   24.3299999      -1.31060700E-11
   24.3899994      -1.15352632E-11
   24.4500008       8.49485499E-12
   24.5100002       4.65206693E-11
   24.5699997       1.02173416E-10
   24.6299992       1.74669917E-10
   24.6900005       2.62443067E-10
   24.7500000       3.63141822E-10
   24.8099995       4.73879380E-10
   24.8700008       5.91506955E-10
   24.9300003       7.12866544E-10
   24.9899998       8.35185143E-10
   25.0499992       9.56747903E-10
   25.1100006       1.07767428E-09
   25.1700001       1.20026855E-09
   25.2299995       1.32837785E-09
   25.2900009       1.46561796E-09
   25.3500004       1.61304170E-09
   25.4099998       1.76736004E-09
   25.4699993       1.92079552E-09
   25.5300007       2.06297868E-09
   25.5900002       2.18432761E-09
   25.6499996       2.27959474E-09
   25.7099991       2.35014319E-09
   25.7700005       2.40402365E-09
   25.8299999       2.45380649E-09
   25.8899994       2.51292209E-09
   25.9500008       2.59169020E-09
   26.0100002       2.69421574E-09
   26.0699997       2.81700374E-09
   26.1299992       2.94965607E-09
   26.1900005       3.07745851E-09
   26.2500000       3.18513615E-09
   26.3099995       3.26066862E-09
   26.3700008       3.29799477E-09
   26.4300003       3.29779670E-09
   26.4899998       3.26629701E-09
   26.5499992       3.21277116E-09
   26.6100006       3.14691140E-09
   26.6700001       3.07701886E-09
   26.7299995       3.00934322E-09
   26.7900009       2.94819125E-09
   26.8500004       2.89609559E-09
   26.9099998       2.85361290E-09
   26.9699993       2.81891799E-09
   27.0300007       2.78782175E-09
   27.0900002       2.75475442E-09
   27.1499996       2.71464073E-09
   27.2099991       2.66486455E-09
   27.2700005       2.60626387E-09
   27.3299999       2.54251242E-09
   27.3899994       2.47816523E-09
   27.4500008       2.41642972E-09
   27.5100002       2.35787079E-09
   27.5699997       2.30065544E-09
   27.6299992       2.24200547E-09
   27.6900005       2.17986273E-09
   27.7500000       2.11382245E-09
   27.8099995       2.04500039E-09
   27.8700008       1.97524685E-09
   27.9300003       1.90640592E-09
   27.9899998       1.84003590E-09
   28.0499992       1.77744397E-09
   28.1100006       1.71953796E-09
   28.1700001       1.66619807E-09
   28.2299995       1.61544400E-09
   28.2900009       1.56312996E-09
   28.3500004       1.50381163E-09
   28.4099998       1.43272572E-09
   28.4699993       1.34799083E-09
   28.5300007       1.25177035E-09
   28.5900002       1.14959120E-09
   28.6499996       1.04804410E-09
   28.7099991       9.52064649E-10
   28.7700005       8.63246419E-10
   28.8299999       7.80012888E-10
   28.8899994       6.99366842E-10
   28.9500008       6.19078677E-10
   29.0100002       5.39086220E-10
   29.0699997       4.61549465E-10
   29.1299992       3.89902111E-10
   29.1900005       3.27750271E-10
   29.2500000       2.78280982E-10
   29.3099995       2.44209958E-10
   29.3700008       2.27762073E-10
   29.4300003       2.30181513E-10
   29.4899998       2.50803489E-10
   29.5499992       2.86328683E-10
   29.6100006       3.31101896E-10
   29.6700001       3.78694187E-10
   29.7299995       4.24229152E-10
   29.7900009       4.66278016E-10
   29.8500004       5.07245468E-10
   29.9099998       5.51971413E-10
   29.9699993       6.05288264E-10
   30.0300007       6.69840794E-10
   30.0900002       7.45241313E-10
   30.1499996       8.28764057E-10
   30.2099991       9.16866083E-10
   30.2700005       1.00643527E-09
   30.3299999       1.09502929E-09
   30.3899994       1.18017451E-09
   30.4500008       1.25848598E-09
   30.5100002       1.32548827E-09
   30.5699997       1.37652467E-09
   30.6299992       1.40839074E-09
   30.6900005       1.42082424E-09
   30.7500000       1.41702305E-09
   30.8099995       1.40288192E-09
   30.8700008       1.38529344E-09
   30.9300003       1.37025913E-09
   30.9899998       1.36153266E-09
   31.0499992       1.36016542E-09
   31.1100006       1.36488465E-09
   31.1700001       1.37295475E-09
   31.2299995       1.38110268E-09
   31.2900009       1.38618850E-09
   31.3500004       1.38545331E-09
   31.4099998       1.37633804E-09
   31.4699993       1.35601874E-09
   31.5300007       1.32094746E-09
   31.5900002       1.26676092E-09
   31.6499996       1.18883059E-09
   31.7099991       1.08345621E-09
   31.7700005       9.49336054E-10
   31.8299999       7.88688226E-10
   31.8899994       6.07428552E-10
   31.9500008       4.14174112E-10
   32.0099983       2.18364007E-10
   32.0699997       2.81949603E-11
   32.1300011      -1.50877602E-10
   32.1899986      -3.16633580E-10
   32.2500000      -4.69621897E-10
   32.3100014      -6.12149109E-10
   32.3699989      -7.47214512E-10
   32.4300003      -8.77677597E-10
   32.4900017      -1.00567921E-09
   32.5499992      -1.13220044E-09
   32.6100006      -1.25673716E-09
   32.6699982      -1.37725198E-09
   32.7299995      -1.49065038E-09
   32.7900009      -1.59386371E-09
   32.8499985      -1.68526793E-09
   32.9099998      -1.76584913E-09
   32.9700012      -1.83946691E-09
   33.0299988      -1.91188732E-09
   33.0900002      -1.98880201E-09
   33.1500015      -2.07356665E-09
   33.2099991      -2.16559903E-09
   33.2700005      -2.26014962E-09
   33.3300018      -2.34961783E-09
   33.3899994      -2.42596632E-09
   33.4500008      -2.48333709E-09
   33.5099983      -2.51989696E-09
   33.5699997      -2.53821497E-09
   33.6300011      -2.54401411E-09
   33.6899986      -2.54374566E-09
   33.7500000      -2.54188337E-09
   33.8100014      -2.53898746E-09
   33.8699989      -2.53130628E-09
   33.9300003      -2.51211318E-09
   33.9900017      -2.47427079E-09
   34.0499992      -2.41299491E-09
   34.1100006      -2.32772535E-09
   34.1699982      -2.22240670E-09
   34.2299995      -2.10418416E-09
   34.2900009      -1.98117855E-09
   34.3499985      -1.86028393E-09
   34.4099998      -1.74575776E-09
   34.4700012      -1.63889291E-09
   34.5299988      -1.53857249E-09
   34.5900002      -1.44229084E-09
   34.6500015      -1.34727773E-09
   34.7099991      -1.25154342E-09
   34.7700005      -1.15473797E-09
   34.8300018      -1.05863096E-09
   34.8899994      -9.66903890E-10
   34.9500008      -8.84048168E-10
   35.0099983      -8.13567547E-10
   35.0699997      -7.56213536E-10
   35.1300011      -7.09253822E-10
   35.1899986      -6.67467415E-10
   35.2500000      -6.25707708E-10
   35.3100014      -5.81901860E-10
   35.3699989      -5.38891487E-10
   35.4300003      -5.03940889E-10
   35.4900017      -4.85911755E-10
   35.5499992      -4.91381824E-10
   35.6100006      -5.21609478E-10
   35.6699982      -5.71823255E-10
   35.7299995      -6.33077701E-10
   35.7900009      -6.95611069E-10
   35.8499985      -7.52017892E-10
   35.9099998      -7.98917488E-10
   35.9700012      -8.36819780E-10
   36.0299988      -8.68859429E-10
   36.0900002      -8.99389896E-10
   36.1500015      -9.33041200E-10
   36.2099991      -9.74161751E-10
   36.2700005      -1.02618980E-09
   36.3300018      -1.09071474E-09
   36.3899994      -1.16655319E-09
   36.4500008      -1.24956345E-09
   36.5099983      -1.33371181E-09
   36.5699997      -1.41316703E-09
   36.6300011      -1.48442880E-09
   36.6899986      -1.54730506E-09
   36.7500000      -1.60414815E-09
   36.8100014      -1.65780123E-09
   36.8699989      -1.70949710E-09
   36.9300003      -1.75795445E-09
   36.9900017      -1.80012061E-09
   37.0499992      -1.83296600E-09
   37.1100006      -1.85513205E-09
   37.1699982      -1.86745375E-09
   37.2299995      -1.87219062E-09
   37.2900009      -1.87161975E-09
   37.3499985      -1.86691262E-09
   37.4099998      -1.85783100E-09
   37.4700012      -1.84313376E-09
   37.5299988      -1.82119320E-09
   37.5900002      -1.79043791E-09
   37.6500015      -1.74966519E-09
   37.7099991      -1.69853631E-09
   37.7700005      -1.63837255E-09
   37.8300018      -1.57285562E-09
   37.8899994      -1.50786861E-09
   37.9500008      -1.44994738E-09
   38.0099983      -1.40363587E-09
   38.0699997      -1.36893819E-09
   38.1300011      -1.34034084E-09
   38.1899986      -1.30823186E-09
   38.2500000      -1.26225641E-09
   38.3100014      -1.19504562E-09
   38.3699989      -1.10454501E-09
   38.4300003      -9.94006877E-10
   38.4900017      -8.70030437E-10
   38.5499992      -7.39985129E-10
   38.6100006      -6.10145212E-10
   38.6699982      -4.85042118E-10
   38.7299995      -3.67583491E-10
   38.7900009      -2.59126304E-10
   38.8499985      -1.59126518E-10
   38.9099998      -6.47875156E-11
   38.9700012       2.84558575E-11
   39.0299988       1.25189012E-10
   39.0900002       2.27567840E-10
   39.1500015       3.33559264E-10
   39.2099991       4.37212794E-10
   39.2700005       5.31259314E-10
   39.3300018       6.10908657E-10
   39.3899994       6.76853518E-10
   39.4500008       7.35795480E-10
   39.5099983       7.98127064E-10
   39.5699997       8.73924100E-10
   39.6300011       9.69202718E-10
   39.6899986       1.08406395E-09
   39.7500000       1.21320520E-09
   39.8100014       1.34811595E-09
   39.8699989       1.47973900E-09
   39.9300003       1.60063240E-09
   39.9900017       1.70628756E-09
   40.0499992       1.79571358E-09
   40.1100006       1.87141680E-09
   40.1699982       1.93868721E-09
   40.2299995       2.00402273E-09
   40.2900009       2.07285189E-09
   40.3499985       2.14724083E-09
   40.4099998       2.22459962E-09
   40.4700012       2.29813790E-09
   40.5299988       2.35905451E-09
   40.5900002       2.39957387E-09
   40.6500015       2.41554976E-09
   40.7099991       2.40763032E-09
   40.7700005       2.38072273E-09
   40.8300018       2.34222730E-09
   40.8899994       2.29981945E-09
   40.9500008       2.25942465E-09
   41.0099983       2.22373298E-09
   41.0699997       2.19143481E-09
   41.1300011       2.15739138E-09
   41.1899986       2.11395057E-09
   41.2500000       2.05333994E-09
   41.3100014       1.97050465E-09
   41.3699989       1.86526283E-09
   41.4300003       1.74266757E-09
   41.4900017       1.61118341E-09
   41.5499992       1.47937396E-09
   41.6100006       1.35263023E-09
   41.6699982       1.23147093E-09
   41.7299995       1.11208598E-09
   41.7900009       9.88598647E-10
   41.8499985       8.55717885E-10
   41.9099998       7.10520587E-10
   41.9700012       5.52878132E-10
   42.0299988       3.84921761E-10
   42.0900002       2.10320775E-10
   42.1500015       3.38479661E-11
   42.2099991      -1.38893438E-10
   42.2700005      -3.02050079E-10
   42.3300018      -4.50630144E-10
   42.3899994      -5.81769077E-10
   42.4500008      -6.95343727E-10
   42.5099983      -7.93331734E-10
   42.5699997      -8.78084827E-10
   42.6300011      -9.50498014E-10
   42.6899986      -1.00926845E-09
   42.7500000      -1.05183318E-09
   42.8100014      -1.07650666E-09
   42.8699989      -1.08454346E-09
   42.9300003      -1.08086096E-09
   42.9900017      -1.07297193E-09
   43.0499992      -1.06870335E-09
   43.1100006      -1.07386566E-09
   43.1699982      -1.09083420E-09
   43.2299995      -1.11830056E-09
   43.2900009      -1.15181864E-09
   43.3499985      -1.18466503E-09
   43.4099998      -1.20888854E-09
   43.4700012      -1.21680233E-09
   43.5299988      -1.20307520E-09
   43.5900002      -1.16699417E-09
   43.6500015      -1.11382958E-09
   43.7099991      -1.05417719E-09
   43.7700005      -1.00094499E-09
   43.8300018      -9.64938907E-10
   43.8899994      -9.50979295E-10
   43.9500008      -9.56442703E-10
   44.0099983      -9.72985692E-10
   44.0699997      -9.90572402E-10
   44.1300011      -1.00177633E-09
   44.1899986      -1.00429931E-09
   44.2500000      -1.00072783E-09
   44.3100014      -9.96041805E-10
   44.3699989      -9.94427762E-10
   44.4300003      -9.97036786E-10
   44.4900017      -1.00156838E-09
   44.5499992      -1.00352859E-09
   44.6100006      -9.98296334E-10
   44.6699982      -9.83007342E-10
   44.7299995      -9.57593116E-10
   44.7900009      -9.24773147E-10
   44.8499985      -8.89141649E-10
   44.9099998      -8.55665150E-10
   44.9700012      -8.28009883E-10
   45.0299988      -8.07183154E-10
   45.0900002      -7.90950083E-10
   45.1500015      -7.74278419E-10
   45.2099991      -7.50681572E-10
   45.2700005      -7.13954951E-10
   45.3300018      -6.59657051E-10
   45.3899994      -5.85882121E-10
   45.4500008      -4.93269536E-10
   45.5099983      -3.84526633E-10
   45.5699997      -2.63784689E-10
   45.6300011      -1.35905107E-10
   45.6899986      -5.64400436E-12
   45.7500000       1.23384497E-10
   45.8100014       2.49719107E-10
   45.8699989       3.74522774E-10
   45.9300003       5.01046704E-10
   45.9900017       6.33097741E-10
   46.0499992       7.73169140E-10
   46.1100006       9.21238308E-10
   46.1699982       1.07493436E-09
   46.2299995       1.23095201E-09
   46.2900009       1.38675860E-09
   46.3499985       1.54141122E-09
   46.4099998       1.69489212E-09
   46.4700012       1.84641846E-09
   46.5299988       1.99297245E-09
   46.5900002       2.12924856E-09
   46.6500015       2.24931873E-09
   46.7099991       2.34915154E-09
   46.7700005       2.42850073E-09
   46.8300018       2.49102294E-09
   46.8899994       2.54257082E-09
   46.9500008       2.58870880E-09
   47.0099983       2.63287880E-09
   47.0699997       2.67610867E-09
   47.1300011       2.71811151E-09
   47.1899986       2.75880563E-09
   47.2500000       2.79921664E-09
   47.3100014       2.84133073E-09
   47.3699989       2.88725110E-09
   47.4300003       2.93837998E-09
   47.4900017       2.99510794E-09
   47.5499992       3.05693293E-09
   47.6100006       3.12256332E-09
   47.6699982       3.18969895E-09
   47.7299995       3.25468363E-09
   47.7900009       3.31260863E-09
   47.8499985       3.35833183E-09
   47.9099998       3.38825368E-09
   47.9700012       3.40200068E-09
   48.0299988       3.40297168E-09
   48.0900002       3.39721340E-09
   48.1500015       3.39104256E-09
   48.2099991       3.38859119E-09
   48.2700005       3.39050077E-09
   48.3300018       3.39428663E-09
   48.3899994       3.39591266E-09
   48.4500008       3.39148776E-09
   48.5099983       3.37811290E-09
   48.5699997       3.35363115E-09
   48.6300011       3.31582450E-09
   48.6899986       3.26192140E-09
   48.7500000       3.18896931E-09
   48.8100014       3.09493631E-09
   48.8699989       2.97987635E-09
   48.9300003       2.84643575E-09
   48.9900017       2.69940958E-09
   49.0499992       2.54460208E-09
   49.1100006       2.38755993E-09
   49.1699982       2.23265562E-09
   49.2299995       2.08267448E-09
   49.2900009       1.93877980E-09
   49.3499985       1.80068227E-09
   49.4099998       1.66695702E-09
   49.4700012       1.53554702E-09
   49.5299988       1.40440659E-09
   49.5900002       1.27204047E-09
   49.6500015       1.13759901E-09
   49.7099991       1.00037245E-09
   49.7700005       8.58946581E-10
   49.8300018       7.10646819E-10
   49.8899994       5.51891477E-10
   49.9500008       3.79595883E-10
   50.0099983       1.93068603E-10
   50.0699997      -4.62391844E-12
   50.1300011      -2.06724582E-10
   50.1899986      -4.04477063E-10
   50.2500000      -5.89748861E-10
   50.3100014      -7.57367835E-10
   50.3699989      -9.06112241E-10
   50.4300003      -1.03803233E-09
   50.4900017      -1.15663878E-09
   50.5499992      -1.26495925E-09
   50.6100006      -1.36433176E-09