  -2.400000      0.0000000E+00
  -2.340000      0.0000000E+00
  -2.280000      0.0000000E+00
  -2.220000      0.0000000E+00
  -2.160000      0.0000000E+00
  -2.100000      0.0000000E+00
  -2.040000      0.0000000E+00
  -1.980000      0.0000000E+00
  -1.920000      1.8299322E-27
  -1.860000      2.1007708E-26
  -1.800000      1.1930223E-25
  -1.740000      4.4839603E-25
  -1.680000      1.2932116E-24
  -1.620000      3.2864935E-24
  -1.560000      8.2832004E-24
  -1.500000      2.0543372E-23
  -1.440000      4.3008113E-23
  -1.380000      5.4213355E-23
  -1.320000     -4.9607644E-23
  -1.260000     -5.2290755E-22
  -1.200000     -1.7155033E-21
  -1.140000     -3.6275590E-21
  -1.080000     -4.8671340E-21
  -1.020000     -1.3848857E-21
 -0.9600000      1.3417580E-20
 -0.9000000      4.4451565E-20
 -0.8400000      8.4598036E-20
 -0.7800000      1.0118772E-19
 -0.7200000      3.1265676E-20
 -0.6600000     -1.9466932E-19
 -0.6000000     -5.8565814E-19
 -0.5400000     -9.9379557E-19
 -0.4800000     -1.0518101E-18
 -0.4200000     -2.5024798E-19
 -0.3600000      1.7588019E-18
 -0.3000000      4.6695326E-18
 -0.2400000      7.0960822E-18
 -0.1800000      6.6546970E-18
 -0.1200000      9.5654866E-19
 -5.9999999E-02 -1.0518969E-17
  0.0000000E+00 -2.4467493E-17
  5.9999999E-02 -3.3217787E-17
  0.1200000     -2.7092494E-17
  0.1800000      6.9614616E-20
  0.2400000      4.4255324E-17
  0.3000000      8.7703413E-17
  0.3600000      1.0294101E-16
  0.4200000      6.5974510E-17
  0.4800000     -2.5703020E-17
  0.5400000     -1.4054164E-16
  0.6000000     -2.1753884E-16
  0.6600000     -1.9336787E-16
  0.7200000     -4.3882914E-17
  0.7800000      1.8228759E-16
  0.8400000      3.6510892E-16
  0.9000000      3.6413383E-16
  0.9600000      1.0550604E-16
   1.020000     -3.3955664E-16
   1.080000     -7.4215100E-16
   1.140000     -8.0465811E-16
   1.200000     -3.3220471E-16
   1.260000      5.9558772E-16
   1.320000      1.5664422E-15
   1.380000      1.9721959E-15
   1.440000      1.3240645E-15
   1.500000     -3.9119751E-16
   1.560000     -2.5255691E-15
   1.620000     -3.9297259E-15
   1.680000     -3.4768659E-15
   1.740000     -7.5196800E-16
   1.800000      3.4526516E-15
   1.860000      7.1873558E-15
   1.920000      8.0773570E-15
   1.980000      4.5228616E-15
   2.040000     -3.1660819E-15
   2.100000     -1.2335099E-14
   2.160000     -1.8668000E-14
   2.220000     -1.7914838E-14
   2.280000     -8.0397123E-15
   2.340000      9.1859512E-15
   2.400000      2.8049001E-14
   2.460000      4.0597923E-14
   2.520000      3.9759828E-14
   2.580000      2.2702634E-14
   2.640000     -7.0541611E-15
   2.700000     -3.9970041E-14
   2.760000     -6.3540814E-14
   2.820000     -6.7178169E-14
   2.880000     -4.7024843E-14
   2.940000     -8.5301283E-15
   3.000000      3.4725339E-14
   3.060000      6.5984415E-14
   3.120000      7.2321198E-14
   3.180000      5.0736467E-14
   3.240000      1.0353174E-14
   3.300000     -3.0841842E-14
   3.360000     -5.3821453E-14
   3.420000     -4.7622147E-14
   3.480000     -1.5329867E-14
   3.540000      2.6478799E-14
   3.600000      5.5363025E-14
   3.660000      5.4607069E-14
   3.720000      2.3120450E-14
   3.780000     -2.1941301E-14
   3.840000     -5.2380311E-14
   3.900000     -4.3661980E-14
   3.960000      9.5806330E-15
   4.020000      8.5463097E-14
   4.080000      1.3986158E-13
   4.140000      1.2436054E-13
   4.200000      1.0408819E-14
   4.260000     -1.9111984E-13
   4.320000     -4.2504374E-13
   4.380000     -6.0607758E-13
   4.440000     -6.4817672E-13
   4.500000     -4.9778053E-13
   4.560000     -1.5701733E-13
   4.620000      3.1355249E-13
   4.680000      8.1452797E-13
   4.740000      1.2414841E-12
   4.800000      1.5180187E-12
   4.860000      1.6127108E-12
   4.920000      1.5316751E-12
   4.980000      1.2901953E-12
   5.040000      8.7852078E-13
   5.100000      2.4273666E-13
   5.160000     -7.0201624E-13
   5.220000     -2.0217120E-12
   5.280000     -3.6907239E-12
   5.340000     -5.5254364E-12
   5.400000     -7.1587025E-12
   5.460000     -8.0804261E-12
   5.520000     -7.7471952E-12
   5.580000     -5.7361962E-12
   5.640000     -1.8969659E-12
   5.700000      3.5506999E-12
   5.760000      1.0008740E-11
   5.820000      1.6587001E-11
   5.880000      2.2252616E-11
   5.940000      2.5988801E-11
   6.000000      2.6910627E-11
   6.060000      2.4312490E-11
   6.120000      1.7664122E-11
   6.180000      6.6094300E-12
   6.240000     -8.9644030E-12
   6.300000     -2.8742338E-11
   6.360000     -5.1689562E-11
   6.420000     -7.5724864E-11
   6.480000     -9.7481190E-11
   6.540000     -1.1228466E-10
   6.600000     -1.1444472E-10
   6.660000     -9.7868880E-11
   6.720000     -5.6923872E-11
   6.780000      1.2609191E-11
   6.840000      1.1266827E-10
   6.900000      2.4229291E-10
   6.960000      3.9735001E-10
   7.020000      5.7061467E-10
   7.080000      7.5214507E-10
   7.140000      9.2985186E-10
   7.200000      1.0901663E-09
   7.260000      1.2187436E-09
   7.320000      1.3011950E-09
   7.380000      1.3238758E-09
   7.440000      1.2747773E-09
   7.500000      1.1445516E-09
   7.560000      9.2764019E-10
   7.620000      6.2341943E-10
   7.680000      2.3719707E-10
   7.740000     -2.1914838E-10
   7.800000     -7.2710477E-10
   7.860000     -1.2622218E-09
   7.920000     -1.7956487E-09
   7.980000     -2.2964690E-09
   8.040000     -2.7346247E-09
   8.100000     -3.0840779E-09
   8.160000     -3.3257530E-09
   8.220000     -3.4497838E-09
   8.280000     -3.4566638E-09
   8.340000     -3.3570686E-09
   8.400000     -3.1703580E-09
   8.460000     -2.9220215E-09
   8.520000     -2.6405305E-09
   8.580000     -2.3541564E-09
   8.640000     -2.0882815E-09
   8.700000     -1.8635480E-09
   8.760000     -1.6949528E-09
   8.820000     -1.5917386E-09
   8.880000     -1.5577686E-09
   8.940000     -1.5920391E-09
   9.000000     -1.6890978E-09
   9.060000     -1.8393392E-09
   9.120000     -2.0293613E-09
   9.180000     -2.2426827E-09
   9.240000     -2.4610933E-09
   9.300000     -2.6667073E-09
   9.360000     -2.8445020E-09
   9.420000     -2.9848253E-09
   9.480000     -3.0852061E-09
   9.540000     -3.1508309E-09
   9.600000     -3.1933300E-09
   9.660000     -3.2279530E-09
   9.720000     -3.2696892E-09
   9.780000     -3.3292686E-09
   9.840000     -3.4101098E-09
   9.900000     -3.5071015E-09
   9.960000     -3.6076686E-09
   10.02000     -3.6949224E-09
   10.08000     -3.7521111E-09
   10.14000     -3.7671670E-09
   10.20000     -3.7360817E-09
   10.26000     -3.6641814E-09
   10.32000     -3.5649879E-09
   10.38000     -3.4570915E-09
   10.44000     -3.3600656E-09
   10.50000     -3.2906970E-09
   10.56000     -3.2606267E-09
   10.62000     -3.2759266E-09
   10.68000     -3.3384073E-09
   10.74000     -3.4478091E-09
   10.80000     -3.6037513E-09
   10.86000     -3.8064836E-09
   10.92000     -4.0560502E-09
   10.98000     -4.3502335E-09
   11.04000     -4.6822288E-09
   11.10000     -5.0392677E-09
   11.16000     -5.4031353E-09
   11.22000     -5.7528959E-09
   11.28000     -6.0693091E-09
   11.34000     -6.3397270E-09
   11.40000     -6.5619634E-09
   11.46000     -6.7458039E-09
   11.52000     -6.9114745E-09
   11.58000     -7.0852626E-09
   11.64000     -7.2933504E-09
   11.70000     -7.5554780E-09
   11.76000     -7.8801570E-09
   11.82000     -8.2627194E-09
   11.88000     -8.6867225E-09
   11.94000     -9.1281942E-09
   12.00000     -9.5614316E-09
   12.06000     -9.9645945E-09
   12.12000     -1.0323458E-08
   12.18000     -1.0632341E-08
   12.24000     -1.0892222E-08
   12.30000     -1.1107002E-08
   12.36000     -1.1279529E-08
   12.42000     -1.1409023E-08
   12.48000     -1.1490958E-08
   12.54000     -1.1519466E-08
   12.60000     -1.1491301E-08
   12.66000     -1.1409658E-08
   12.72000     -1.1286164E-08
   12.78000     -1.1139893E-08
   12.84000     -1.0993370E-08
   12.90000     -1.0866668E-08
   12.96000     -1.0771537E-08
   13.02000     -1.0707575E-08
   13.08000     -1.0661992E-08
   13.14000     -1.0613284E-08
   13.20000     -1.0537917E-08
   13.26000     -1.0418058E-08
   13.32000     -1.0247994E-08
   13.38000     -1.0037210E-08
   13.44000     -9.8091109E-09
   13.50000     -9.5956745E-09
   13.56000     -9.4295567E-09
   13.62000     -9.3359196E-09
   13.68000     -9.3262642E-09
   13.74000     -9.3959001E-09
   13.80000     -9.5255448E-09
   13.86000     -9.6863202E-09
   13.92000     -9.8465085E-09
   13.98000     -9.9780273E-09
   14.04000     -1.0060930E-08
   14.10000     -1.0084959E-08
   14.16000     -1.0048258E-08
   14.22000     -9.9541779E-09
   14.28000     -9.8075894E-09
   14.34000     -9.6120827E-09
   14.40000     -9.3688870E-09
   14.46000     -9.0775991E-09
   14.52000     -8.7381249E-09
   14.58000     -8.3528597E-09
   14.64000     -7.9281115E-09
   14.70000     -7.4741946E-09
   14.76000     -7.0041137E-09
   14.82000     -6.5312737E-09
   14.88000     -6.0668786E-09
   14.94000     -5.6177423E-09
   15.00000     -5.1850106E-09
   15.06000     -4.7640709E-09
   15.12000     -4.3456714E-09
   15.18000     -3.9180827E-09
   15.24000     -3.4699816E-09
   15.30000     -2.9935527E-09
   15.36000     -2.4871807E-09
   15.42000     -1.9570392E-09
   15.48000     -1.4170342E-09
   15.54000     -8.8689761E-10
   15.60000     -3.8874448E-10
   15.66000      5.7129659E-11
   15.72000      4.3614845E-10
   15.78000      7.4205758E-10
   15.84000      9.7761588E-10
   15.90000      1.1533211E-09
   15.96000      1.2846585E-09
   16.02000      1.3886952E-09
   16.08000      1.4809081E-09
   16.14000      1.5729629E-09
   16.20000      1.6718351E-09
   16.26000      1.7803082E-09
   16.32000      1.8985542E-09
   16.38000      2.0262341E-09
   16.44000      2.1644031E-09
   16.50000      2.3165245E-09
   16.56000      2.4881235E-09
   16.62000      2.6850600E-09
   16.68000      2.9109546E-09
   16.74000      3.1647440E-09
   16.80000      3.4394805E-09
   16.86000      3.7231602E-09
   16.92000      4.0016266E-09
   16.98000      4.2627359E-09
   17.04000      4.5003046E-09
   17.10000      4.7162638E-09
   17.16000      4.9199729E-09
   17.22000      5.1246856E-09
   17.28000      5.3422777E-09
   17.34000      5.5780984E-09
   17.40000      5.8278631E-09
   17.46000      6.0778294E-09
   17.52000      6.3082992E-09
   17.58000      6.4992487E-09
   17.64000      6.6361063E-09
   17.70000      6.7136150E-09
   17.76000      6.7364305E-09
   17.82000      6.7163208E-09
   17.88000      6.6670554E-09
   17.94000      6.5989361E-09
   18.00000      6.5149766E-09
   18.06000      6.4101178E-09
   18.12000      6.2736651E-09
   18.18000      6.0939311E-09
   18.24000      5.8632330E-09
   18.30000      5.5812825E-09
   18.36000      5.2556359E-09
   18.42000      4.8990310E-09
   18.48000      4.5246282E-09
   18.54000      4.1410160E-09
   18.60000      3.7489247E-09
   18.66000      3.3410021E-09
   18.72000      2.9048233E-09
   18.78000      2.4281548E-09
   18.84000      1.9046347E-09
   18.90000      1.3379131E-09
   18.96000      7.4285494E-10
   19.02000      1.4346389E-10
   19.08000     -4.3168832E-10
   19.14000     -9.5496855E-10
   19.20000     -1.4043908E-09
   19.26000     -1.7662607E-09
   19.32000     -2.0353641E-09
   19.38000     -2.2132385E-09
   19.44000     -2.3056728E-09
   19.50000     -2.3206737E-09
   19.56000     -2.2676923E-09
   19.62000     -2.1581821E-09
   19.68000     -2.0068551E-09
   19.74000     -1.8326370E-09
   19.80000     -1.6584404E-09
   19.86000     -1.5094063E-09
   19.92000     -1.4099659E-09
   19.98000     -1.3806492E-09
   20.04000     -1.4357545E-09
   20.10000     -1.5827257E-09
   20.16000     -1.8234644E-09
   20.22000     -2.1570905E-09
   20.28000     -2.5831242E-09
   20.34000     -3.1038956E-09
   20.40000     -3.7252506E-09
   20.46000     -4.4551833E-09
   20.52000     -5.3007394E-09
   20.58000     -6.2640937E-09
   20.64000     -7.3390378E-09
   20.70000     -8.5090086E-09
   20.76000     -9.7474029E-09
   20.82000     -1.1020252E-08
   20.88000     -1.2290656E-08
   20.94000     -1.3523842E-08
   21.00000     -1.4691553E-08
   21.06000     -1.5774635E-08
   21.12000     -1.6763307E-08
   21.18000     -1.7655260E-08
   21.24000     -1.8452361E-08
   21.30000     -1.9157111E-08
   21.36000     -1.9769935E-08
   21.42000     -2.0288036E-08
   21.48000     -2.0706020E-08
   21.54000     -2.1017948E-08
   21.60000     -2.1220146E-08
   21.66000     -2.1313848E-08
   21.72000     -2.1306944E-08
   21.78000     -2.1214117E-08
   21.84000     -2.1055266E-08
   21.90000     -2.0852337E-08
   21.96000     -2.0625338E-08
   22.02000     -2.0388473E-08
   22.08000     -2.0147503E-08
   22.14000     -1.9899108E-08
   22.20000     -1.9632434E-08
   22.26000     -1.9332351E-08
   22.32000     -1.8983407E-08
   22.38000     -1.8573324E-08
   22.44000     -1.8095095E-08
   22.50000     -1.7547343E-08
   22.56000     -1.6933187E-08
   22.62000     -1.6258397E-08
   22.68000     -1.5529631E-08
   22.74000     -1.4753493E-08
   22.80000     -1.3936635E-08
   22.86000     -1.3086727E-08
   22.92000     -1.2213700E-08
   22.98000     -1.1330552E-08
   23.04000     -1.0453064E-08
   23.10000     -9.5982049E-09
   23.16000     -8.7814582E-09
   23.22000     -8.0139140E-09
   23.28000     -7.3001760E-09
   23.34000     -6.6380803E-09
   23.40000     -6.0206169E-09
   23.46000     -5.4396434E-09
   23.52000     -4.8902176E-09
   23.58000     -4.3739945E-09
   23.64000     -3.9003631E-09
   23.70000     -3.4847591E-09
   23.76000     -3.1445637E-09
   23.82000     -2.8938643E-09
   23.88000     -2.7387521E-09
   23.94000     -2.6746754E-09
   24.00000     -2.6867526E-09
   24.06000     -2.7530815E-09
   24.12000     -2.8502174E-09
   24.18000     -2.9593246E-09
   24.24000     -3.0712164E-09
   24.30000     -3.1886693E-09
   24.36000     -3.3250735E-09
   24.42000     -3.4995453E-09
   24.48000     -3.7298111E-09
   24.54000     -4.0250456E-09
   24.60000     -4.3810702E-09
   24.66000     -4.7796593E-09
   24.72000     -5.1923990E-09
   24.78000     -5.5879772E-09
   24.84000     -5.9406422E-09
   24.90000     -6.2372023E-09
   24.96000     -6.4804939E-09
   25.02000     -6.6884747E-09
   25.08000     -6.8894606E-09
   25.14000     -7.1151138E-09
   25.20000     -7.3932762E-09
   25.26000     -7.7425772E-09
   25.32000     -8.1700922E-09
   25.38000     -8.6723793E-09
   25.44000     -9.2392396E-09
   25.50000     -9.8587813E-09
   25.56000     -1.0521982E-08
   25.62000     -1.1225156E-08
   25.68000     -1.1969481E-08
   25.74000     -1.2757804E-08
   25.80000     -1.3590028E-08
   25.86000     -1.4458881E-08
   25.92000     -1.5347762E-08
   25.98000     -1.6231516E-08
   26.04000     -1.7079868E-08
   26.10000     -1.7862247E-08
   26.16000     -1.8552321E-08
   26.22000     -1.9130789E-08
   26.28000     -1.9585681E-08
   26.34000     -1.9910292E-08
   26.40000     -2.0099687E-08
   26.46000     -2.0147029E-08
   26.52000     -2.0041053E-08
   26.58000     -1.9765602E-08
   26.64000     -1.9301565E-08
   26.70000     -1.8630733E-08
   26.76000     -1.7740428E-08
   26.82000     -1.6627402E-08
   26.88000     -1.5299515E-08
   26.94000     -1.3774542E-08
   27.00000     -1.2076360E-08
   27.06000     -1.0229896E-08
   27.12000     -8.2566380E-09
   27.18000     -6.1723506E-09
   27.24000     -3.9876684E-09
   27.30000     -1.7110646E-09
   27.36000      6.4727879E-10
   27.42000      3.0725311E-09
   27.48000      5.5445888E-09
   27.54000      8.0401881E-09
   27.60000      1.0537042E-08
   27.66000      1.3018439E-08
   27.72000      1.5476475E-08
   27.78000      1.7912466E-08
   27.84000      2.0334015E-08
   27.90000      2.2749342E-08
   27.96000      2.5160510E-08
   28.02000      2.7557755E-08
   28.08000      2.9916855E-08
   28.14000      3.2200671E-08
   28.20000      3.4364533E-08
   28.26000      3.6363840E-08
   28.32000      3.8161435E-08
   28.38000      3.9732363E-08
   28.44000      4.1064538E-08
   28.50000      4.2155445E-08
   28.56000      4.3006210E-08
   28.62000      4.3615394E-08
   28.68000      4.3974882E-08
   28.74000      4.4069267E-08
   28.80000      4.3879030E-08
   28.86000      4.3386347E-08
   28.92000      4.2581348E-08
   28.98000      4.1466667E-08
   29.04000      4.0058382E-08
   29.10000      3.8382833E-08
   29.16000      3.6470290E-08
   29.22000      3.4347494E-08
   29.28000      3.2031856E-08
   29.34000      2.9529399E-08
   29.40000      2.6837339E-08
   29.46000      2.3950415E-08
   29.52000      2.0868676E-08
   29.58000      1.7603810E-08
   29.64000      1.4181781E-08
   29.70000      1.0640809E-08
   29.76000      7.0255943E-09
   29.82000      3.3799410E-09
   29.88000     -2.5958508E-10
   29.94000     -3.8668273E-09
   30.00000     -7.4251387E-09
   30.06000     -1.0922983E-08
   30.12000     -1.4347822E-08
   30.18000     -1.7680652E-08
   30.24000     -2.0893321E-08
   30.30000     -2.3949847E-08
   30.36000     -2.6811506E-08
   30.42000     -2.9444161E-08
   30.48000     -3.1825230E-08
   30.54000     -3.3947824E-08
   30.60000     -3.5820289E-08
   30.66000     -3.7461096E-08
   30.72000     -3.8890605E-08
   30.78000     -4.0122426E-08
   30.84000     -4.1157268E-08
   30.90000     -4.1981309E-08
   30.96000     -4.2569656E-08
   31.02000     -4.2893646E-08
   31.08000     -4.2929727E-08
   31.14000     -4.2667111E-08
   31.20000     -4.2111999E-08
   31.26000     -4.1287258E-08
   31.32000     -4.0227906E-08
   31.38000     -3.8974008E-08
   31.44000     -3.7563353E-08
   31.50000     -3.6026229E-08
   31.56000     -3.4383813E-08
   31.62000     -3.2650302E-08
   31.68000     -3.0837494E-08
   31.74000     -2.8959700E-08
   31.80000     -2.7036711E-08
   31.86000     -2.5093478E-08
   31.92000     -2.3156694E-08
   31.98000     -2.1249665E-08
   32.04000     -1.9387688E-08
   32.10000     -1.7575911E-08
   32.16000     -1.5810649E-08
   32.22000     -1.4083809E-08
   32.28000     -1.2388941E-08
   32.34000     -1.0726891E-08
   32.40000     -9.1091508E-09
   32.46000     -7.5578352E-09
   32.52000     -6.1022720E-09
   32.58000     -4.7733231E-09
   32.64000     -3.5973371E-09
   32.70000     -2.5918236E-09
   32.76000     -1.7643768E-09
   32.82000     -1.1152097E-09
   32.88000     -6.4220929E-10
   32.94000     -3.4632672E-10
   33.00000     -2.3484248E-10
   33.06000     -3.2083197E-10
   33.12000     -6.1873828E-10
   33.18000     -1.1376601E-09
   33.24000     -1.8750441E-09
   33.30000     -2.8134233E-09
   33.36000     -3.9216927E-09
   33.42000     -5.1606599E-09
   33.48000     -6.4909824E-09
   33.54000     -7.8807636E-09
   33.60000     -9.3102379E-09
   33.66000     -1.0772060E-08
   33.72000     -1.2267225E-08
   33.78000     -1.3798123E-08
   33.84000     -1.5361158E-08
   33.90000     -1.6941561E-08
   33.96000     -1.8512290E-08
   34.02000     -2.0037557E-08
   34.08000     -2.1479895E-08
   34.14000     -2.2808310E-08
   34.20000     -2.4004592E-08
   34.26000     -2.5065354E-08
   34.32000     -2.5998926E-08
   34.38000     -2.6818109E-08
   34.44000     -2.7531312E-08
   34.50000     -2.8135210E-08
   34.56000     -2.8611540E-08
   34.62000     -2.8929277E-08
   34.68000     -2.9051604E-08
   34.74000     -2.8945715E-08
   34.80000     -2.8592517E-08
   34.86000     -2.7993307E-08
   34.92000     -2.7171350E-08
   34.98000     -2.6167532E-08
   35.04000     -2.5031190E-08
   35.10000     -2.3808699E-08
   35.16000     -2.2533429E-08
   35.22000     -2.1220371E-08
   35.28000     -1.9867322E-08
   35.34000     -1.8462185E-08
   35.40000     -1.6993617E-08
   35.46000     -1.5461044E-08
   35.52000     -1.3880246E-08
   35.58000     -1.2282592E-08
   35.64000     -1.0708437E-08
   35.70000     -9.1973353E-09
   35.76000     -7.7787332E-09
   35.82000     -6.4663683E-09
   35.88000     -5.2581210E-09
   35.94000     -4.1411599E-09
   36.00000     -3.1006195E-09
   36.06000     -2.1290274E-09
   36.12000     -1.2334639E-09
   36.18000     -4.3796106E-10
   36.24000      2.2014980E-10
   36.30000      6.9946232E-10
   36.36000      9.6689323E-10
   36.42000      1.0093910E-09
   36.48000      8.4078960E-10
   36.54000      5.0086230E-10
   36.60000      4.6182710E-11
   36.66000     -4.6461865E-10
   36.72000     -9.8638275E-10
   36.78000     -1.4984083E-09
   36.84000     -2.0070607E-09
   36.90000     -2.5390932E-09
   36.96000     -3.1280156E-09
   37.02000     -3.7982004E-09
   37.08000     -4.5521413E-09
   37.14000     -5.3651799E-09
   37.20000     -6.1895853E-09
   37.26000     -6.9668404E-09
   37.32000     -7.6442772E-09
   37.38000     -8.1905984E-09
   37.44000     -8.6048653E-09
   37.50000     -8.9153644E-09
   37.56000     -9.1680237E-09
   37.62000     -9.4076968E-09
   37.68000     -9.6584793E-09
   37.74000     -9.9100488E-09
   37.80000     -1.0115333E-08
   37.86000     -1.0201076E-08
   37.92000     -1.0088345E-08
   37.98000     -9.7164552E-09
   38.04000     -9.0624059E-09
   38.10000     -8.1493150E-09
   38.16000     -7.0409372E-09
   38.22000     -5.8238268E-09
   38.28000     -4.5826907E-09
   38.34000     -3.3765757E-09
   38.40000     -2.2232927E-09
   38.46000     -1.0969450E-09
   38.52000      6.0635559E-11
   38.58000      1.3181208E-09
   38.64000      2.7295508E-09
   38.70000      4.3140482E-09
   38.76000      6.0471885E-09
   38.82000      7.8670768E-09
   38.88000      9.6932400E-09
   38.94000      1.1452010E-08
   39.00000      1.3099735E-08
   39.06000      1.4635802E-08
   39.12000      1.6100916E-08
   39.18000      1.7561105E-08
   39.24000      1.9082773E-08
   39.30000      2.0707246E-08
   39.36000      2.2433381E-08
   39.42000      2.4214241E-08
   39.48000      2.5969182E-08
   39.54000      2.7607582E-08
   39.60000      2.9056455E-08
   39.66000      3.0282756E-08
   39.72000      3.1302672E-08
   39.78000      3.2174533E-08
   39.84000      3.2977535E-08
   39.90000      3.3783479E-08
   39.96000      3.4631274E-08
   40.02000      3.5513196E-08
   40.08000      3.6377664E-08
   40.14000      3.7147505E-08
   40.20000      3.7747274E-08
   40.26000      3.8129972E-08
   40.32000      3.8294022E-08
   40.38000      3.8284821E-08
   40.44000      3.8180687E-08
   40.50000      3.8068130E-08
   40.56000      3.8014985E-08
   40.62000      3.8050359E-08
   40.68000      3.8157889E-08
   40.74000      3.8284476E-08
   40.80000      3.8361275E-08
   40.86000      3.8329752E-08
   40.92000      3.8163812E-08
   40.98000      3.7880159E-08
   41.04000      3.7533074E-08
   41.10000      3.7195253E-08
   41.16000      3.6931247E-08
   41.22000      3.6772800E-08
   41.28000      3.6704943E-08
   41.34000      3.6667828E-08
   41.40000      3.6573887E-08
   41.46000      3.6334562E-08
   41.52000      3.5887524E-08
   41.58000      3.5215354E-08
   41.64000      3.4349615E-08
   41.70000      3.3359250E-08
   41.76000      3.2327481E-08
   41.82000      3.1324944E-08
   41.88000      3.0387909E-08
   41.94000      2.9508625E-08
   42.00000      2.8640569E-08
   42.06000      2.7716590E-08
   42.12000      2.6673593E-08
   42.18000      2.5475391E-08
   42.24000      2.4126173E-08
   42.30000      2.2670307E-08
   42.36000      2.1178955E-08
   42.42000      1.9728391E-08
   42.48000      1.8377422E-08
   42.54000      1.7151358E-08
   42.60000      1.6037371E-08
   42.66000      1.4992130E-08
   42.72000      1.3958608E-08
   42.78000      1.2886179E-08
   42.84000      1.1747475E-08
   42.90000      1.0546771E-08
   42.96000      9.3176107E-09
   43.02000      8.1108675E-09
   43.08000      6.9774448E-09
   43.14000      5.9514793E-09
   43.20000      5.0396642E-09
   43.26000      4.2202188E-09
   43.32000      3.4517260E-09
   43.38000      2.6886844E-09
   43.44000      1.8983330E-09
   43.50000      1.0729565E-09
   43.56000      2.3356114E-10
   43.62000     -5.7610217E-10
   43.68000     -1.3029139E-09
   43.74000     -1.9005466E-09
   43.80000     -2.3431459E-09
   43.86000     -2.6323528E-09
   43.92000     -2.7958027E-09
   43.98000     -2.8779239E-09
   44.04000     -2.9261180E-09
   44.10000     -2.9766183E-09
   44.16000     -3.0442748E-09
   44.22000     -3.1192251E-09
   44.28000     -3.1712721E-09
   44.34000     -3.1604015E-09
   44.40000     -3.0499350E-09
   44.46000     -2.8180225E-09
   44.52000     -2.4638209E-09
   44.58000     -2.0066062E-09
   44.64000     -1.4785387E-09
   44.70000     -9.1392538E-10
   44.76000     -3.3882613E-10
   44.82000      2.3557301E-10
   44.88000      8.1396118E-10
   44.94000      1.4124550E-09
   45.00000      2.0506297E-09
   45.06000      2.7428930E-09
   45.12000      3.4920318E-09
   45.18000      4.2869051E-09
   45.24000      5.1049200E-09
   45.30000      5.9184537E-09
   45.36000      6.7031851E-09
   45.42000      7.4456263E-09
   45.48000      8.1473157E-09
   45.54000      8.8241068E-09
   45.60000      9.5005870E-09
   45.66000      1.0201334E-08
   45.72000      1.0941850E-08
   45.78000      1.1722147E-08
   45.84000      1.2525048E-08
   45.90000      1.3319634E-08
   45.96000      1.4068606E-08
   46.02000      1.4737152E-08
   46.08000      1.5300696E-08
   46.14000      1.5749412E-08
   46.20000      1.6088514E-08
   46.26000      1.6334530E-08
   46.32000      1.6508862E-08
   46.38000      1.6630546E-08
   46.44000      1.6710359E-08
   46.50000      1.6747947E-08
   46.56000      1.6732789E-08
   46.62000      1.6648549E-08
   46.68000      1.6479161E-08
   46.74000      1.6214468E-08
   46.80000      1.5853301E-08
   46.86000      1.5402987E-08
   46.92000      1.4875599E-08
   46.98000      1.4282563E-08
   47.04000      1.3629720E-08
   47.10000      1.2914702E-08
   47.16000      1.2127467E-08
   47.22000      1.1253674E-08
   47.28000      1.0279708E-08
   47.34000      9.1977066E-09
   47.40000      8.0091329E-09
   47.46000      6.7259287E-09
   47.52000      5.3690425E-09
   47.58000      3.9648045E-09
   47.64000      2.5402325E-09
   47.70000      1.1186181E-09
   47.76000     -2.8338001E-10
   47.82000     -1.6564341E-09
   47.88000     -2.9971363E-09
   47.94000     -4.3053108E-09
   48.00000     -5.5812452E-09
   48.06000     -6.8238499E-09
   48.12000     -8.0301250E-09
   48.18000     -9.1955936E-09
   48.24000     -1.0314903E-08
   48.30000     -1.1381898E-08
   48.36000     -1.2388948E-08
   48.42000     -1.3325937E-08
   48.48000     -1.4179745E-08
   48.54000     -1.4934910E-08
   48.60000     -1.5575734E-08
   48.66000     -1.6089382E-08
   48.72000     -1.6469096E-08
   48.78000     -1.6716429E-08
   48.84000     -1.6841701E-08
   48.90000     -1.6862392E-08
   48.96000     -1.6799804E-08
   49.02000     -1.6674869E-08
   49.08000     -1.6504240E-08
   49.14000     -1.6297758E-08
   49.20000     -1.6057990E-08
   49.26000     -1.5781843E-08
   49.32000     -1.5463595E-08
   49.38000     -1.5098152E-08
   49.44000     -1.4683325E-08
   49.50000     -1.4220305E-08
   49.56000     -1.3712371E-08
   49.62000     -1.3162560E-08
   49.68000     -1.2571568E-08
   49.74000     -1.1937019E-08
   49.80000     -1.1254680E-08
   49.86000     -1.0521272E-08
   49.92000     -9.7378363E-09
   49.98000     -8.9121501E-09
   50.04000     -8.0589766E-09
   50.10000     -7.1976012E-09
   50.16000     -6.3471250E-09
   50.22000     -5.5208638E-09
   50.28000     -4.7216986E-09
   50.34000     -3.9400678E-09
   50.40000     -3.1555498E-09
   50.46000     -2.3418156E-09
   50.52000     -1.4735875E-09
   50.58000     -5.3347438E-10
   50.64000      4.8349397E-10
   50.70000      1.5691173E-09
   50.76000      2.7053420E-09
   50.82000      3.8705954E-09
   50.88000      5.0471098E-09
   50.94000      6.2269341E-09
   51.00000      7.4147808E-09
   51.06000      8.6269862E-09
   51.12000      9.8871631E-09
   51.18000      1.1220287E-08
   51.24000      1.2647437E-08
   51.30000      1.4183110E-08
   51.36000      1.5835965E-08
   51.42000      1.7612431E-08
   51.48000      1.9521361E-08
   51.54000      2.1577454E-08
   51.60000      2.3801606E-08
   51.66000      2.6217768E-08
   51.72000      2.8847486E-08
   51.78000      3.1704477E-08
   51.84000      3.4791757E-08
   51.90000      3.8102833E-08
   51.96000      4.1626780E-08
   52.02000      4.5355275E-08
   52.08000      4.9288712E-08
   52.14000      5.3438789E-08
   52.20000      5.7826153E-08
   52.26000      6.2473454E-08
   52.32000      6.7395817E-08
   52.38000      7.2591554E-08
   52.44000      7.8036287E-08
   52.50000      8.3682274E-08
   52.56000      8.9463491E-08
   52.62000      9.5305282E-08
   52.68000      1.0113519E-07
   52.74000      1.0689157E-07
   52.80000      1.1252654E-07
   52.86000      1.1800157E-07
   52.92000      1.2327709E-07
   52.98000      1.2829908E-07
   53.04000      1.3298788E-07
   53.10000      1.3723297E-07
   53.16000      1.4089603E-07
   53.22000      1.4382124E-07
   53.28000      1.4584936E-07
   53.34000      1.4683079E-07
   53.40000      1.4663384E-07
   53.46000      1.4514575E-07
   53.52000      1.4226720E-07
   53.58000      1.3790240E-07
   53.64000      1.3194875E-07
   53.70000      1.2428940E-07
   53.76000      1.1479170E-07
   53.82000      1.0331209E-07
   53.88000      8.9706674E-08
   53.94000      7.3844248E-08
   54.00000      5.5618006E-08
   54.06000      3.4952659E-08
   54.12000      1.1805055E-08
   54.18000     -1.3840830E-08
   54.24000     -4.1981863E-08
   54.30000     -7.2603157E-08
   54.36000     -1.0568179E-07
   54.42000     -1.4118584E-07
   54.48000     -1.7906932E-07
   54.54000     -2.1926532E-07
   54.60000     -2.6167939E-07
   54.66000     -3.0618551E-07
   54.72000     -3.5262548E-07
   54.78000     -4.0081181E-07
   54.84000     -4.5053346E-07
   54.90000     -5.0156285E-07
   54.96000     -5.5366223E-07
   55.02000     -6.0658664E-07
   55.08000     -6.6008397E-07
   55.14000     -7.1389150E-07
   55.20000     -7.6773188E-07
   55.26000     -8.2131157E-07
   55.32000     -8.7432278E-07
   55.38000     -9.2645041E-07
   55.44000     -9.7738052E-07
   55.50000     -1.0268078E-06
   55.56000     -1.0744401E-06